 Entering Gaussian System, Link 0=g16
 Initial command:
 /public/software/apps/Gaussian/g16/l1.exe "/public/home/CTY_HG/tmp/Gau-129957.inp" -scrdir="/public/home/CTY_HG/tmp/"
 Entering Link 1 = /public/software/apps/Gaussian/g16/l1.exe PID=    129958.
  
 Copyright (c) 1988-2019, Gaussian, Inc.  All Rights Reserved.
  
 This is part of the Gaussian(R) 16 program.  It is based on
 the Gaussian(R) 09 system (copyright 2009, Gaussian, Inc.),
 the Gaussian(R) 03 system (copyright 2003, Gaussian, Inc.),
 the Gaussian(R) 98 system (copyright 1998, Gaussian, Inc.),
 the Gaussian(R) 94 system (copyright 1995, Gaussian, Inc.),
 the Gaussian 92(TM) system (copyright 1992, Gaussian, Inc.),
 the Gaussian 90(TM) system (copyright 1990, Gaussian, Inc.),
 the Gaussian 88(TM) system (copyright 1988, Gaussian, Inc.),
 the Gaussian 86(TM) system (copyright 1986, Carnegie Mellon
 University), and the Gaussian 82(TM) system (copyright 1983,
 Carnegie Mellon University). Gaussian is a federally registered
 trademark of Gaussian, Inc.
  
 This software contains proprietary and confidential information,
 including trade secrets, belonging to Gaussian, Inc.
  
 This software is provided under written license and may be
 used, copied, transmitted, or stored only in accord with that
 written license.
  
 The following legend is applicable only to US Government
 contracts under FAR:
  
                    RESTRICTED RIGHTS LEGEND
  
 Use, reproduction and disclosure by the US Government is
 subject to restrictions as set forth in subparagraphs (a)
 and (c) of the Commercial Computer Software - Restricted
 Rights clause in FAR 52.227-19.
  
 Gaussian, Inc.
 340 Quinnipiac St., Bldg. 40, Wallingford CT 06492
  
  
 ---------------------------------------------------------------
 Warning -- This program may not be used in any manner that
 competes with the business of Gaussian, Inc. or will provide
 assistance to any competitor of Gaussian, Inc.  The licensee
 of this program is prohibited from giving any competitor of
 Gaussian, Inc. access to this program.  By using this program,
 the user acknowledges that Gaussian, Inc. is engaged in the
 business of creating and licensing software in the field of
 computational chemistry and represents and warrants to the
 licensee that it is not a competitor of Gaussian, Inc. and that
 it will not use this program in any manner prohibited above.
 ---------------------------------------------------------------
  

 Cite this work as:
 Gaussian 16, Revision C.01,
 M. J. Frisch, G. W. Trucks, H. B. Schlegel, G. E. Scuseria, 
 M. A. Robb, J. R. Cheeseman, G. Scalmani, V. Barone, 
 G. A. Petersson, H. Nakatsuji, X. Li, M. Caricato, A. V. Marenich, 
 J. Bloino, B. G. Janesko, R. Gomperts, B. Mennucci, H. P. Hratchian, 
 J. V. Ortiz, A. F. Izmaylov, J. L. Sonnenberg, D. Williams-Young, 
 F. Ding, F. Lipparini, F. Egidi, J. Goings, B. Peng, A. Petrone, 
 T. Henderson, D. Ranasinghe, V. G. Zakrzewski, J. Gao, N. Rega, 
 G. Zheng, W. Liang, M. Hada, M. Ehara, K. Toyota, R. Fukuda, 
 J. Hasegawa, M. Ishida, T. Nakajima, Y. Honda, O. Kitao, H. Nakai, 
 T. Vreven, K. Throssell, J. A. Montgomery, Jr., J. E. Peralta, 
 F. Ogliaro, M. J. Bearpark, J. J. Heyd, E. N. Brothers, K. N. Kudin, 
 V. N. Staroverov, T. A. Keith, R. Kobayashi, J. Normand, 
 K. Raghavachari, A. P. Rendell, J. C. Burant, S. S. Iyengar, 
 J. Tomasi, M. Cossi, J. M. Millam, M. Klene, C. Adamo, R. Cammi, 
 J. W. Ochterski, R. L. Martin, K. Morokuma, O. Farkas, 
 J. B. Foresman, and D. J. Fox, Gaussian, Inc., Wallingford CT, 2019.
 
 ******************************************
 Gaussian 16:  ES64L-G16RevC.01  3-Jul-2019
                 2-Nov-2023 
 ******************************************
 %nprocshared=32
 Will use up to   32 processors via shared memory.
 %mem=100GB
 ---------------
 # def2tzvp m06l
 ---------------
 1/38=1,172=1/1;
 2/12=2,17=6,18=5,40=1/2;
 3/5=44,7=101,11=2,25=1,30=1,74=-53/1,2,3;
 4//1;
 5/5=2,38=5/2;
 6/7=2,8=2,9=2,10=2,28=1/1;
 99/5=1,9=1/99;
 -------------------
 Title Card Required
 -------------------
 Symbolic Z-matrix:
 Charge =  0 Multiplicity = 1
 C                    -1.04439   1.39329  -0.08029 
 O                    -0.14507   2.15977  -0.85554 
 C                     0.95858   2.40167  -0.01449 
 C                     1.26642   1.05348   0.64209 
 H                     1.7806    2.79853  -0.62702 
 H                     0.70934   3.16593   0.75197 
 H                     1.77011   1.20926   1.61132 
 C                    -0.16998   0.51085   0.86544 
 C                    -0.52864  -0.92826   0.49376 
 H                    -0.45759  -1.64078   1.32918 
 C                    -1.94519  -0.84664  -0.07847 
 O                    -2.17027  -2.00987  -0.85398 
 H                    -3.07506  -1.974    -1.1834 
 C                     2.1715    0.18929  -0.22822 
 H                     3.00935   0.81002  -0.59139 
 H                     1.63153  -0.11158  -1.14409 
 H                    -1.6859    2.07789   0.51356 
 C                    -2.99821  -0.73554   1.01523 
 H                    -4.00511  -0.62901   0.58192 
 H                    -2.99481  -1.63474   1.64688 
 H                    -2.83552   0.13768   1.66416 
 C                    -1.86887   0.43576  -0.92026 
 H                    -2.85521   0.82742  -1.21213 
 H                    -1.31104   0.21013  -1.84178 
 H                    -0.46176   0.70036   1.91068 
 H                     0.10823  -1.31793  -0.31443 
 C                     2.74613  -1.02804   0.4789 
 H                     3.39399  -0.68326   1.30405 
 H                     1.94092  -1.5962    0.97345 
 C                     3.52408  -1.94386  -0.4425 
 H                     2.88118  -2.35205  -1.2371 
 H                     4.34898  -1.41162  -0.93986 
 H                     3.96184  -2.79727   0.09305 
 
                          Input orientation:                          
 ---------------------------------------------------------------------
 Center     Atomic      Atomic             Coordinates (Angstroms)
 Number     Number       Type             X           Y           Z
 ---------------------------------------------------------------------
      1          6           0       -1.044394    1.393290   -0.080286
      2          8           0       -0.145065    2.159771   -0.855544
      3          6           0        0.958584    2.401666   -0.014493
      4          6           0        1.266417    1.053477    0.642090
      5          1           0        1.780601    2.798526   -0.627024
      6          1           0        0.709342    3.165931    0.751965
      7          1           0        1.770107    1.209260    1.611324
      8          6           0       -0.169978    0.510853    0.865442
      9          6           0       -0.528636   -0.928258    0.493760
     10          1           0       -0.457588   -1.640782    1.329177
     11          6           0       -1.945190   -0.846639   -0.078470
     12          8           0       -2.170265   -2.009867   -0.853977
     13          1           0       -3.075057   -1.974002   -1.183404
     14          6           0        2.171504    0.189291   -0.228224
     15          1           0        3.009346    0.810022   -0.591394
     16          1           0        1.631527   -0.111579   -1.144090
     17          1           0       -1.685900    2.077888    0.513560
     18          6           0       -2.998214   -0.735536    1.015228
     19          1           0       -4.005108   -0.629009    0.581922
     20          1           0       -2.994813   -1.634736    1.646884
     21          1           0       -2.835519    0.137675    1.664157
     22          6           0       -1.868872    0.435758   -0.920261
     23          1           0       -2.855212    0.827418   -1.212128
     24          1           0       -1.311038    0.210127   -1.841782
     25          1           0       -0.461761    0.700364    1.910675
     26          1           0        0.108233   -1.317926   -0.314434
     27          6           0        2.746126   -1.028042    0.478904
     28          1           0        3.393993   -0.683256    1.304051
     29          1           0        1.940924   -1.596201    0.973450
     30          6           0        3.524078   -1.943862   -0.442497
     31          1           0        2.881180   -2.352051   -1.237095
     32          1           0        4.348982   -1.411623   -0.939864
     33          1           0        3.961843   -2.797269    0.093048
 ---------------------------------------------------------------------
                    Distance matrix (angstroms):
                    1          2          3          4          5
     1  C    0.000000
     2  O    1.413262   0.000000
     3  C    2.243451   1.408517   0.000000
     4  C    2.444821   2.336466   1.530842   0.000000
     5  H    3.202219   2.041671   1.099274   2.218159   0.000000
     6  H    2.628781   2.080013   1.110712   2.187434   1.784431
     7  H    3.288895   3.264474   2.173403   1.103352   2.745192
     8  C    1.561314   2.383557   2.371310   1.551631   3.356436
     9  C    2.446451   3.391706   3.682192   2.677964   4.525224
    10  H    3.396545   4.394870   4.489140   3.271592   5.342627
    11  C    2.414274   3.589261   4.357463   3.800535   5.241150
    12  O    3.667105   4.635442   5.473212   4.840772   6.227479
    13  H    4.084007   5.077443   6.064906   5.598790   6.831105
    14  C    3.437077   3.105288   2.532086   1.524286   2.668324
    15  H    4.127256   3.441207   2.659280   2.149082   2.337784
    16  H    3.249133   2.898028   2.836414   2.163585   2.959441
    17  H    1.110341   2.062843   2.716057   3.127637   3.719796
    18  C    3.090221   4.474712   5.153505   4.639707   6.166333
    19  H    3.646099   4.974287   5.846276   5.533837   6.832567
    20  H    3.994520   5.364839   5.889148   5.137527   6.901380
    21  H    2.797817   4.204320   4.726387   4.325412   5.799845
    22  C    1.517297   2.438836   3.560859   3.557043   4.357443
    23  H    2.209149   3.040923   4.296234   4.525158   5.071329
    24  H    2.138654   2.476544   3.645958   3.677517   4.211137
    25  H    2.187129   3.143586   2.935657   2.172693   3.983765
    26  H    2.955345   3.528645   3.827326   2.807112   4.454178
    27  C    4.532503   4.505762   3.898929   2.559080   4.098529
    28  H    5.091926   5.027085   4.145663   2.825069   4.295916
    29  H    4.354255   4.669464   4.233670   2.754188   4.679834
    30  C    5.669102   5.520237   5.064441   3.906073   5.056086
    31  H    5.547605   5.446125   5.271523   4.211463   5.302066
    32  H    6.139619   5.740943   5.185777   4.252235   4.941640
    33  H    6.530945   6.506825   6.005002   4.732337   6.048904
                    6          7          8          9         10
     6  H    0.000000
     7  H    2.385850   0.000000
     8  C    2.799200   2.192725   0.000000
     9  C    4.285049   3.331989   1.528994   0.000000
    10  H    4.979899   3.628357   2.219753   1.100300   0.000000
    11  C    4.882303   4.570072   2.425929   1.529946   2.196609
    12  O    6.136780   5.653938   3.648504   2.383531   2.799223
    13  H    6.669801   6.435781   4.337252   3.223464   3.643521
    14  C    3.458189   2.141353   2.604236   3.010138   3.561852
    15  H    3.555972   2.558724   3.509982   4.088581   4.659900
    16  H    3.897117   3.058779   2.769668   2.831223   3.580491
    17  H    2.641564   3.728751   2.208493   3.221268   4.000311
    18  C    5.388573   5.184057   3.094324   2.531380   2.715293
    19  H    6.054463   6.147521   4.010971   3.490441   3.763904
    20  H    6.129278   5.549238   3.632340   2.812621   2.557046
    21  H    4.750628   4.728940   2.807546   2.797812   2.988256
    22  C    4.110641   4.499933   2.465890   2.378282   3.371011
    23  H    4.693863   5.432427   3.409838   3.377189   4.277715
    24  H    4.421113   4.734518   2.953221   2.713453   3.769512
    25  H    2.965318   2.308640   1.101619   2.159752   2.412286
    26  H    4.647958   3.585671   2.194070   1.100282   1.768006
    27  C    4.670381   2.690819   3.319830   3.276316   3.370786
    28  H    4.725293   2.512576   3.784199   4.012931   3.968900
    29  H    4.923794   2.882130   2.984502   2.602879   2.425158
    30  C    5.954785   4.151719   4.624109   4.281649   4.368564
    31  H    6.254707   4.693710   4.682568   4.080428   4.270717
    32  H    6.087961   4.475286   5.232212   5.106866   5.320167
    33  H    6.824419   4.812603   5.349038   4.880387   4.732531
                   11         12         13         14         15
    11  C    0.000000
    12  O    1.416040   0.000000
    13  H    1.941243   0.963565   0.000000
    14  C    4.247675   4.907018   5.754877   0.000000
    15  H    5.249290   5.903312   6.717233   1.104164   0.000000
    16  H    3.803783   4.259259   5.061828   1.104947   1.747343
    17  H    2.995094   4.337569   4.607305   4.358510   4.987358
    18  C    1.522294   2.409014   2.524616   5.396986   6.407867
    19  H    2.174107   2.708362   2.406320   6.283032   7.256035
    20  H    2.167868   2.659870   2.851679   5.790849   6.858327
    21  H    2.190504   3.375722   3.553190   5.352948   6.300953
    22  C    1.535897   2.465018   2.707595   4.106617   4.903594
    23  H    2.217157   2.940682   2.810180   5.161700   5.897343
    24  H    2.151319   2.577286   2.883686   3.838242   4.537517
    25  H    2.924120   4.231742   4.853336   3.430768   4.280299
    26  H    2.119985   2.441606   3.364354   2.556604   3.608507
    27  C    4.727792   5.187625   6.127339   1.520566   2.143199
    28  H    5.517693   6.113751   7.049969   2.145620   2.443470
    29  H    4.095151   4.518018   5.473100   2.164525   3.062707
    30  C    5.590108   5.709572   6.640665   2.534899   2.805530
    31  H    5.186764   5.077496   5.968464   2.824868   3.229870
    32  H    6.377916   6.547202   7.449291   2.794775   2.617587
    33  H    6.223135   6.254567   7.198962   3.496866   3.793186
                   16         17         18         19         20
    16  H    0.000000
    17  H    4.306610   0.000000
    18  C    5.146502   3.144709   0.000000
    19  H    5.917644   3.565206   1.101334   0.000000
    20  H    5.613605   4.096493   1.098891   1.779418   0.000000
    21  H    5.282318   2.531783   1.100035   1.768326   1.779639
    22  C    3.549996   2.187673   2.528529   2.820246   3.484957
    23  H    4.584449   2.430836   2.724773   2.581096   3.775664
    24  H    3.041210   3.029305   3.450123   3.719745   4.290619
    25  H    3.791134   2.312578   3.049136   4.011001   3.455232
    26  H    2.112824   3.928873   3.428876   4.265869   3.684567
    27  C    2.171715   5.412103   5.776733   6.763801   5.889876
    28  H    3.070260   5.835590   6.398942   7.434454   6.468361
    29  H    2.604574   5.183076   5.013739   6.036891   4.981616
    30  C    2.726031   6.650743   6.791561   7.711479   6.852519
    31  H    2.567099   6.599043   6.500258   7.327937   6.584768
    32  H    3.019335   7.121020   7.632874   8.527552   7.789247
    33  H    3.764813   7.472683   7.317346   8.271194   7.222254
                   21         22         23         24         25
    21  H    0.000000
    22  C    2.775334   0.000000
    23  H    2.957896   1.100659   0.000000
    24  H    3.823729   1.100586   1.778197   0.000000
    25  H    2.451962   3.172409   3.936578   3.878471   0.000000
    26  H    3.833963   2.711342   3.767010   2.584970   3.057695
    27  C    5.823958   5.039700   6.138184   4.835207   3.915086
    28  H    6.293681   5.822156   6.904046   5.729897   4.141164
    29  H    5.128139   4.714822   5.801172   4.665148   3.453331
    30  C    7.015359   5.913946   6.997690   5.475036   5.330691
    31  H    6.877256   5.516816   6.558646   4.950262   5.513705
    32  H    7.797327   6.486517   7.549029   5.956455   5.977400
    33  H    7.568779   6.743626   7.830331   6.371128   5.924987
                   26         27         28         29         30
    26  H    0.000000
    27  C    2.769819   0.000000
    28  H    3.717327   1.104299   0.000000
    29  H    2.257175   1.102602   1.747620   0.000000
    30  C    3.475082   1.514238   2.157888   2.152243   0.000000
    31  H    3.099992   2.171610   3.083063   2.518313   1.100601
    32  H    4.287644   2.174669   2.545128   3.081166   1.100508
    33  H    4.147868   2.181059   2.501606   2.510336   1.098522
                   31         32         33
    31  H    0.000000
    32  H    1.768387   0.000000
    33  H    1.770687   1.771101   0.000000
 Stoichiometry    C11H20O2
 Framework group  C1[X(C11H20O2)]
 Deg. of freedom    93
 Full point group                 C1      NOp   1
 Largest Abelian subgroup         C1      NOp   1
 Largest concise Abelian subgroup C1      NOp   1
                         Standard orientation:                         
 ---------------------------------------------------------------------
 Center     Atomic      Atomic             Coordinates (Angstroms)
 Number     Number       Type             X           Y           Z
 ---------------------------------------------------------------------
      1          6           0       -1.044394    1.393290   -0.080286
      2          8           0       -0.145065    2.159771   -0.855544
      3          6           0        0.958584    2.401666   -0.014493
      4          6           0        1.266417    1.053477    0.642090
      5          1           0        1.780601    2.798526   -0.627024
      6          1           0        0.709342    3.165931    0.751965
      7          1           0        1.770107    1.209260    1.611324
      8          6           0       -0.169978    0.510853    0.865442
      9          6           0       -0.528636   -0.928258    0.493760
     10          1           0       -0.457588   -1.640782    1.329177
     11          6           0       -1.945190   -0.846639   -0.078470
     12          8           0       -2.170265   -2.009867   -0.853977
     13          1           0       -3.075057   -1.974002   -1.183404
     14          6           0        2.171504    0.189291   -0.228224
     15          1           0        3.009346    0.810022   -0.591394
     16          1           0        1.631527   -0.111579   -1.144090
     17          1           0       -1.685900    2.077888    0.513560
     18          6           0       -2.998214   -0.735536    1.015228
     19          1           0       -4.005108   -0.629009    0.581922
     20          1           0       -2.994813   -1.634736    1.646884
     21          1           0       -2.835519    0.137675    1.664157
     22          6           0       -1.868872    0.435758   -0.920261
     23          1           0       -2.855212    0.827418   -1.212128
     24          1           0       -1.311038    0.210127   -1.841782
     25          1           0       -0.461761    0.700364    1.910675
     26          1           0        0.108233   -1.317926   -0.314434
     27          6           0        2.746126   -1.028042    0.478904
     28          1           0        3.393993   -0.683256    1.304051
     29          1           0        1.940924   -1.596201    0.973450
     30          6           0        3.524078   -1.943862   -0.442497
     31          1           0        2.881180   -2.352051   -1.237095
     32          1           0        4.348982   -1.411623   -0.939864
     33          1           0        3.961843   -2.797269    0.093048
 ---------------------------------------------------------------------
 Rotational constants (GHZ):           1.0386889           0.5984318           0.4443483
 Standard basis: def2TZVP (5D, 7F)
 There are   588 symmetry adapted cartesian basis functions of A   symmetry.
 There are   523 symmetry adapted basis functions of A   symmetry.
   523 basis functions,   823 primitive gaussians,   588 cartesian basis functions
    51 alpha electrons       51 beta electrons
       nuclear repulsion energy       898.9142597493 Hartrees.
 NAtoms=   33 NActive=   33 NUniq=   33 SFac= 1.00D+00 NAtFMM=   60 NAOKFM=F Big=F
 Integral buffers will be    131072 words long.
 Raffenetti 2 integral format.
 Two-electron integral symmetry is turned on.
 One-electron integrals computed using PRISM.
   1 Symmetry operations used in ECPInt.
 ECPInt:  NShTT=   24976 NPrTT=   72736 LenC2=   23673 LenP2D=   52796.
 LDataN:  DoStor=T MaxTD1= 6 Len=  172
 NBasis=   523 RedAO= T EigKep=  2.45D-05  NBF=   523
 NBsUse=   523 1.00D-06 EigRej= -1.00D+00 NBFU=   523
 ExpMin= 9.52D-02 ExpMax= 2.70D+04 ExpMxC= 9.22D+02 IAcc=3 IRadAn=         5 AccDes= 0.00D+00
 Harris functional with IExCor= 1009 and IRadAn=       5 diagonalized for initial guess.
 HarFok:  IExCor= 1009 AccDes= 0.00D+00 IRadAn=         5 IDoV= 1 UseB2=F ITyADJ=14
 ICtDFT=  3500011 ScaDFX=  1.000000  1.000000  1.000000  1.000000
 FoFCou: FMM=F IPFlag=           0 FMFlag=      100000 FMFlg1=           0
         NFxFlg=           0 DoJE=T BraDBF=F KetDBF=T FulRan=T
         wScrn=  0.000000 ICntrl=       500 IOpCl=  0 I1Cent=   200000004 NGrid=           0
         NMat0=    1 NMatS0=      1 NMatT0=    0 NMatD0=    1 NMtDS0=    0 NMtDT0=    0
 Petite list used in FoFCou.
 Requested convergence on RMS density matrix=1.00D-08 within 128 cycles.
 Requested convergence on MAX density matrix=1.00D-06.
 Requested convergence on             energy=1.00D-06.
 No special actions if energy rises.
 Integral accuracy reduced to 1.0D-05 until final iterations.
 Initial convergence to 1.0D-05 achieved.  Increase integral accuracy.
 SCF Done:  E(RM06L) =  -581.780923462     A.U. after   16 cycles
            NFock= 16  Conv=0.43D-08     -V/T= 2.0046

 **********************************************************************

            Population analysis using the SCF Density.

 **********************************************************************

 Orbital symmetries:
       Occupied  (A) (A) (A) (A) (A) (A) (A) (A) (A) (A) (A) (A)
                 (A) (A) (A) (A) (A) (A) (A) (A) (A) (A) (A) (A)
                 (A) (A) (A) (A) (A) (A) (A) (A) (A) (A) (A) (A)
                 (A) (A) (A) (A) (A) (A) (A) (A) (A) (A) (A) (A)
                 (A) (A) (A)
       Virtual   (A) (A) (A) (A) (A) (A) (A) (A) (A) (A) (A) (A)
                 (A) (A) (A) (A) (A) (A) (A) (A) (A) (A) (A) (A)
                 (A) (A) (A) (A) (A) (A) (A) (A) (A) (A) (A) (A)
                 (A) (A) (A) (A) (A) (A) (A) (A) (A) (A) (A) (A)
                 (A) (A) (A) (A) (A) (A) (A) (A) (A) (A) (A) (A)
                 (A) (A) (A) (A) (A) (A) (A) (A) (A) (A) (A) (A)
                 (A) (A) (A) (A) (A) (A) (A) (A) (A) (A) (A) (A)
                 (A) (A) (A) (A) (A) (A) (A) (A) (A) (A) (A) (A)
                 (A) (A) (A) (A) (A) (A) (A) (A) (A) (A) (A) (A)
                 (A) (A) (A) (A) (A) (A) (A) (A) (A) (A) (A) (A)
                 (A) (A) (A) (A) (A) (A) (A) (A) (A) (A) (A) (A)
                 (A) (A) (A) (A) (A) (A) (A) (A) (A) (A) (A) (A)
                 (A) (A) (A) (A) (A) (A) (A) (A) (A) (A) (A) (A)
                 (A) (A) (A) (A) (A) (A) (A) (A) (A) (A) (A) (A)
                 (A) (A) (A) (A) (A) (A) (A) (A) (A) (A) (A) (A)
                 (A) (A) (A) (A) (A) (A) (A) (A) (A) (A) (A) (A)
                 (A) (A) (A) (A) (A) (A) (A) (A) (A) (A) (A) (A)
                 (A) (A) (A) (A) (A) (A) (A) (A) (A) (A) (A) (A)
                 (A) (A) (A) (A) (A) (A) (A) (A) (A) (A) (A) (A)
                 (A) (A) (A) (A) (A) (A) (A) (A) (A) (A) (A) (A)
                 (A) (A) (A) (A) (A) (A) (A) (A) (A) (A) (A) (A)
                 (A) (A) (A) (A) (A) (A) (A) (A) (A) (A) (A) (A)
                 (A) (A) (A) (A) (A) (A) (A) (A) (A) (A) (A) (A)
                 (A) (A) (A) (A) (A) (A) (A) (A) (A) (A) (A) (A)
                 (A) (A) (A) (A) (A) (A) (A) (A) (A) (A) (A) (A)
                 (A) (A) (A) (A) (A) (A) (A) (A) (A) (A) (A) (A)
                 (A) (A) (A) (A) (A) (A) (A) (A) (A) (A) (A) (A)
                 (A) (A) (A) (A) (A) (A) (A) (A) (A) (A) (A) (A)
                 (A) (A) (A) (A) (A) (A) (A) (A) (A) (A) (A) (A)
                 (A) (A) (A) (A) (A) (A) (A) (A) (A) (A) (A) (A)
                 (A) (A) (A) (A) (A) (A) (A) (A) (A) (A) (A) (A)
                 (A) (A) (A) (A) (A) (A) (A) (A) (A) (A) (A) (A)
                 (A) (A) (A) (A) (A) (A) (A) (A) (A) (A) (A) (A)
                 (A) (A) (A) (A) (A) (A) (A) (A) (A) (A) (A) (A)
                 (A) (A) (A) (A) (A) (A) (A) (A) (A) (A) (A) (A)
                 (A) (A) (A) (A) (A) (A) (A) (A) (A) (A) (A) (A)
                 (A) (A) (A) (A) (A) (A) (A) (A) (A) (A) (A) (A)
                 (A) (A) (A) (A) (A) (A) (A) (A) (A) (A) (A) (A)
                 (A) (A) (A) (A) (A) (A) (A) (A) (A) (A) (A) (A)
                 (A) (A) (A) (A)
 The electronic state is 1-A.
 Alpha  occ. eigenvalues --  -18.96318 -18.96140 -10.10612 -10.09471 -10.08933
 Alpha  occ. eigenvalues --  -10.05467 -10.05443 -10.04544 -10.04381 -10.04324
 Alpha  occ. eigenvalues --  -10.04290 -10.04117 -10.03648  -1.01411  -0.99775
 Alpha  occ. eigenvalues --   -0.80448  -0.77138  -0.72551  -0.69678  -0.66920
 Alpha  occ. eigenvalues --   -0.63998  -0.63484  -0.55850  -0.53803  -0.53275
 Alpha  occ. eigenvalues --   -0.51389  -0.46992  -0.46119  -0.44125  -0.42821
 Alpha  occ. eigenvalues --   -0.41804  -0.41527  -0.40341  -0.38629  -0.37930
 Alpha  occ. eigenvalues --   -0.36946  -0.35756  -0.35293  -0.33904  -0.32862
 Alpha  occ. eigenvalues --   -0.32573  -0.31788  -0.30916  -0.30495  -0.29553
 Alpha  occ. eigenvalues --   -0.28536  -0.28203  -0.27764  -0.27480  -0.23884
 Alpha  occ. eigenvalues --   -0.21593
 Alpha virt. eigenvalues --    0.02581   0.04010   0.04882   0.06351   0.06700
 Alpha virt. eigenvalues --    0.07903   0.07979   0.09033   0.09548   0.09967
 Alpha virt. eigenvalues --    0.10017   0.10438   0.10803   0.11097   0.12263
 Alpha virt. eigenvalues --    0.12639   0.13130   0.13927   0.14494   0.14929
 Alpha virt. eigenvalues --    0.15726   0.16608   0.16852   0.17093   0.17581
 Alpha virt. eigenvalues --    0.18112   0.19841   0.20822   0.21190   0.21912
 Alpha virt. eigenvalues --    0.22830   0.23435   0.23780   0.24493   0.25924
 Alpha virt. eigenvalues --    0.26179   0.26852   0.27390   0.27963   0.29174
 Alpha virt. eigenvalues --    0.29392   0.30386   0.31035   0.32239   0.32425
 Alpha virt. eigenvalues --    0.33131   0.33987   0.34535   0.35453   0.35982
 Alpha virt. eigenvalues --    0.36610   0.37250   0.38140   0.38175   0.38616
 Alpha virt. eigenvalues --    0.38962   0.39376   0.40199   0.40438   0.40644
 Alpha virt. eigenvalues --    0.40903   0.41774   0.42200   0.42864   0.43492
 Alpha virt. eigenvalues --    0.43784   0.44075   0.44467   0.44722   0.45139
 Alpha virt. eigenvalues --    0.45765   0.45888   0.46632   0.47210   0.47725
 Alpha virt. eigenvalues --    0.48362   0.49216   0.49946   0.50750   0.51034
 Alpha virt. eigenvalues --    0.51248   0.52484   0.53009   0.53793   0.56286
 Alpha virt. eigenvalues --    0.57232   0.57259   0.58285   0.59679   0.60730
 Alpha virt. eigenvalues --    0.61488   0.62880   0.64406   0.65230   0.66256
 Alpha virt. eigenvalues --    0.67862   0.68598   0.70432   0.72354   0.72654
 Alpha virt. eigenvalues --    0.73670   0.76739   0.77482   0.77960   0.79387
 Alpha virt. eigenvalues --    0.80203   0.82258   0.83623   0.83685   0.85002
 Alpha virt. eigenvalues --    0.86046   0.86865   0.87027   0.88506   0.88983
 Alpha virt. eigenvalues --    0.90589   0.92289   0.93011   0.93483   0.94106
 Alpha virt. eigenvalues --    0.95544   0.97525   0.99178   1.01652   1.02365
 Alpha virt. eigenvalues --    1.02876   1.03879   1.04705   1.06262   1.07007
 Alpha virt. eigenvalues --    1.09122   1.09751   1.10674   1.11153   1.12682
 Alpha virt. eigenvalues --    1.13901   1.14615   1.14742   1.16461   1.17000
 Alpha virt. eigenvalues --    1.17858   1.20200   1.20549   1.22897   1.23084
 Alpha virt. eigenvalues --    1.24038   1.25796   1.26699   1.27201   1.29479
 Alpha virt. eigenvalues --    1.30810   1.31645   1.31755   1.32819   1.34144
 Alpha virt. eigenvalues --    1.36619   1.37610   1.40170   1.42048   1.46155
 Alpha virt. eigenvalues --    1.47964   1.49798   1.50591   1.51891   1.52557
 Alpha virt. eigenvalues --    1.53306   1.54298   1.55561   1.56855   1.58066
 Alpha virt. eigenvalues --    1.58366   1.58530   1.59940   1.60351   1.60757
 Alpha virt. eigenvalues --    1.60881   1.61822   1.63777   1.64787   1.65903
 Alpha virt. eigenvalues --    1.67654   1.68628   1.69414   1.70497   1.72230
 Alpha virt. eigenvalues --    1.72914   1.75348   1.75928   1.76887   1.78979
 Alpha virt. eigenvalues --    1.79284   1.80636   1.81038   1.82986   1.84808
 Alpha virt. eigenvalues --    1.86372   1.86454   1.89028   1.90785   1.90896
 Alpha virt. eigenvalues --    1.93378   1.94524   1.95240   1.96536   1.98111
 Alpha virt. eigenvalues --    1.99332   2.01208   2.01474   2.02786   2.04397
 Alpha virt. eigenvalues --    2.05122   2.06457   2.08942   2.09833   2.10824
 Alpha virt. eigenvalues --    2.11214   2.11788   2.13702   2.15405   2.15906
 Alpha virt. eigenvalues --    2.18684   2.19254   2.19518   2.21272   2.22169
 Alpha virt. eigenvalues --    2.23115   2.25065   2.25238   2.26698   2.28009
 Alpha virt. eigenvalues --    2.30500   2.30796   2.32634   2.33674   2.34024
 Alpha virt. eigenvalues --    2.35415   2.36210   2.37766   2.38267   2.39279
 Alpha virt. eigenvalues --    2.40525   2.42402   2.43342   2.44566   2.45163
 Alpha virt. eigenvalues --    2.47423   2.48824   2.49181   2.50634   2.52268
 Alpha virt. eigenvalues --    2.53556   2.54189   2.56249   2.57640   2.58292
 Alpha virt. eigenvalues --    2.58696   2.59365   2.60749   2.60910   2.61682
 Alpha virt. eigenvalues --    2.62373   2.64231   2.64328   2.66235   2.66579
 Alpha virt. eigenvalues --    2.66926   2.68640   2.69294   2.69785   2.71355
 Alpha virt. eigenvalues --    2.72139   2.72716   2.74188   2.74951   2.75729
 Alpha virt. eigenvalues --    2.76032   2.78273   2.79298   2.80830   2.81782
 Alpha virt. eigenvalues --    2.82851   2.83519   2.84827   2.85394   2.86556
 Alpha virt. eigenvalues --    2.87957   2.89959   2.90081   2.91969   2.92301
 Alpha virt. eigenvalues --    2.94435   2.97469   2.99385   3.00661   3.01231
 Alpha virt. eigenvalues --    3.02352   3.04942   3.06987   3.07854   3.08336
 Alpha virt. eigenvalues --    3.10270   3.11261   3.11667   3.12545   3.14149
 Alpha virt. eigenvalues --    3.15597   3.16346   3.17111   3.18960   3.20608
 Alpha virt. eigenvalues --    3.21094   3.22621   3.23511   3.23845   3.25471
 Alpha virt. eigenvalues --    3.27254   3.27305   3.27808   3.29971   3.30840
 Alpha virt. eigenvalues --    3.31963   3.32746   3.33687   3.34992   3.36764
 Alpha virt. eigenvalues --    3.36887   3.39044   3.39062   3.40237   3.40912
 Alpha virt. eigenvalues --    3.42104   3.43549   3.44377   3.45279   3.46343
 Alpha virt. eigenvalues --    3.47937   3.49471   3.50824   3.51212   3.52166
 Alpha virt. eigenvalues --    3.52558   3.54549   3.55018   3.55938   3.56757
 Alpha virt. eigenvalues --    3.59040   3.61227   3.62678   3.63073   3.63757
 Alpha virt. eigenvalues --    3.65376   3.67510   3.67814   3.68437   3.69604
 Alpha virt. eigenvalues --    3.71620   3.72727   3.73394   3.75095   3.75538
 Alpha virt. eigenvalues --    3.77761   3.78104   3.79909   3.82385   3.83535
 Alpha virt. eigenvalues --    3.85243   3.86983   3.89411   3.90844   3.91273
 Alpha virt. eigenvalues --    3.92270   3.93358   3.95690   3.96622   3.99331
 Alpha virt. eigenvalues --    4.00187   4.01473   4.02857   4.03515   4.05182
 Alpha virt. eigenvalues --    4.07317   4.07491   4.10590   4.11294   4.12182
 Alpha virt. eigenvalues --    4.14672   4.17405   4.18017   4.18380   4.19113
 Alpha virt. eigenvalues --    4.21537   4.23613   4.24355   4.25341   4.28482
 Alpha virt. eigenvalues --    4.29456   4.32006   4.32234   4.34315   4.36208
 Alpha virt. eigenvalues --    4.38407   4.39971   4.41049   4.41826   4.43803
 Alpha virt. eigenvalues --    4.45760   4.46835   4.49136   4.51469   4.51588
 Alpha virt. eigenvalues --    4.53610   4.56106   4.59678   4.61652   4.64993
 Alpha virt. eigenvalues --    4.66300   4.67108   4.71405   4.78429   4.83514
 Alpha virt. eigenvalues --    4.87515   4.91764   4.92877   4.95678   4.99953
 Alpha virt. eigenvalues --    5.00623   5.06346   5.12313   5.15132   5.16123
 Alpha virt. eigenvalues --    5.16879   5.26416   5.27873   5.30834   5.43018
 Alpha virt. eigenvalues --    5.47509   5.56669   5.59905   5.65198   5.66407
 Alpha virt. eigenvalues --    5.93628   5.95570   5.97397   5.98491   6.01357
 Alpha virt. eigenvalues --    6.08018   6.33707   6.38798   6.48616   6.64966
 Alpha virt. eigenvalues --    6.90279   6.93941   6.98609   7.04965   7.07342
 Alpha virt. eigenvalues --    7.16373   7.39049   7.44077   7.45222  22.39233
 Alpha virt. eigenvalues --   22.47633  22.51494  22.55645  22.58594  22.68289
 Alpha virt. eigenvalues --   22.73513  22.81795  22.84531  22.88449  22.92951
 Alpha virt. eigenvalues --   44.30224  44.55243
          Condensed to atoms (all electrons):
               1          2          3          4          5          6
     1  C    5.335146   0.242276  -0.083567   0.089190   0.002955   0.004209
     2  O    0.242276   8.301491   0.207114  -0.024045  -0.032406  -0.048428
     3  C   -0.083567   0.207114   4.741289   0.107069   0.386272   0.470688
     4  C    0.089190  -0.024045   0.107069   5.234891  -0.009045  -0.101284
     5  H    0.002955  -0.032406   0.386272  -0.009045   0.672347  -0.042503
     6  H    0.004209  -0.048428   0.470688  -0.101284  -0.042503   0.703556
     7  H    0.014906   0.003883  -0.059388   0.516846   0.005825  -0.001768
     8  C   -0.168238  -0.080928  -0.011857   0.075403   0.007289  -0.031818
     9  C    0.154384   0.008552   0.000255   0.125193   0.000100   0.002128
    10  H    0.008795  -0.000303  -0.000985   0.003539   0.000018  -0.000030
    11  C    0.024500   0.008232  -0.000742  -0.015413  -0.000269   0.000179
    12  O    0.008110  -0.000184   0.000110  -0.000517   0.000000  -0.000003
    13  H   -0.000580   0.000008   0.000002   0.000027   0.000000  -0.000000
    14  C    0.009079  -0.000497   0.063102  -0.019625  -0.022318   0.011501
    15  H    0.001041   0.000922  -0.015531  -0.028854   0.002927   0.000066
    16  H    0.007233   0.005307  -0.010625  -0.052569   0.001181   0.000366
    17  H    0.503302  -0.054506   0.003028  -0.006603  -0.001397   0.013805
    18  C    0.007263  -0.000414   0.000374   0.000395   0.000001  -0.000046
    19  H    0.000532  -0.000003   0.000015  -0.000064  -0.000000   0.000001
    20  H    0.000488   0.000002  -0.000017  -0.000063  -0.000000   0.000003
    21  H    0.000901   0.000100   0.000075   0.000388   0.000002   0.000024
    22  C   -0.107291  -0.065329  -0.001728   0.025107   0.002416  -0.006106
    23  H   -0.047509   0.002068  -0.000928   0.000746   0.000039  -0.000020
    24  H   -0.041371   0.009657   0.001182  -0.003799  -0.000511   0.000433
    25  H   -0.079507   0.004637   0.013494  -0.069048  -0.000650   0.002630
    26  H   -0.018294  -0.000811   0.001287  -0.012847  -0.000039  -0.000112
    27  C   -0.007829  -0.000521   0.006220  -0.031187  -0.000402  -0.000745
    28  H    0.000041  -0.000010  -0.000886  -0.014424   0.000186  -0.000049
    29  H    0.000317   0.000041  -0.001510   0.006098   0.000006  -0.000003
    30  C    0.000149   0.000013   0.000730  -0.001259  -0.000099   0.000015
    31  H    0.000020  -0.000009  -0.000074  -0.002469   0.000007  -0.000000
    32  H    0.000004   0.000004  -0.000140   0.000601  -0.000011   0.000001
    33  H   -0.000008  -0.000001   0.000024  -0.000498   0.000001  -0.000001
               7          8          9         10         11         12
     1  C    0.014906  -0.168238   0.154384   0.008795   0.024500   0.008110
     2  O    0.003883  -0.080928   0.008552  -0.000303   0.008232  -0.000184
     3  C   -0.059388  -0.011857   0.000255  -0.000985  -0.000742   0.000110
     4  C    0.516846   0.075403   0.125193   0.003539  -0.015413  -0.000517
     5  H    0.005825   0.007289   0.000100   0.000018  -0.000269   0.000000
     6  H   -0.001768  -0.031818   0.002128  -0.000030   0.000179  -0.000003
     7  H    0.705172  -0.099350   0.006395   0.000202  -0.000798   0.000001
     8  C   -0.099350   5.742259  -0.195013  -0.070961   0.047693   0.015776
     9  C    0.006395  -0.195013   5.738825   0.416374   0.037232  -0.156957
    10  H    0.000202  -0.070961   0.416374   0.615244   0.001738   0.004025
    11  C   -0.000798   0.047693   0.037232   0.001738   4.872547   0.278824
    12  O    0.000001   0.015776  -0.156957   0.004025   0.278824   8.195282
    13  H   -0.000001  -0.001374   0.029575  -0.000612  -0.029650   0.280324
    14  C   -0.084513   0.137841  -0.062222  -0.002418   0.008173  -0.000056
    15  H    0.000367  -0.003686   0.002734  -0.000057  -0.000006  -0.000002
    16  H    0.005990  -0.003885  -0.012673   0.000494  -0.000488   0.000029
    17  H    0.000022  -0.129209   0.006522  -0.000609   0.000450  -0.000313
    18  C   -0.000030   0.036870  -0.086496  -0.007565   0.226034  -0.035590
    19  H   -0.000001  -0.002246   0.022749  -0.000603  -0.037141  -0.004544
    20  H    0.000003  -0.002213  -0.016537   0.004167  -0.054223   0.001119
    21  H    0.000006   0.009380  -0.026241   0.002079  -0.024845   0.006260
    22  C    0.000023   0.130355  -0.054987   0.001346   0.151045  -0.059325
    23  H    0.000021   0.004088   0.018060  -0.000167  -0.046205   0.002945
    24  H   -0.000024   0.004856  -0.023072  -0.000324  -0.042709   0.005687
    25  H   -0.010655   0.490680  -0.052168  -0.004491  -0.002040  -0.000005
    26  H    0.000103  -0.018498   0.413457  -0.021004  -0.047460   0.015246
    27  C   -0.017931   0.026887   0.000372   0.000003   0.000766  -0.000123
    28  H    0.004157   0.004723  -0.002553   0.000197  -0.000068  -0.000001
    29  H    0.002582  -0.008375   0.002386  -0.002157   0.000264  -0.000076
    30  C   -0.000730   0.003448  -0.004220   0.000002   0.000535   0.000008
    31  H   -0.000045   0.000879  -0.000955   0.000043   0.000137  -0.000002
    32  H    0.000115  -0.000299   0.000202  -0.000005  -0.000008   0.000000
    33  H   -0.000029   0.000026   0.000082  -0.000002  -0.000004   0.000000
              13         14         15         16         17         18
     1  C   -0.000580   0.009079   0.001041   0.007233   0.503302   0.007263
     2  O    0.000008  -0.000497   0.000922   0.005307  -0.054506  -0.000414
     3  C    0.000002   0.063102  -0.015531  -0.010625   0.003028   0.000374
     4  C    0.000027  -0.019625  -0.028854  -0.052569  -0.006603   0.000395
     5  H    0.000000  -0.022318   0.002927   0.001181  -0.001397   0.000001
     6  H   -0.000000   0.011501   0.000066   0.000366   0.013805  -0.000046
     7  H   -0.000001  -0.084513   0.000367   0.005990   0.000022  -0.000030
     8  C   -0.001374   0.137841  -0.003686  -0.003885  -0.129209   0.036870
     9  C    0.029575  -0.062222   0.002734  -0.012673   0.006522  -0.086496
    10  H   -0.000612  -0.002418  -0.000057   0.000494  -0.000609  -0.007565
    11  C   -0.029650   0.008173  -0.000006  -0.000488   0.000450   0.226034
    12  O    0.280324  -0.000056  -0.000002   0.000029  -0.000313  -0.035590
    13  H    0.443681  -0.000045   0.000000  -0.000001  -0.000077  -0.013109
    14  C   -0.000045   5.360820   0.415286   0.457488   0.002464   0.000647
    15  H    0.000000   0.415286   0.655447  -0.031410   0.000031   0.000002
    16  H   -0.000001   0.457488  -0.031410   0.599429   0.000154  -0.000026
    17  H   -0.000077   0.002464   0.000031   0.000154   0.742275  -0.001382
    18  C   -0.013109   0.000647   0.000002  -0.000026  -0.001382   5.015667
    19  H    0.004041  -0.000011  -0.000000  -0.000000  -0.000268   0.398619
    20  H   -0.001418   0.000037   0.000000  -0.000000   0.000382   0.429439
    21  H    0.000501   0.000069  -0.000000   0.000005   0.000989   0.397879
    22  C   -0.007559  -0.018990   0.000197  -0.003454  -0.080183  -0.009188
    23  H    0.003776  -0.000169   0.000002   0.000026  -0.005742  -0.016610
    24  H   -0.002046   0.001623  -0.000049   0.001749   0.006294   0.005281
    25  H    0.000032   0.005398  -0.000325   0.000093  -0.004170  -0.005299
    26  H   -0.000744   0.009622  -0.000708   0.004562  -0.000445   0.004782
    27  C    0.000016   0.154015  -0.034407  -0.048419  -0.000129  -0.000160
    28  H   -0.000000  -0.042295  -0.005579   0.004858  -0.000002   0.000005
    29  H    0.000006  -0.072813   0.005351   0.001192  -0.000003  -0.000097
    30  C   -0.000001  -0.019355  -0.005614  -0.006370   0.000004   0.000015
    31  H   -0.000000  -0.009739   0.001409   0.000303  -0.000000   0.000005
    32  H    0.000000  -0.013606   0.002084   0.001593  -0.000000  -0.000000
    33  H   -0.000000   0.015487  -0.000343  -0.000194  -0.000000  -0.000000
              19         20         21         22         23         24
     1  C    0.000532   0.000488   0.000901  -0.107291  -0.047509  -0.041371
     2  O   -0.000003   0.000002   0.000100  -0.065329   0.002068   0.009657
     3  C    0.000015  -0.000017   0.000075  -0.001728  -0.000928   0.001182
     4  C   -0.000064  -0.000063   0.000388   0.025107   0.000746  -0.003799
     5  H   -0.000000  -0.000000   0.000002   0.002416   0.000039  -0.000511
     6  H    0.000001   0.000003   0.000024  -0.006106  -0.000020   0.000433
     7  H   -0.000001   0.000003   0.000006   0.000023   0.000021  -0.000024
     8  C   -0.002246  -0.002213   0.009380   0.130355   0.004088   0.004856
     9  C    0.022749  -0.016537  -0.026241  -0.054987   0.018060  -0.023072
    10  H   -0.000603   0.004167   0.002079   0.001346  -0.000167  -0.000324
    11  C   -0.037141  -0.054223  -0.024845   0.151045  -0.046205  -0.042709
    12  O   -0.004544   0.001119   0.006260  -0.059325   0.002945   0.005687
    13  H    0.004041  -0.001418   0.000501  -0.007559   0.003776  -0.002046
    14  C   -0.000011   0.000037   0.000069  -0.018990  -0.000169   0.001623
    15  H   -0.000000   0.000000  -0.000000   0.000197   0.000002  -0.000049
    16  H   -0.000000  -0.000000   0.000005  -0.003454   0.000026   0.001749
    17  H   -0.000268   0.000382   0.000989  -0.080183  -0.005742   0.006294
    18  C    0.398619   0.429439   0.397879  -0.009188  -0.016610   0.005281
    19  H    0.629509  -0.023951  -0.027027  -0.022956   0.006719  -0.000366
    20  H   -0.023951   0.601276  -0.022900   0.010318  -0.000720  -0.000043
    21  H   -0.027027  -0.022900   0.623706  -0.011873   0.001545  -0.000605
    22  C   -0.022956   0.010318  -0.011873   5.507776   0.423290   0.434292
    23  H    0.006719  -0.000720   0.001545   0.423290   0.631059  -0.021263
    24  H   -0.000366  -0.000043  -0.000605   0.434292  -0.021263   0.582582
    25  H    0.000303  -0.000140  -0.002079   0.003209  -0.000609   0.000262
    26  H   -0.000226  -0.000298  -0.000839   0.006853  -0.000512   0.003785
    27  C    0.000004  -0.000012   0.000007   0.001718   0.000009  -0.000205
    28  H   -0.000000  -0.000000   0.000001  -0.000025  -0.000000   0.000000
    29  H    0.000004  -0.000011  -0.000030   0.000269   0.000006  -0.000006
    30  C   -0.000000   0.000000   0.000001  -0.000183  -0.000000   0.000033
    31  H   -0.000000  -0.000000   0.000000  -0.000070  -0.000000   0.000006
    32  H    0.000000   0.000000  -0.000000   0.000001   0.000000   0.000001
    33  H   -0.000000  -0.000000  -0.000000   0.000004  -0.000000  -0.000000
              25         26         27         28         29         30
     1  C   -0.079507  -0.018294  -0.007829   0.000041   0.000317   0.000149
     2  O    0.004637  -0.000811  -0.000521  -0.000010   0.000041   0.000013
     3  C    0.013494   0.001287   0.006220  -0.000886  -0.001510   0.000730
     4  C   -0.069048  -0.012847  -0.031187  -0.014424   0.006098  -0.001259
     5  H   -0.000650  -0.000039  -0.000402   0.000186   0.000006  -0.000099
     6  H    0.002630  -0.000112  -0.000745  -0.000049  -0.000003   0.000015
     7  H   -0.010655   0.000103  -0.017931   0.004157   0.002582  -0.000730
     8  C    0.490680  -0.018498   0.026887   0.004723  -0.008375   0.003448
     9  C   -0.052168   0.413457   0.000372  -0.002553   0.002386  -0.004220
    10  H   -0.004491  -0.021004   0.000003   0.000197  -0.002157   0.000002
    11  C   -0.002040  -0.047460   0.000766  -0.000068   0.000264   0.000535
    12  O   -0.000005   0.015246  -0.000123  -0.000001  -0.000076   0.000008
    13  H    0.000032  -0.000744   0.000016  -0.000000   0.000006  -0.000001
    14  C    0.005398   0.009622   0.154015  -0.042295  -0.072813  -0.019355
    15  H   -0.000325  -0.000708  -0.034407  -0.005579   0.005351  -0.005614
    16  H    0.000093   0.004562  -0.048419   0.004858   0.001192  -0.006370
    17  H   -0.004170  -0.000445  -0.000129  -0.000002  -0.000003   0.000004
    18  C   -0.005299   0.004782  -0.000160   0.000005  -0.000097   0.000015
    19  H    0.000303  -0.000226   0.000004  -0.000000   0.000004  -0.000000
    20  H   -0.000140  -0.000298  -0.000012  -0.000000  -0.000011   0.000000
    21  H   -0.002079  -0.000839   0.000007   0.000001  -0.000030   0.000001
    22  C    0.003209   0.006853   0.001718  -0.000025   0.000269  -0.000183
    23  H   -0.000609  -0.000512   0.000009  -0.000000   0.000006  -0.000000
    24  H    0.000262   0.003785  -0.000205   0.000000  -0.000006   0.000033
    25  H    0.682526   0.004381   0.000674  -0.000060  -0.000563  -0.000004
    26  H    0.004381   0.605419  -0.008474   0.000856  -0.008631   0.000812
    27  C    0.000674  -0.008474   5.073623   0.417526   0.459072   0.199069
    28  H   -0.000060   0.000856   0.417526   0.670013  -0.036380  -0.025966
    29  H   -0.000563  -0.008631   0.459072  -0.036380   0.632392  -0.040354
    30  C   -0.000004   0.000812   0.199069  -0.025966  -0.040354   4.846493
    31  H   -0.000001   0.001746  -0.038173   0.005894  -0.005300   0.418970
    32  H    0.000002  -0.000138  -0.033222  -0.005631   0.006750   0.409630
    33  H   -0.000002  -0.000032  -0.063294  -0.003909  -0.003971   0.425959
              31         32         33
     1  C    0.000020   0.000004  -0.000008
     2  O   -0.000009   0.000004  -0.000001
     3  C   -0.000074  -0.000140   0.000024
     4  C   -0.002469   0.000601  -0.000498
     5  H    0.000007  -0.000011   0.000001
     6  H   -0.000000   0.000001  -0.000001
     7  H   -0.000045   0.000115  -0.000029
     8  C    0.000879  -0.000299   0.000026
     9  C   -0.000955   0.000202   0.000082
    10  H    0.000043  -0.000005  -0.000002
    11  C    0.000137  -0.000008  -0.000004
    12  O   -0.000002   0.000000   0.000000
    13  H   -0.000000   0.000000  -0.000000
    14  C   -0.009739  -0.013606   0.015487
    15  H    0.001409   0.002084  -0.000343
    16  H    0.000303   0.001593  -0.000194
    17  H   -0.000000  -0.000000  -0.000000
    18  C    0.000005  -0.000000  -0.000000
    19  H   -0.000000   0.000000  -0.000000
    20  H   -0.000000   0.000000  -0.000000
    21  H    0.000000  -0.000000  -0.000000
    22  C   -0.000070   0.000001   0.000004
    23  H   -0.000000   0.000000  -0.000000
    24  H    0.000006   0.000001  -0.000000
    25  H   -0.000001   0.000002  -0.000002
    26  H    0.001746  -0.000138  -0.000032
    27  C   -0.038173  -0.033222  -0.063294
    28  H    0.005894  -0.005631  -0.003909
    29  H   -0.005300   0.006750  -0.003971
    30  C    0.418970   0.409630   0.425959
    31  H    0.634878  -0.036731  -0.026322
    32  H   -0.036731   0.648513  -0.028070
    33  H   -0.026322  -0.028070   0.629694
 Mulliken charges:
               1
     1  C    0.139353
     2  O   -0.485914
     3  C    0.185647
     4  C    0.208120
     5  H    0.028079
     6  H    0.023309
     7  H    0.008642
     8  C    0.089498
     9  C   -0.291485
    10  H    0.054026
    11  C    0.643720
    12  O   -0.556049
    13  H    0.295227
    14  C   -0.283983
    15  H    0.038706
    16  H    0.078061
    17  H    0.005315
    18  C   -0.347268
    19  H    0.056912
    20  H    0.075311
    21  H    0.072522
    22  C   -0.248973
    23  H    0.046056
    24  H    0.078670
    25  H    0.023492
    26  H    0.067205
    27  C   -0.054750
    28  H    0.029381
    29  H    0.063543
    30  C   -0.201732
    31  H    0.055593
    32  H    0.048361
    33  H    0.055402
 Sum of Mulliken charges =  -0.00000
 Mulliken charges with hydrogens summed into heavy atoms:
               1
     1  C    0.144669
     2  O   -0.485914
     3  C    0.237035
     4  C    0.216762
     8  C    0.112991
     9  C   -0.170254
    11  C    0.643720
    12  O   -0.260822
    14  C   -0.167216
    18  C   -0.142523
    22  C   -0.124247
    27  C    0.038174
    30  C   -0.042375
 Electronic spatial extent (au):  <R**2>=           2767.6636
 Charge=              0.0000 electrons
 Dipole moment (field-independent basis, Debye):
    X=             -0.6681    Y=              0.2589    Z=              1.4057  Tot=              1.5777
 Quadrupole moment (field-independent basis, Debye-Ang):
   XX=            -73.2008   YY=            -87.4846   ZZ=            -82.5996
   XY=              1.9233   XZ=              1.3132   YZ=              2.0727
 Traceless Quadrupole moment (field-independent basis, Debye-Ang):
   XX=              7.8942   YY=             -6.3896   ZZ=             -1.5046
   XY=              1.9233   XZ=              1.3132   YZ=              2.0727
 Octapole moment (field-independent basis, Debye-Ang**2):
  XXX=            -38.6512  YYY=              4.9317  ZZZ=             -5.1897  XYY=              3.3163
  XXY=             -3.5202  XXZ=            -12.3613  XZZ=             -6.9013  YZZ=             -3.7664
  YYZ=              7.8753  XYZ=             -4.2255
 Hexadecapole moment (field-independent basis, Debye-Ang**3):
 XXXX=          -2100.4221 YYYY=          -1153.3893 ZZZZ=           -376.2342 XXXY=             77.4483
 XXXZ=             59.8000 YYYX=             22.8669 YYYZ=              6.5410 ZZZX=             15.4912
 ZZZY=              6.2059 XXYY=           -536.3691 XXZZ=           -419.7768 YYZZ=           -252.6544
 XXYZ=              9.9035 YYXZ=              4.2185 ZZXY=             16.0251
 N-N= 8.989142597493D+02 E-N=-3.152556670198D+03  KE= 5.791019322086D+02
 Unable to Open any file for archive entry.
 1\1\GINC-NODE20\SP\RM06L\def2TZVP\C11H20O2\CTY_HG\02-Nov-2023\0\\# def
 2tzvp m06l\\Title Card Required\\0,1\C,0,-1.044394,1.39329,-0.080286\O
 ,0,-0.145065,2.159771,-0.855544\C,0,0.958584,2.401666,-0.014493\C,0,1.
 266417,1.053477,0.64209\H,0,1.780601,2.798526,-0.627024\H,0,0.709342,3
 .165931,0.751965\H,0,1.770107,1.20926,1.611324\C,0,-0.169978,0.510853,
 0.865442\C,0,-0.528636,-0.928258,0.49376\H,0,-0.457588,-1.640782,1.329
 177\C,0,-1.94519,-0.846639,-0.07847\O,0,-2.170265,-2.009867,-0.853977\
 H,0,-3.075057,-1.974002,-1.183404\C,0,2.171504,0.189291,-0.228224\H,0,
 3.009346,0.810022,-0.591394\H,0,1.631527,-0.111579,-1.14409\H,0,-1.685
 9,2.077888,0.51356\C,0,-2.998214,-0.735536,1.015228\H,0,-4.005108,-0.6
 29009,0.581922\H,0,-2.994813,-1.634736,1.646884\H,0,-2.835519,0.137675
 ,1.664157\C,0,-1.868872,0.435758,-0.920261\H,0,-2.855212,0.827418,-1.2
 12128\H,0,-1.311038,0.210127,-1.841782\H,0,-0.461761,0.700364,1.910675
 \H,0,0.108233,-1.317926,-0.314434\C,0,2.746126,-1.028042,0.478904\H,0,
 3.393993,-0.683256,1.304051\H,0,1.940924,-1.596201,0.97345\C,0,3.52407
 8,-1.943862,-0.442497\H,0,2.88118,-2.352051,-1.237095\H,0,4.348982,-1.
 411623,-0.939864\H,0,3.961843,-2.797269,0.093048\\Version=ES64L-G16Rev
 C.01\State=1-A\HF=-581.7809235\RMSD=4.261e-09\Dipole=-0.2628347,0.1018
 691,0.553031\Quadrupole=5.8691093,-4.7505072,-1.1186021,1.4299514,0.97
 63,1.5410385\PG=C01 [X(C11H20O2)]\\@
 The archive entry for this job was punched.


          EVOLUTION
 IN THE BEGINNING GOD MADE MAN.
 HE WORKED THE DIRT WITH HIS HANDS.
 THEN GOD DECIDED TO GIVE MAN SCIENCE,
 MAN SHOULD BE USEFUL (LIKE AN APPLIANCE.)
 BUT SOON MAN'S KNOWLEDGE GREW TOO GREAT,
 TO THE HEADING SCIENCE HE COULDN'T RELATE
 SO GOD SAID "LETS HAVE DIFFERENT FIELDS,
 WE'LL DIVIDE THEM UP, SEE WHAT IT YIELDS."
 ENTER PHYSICS, CHEMISTRY, BIO
 THEY SPRANG UP AROUND THE NILE.
 BUT CHEMISTRY SURPASSED THE REST
 FAR AND AWAY IT WAS THE BEST.
 EXPERIMENT WAS GOD'S DECREE
 EXPERIMENT DID CHEMISTS WITH LOTS OF GLEE
 BUT SOON THEIR TESTS BEGAN TO BOG,
 THEY FOUND THEMSELVES DEEP IN A FOG.
 "GIVE US SOME HELP" THEY CRIED TO GOD.
 GOD LOOKED AROUND, THEN GAVE THE NOD.
 ENTER EINSTEIN, HEISENBERG, BOHR,
 REACTION PATHS WERE CLEAR ONCE MORE.
 WITH THEORISTS GOD SEND DIRECTION
 AND THEN HE STOPPED, HE'D MADE PERFECTION.
          -- THOMAS A. HOLME, 1981
 Job cpu time:       0 days  0 hours 32 minutes 26.9 seconds.
 Elapsed time:       0 days  0 hours  1 minutes  1.5 seconds.
 File lengths (MBytes):  RWF=    163 Int=      0 D2E=      0 Chk=     18 Scr=      2
 Normal termination of Gaussian 16 at Thu Nov  2 07:03:33 2023.
