 Entering Gaussian System, Link 0=/public3/home/scg5914/software-scg5914/g16/g16
 Input=dsgdb9nsd_130366.gjf
 Output=dsgdb9nsd_130366.log
 Initial command:
 /public3/home/scg5914/software-scg5914/g16/l1.exe "/public3/home/scg5914/software-scg5914/test/tmp/dsgdb9nsd_130366/Gau-155541.inp" -scrdir="/public3/home/scg5914/software-scg5914/test/tmp/dsgdb9nsd_130366/"
 Entering Link 1 = /public3/home/scg5914/software-scg5914/g16/l1.exe PID=    155542.
  
 Copyright (c) 1988-2019, Gaussian, Inc.  All Rights Reserved.
  
 This is part of the Gaussian(R) 16 program.  It is based on
 the Gaussian(R) 09 system (copyright 2009, Gaussian, Inc.),
 the Gaussian(R) 03 system (copyright 2003, Gaussian, Inc.),
 the Gaussian(R) 98 system (copyright 1998, Gaussian, Inc.),
 the Gaussian(R) 94 system (copyright 1995, Gaussian, Inc.),
 the Gaussian 92(TM) system (copyright 1992, Gaussian, Inc.),
 the Gaussian 90(TM) system (copyright 1990, Gaussian, Inc.),
 the Gaussian 88(TM) system (copyright 1988, Gaussian, Inc.),
 the Gaussian 86(TM) system (copyright 1986, Carnegie Mellon
 University), and the Gaussian 82(TM) system (copyright 1983,
 Carnegie Mellon University). Gaussian is a federally registered
 trademark of Gaussian, Inc.
  
 This software contains proprietary and confidential information,
 including trade secrets, belonging to Gaussian, Inc.
  
 This software is provided under written license and may be
 used, copied, transmitted, or stored only in accord with that
 written license.
  
 The following legend is applicable only to US Government
 contracts under FAR:
  
                    RESTRICTED RIGHTS LEGEND
  
 Use, reproduction and disclosure by the US Government is
 subject to restrictions as set forth in subparagraphs (a)
 and (c) of the Commercial Computer Software - Restricted
 Rights clause in FAR 52.227-19.
  
 Gaussian, Inc.
 340 Quinnipiac St., Bldg. 40, Wallingford CT 06492
  
  
 ---------------------------------------------------------------
 Warning -- This program may not be used in any manner that
 competes with the business of Gaussian, Inc. or will provide
 assistance to any competitor of Gaussian, Inc.  The licensee
 of this program is prohibited from giving any competitor of
 Gaussian, Inc. access to this program.  By using this program,
 the user acknowledges that Gaussian, Inc. is engaged in the
 business of creating and licensing software in the field of
 computational chemistry and represents and warrants to the
 licensee that it is not a competitor of Gaussian, Inc. and that
 it will not use this program in any manner prohibited above.
 ---------------------------------------------------------------
  

 Cite this work as:
 Gaussian 16, Revision C.01,
 M. J. Frisch, G. W. Trucks, H. B. Schlegel, G. E. Scuseria, 
 M. A. Robb, J. R. Cheeseman, G. Scalmani, V. Barone, 
 G. A. Petersson, H. Nakatsuji, X. Li, M. Caricato, A. V. Marenich, 
 J. Bloino, B. G. Janesko, R. Gomperts, B. Mennucci, H. P. Hratchian, 
 J. V. Ortiz, A. F. Izmaylov, J. L. Sonnenberg, D. Williams-Young, 
 F. Ding, F. Lipparini, F. Egidi, J. Goings, B. Peng, A. Petrone, 
 T. Henderson, D. Ranasinghe, V. G. Zakrzewski, J. Gao, N. Rega, 
 G. Zheng, W. Liang, M. Hada, M. Ehara, K. Toyota, R. Fukuda, 
 J. Hasegawa, M. Ishida, T. Nakajima, Y. Honda, O. Kitao, H. Nakai, 
 T. Vreven, K. Throssell, J. A. Montgomery, Jr., J. E. Peralta, 
 F. Ogliaro, M. J. Bearpark, J. J. Heyd, E. N. Brothers, K. N. Kudin, 
 V. N. Staroverov, T. A. Keith, R. Kobayashi, J. Normand, 
 K. Raghavachari, A. P. Rendell, J. C. Burant, S. S. Iyengar, 
 J. Tomasi, M. Cossi, J. M. Millam, M. Klene, C. Adamo, R. Cammi, 
 J. W. Ochterski, R. L. Martin, K. Morokuma, O. Farkas, 
 J. B. Foresman, and D. J. Fox, Gaussian, Inc., Wallingford CT, 2019.
 
 ******************************************
 Gaussian 16:  ES64L-G16RevC.01  3-Jul-2019
                 3-Nov-2022 
 ******************************************
 %chk=dsgdb9nsd_130366.chk
 %mem=60GB
 %nprocshared=32
 Will use up to   32 processors via shared memory.
 ------------------------------------
 #p opt freq b3lyp/6-311+g** em=gd3bj
 ------------------------------------
 1/18=20,19=15,26=3,38=1/1,3;
 2/9=110,12=2,17=6,18=5,40=1/2;
 3/5=4,6=6,7=111,11=2,25=1,30=1,71=1,74=-5,124=41/1,2,3;
 4//1;
 5/5=2,38=5/2;
 6/7=2,8=2,9=2,10=2,28=1/1;
 7//1,2,3,16;
 1/18=20,19=15,26=3/3(2);
 2/9=110/2;
 99//99;
 2/9=110/2;
 3/5=4,6=6,7=111,11=2,25=1,30=1,71=1,74=-5,124=41/1,2,3;
 4/5=5,16=3,69=1/1;
 5/5=2,38=5/2;
 7//1,2,3,16;
 1/18=20,19=15,26=3/3(-5);
 2/9=110/2;
 6/7=2,8=2,9=2,10=2,19=2,28=1/1;
 99/9=1/99;
 Leave Link    1 at Thu Nov  3 23:52:41 2022, MaxMem=  8053063680 cpu:               0.8 elap:               0.0
 (Enter /public3/home/scg5914/software-scg5914/g16/l101.exe)
 ----------------
 dsgdb9nsd_130366
 ----------------
 Symbolic Z-matrix:
 Charge =  0 Multiplicity = 1
 N                     0.00225   1.3567   -0.00826 
 C                     0.03035   0.01635  -0.02811 
 N                     1.11163  -0.70754   0.03105 
 H                     2.02915  -0.28024   0.09826 
 C                     1.14371  -2.11595   0.0101 
 N                     2.31716  -2.76935   0.07645 
 C                     1.82963  -4.02479   0.02423 
 O                     2.62054  -5.11938   0.05849 
 N                     0.49927  -4.13346  -0.06485 
 N                     0.04373  -2.84161  -0.07413 
 H                     0.83633   1.91654   0.05622 
 H                    -0.87841   1.8367   -0.05751 
 H                    -0.90295  -0.53269  -0.09837 
 H                     3.52534  -4.79482   0.12308 
 
 ITRead=  0  0  0  0  0  0  0  0  0  0  0  0  0  0
 MicOpt= -1 -1 -1 -1 -1 -1 -1 -1 -1 -1 -1 -1 -1 -1
 NAtoms=     14 NQM=       14 NQMF=       0 NMMI=      0 NMMIF=      0
                NMic=       0 NMicF=      0.
                    Isotopes and Nuclear Properties:
 (Nuclear quadrupole moments (NQMom) in fm**2, nuclear magnetic moments (NMagM)
  in nuclear magnetons)

  Atom         1           2           3           4           5           6           7           8           9          10
 IAtWgt=          14          12          14           1          12          14          12          16          14          14
 AtmWgt=  14.0030740  12.0000000  14.0030740   1.0078250  12.0000000  14.0030740  12.0000000  15.9949146  14.0030740  14.0030740
 NucSpn=           2           0           2           1           0           2           0           0           2           2
 AtZEff=  -0.0000000  -0.0000000  -0.0000000  -0.0000000  -0.0000000  -0.0000000  -0.0000000  -0.0000000  -0.0000000  -0.0000000
 NQMom=    2.0440000   0.0000000   2.0440000   0.0000000   0.0000000   2.0440000   0.0000000   0.0000000   2.0440000   2.0440000
 NMagM=    0.4037610   0.0000000   0.4037610   2.7928460   0.0000000   0.4037610   0.0000000   0.0000000   0.4037610   0.4037610
 AtZNuc=   7.0000000   6.0000000   7.0000000   1.0000000   6.0000000   7.0000000   6.0000000   8.0000000   7.0000000   7.0000000

  Atom        11          12          13          14
 IAtWgt=           1           1           1           1
 AtmWgt=   1.0078250   1.0078250   1.0078250   1.0078250
 NucSpn=           1           1           1           1
 AtZEff=  -0.0000000  -0.0000000  -0.0000000  -0.0000000
 NQMom=    0.0000000   0.0000000   0.0000000   0.0000000
 NMagM=    2.7928460   2.7928460   2.7928460   2.7928460
 AtZNuc=   1.0000000   1.0000000   1.0000000   1.0000000
 Leave Link  101 at Thu Nov  3 23:52:41 2022, MaxMem=  8053063680 cpu:               4.3 elap:               0.1
 (Enter /public3/home/scg5914/software-scg5914/g16/l103.exe)

 GradGradGradGradGradGradGradGradGradGradGradGradGradGradGradGradGradGrad
 Berny optimization.
 Initialization pass.
                           ----------------------------
                           !    Initial Parameters    !
                           ! (Angstroms and Degrees)  !
 --------------------------                            --------------------------
 ! Name  Definition              Value          Derivative Info.                !
 --------------------------------------------------------------------------------
 ! R1    R(1,2)                  1.3408         estimate D2E/DX2                !
 ! R2    R(1,11)                 1.0066         estimate D2E/DX2                !
 ! R3    R(1,12)                 1.0042         estimate D2E/DX2                !
 ! R4    R(2,3)                  1.3026         estimate D2E/DX2                !
 ! R5    R(2,13)                 1.0851         estimate D2E/DX2                !
 ! R6    R(3,4)                  1.0144         estimate D2E/DX2                !
 ! R7    R(3,5)                  1.4089         estimate D2E/DX2                !
 ! R8    R(5,6)                  1.3447         estimate D2E/DX2                !
 ! R9    R(5,10)                 1.3205         estimate D2E/DX2                !
 ! R10   R(6,7)                  1.3478         estimate D2E/DX2                !
 ! R11   R(7,8)                  1.3509         estimate D2E/DX2                !
 ! R12   R(7,9)                  1.3378         estimate D2E/DX2                !
 ! R13   R(8,14)                 0.9634         estimate D2E/DX2                !
 ! R14   R(9,10)                 1.3699         estimate D2E/DX2                !
 ! A1    A(2,1,11)             122.6539         estimate D2E/DX2                !
 ! A2    A(2,1,12)             119.7022         estimate D2E/DX2                !
 ! A3    A(11,1,12)            117.6438         estimate D2E/DX2                !
 ! A4    A(1,2,3)              124.9094         estimate D2E/DX2                !
 ! A5    A(1,2,13)             119.2588         estimate D2E/DX2                !
 ! A6    A(3,2,13)             115.8317         estimate D2E/DX2                !
 ! A7    A(2,3,4)              121.3168         estimate D2E/DX2                !
 ! A8    A(2,3,5)              125.0131         estimate D2E/DX2                !
 ! A9    A(4,3,5)              113.6701         estimate D2E/DX2                !
 ! A10   A(3,5,6)              120.3219         estimate D2E/DX2                !
 ! A11   A(3,5,10)             122.0949         estimate D2E/DX2                !
 ! A12   A(6,5,10)             117.5832         estimate D2E/DX2                !
 ! A13   A(5,6,7)               97.7613         estimate D2E/DX2                !
 ! A14   A(6,7,8)              122.8199         estimate D2E/DX2                !
 ! A15   A(6,7,9)              115.9743         estimate D2E/DX2                !
 ! A16   A(8,7,9)              121.2058         estimate D2E/DX2                !
 ! A17   A(7,8,14)             106.1762         estimate D2E/DX2                !
 ! A18   A(7,9,10)             104.7471         estimate D2E/DX2                !
 ! A19   A(5,10,9)             103.9341         estimate D2E/DX2                !
 ! D1    D(11,1,2,3)            -0.0509         estimate D2E/DX2                !
 ! D2    D(11,1,2,13)          179.9612         estimate D2E/DX2                !
 ! D3    D(12,1,2,3)          -179.9537         estimate D2E/DX2                !
 ! D4    D(12,1,2,13)            0.0584         estimate D2E/DX2                !
 ! D5    D(1,2,3,4)              0.0103         estimate D2E/DX2                !
 ! D6    D(1,2,3,5)           -179.9873         estimate D2E/DX2                !
 ! D7    D(13,2,3,4)           179.9986         estimate D2E/DX2                !
 ! D8    D(13,2,3,5)             0.001          estimate D2E/DX2                !
 ! D9    D(2,3,5,6)            179.9989         estimate D2E/DX2                !
 ! D10   D(2,3,5,10)             0.0065         estimate D2E/DX2                !
 ! D11   D(4,3,5,6)              0.0011         estimate D2E/DX2                !
 ! D12   D(4,3,5,10)          -179.9912         estimate D2E/DX2                !
 ! D13   D(3,5,6,7)            179.9856         estimate D2E/DX2                !
 ! D14   D(10,5,6,7)            -0.0217         estimate D2E/DX2                !
 ! D15   D(3,5,10,9)          -179.98           estimate D2E/DX2                !
 ! D16   D(6,5,10,9)             0.0275         estimate D2E/DX2                !
 ! D17   D(5,6,7,8)           -179.9945         estimate D2E/DX2                !
 ! D18   D(5,6,7,9)              0.0071         estimate D2E/DX2                !
 ! D19   D(6,7,8,14)            -0.0009         estimate D2E/DX2                !
 ! D20   D(9,7,8,14)           179.9975         estimate D2E/DX2                !
 ! D21   D(6,7,9,10)             0.0079         estimate D2E/DX2                !
 ! D22   D(8,7,9,10)          -179.9905         estimate D2E/DX2                !
 ! D23   D(7,9,10,5)            -0.0195         estimate D2E/DX2                !
 --------------------------------------------------------------------------------
 Trust Radius=3.00D-01 FncErr=1.00D-07 GrdErr=1.00D-06 EigMax=2.50D+02 EigMin=1.00D-04
 Number of steps in this run=     66 maximum allowed number of steps=    100.
 GradGradGradGradGradGradGradGradGradGradGradGradGradGradGradGradGradGrad

 Leave Link  103 at Thu Nov  3 23:52:41 2022, MaxMem=  8053063680 cpu:               0.3 elap:               0.0
 (Enter /public3/home/scg5914/software-scg5914/g16/l202.exe)
                          Input orientation:                          
 ---------------------------------------------------------------------
 Center     Atomic      Atomic             Coordinates (Angstroms)
 Number     Number       Type             X           Y           Z
 ---------------------------------------------------------------------
      1          7           0        0.002251    1.356701   -0.008264
      2          6           0        0.030347    0.016355   -0.028111
      3          7           0        1.111627   -0.707536    0.031048
      4          1           0        2.029150   -0.280245    0.098257
      5          6           0        1.143712   -2.115946    0.010105
      6          7           0        2.317160   -2.769354    0.076447
      7          6           0        1.829632   -4.024794    0.024230
      8          8           0        2.620541   -5.119379    0.058493
      9          7           0        0.499271   -4.133463   -0.064848
     10          7           0        0.043731   -2.841607   -0.074134
     11          1           0        0.836327    1.916537    0.056219
     12          1           0       -0.878411    1.836700   -0.057514
     13          1           0       -0.902955   -0.532692   -0.098369
     14          1           0        3.525339   -4.794823    0.123078
 ---------------------------------------------------------------------
                    Distance matrix (angstroms):
                    1          2          3          4          5
     1  N    0.000000
     2  C    1.340788   0.000000
     3  N    2.343787   1.302568   0.000000
     4  H    2.607539   2.024637   1.014368   0.000000
     5  C    3.655483   2.405774   1.408931   2.039993   0.000000
     6  N    4.731840   3.605637   2.388821   2.505811   1.344739
     7  C    5.683386   4.423918   3.394080   3.750592   2.028395
     8  O    6.985665   5.752596   4.662825   4.875299   3.347233
     9  N    5.512906   4.176389   3.481545   4.149027   2.119268
    10  N    4.199030   2.858364   2.388666   3.245333   1.320469
    11  H    1.006607   2.065770   2.638595   2.500089   4.044445
    12  H    1.004186   2.034788   3.231289   3.599949   4.440379
    13  H    2.096979   1.085100   2.026293   2.949514   2.589847
    14  H    7.090180   5.948551   4.747672   4.756114   3.586264
                    6          7          8          9         10
     6  N    0.000000
     7  C    1.347791   0.000000
     8  O    2.369595   1.350861   0.000000
     9  N    2.277164   1.337761   2.342440   0.000000
    10  N    2.279556   2.144540   3.441770   1.369852   0.000000
    11  H    4.914352   6.023877   7.258619   6.060591   4.825468
    12  H    5.607615   6.457344   7.787371   6.127063   4.768352
    13  H    3.924584   4.435859   5.785959   3.864313   2.495575
    14  H    2.358897   1.864976   0.963414   3.103191   3.996941
                   11         12         13         14
    11  H    0.000000
    12  H    1.720359   0.000000
    13  H    3.007943   2.369871   0.000000
    14  H    7.230326   7.962583   6.150170   0.000000
 Stoichiometry    C3H5N5O
 Framework group  C1[X(C3H5N5O)]
 Deg. of freedom    36
 Full point group                 C1      NOp   1
 Largest Abelian subgroup         C1      NOp   1
 Largest concise Abelian subgroup C1      NOp   1
                         Standard orientation:                         
 ---------------------------------------------------------------------
 Center     Atomic      Atomic             Coordinates (Angstroms)
 Number     Number       Type             X           Y           Z
 ---------------------------------------------------------------------
      1          7           0        3.684076   -0.177792   -0.000060
      2          6           0        2.413468    0.250308    0.000082
      3          7           0        1.365992   -0.523951   -0.000005
      4          1           0        1.457112   -1.534219   -0.000037
      5          6           0        0.029996   -0.076511   -0.000112
      6          7           0       -0.982396   -0.961601   -0.000220
      7          6           0       -1.998399   -0.076006    0.000046
      8          8           0       -3.296257   -0.450693    0.000177
      9          7           0       -1.649847    1.215550    0.000142
     10          7           0       -0.280022    1.207050   -0.000260
     11          1           0        3.928174   -1.154353    0.000503
     12          1           0        4.434097    0.489933    0.000728
     13          1           0        2.213140    1.316756    0.000086
     14          1           0       -3.297485   -1.414106    0.000030
 ---------------------------------------------------------------------
 Rotational constants (GHZ):           7.2060896           0.8239487           0.7394047
 Leave Link  202 at Thu Nov  3 23:52:41 2022, MaxMem=  8053063680 cpu:               0.2 elap:               0.0
 (Enter /public3/home/scg5914/software-scg5914/g16/l301.exe)
 Standard basis: 6-311+G(d,p) (5D, 7F)
 Ernie: Thresh=  0.10000D-02 Tol=  0.10000D-05 Strict=F.
 There are   237 symmetry adapted cartesian basis functions of A   symmetry.
 There are   228 symmetry adapted basis functions of A   symmetry.
   228 basis functions,   364 primitive gaussians,   237 cartesian basis functions
    33 alpha electrons       33 beta electrons
       nuclear repulsion energy       428.5193281979 Hartrees.
 IExCor=  402 DFT=T Ex+Corr=B3LYP ExCW=0 ScaHFX=  0.200000
 ScaDFX=  0.800000  0.720000  1.000000  0.810000 ScalE2=  1.000000  1.000000
 IRadAn=      5 IRanWt=     -1 IRanGd=            0 ICorTp=0 IEmpDi=141
 NAtoms=   14 NActive=   14 NUniq=   14 SFac= 1.00D+00 NAtFMM=   60 NAOKFM=F Big=F
 Integral buffers will be    131072 words long.
 Raffenetti 2 integral format.
 Two-electron integral symmetry is turned on.
 R6Disp:  Grimme-D3(BJ) Dispersion energy=       -0.0201489956 Hartrees.
 Nuclear repulsion after empirical dispersion term =      428.4991792024 Hartrees.
 Leave Link  301 at Thu Nov  3 23:52:42 2022, MaxMem=  8053063680 cpu:               1.0 elap:               0.0
 (Enter /public3/home/scg5914/software-scg5914/g16/l302.exe)
 NPDir=0 NMtPBC=     1 NCelOv=     1 NCel=       1 NClECP=     1 NCelD=      1
         NCelK=      1 NCelE2=     1 NClLst=     1 CellRange=     0.0.
 One-electron integrals computed using PRISM.
 One-electron integral symmetry used in STVInt
 NBasis=   228 RedAO= T EigKep=  1.91D-05  NBF=   228
 NBsUse=   228 1.00D-06 EigRej= -1.00D+00 NBFU=   228
 Precomputing XC quadrature grid using
 IXCGrd= 4 IRadAn=           5 IRanWt=          -1 IRanGd=           0 AccXCQ= 0.00D+00.
 Generated NRdTot=       0 NPtTot=           0 NUsed=           0 NTot=          32
 NSgBfM=   237   237   237   237   237 MxSgAt=    14 MxSgA2=    14.
 Leave Link  302 at Thu Nov  3 23:52:42 2022, MaxMem=  8053063680 cpu:               4.0 elap:               0.1
 (Enter /public3/home/scg5914/software-scg5914/g16/l303.exe)
 DipDrv:  MaxL=1.
 Leave Link  303 at Thu Nov  3 23:52:42 2022, MaxMem=  8053063680 cpu:               0.5 elap:               0.0
 (Enter /public3/home/scg5914/software-scg5914/g16/l401.exe)
 ExpMin= 4.38D-02 ExpMax= 8.59D+03 ExpMxC= 1.30D+03 IAcc=3 IRadAn=         5 AccDes= 0.00D+00
 Harris functional with IExCor=  402 and IRadAn=       5 diagonalized for initial guess.
 HarFok:  IExCor=  402 AccDes= 0.00D+00 IRadAn=         5 IDoV= 1 UseB2=F ITyADJ=14
 ICtDFT=  3500011 ScaDFX=  1.000000  1.000000  1.000000  1.000000
 FoFCou: FMM=F IPFlag=           0 FMFlag=      100000 FMFlg1=           0
         NFxFlg=           0 DoJE=T BraDBF=F KetDBF=T FulRan=T
         wScrn=  0.000000 ICntrl=       500 IOpCl=  0 I1Cent=   200000004 NGrid=           0
         NMat0=    1 NMatS0=      1 NMatT0=    0 NMatD0=    1 NMtDS0=    0 NMtDT0=    0
 Petite list used in FoFCou.
 Harris En= -466.403672062296    
 JPrj=0 DoOrth=F DoCkMO=F.
 Leave Link  401 at Thu Nov  3 23:52:42 2022, MaxMem=  8053063680 cpu:              12.1 elap:               0.4
 (Enter /public3/home/scg5914/software-scg5914/g16/l502.exe)
 Integral symmetry usage will be decided dynamically.
 Closed shell SCF:
 Using DIIS extrapolation, IDIIS=  1040.
 NGot=  8053063680 LenX=  8052941140 LenY=  8052884530
 Requested convergence on RMS density matrix=1.00D-08 within 128 cycles.
 Requested convergence on MAX density matrix=1.00D-06.
 Requested convergence on             energy=1.00D-06.
 No special actions if energy rises.
 Fock matrices will be formed incrementally for  20 cycles.

 Cycle   1  Pass 1  IDiag  1:
 FoFJK:  IHMeth= 1 ICntrl=       0 DoSepK=F KAlg= 0 I1Cent=           0 FoldK=F
 IRaf= 900000000 NMat=       1 IRICut=       1 DoRegI=T DoRafI=F ISym2E= 0 IDoP0=0 IntGTp=1.
 FoFCou: FMM=F IPFlag=           0 FMFlag=      100000 FMFlg1=           0
         NFxFlg=           0 DoJE=F BraDBF=F KetDBF=F FulRan=T
         wScrn=  0.000000 ICntrl=         0 IOpCl=  0 I1Cent=           0 NGrid=           0
         NMat0=    1 NMatS0=      1 NMatT0=    0 NMatD0=    1 NMtDS0=    0 NMtDT0=    0
 Symmetry not used in FoFCou.
 E= -466.200828945411    
 DIIS: error= 4.32D-02 at cycle   1 NSaved=   1.
 NSaved= 1 IEnMin= 1 EnMin= -466.200828945411     IErMin= 1 ErrMin= 4.32D-02
 ErrMax= 4.32D-02  0.00D+00 EMaxC= 1.00D-01 BMatC= 2.76D-01 BMatP= 2.76D-01
 IDIUse=3 WtCom= 5.68D-01 WtEn= 4.32D-01
 Coeff-Com:  0.100D+01
 Coeff-En:   0.100D+01
 Coeff:      0.100D+01
 Gap=     0.023 Goal=   None    Shift=    0.000
 GapD=    0.023 DampG=0.250 DampE=0.500 DampFc=0.2500 IDamp=-1.
 Damping current iteration by 2.50D-01
 RMSDP=6.33D-02 MaxDP=3.14D+00              OVMax= 5.90D-01

 Cycle   2  Pass 1  IDiag  1:
 RMSU=  1.58D-02    CP:  1.04D+00
 E= -466.223140702751     Delta-E=       -0.022311757340 Rises=F Damp=T
 DIIS: error= 1.47D-02 at cycle   2 NSaved=   2.
 NSaved= 2 IEnMin= 2 EnMin= -466.223140702751     IErMin= 2 ErrMin= 1.47D-02
 ErrMax= 1.47D-02  0.00D+00 EMaxC= 1.00D-01 BMatC= 6.61D-02 BMatP= 2.76D-01
 IDIUse=3 WtCom= 8.53D-01 WtEn= 1.47D-01
 Coeff-Com: -0.334D+00 0.133D+01
 Coeff-En:   0.395D+00 0.605D+00
 Coeff:     -0.227D+00 0.123D+01
 Gap=     0.107 Goal=   None    Shift=    0.000
 RMSDP=1.57D-02 MaxDP=7.78D-01 DE=-2.23D-02 OVMax= 6.18D-01

 Cycle   3  Pass 1  IDiag  1:
 RMSU=  3.42D-03    CP:  1.02D+00  2.84D-02
 E= -466.242986440520     Delta-E=       -0.019845737769 Rises=F Damp=F
 DIIS: error= 4.11D-02 at cycle   3 NSaved=   3.
 NSaved= 3 IEnMin= 3 EnMin= -466.242986440520     IErMin= 2 ErrMin= 1.47D-02
 ErrMax= 4.11D-02  0.00D+00 EMaxC= 1.00D-01 BMatC= 1.62D-01 BMatP= 6.61D-02
 IDIUse=2 WtCom= 0.00D+00 WtEn= 1.00D+00
 EnCoef did     2 forward-backward iterations
 Coeff-En:   0.297D-02 0.454D+00 0.543D+00
 Coeff:      0.297D-02 0.454D+00 0.543D+00
 Gap=     0.126 Goal=   None    Shift=    0.000
 RMSDP=5.44D-03 MaxDP=1.52D-01 DE=-1.98D-02 OVMax= 5.77D-01

 Cycle   4  Pass 1  IDiag  1:
 RMSU=  4.93D-03    CP:  1.02D+00  1.64D-01  7.57D-01
 E= -466.145939320257     Delta-E=        0.097047120263 Rises=F Damp=F
 DIIS: error= 8.61D-02 at cycle   4 NSaved=   4.
 NSaved= 4 IEnMin= 3 EnMin= -466.242986440520     IErMin= 2 ErrMin= 1.47D-02
 ErrMax= 8.61D-02  0.00D+00 EMaxC= 1.00D-01 BMatC= 2.35D-01 BMatP= 6.61D-02
 IDIUse=2 WtCom= 0.00D+00 WtEn= 1.00D+00
 Coeff-En:   0.000D+00 0.000D+00 0.581D+00 0.419D+00
 Coeff:      0.000D+00 0.000D+00 0.581D+00 0.419D+00
 Gap=     0.143 Goal=   None    Shift=    0.000
 RMSDP=3.58D-03 MaxDP=1.26D-01 DE= 9.70D-02 OVMax= 4.05D-01

 Cycle   5  Pass 1  IDiag  1:
 RMSU=  9.28D-04    CP:  1.01D+00  5.52D-02  6.54D-01  3.98D-01
 E= -466.400243872437     Delta-E=       -0.254304552179 Rises=F Damp=F
 DIIS: error= 8.89D-03 at cycle   5 NSaved=   5.
 NSaved= 5 IEnMin= 5 EnMin= -466.400243872437     IErMin= 5 ErrMin= 8.89D-03
 ErrMax= 8.89D-03  0.00D+00 EMaxC= 1.00D-01 BMatC= 1.31D-02 BMatP= 6.61D-02
 IDIUse=3 WtCom= 9.11D-01 WtEn= 8.89D-02
 Coeff-Com: -0.256D+00 0.405D+00 0.193D+00 0.374D-02 0.654D+00
 Coeff-En:   0.000D+00 0.000D+00 0.000D+00 0.000D+00 0.100D+01
 Coeff:     -0.233D+00 0.369D+00 0.176D+00 0.341D-02 0.684D+00
 Gap=     0.119 Goal=   None    Shift=    0.000
 RMSDP=5.65D-04 MaxDP=1.51D-02 DE=-2.54D-01 OVMax= 3.00D-02

 Cycle   6  Pass 1  IDiag  1:
 RMSU=  4.45D-04    CP:  1.01D+00  5.19D-02  7.03D-01  3.43D-01  8.61D-01
 E= -466.406294325739     Delta-E=       -0.006050453302 Rises=F Damp=F
 DIIS: error= 5.93D-03 at cycle   6 NSaved=   6.
 NSaved= 6 IEnMin= 6 EnMin= -466.406294325739     IErMin= 6 ErrMin= 5.93D-03
 ErrMax= 5.93D-03  0.00D+00 EMaxC= 1.00D-01 BMatC= 3.93D-03 BMatP= 1.31D-02
 IDIUse=3 WtCom= 9.41D-01 WtEn= 5.93D-02
 Coeff-Com: -0.166D+00 0.218D+00 0.311D-01-0.181D-01 0.442D+00 0.493D+00
 Coeff-En:   0.000D+00 0.000D+00 0.000D+00 0.000D+00 0.225D+00 0.775D+00
 Coeff:     -0.156D+00 0.205D+00 0.292D-01-0.170D-01 0.429D+00 0.510D+00
 Gap=     0.115 Goal=   None    Shift=    0.000
 RMSDP=3.43D-04 MaxDP=7.44D-03 DE=-6.05D-03 OVMax= 1.89D-02

 Cycle   7  Pass 1  IDiag  1:
 RMSU=  1.49D-04    CP:  1.01D+00  5.75D-02  6.90D-01  3.96D-01  9.91D-01
                    CP:  8.71D-01
 E= -466.410046732554     Delta-E=       -0.003752406815 Rises=F Damp=F
 DIIS: error= 2.44D-03 at cycle   7 NSaved=   7.
 NSaved= 7 IEnMin= 7 EnMin= -466.410046732554     IErMin= 7 ErrMin= 2.44D-03
 ErrMax= 2.44D-03  0.00D+00 EMaxC= 1.00D-01 BMatC= 2.67D-04 BMatP= 3.93D-03
 IDIUse=3 WtCom= 9.76D-01 WtEn= 2.44D-02
 Coeff-Com: -0.321D-01 0.377D-01-0.170D-01 0.660D-02 0.582D-01 0.945D-01
 Coeff-Com:  0.852D+00
 Coeff-En:   0.000D+00 0.000D+00 0.000D+00 0.000D+00 0.000D+00 0.000D+00
 Coeff-En:   0.100D+01
 Coeff:     -0.314D-01 0.368D-01-0.166D-01 0.644D-02 0.568D-01 0.922D-01
 Coeff:      0.856D+00
 Gap=     0.110 Goal=   None    Shift=    0.000
 RMSDP=1.74D-04 MaxDP=3.26D-03 DE=-3.75D-03 OVMax= 1.71D-02

 Cycle   8  Pass 1  IDiag  1:
 RMSU=  6.98D-05    CP:  1.01D+00  5.95D-02  6.87D-01  4.25D-01  1.04D+00
                    CP:  9.31D-01  1.22D+00
 E= -466.410437504444     Delta-E=       -0.000390771890 Rises=F Damp=F
 DIIS: error= 4.04D-04 at cycle   8 NSaved=   8.
 NSaved= 8 IEnMin= 8 EnMin= -466.410437504444     IErMin= 8 ErrMin= 4.04D-04
 ErrMax= 4.04D-04  0.00D+00 EMaxC= 1.00D-01 BMatC= 2.15D-05 BMatP= 2.67D-04
 IDIUse=3 WtCom= 9.96D-01 WtEn= 4.04D-03
 Coeff-Com: -0.149D-02 0.179D-02-0.901D-02 0.324D-02-0.170D-01-0.336D-01
 Coeff-Com:  0.409D+00 0.647D+00
 Coeff-En:   0.000D+00 0.000D+00 0.000D+00 0.000D+00 0.000D+00 0.000D+00
 Coeff-En:   0.000D+00 0.100D+01
 Coeff:     -0.149D-02 0.179D-02-0.898D-02 0.322D-02-0.169D-01-0.335D-01
 Coeff:      0.407D+00 0.649D+00
 Gap=     0.111 Goal=   None    Shift=    0.000
 RMSDP=4.14D-05 MaxDP=1.01D-03 DE=-3.91D-04 OVMax= 2.61D-03

 Cycle   9  Pass 1  IDiag  1:
 RMSU=  3.33D-05    CP:  1.01D+00  5.94D-02  6.91D-01  4.27D-01  1.05D+00
                    CP:  9.06D-01  1.25D+00  1.03D+00
 E= -466.410451460206     Delta-E=       -0.000013955762 Rises=F Damp=F
 DIIS: error= 2.38D-04 at cycle   9 NSaved=   9.
 NSaved= 9 IEnMin= 9 EnMin= -466.410451460206     IErMin= 9 ErrMin= 2.38D-04
 ErrMax= 2.38D-04  0.00D+00 EMaxC= 1.00D-01 BMatC= 6.16D-06 BMatP= 2.15D-05
 IDIUse=3 WtCom= 9.98D-01 WtEn= 2.38D-03
 Coeff-Com:  0.233D-02-0.267D-02-0.194D-02 0.542D-03-0.110D-01-0.261D-01
 Coeff-Com:  0.123D+00 0.368D+00 0.547D+00
 Coeff-En:   0.000D+00 0.000D+00 0.000D+00 0.000D+00 0.000D+00 0.000D+00
 Coeff-En:   0.000D+00 0.209D+00 0.791D+00
 Coeff:      0.233D-02-0.266D-02-0.194D-02 0.540D-03-0.109D-01-0.260D-01
 Coeff:      0.123D+00 0.368D+00 0.548D+00
 Gap=     0.111 Goal=   None    Shift=    0.000
 RMSDP=2.15D-05 MaxDP=9.55D-04 DE=-1.40D-05 OVMax= 7.72D-04

 Cycle  10  Pass 1  IDiag  1:
 RMSU=  1.05D-05    CP:  1.01D+00  5.90D-02  6.89D-01  4.26D-01  1.05D+00
                    CP:  9.22D-01  1.27D+00  1.09D+00  7.75D-01
 E= -466.410455900159     Delta-E=       -0.000004439953 Rises=F Damp=F
 DIIS: error= 9.59D-05 at cycle  10 NSaved=  10.
 NSaved=10 IEnMin=10 EnMin= -466.410455900159     IErMin=10 ErrMin= 9.59D-05
 ErrMax= 9.59D-05  0.00D+00 EMaxC= 1.00D-01 BMatC= 9.40D-07 BMatP= 6.16D-06
 IDIUse=1 WtCom= 1.00D+00 WtEn= 0.00D+00
 Coeff-Com:  0.770D-03-0.938D-03 0.142D-03-0.250D-03-0.152D-02-0.101D-01
 Coeff-Com:  0.379D-01 0.165D+00 0.328D+00 0.481D+00
 Coeff:      0.770D-03-0.938D-03 0.142D-03-0.250D-03-0.152D-02-0.101D-01
 Coeff:      0.379D-01 0.165D+00 0.328D+00 0.481D+00
 Gap=     0.112 Goal=   None    Shift=    0.000
 RMSDP=6.22D-06 MaxDP=1.31D-04 DE=-4.44D-06 OVMax= 4.04D-04

 Cycle  11  Pass 1  IDiag  1:
 RMSU=  3.74D-06    CP:  1.01D+00  5.89D-02  6.89D-01  4.25D-01  1.04D+00
                    CP:  9.17D-01  1.26D+00  1.08D+00  7.70D-01  8.96D-01
 E= -466.410456775415     Delta-E=       -0.000000875256 Rises=F Damp=F
 DIIS: error= 2.82D-05 at cycle  11 NSaved=  11.
 NSaved=11 IEnMin=11 EnMin= -466.410456775415     IErMin=11 ErrMin= 2.82D-05
 ErrMax= 2.82D-05  0.00D+00 EMaxC= 1.00D-01 BMatC= 9.71D-08 BMatP= 9.40D-07
 IDIUse=1 WtCom= 1.00D+00 WtEn= 0.00D+00
 Coeff-Com:  0.144D-03-0.270D-03 0.383D-03-0.252D-03 0.107D-02-0.117D-02
 Coeff-Com:  0.525D-02 0.274D-01 0.755D-01 0.239D+00 0.653D+00
 Coeff:      0.144D-03-0.270D-03 0.383D-03-0.252D-03 0.107D-02-0.117D-02
 Coeff:      0.525D-02 0.274D-01 0.755D-01 0.239D+00 0.653D+00
 Gap=     0.112 Goal=   None    Shift=    0.000
 RMSDP=2.13D-06 MaxDP=6.29D-05 DE=-8.75D-07 OVMax= 9.16D-05

 Cycle  12  Pass 1  IDiag  1:
 RMSU=  1.06D-06    CP:  1.01D+00  5.88D-02  6.89D-01  4.25D-01  1.05D+00
                    CP:  9.16D-01  1.26D+00  1.08D+00  7.75D-01  9.69D-01
                    CP:  8.38D-01
 E= -466.410456851849     Delta-E=       -0.000000076434 Rises=F Damp=F
 DIIS: error= 1.01D-05 at cycle  12 NSaved=  12.
 NSaved=12 IEnMin=12 EnMin= -466.410456851849     IErMin=12 ErrMin= 1.01D-05
 ErrMax= 1.01D-05  0.00D+00 EMaxC= 1.00D-01 BMatC= 2.17D-08 BMatP= 9.71D-08
 IDIUse=1 WtCom= 1.00D+00 WtEn= 0.00D+00
 Coeff-Com: -0.188D-03 0.222D-03 0.323D-03-0.198D-03 0.137D-02 0.102D-02
 Coeff-Com: -0.249D-02-0.628D-02-0.231D-03 0.803D-01 0.424D+00 0.502D+00
 Coeff:     -0.188D-03 0.222D-03 0.323D-03-0.198D-03 0.137D-02 0.102D-02
 Coeff:     -0.249D-02-0.628D-02-0.231D-03 0.803D-01 0.424D+00 0.502D+00
 Gap=     0.112 Goal=   None    Shift=    0.000
 RMSDP=1.34D-06 MaxDP=3.22D-05 DE=-7.64D-08 OVMax= 6.27D-05

 Cycle  13  Pass 1  IDiag  1:
 RMSU=  3.99D-07    CP:  1.01D+00  5.88D-02  6.89D-01  4.24D-01  1.04D+00
                    CP:  9.15D-01  1.26D+00  1.08D+00  7.77D-01  9.65D-01
                    CP:  9.42D-01  6.76D-01
 E= -466.410456870231     Delta-E=       -0.000000018382 Rises=F Damp=F
 DIIS: error= 1.77D-06 at cycle  13 NSaved=  13.
 NSaved=13 IEnMin=13 EnMin= -466.410456870231     IErMin=13 ErrMin= 1.77D-06
 ErrMax= 1.77D-06  0.00D+00 EMaxC= 1.00D-01 BMatC= 8.77D-10 BMatP= 2.17D-08
 IDIUse=1 WtCom= 1.00D+00 WtEn= 0.00D+00
 Coeff-Com: -0.358D-04 0.495D-04 0.912D-04-0.613D-04 0.281D-03 0.254D-03
 Coeff-Com: -0.189D-02-0.449D-02-0.767D-02 0.851D-02 0.115D+00 0.228D+00
 Coeff-Com:  0.662D+00
 Coeff:     -0.358D-04 0.495D-04 0.912D-04-0.613D-04 0.281D-03 0.254D-03
 Coeff:     -0.189D-02-0.449D-02-0.767D-02 0.851D-02 0.115D+00 0.228D+00
 Coeff:      0.662D+00
 Gap=     0.112 Goal=   None    Shift=    0.000
 RMSDP=2.82D-07 MaxDP=9.54D-06 DE=-1.84D-08 OVMax= 1.56D-05

 Cycle  14  Pass 1  IDiag  1:
 RMSU=  1.26D-07    CP:  1.01D+00  5.88D-02  6.89D-01  4.24D-01  1.04D+00
                    CP:  9.15D-01  1.26D+00  1.08D+00  7.77D-01  9.75D-01
                    CP:  9.34D-01  7.59D-01  8.94D-01
 E= -466.410456870966     Delta-E=       -0.000000000735 Rises=F Damp=F
 DIIS: error= 1.29D-06 at cycle  14 NSaved=  14.
 NSaved=14 IEnMin=14 EnMin= -466.410456870966     IErMin=14 ErrMin= 1.29D-06
 ErrMax= 1.29D-06  0.00D+00 EMaxC= 1.00D-01 BMatC= 2.24D-10 BMatP= 8.77D-10
 IDIUse=1 WtCom= 1.00D+00 WtEn= 0.00D+00
 Coeff-Com: -0.259D-05-0.289D-06 0.240D-04-0.129D-04 0.470D-04 0.361D-04
 Coeff-Com: -0.769D-03-0.148D-02-0.395D-02-0.216D-02 0.294D-01 0.899D-01
 Coeff-Com:  0.404D+00 0.485D+00
 Coeff:     -0.259D-05-0.289D-06 0.240D-04-0.129D-04 0.470D-04 0.361D-04
 Coeff:     -0.769D-03-0.148D-02-0.395D-02-0.216D-02 0.294D-01 0.899D-01
 Coeff:      0.404D+00 0.485D+00
 Gap=     0.112 Goal=   None    Shift=    0.000
 RMSDP=9.40D-08 MaxDP=2.95D-06 DE=-7.35D-10 OVMax= 7.31D-06

 Cycle  15  Pass 1  IDiag  1:
 RMSU=  4.64D-08    CP:  1.01D+00  5.88D-02  6.89D-01  4.24D-01  1.04D+00
                    CP:  9.15D-01  1.26D+00  1.08D+00  7.77D-01  9.74D-01
                    CP:  9.40D-01  7.49D-01  9.44D-01  6.81D-01
 E= -466.410456871148     Delta-E=       -0.000000000182 Rises=F Damp=F
 DIIS: error= 4.10D-07 at cycle  15 NSaved=  15.
 NSaved=15 IEnMin=15 EnMin= -466.410456871148     IErMin=15 ErrMin= 4.10D-07
 ErrMax= 4.10D-07  0.00D+00 EMaxC= 1.00D-01 BMatC= 1.91D-11 BMatP= 2.24D-10
 IDIUse=1 WtCom= 1.00D+00 WtEn= 0.00D+00
 Coeff-Com: -0.901D-06 0.135D-06 0.423D-05-0.174D-05 0.213D-05 0.344D-05
 Coeff-Com: -0.226D-03-0.256D-03-0.112D-02-0.247D-02 0.827D-03 0.149D-01
 Coeff-Com:  0.104D+00 0.246D+00 0.638D+00
 Coeff:     -0.901D-06 0.135D-06 0.423D-05-0.174D-05 0.213D-05 0.344D-05
 Coeff:     -0.226D-03-0.256D-03-0.112D-02-0.247D-02 0.827D-03 0.149D-01
 Coeff:      0.104D+00 0.246D+00 0.638D+00
 Gap=     0.112 Goal=   None    Shift=    0.000
 RMSDP=3.29D-08 MaxDP=1.15D-06 DE=-1.82D-10 OVMax= 2.26D-06

 Cycle  16  Pass 1  IDiag  1:
 RMSU=  1.45D-08    CP:  1.01D+00  5.88D-02  6.89D-01  4.24D-01  1.04D+00
                    CP:  9.15D-01  1.26D+00  1.08D+00  7.77D-01  9.75D-01
                    CP:  9.40D-01  7.57D-01  9.51D-01  8.10D-01  7.39D-01
 E= -466.410456871166     Delta-E=       -0.000000000018 Rises=F Damp=F
 DIIS: error= 1.86D-07 at cycle  16 NSaved=  16.
 NSaved=16 IEnMin=16 EnMin= -466.410456871166     IErMin=16 ErrMin= 1.86D-07
 ErrMax= 1.86D-07  0.00D+00 EMaxC= 1.00D-01 BMatC= 3.18D-12 BMatP= 1.91D-11
 IDIUse=1 WtCom= 1.00D+00 WtEn= 0.00D+00
 Coeff-Com:  0.645D-06-0.558D-06-0.144D-06 0.448D-07-0.654D-05-0.376D-05
 Coeff-Com: -0.541D-04 0.184D-04-0.259D-03-0.132D-02-0.252D-02-0.325D-03
 Coeff-Com:  0.209D-01 0.103D+00 0.400D+00 0.481D+00
 Coeff:      0.645D-06-0.558D-06-0.144D-06 0.448D-07-0.654D-05-0.376D-05
 Coeff:     -0.541D-04 0.184D-04-0.259D-03-0.132D-02-0.252D-02-0.325D-03
 Coeff:      0.209D-01 0.103D+00 0.400D+00 0.481D+00
 Gap=     0.112 Goal=   None    Shift=    0.000
 RMSDP=1.31D-08 MaxDP=3.62D-07 DE=-1.81D-11 OVMax= 5.13D-07

 Cycle  17  Pass 1  IDiag  1:
 RMSU=  4.85D-09    CP:  1.01D+00  5.88D-02  6.89D-01  4.24D-01  1.04D+00
                    CP:  9.15D-01  1.26D+00  1.08D+00  7.77D-01  9.75D-01
                    CP:  9.40D-01  7.57D-01  9.56D-01  7.93D-01  7.92D-01
                    CP:  5.62D-01
 E= -466.410456871173     Delta-E=       -0.000000000008 Rises=F Damp=F
 DIIS: error= 2.00D-08 at cycle  17 NSaved=  17.
 NSaved=17 IEnMin=17 EnMin= -466.410456871173     IErMin=17 ErrMin= 2.00D-08
 ErrMax= 2.00D-08  0.00D+00 EMaxC= 1.00D-01 BMatC= 9.97D-14 BMatP= 3.18D-12
 IDIUse=1 WtCom= 1.00D+00 WtEn= 0.00D+00
 Coeff-Com:  0.420D-06-0.380D-06-0.537D-06 0.203D-06-0.260D-05-0.297D-06
 Coeff-Com: -0.499D-05 0.218D-04-0.248D-04-0.353D-03-0.129D-02-0.173D-02
 Coeff-Com: -0.252D-02 0.161D-01 0.993D-01 0.193D+00 0.697D+00
 Coeff:      0.420D-06-0.380D-06-0.537D-06 0.203D-06-0.260D-05-0.297D-06
 Coeff:     -0.499D-05 0.218D-04-0.248D-04-0.353D-03-0.129D-02-0.173D-02
 Coeff:     -0.252D-02 0.161D-01 0.993D-01 0.193D+00 0.697D+00
 Gap=     0.112 Goal=   None    Shift=    0.000
 RMSDP=2.61D-09 MaxDP=6.34D-08 DE=-7.62D-12 OVMax= 1.41D-07

 SCF Done:  E(RB3LYP) =  -466.410456871     A.U. after   17 cycles
            NFock= 17  Conv=0.26D-08     -V/T= 2.0036
 KE= 4.647469057929D+02 PE=-1.948134777532D+03 EE= 5.884782356654D+02
 Leave Link  502 at Thu Nov  3 23:52:52 2022, MaxMem=  8053063680 cpu:             303.0 elap:               9.5
 (Enter /public3/home/scg5914/software-scg5914/g16/l601.exe)
 Copying SCF densities to generalized density rwf, IOpCl= 0 IROHF=0.

 **********************************************************************

            Population analysis using the SCF Density.

 **********************************************************************

 Orbital symmetries:
       Occupied  (A) (A) (A) (A) (A) (A) (A) (A) (A) (A) (A) (A)
                 (A) (A) (A) (A) (A) (A) (A) (A) (A) (A) (A) (A)
                 (A) (A) (A) (A) (A) (A) (A) (A) (A)
       Virtual   (A) (A) (A) (A) (A) (A) (A) (A) (A) (A) (A) (A)
                 (A) (A) (A) (A) (A) (A) (A) (A) (A) (A) (A) (A)
                 (A) (A) (A) (A) (A) (A) (A) (A) (A) (A) (A) (A)
                 (A) (A) (A) (A) (A) (A) (A) (A) (A) (A) (A) (A)
                 (A) (A) (A) (A) (A) (A) (A) (A) (A) (A) (A) (A)
                 (A) (A) (A) (A) (A) (A) (A) (A) (A) (A) (A) (A)
                 (A) (A) (A) (A) (A) (A) (A) (A) (A) (A) (A) (A)
                 (A) (A) (A) (A) (A) (A) (A) (A) (A) (A) (A) (A)
                 (A) (A) (A) (A) (A) (A) (A) (A) (A) (A) (A) (A)
                 (A) (A) (A) (A) (A) (A) (A) (A) (A) (A) (A) (A)
                 (A) (A) (A) (A) (A) (A) (A) (A) (A) (A) (A) (A)
                 (A) (A) (A) (A) (A) (A) (A) (A) (A) (A) (A) (A)
                 (A) (A) (A) (A) (A) (A) (A) (A) (A) (A) (A) (A)
                 (A) (A) (A) (A) (A) (A) (A) (A) (A) (A) (A) (A)
                 (A) (A) (A) (A) (A) (A) (A) (A) (A) (A) (A) (A)
                 (A) (A) (A) (A) (A) (A) (A) (A) (A) (A) (A) (A)
                 (A) (A) (A)
 The electronic state is 1-A.
 Alpha  occ. eigenvalues --  -19.13086 -14.43238 -14.42320 -14.29527 -14.28131
 Alpha  occ. eigenvalues --  -14.28129 -10.33126 -10.23565 -10.23508  -1.07078
 Alpha  occ. eigenvalues --   -1.05700  -1.01188  -0.97533  -0.85664  -0.77107
 Alpha  occ. eigenvalues --   -0.73423  -0.65911  -0.64109  -0.59728  -0.57001
 Alpha  occ. eigenvalues --   -0.51400  -0.49711  -0.49223  -0.48698  -0.43220
 Alpha  occ. eigenvalues --   -0.37755  -0.36916  -0.34584  -0.32742  -0.26439
 Alpha  occ. eigenvalues --   -0.25095  -0.23340  -0.19265
 Alpha virt. eigenvalues --   -0.08102  -0.05284  -0.01998   0.01137   0.02646
 Alpha virt. eigenvalues --    0.03051   0.04312   0.05246   0.08054   0.08137
 Alpha virt. eigenvalues --    0.08227   0.08784   0.09546   0.09909   0.10387
 Alpha virt. eigenvalues --    0.11973   0.12318   0.13132   0.13968   0.14318
 Alpha virt. eigenvalues --    0.16288   0.17041   0.17900   0.19327   0.19388
 Alpha virt. eigenvalues --    0.19786   0.20237   0.20675   0.22431   0.23316
 Alpha virt. eigenvalues --    0.23817   0.24580   0.25755   0.25856   0.25867
 Alpha virt. eigenvalues --    0.27041   0.28541   0.29809   0.30691   0.30806
 Alpha virt. eigenvalues --    0.31654   0.32246   0.34053   0.34715   0.35337
 Alpha virt. eigenvalues --    0.38364   0.39735   0.40783   0.42244   0.43913
 Alpha virt. eigenvalues --    0.47267   0.47694   0.48579   0.49745   0.51822
 Alpha virt. eigenvalues --    0.54223   0.57365   0.58415   0.59570   0.62634
 Alpha virt. eigenvalues --    0.63461   0.65502   0.67197   0.70563   0.74151
 Alpha virt. eigenvalues --    0.74534   0.75124   0.79048   0.79484   0.80665
 Alpha virt. eigenvalues --    0.81570   0.86033   0.86555   0.89138   0.90482
 Alpha virt. eigenvalues --    0.91590   0.92234   0.92597   0.93024   0.95434
 Alpha virt. eigenvalues --    0.95487   0.98851   1.02621   1.04911   1.05826
 Alpha virt. eigenvalues --    1.09793   1.10306   1.11901   1.12011   1.14236
 Alpha virt. eigenvalues --    1.16966   1.20507   1.22975   1.25235   1.27856
 Alpha virt. eigenvalues --    1.32105   1.35868   1.36215   1.38778   1.45068
 Alpha virt. eigenvalues --    1.46096   1.47132   1.51833   1.54773   1.55418
 Alpha virt. eigenvalues --    1.57901   1.64472   1.65950   1.66992   1.68905
 Alpha virt. eigenvalues --    1.73684   1.74598   1.76283   1.76471   1.79264
 Alpha virt. eigenvalues --    1.84717   1.90672   1.93927   1.95515   2.02139
 Alpha virt. eigenvalues --    2.09171   2.11227   2.16665   2.17191   2.18020
 Alpha virt. eigenvalues --    2.24499   2.26715   2.27583   2.34553   2.34611
 Alpha virt. eigenvalues --    2.37943   2.42394   2.47811   2.48375   2.55173
 Alpha virt. eigenvalues --    2.55319   2.59683   2.62010   2.62427   2.67413
 Alpha virt. eigenvalues --    2.70686   2.72670   2.75481   2.76429   2.78731
 Alpha virt. eigenvalues --    2.79540   2.84928   2.87417   2.88646   2.89362
 Alpha virt. eigenvalues --    2.90581   2.99704   3.03652   3.04949   3.09309
 Alpha virt. eigenvalues --    3.12746   3.19698   3.20322   3.31436   3.43983
 Alpha virt. eigenvalues --    3.45272   3.50382   3.51300   3.60408   3.61882
 Alpha virt. eigenvalues --    3.68460   3.76108   3.79066   3.83992   3.85288
 Alpha virt. eigenvalues --    3.93909   3.95418   4.02820   4.03100   4.38925
 Alpha virt. eigenvalues --    4.57079   4.67068   4.68358   4.71095   4.83144
 Alpha virt. eigenvalues --    4.98624   5.01477   5.22790   5.41816   5.48352
 Alpha virt. eigenvalues --    5.80359  23.82807  23.87622  23.89517  35.46703
 Alpha virt. eigenvalues --   35.56466  35.61192  35.64796  35.73815  49.96920
          Condensed to atoms (all electrons):
               1          2          3          4          5          6
     1  N    6.452789   0.331926  -0.149472  -0.007026   0.029727   0.008006
     2  C    0.331926   5.144668   0.587654  -0.074327  -0.375530  -0.071865
     3  N   -0.149472   0.587654   6.865540   0.325306   0.189214  -0.254758
     4  H   -0.007026  -0.074327   0.325306   0.388440   0.036167   0.034960
     5  C    0.029727  -0.375530   0.189214   0.036167   6.357462   0.165153
     6  N    0.008006  -0.071865  -0.254758   0.034960   0.165153   7.163971
     7  C    0.010562  -0.130945  -0.135709   0.001579  -0.849347   0.560132
     8  O   -0.000115   0.002676   0.010201  -0.000131   0.128262  -0.137988
     9  N   -0.000453   0.024723   0.087178  -0.002507  -0.030530  -0.164432
    10  N    0.017389  -0.028696  -0.294565   0.006923   0.169262   0.064445
    11  H    0.362041  -0.015740   0.012483   0.004553  -0.003790  -0.000422
    12  H    0.376603  -0.021270   0.006575  -0.000143  -0.001989   0.000099
    13  H   -0.046798   0.397964  -0.027447   0.002773   0.018592   0.003460
    14  H    0.000026  -0.001124  -0.000643   0.000021  -0.055201   0.008025
               7          8          9         10         11         12
     1  N    0.010562  -0.000115  -0.000453   0.017389   0.362041   0.376603
     2  C   -0.130945   0.002676   0.024723  -0.028696  -0.015740  -0.021270
     3  N   -0.135709   0.010201   0.087178  -0.294565   0.012483   0.006575
     4  H    0.001579  -0.000131  -0.002507   0.006923   0.004553  -0.000143
     5  C   -0.849347   0.128262  -0.030530   0.169262  -0.003790  -0.001989
     6  N    0.560132  -0.137988  -0.164432   0.064445  -0.000422   0.000099
     7  C    5.992641   0.118160   0.275325   0.121803  -0.001026   0.000016
     8  O    0.118160   8.087295  -0.106499  -0.008058   0.000002  -0.000000
     9  N    0.275325  -0.106499   6.897324   0.172859  -0.000016  -0.000035
    10  N    0.121803  -0.008058   0.172859   7.062700  -0.000949   0.000058
    11  H   -0.001026   0.000002  -0.000016  -0.000949   0.388165  -0.014938
    12  H    0.000016  -0.000000  -0.000035   0.000058  -0.014938   0.356569
    13  H    0.002405  -0.000032  -0.007788   0.015972   0.003262  -0.002422
    14  H    0.068052   0.206082   0.011156   0.000407  -0.000000   0.000000
              13         14
     1  N   -0.046798   0.000026
     2  C    0.397964  -0.001124
     3  N   -0.027447  -0.000643
     4  H    0.002773   0.000021
     5  C    0.018592  -0.055201
     6  N    0.003460   0.008025
     7  C    0.002405   0.068052
     8  O   -0.000032   0.206082
     9  N   -0.007788   0.011156
    10  N    0.015972   0.000407
    11  H    0.003262  -0.000000
    12  H   -0.002422   0.000000
    13  H    0.431578   0.000003
    14  H    0.000003   0.499865
 Mulliken charges:
               1
     1  N   -0.385205
     2  C    0.229886
     3  N   -0.221555
     4  H    0.283411
     5  C    0.222548
     6  N   -0.378788
     7  C   -0.033646
     8  O   -0.299856
     9  N   -0.156306
    10  N   -0.299550
    11  H    0.266375
    12  H    0.300877
    13  H    0.208477
    14  H    0.263331
 Sum of Mulliken charges =  -0.00000
 Mulliken charges with hydrogens summed into heavy atoms:
               1
     1  N    0.182048
     2  C    0.438364
     3  N    0.061856
     5  C    0.222548
     6  N   -0.378788
     7  C   -0.033646
     8  O   -0.036525
     9  N   -0.156306
    10  N   -0.299550
 Electronic spatial extent (au):  <R**2>=           1430.6302
 Charge=             -0.0000 electrons
 Dipole moment (field-independent basis, Debye):
    X=             11.9881    Y=             -4.5860    Z=              0.0024  Tot=             12.8354
 Quadrupole moment (field-independent basis, Debye-Ang):
   XX=            -28.5189   YY=            -53.7884   ZZ=            -54.4758
   XY=              5.4370   XZ=              0.0116   YZ=             -0.0005
 Traceless Quadrupole moment (field-independent basis, Debye-Ang):
   XX=             17.0755   YY=             -8.1940   ZZ=             -8.8815
   XY=              5.4370   XZ=              0.0116   YZ=             -0.0005
 Octapole moment (field-independent basis, Debye-Ang**2):
  XXX=            152.1416  YYY=            -23.2738  ZZZ=              0.0021  XYY=             19.9317
  XXY=            -29.0926  XXZ=              0.0406  XZZ=             -1.4394  YZZ=             -1.4349
  YYZ=              0.0032  XYZ=              0.0003
 Hexadecapole moment (field-independent basis, Debye-Ang**3):
 XXXX=          -1076.2199 YYYY=           -251.1638 ZZZZ=            -55.7047 XXXY=             79.1660
 XXXZ=              0.2170 YYYX=             17.8849 YYYZ=             -0.0029 ZZZX=              0.0066
 ZZZY=             -0.0010 XXYY=           -220.5558 XXZZ=           -284.6598 YYZZ=            -52.3796
 XXYZ=             -0.0029 YYXZ=              0.0099 ZZXY=              2.4986
 N-N= 4.284991792024D+02 E-N=-1.948134778075D+03  KE= 4.647469057929D+02
 No NMR shielding tensors so no spin-rotation constants.
 Leave Link  601 at Thu Nov  3 23:52:52 2022, MaxMem=  8053063680 cpu:               2.8 elap:               0.1
 (Enter /public3/home/scg5914/software-scg5914/g16/l701.exe)
 ... and contract with generalized density number  0.
 Compute integral first derivatives.
 R6Disp: Adding Grimme-D3(BJ) dispersion energy 1st derivatives to the gradient.
 Leave Link  701 at Thu Nov  3 23:52:52 2022, MaxMem=  8053063680 cpu:               3.4 elap:               0.1
 (Enter /public3/home/scg5914/software-scg5914/g16/l702.exe)
 L702 exits ... SP integral derivatives will be done elsewhere.
 Leave Link  702 at Thu Nov  3 23:52:52 2022, MaxMem=  8053063680 cpu:               0.6 elap:               0.0
 (Enter /public3/home/scg5914/software-scg5914/g16/l703.exe)
 Integral derivatives from FoFJK, PRISM(SPDF).
 Compute integral first derivatives, UseDBF=F ICtDFT=           0.
 Calling FoFJK, ICntrl=      2127 FMM=F ISym2X=0 I1Cent= 0 IOpClX= 0 NMat=1 NMatS=1 NMatT=0.
 FoFJK:  IHMeth= 1 ICntrl=    2127 DoSepK=F KAlg= 0 I1Cent=           0 FoldK=F
 IRaf=         0 NMat=       1 IRICut=       1 DoRegI=T DoRafI=F ISym2E= 0 IDoP0=0 IntGTp=1.
 FoFCou: FMM=F IPFlag=           0 FMFlag=      100000 FMFlg1=         800
         NFxFlg=           0 DoJE=F BraDBF=F KetDBF=F FulRan=T
         wScrn=  0.000000 ICntrl=      2127 IOpCl=  0 I1Cent=           0 NGrid=           0
         NMat0=    1 NMatS0=      1 NMatT0=    0 NMatD0=    1 NMtDS0=    0 NMtDT0=    0
 Symmetry not used in FoFCou.
 Leave Link  703 at Thu Nov  3 23:52:54 2022, MaxMem=  8053063680 cpu:              42.0 elap:               1.3
 (Enter /public3/home/scg5914/software-scg5914/g16/l716.exe)
 Dipole        = 4.71649486D+00-1.80427607D+00 9.40427043D-04
 ***** Axes restored to original set *****
 -------------------------------------------------------------------
 Center     Atomic                   Forces (Hartrees/Bohr)
 Number     Number              X              Y              Z
 -------------------------------------------------------------------
      1        7           0.000443912   -0.001462625    0.000011009
      2        6          -0.001410184   -0.001449453   -0.000119823
      3        7           0.000589753    0.003106333    0.000078514
      4        1           0.000854818    0.000478223    0.000063474
      5        6          -0.003701197    0.001923602   -0.000258326
      6        7          -0.003556497   -0.001066408   -0.000212452
      7        6          -0.003180609   -0.004255796   -0.000282673
      8        8           0.001960572    0.000071394    0.000128853
      9        7           0.003874880   -0.000352009    0.000211682
     10        7           0.003079205    0.002292789    0.000298912
     11        1           0.001188533    0.000819708    0.000088971
     12        1          -0.001251970    0.000530106   -0.000073773
     13        1           0.000335059    0.000613632    0.000033061
     14        1           0.000773726   -0.001249495    0.000032570
 -------------------------------------------------------------------
 Cartesian Forces:  Max     0.004255796 RMS     0.001672507
 Leave Link  716 at Thu Nov  3 23:52:54 2022, MaxMem=  8053063680 cpu:               0.3 elap:               0.0
 (Enter /public3/home/scg5914/software-scg5914/g16/l103.exe)

 GradGradGradGradGradGradGradGradGradGradGradGradGradGradGradGradGradGrad
 Berny optimization.
 FormGI is forming the generalized inverse of G from B-inverse, IUseBI=4.
 Internal  Forces:  Max     0.004117578 RMS     0.001454580
 Search for a local minimum.
 Step number   1 out of a maximum of   66
 All quantities printed in internal units (Hartrees-Bohrs-Radians)
 RMS Force = .14546D-02 SwitMx=.10000D-02 MixMth= 1
 Mixed Optimization -- RFO/linear search
 Second derivative matrix not updated -- first step.
 ITU=  0
     Eigenvalues ---    0.01574   0.02055   0.02326   0.02332   0.02342
     Eigenvalues ---    0.02429   0.02475   0.02475   0.02519   0.02720
     Eigenvalues ---    0.02981   0.16000   0.16000   0.16000   0.16000
     Eigenvalues ---    0.16000   0.22000   0.22000   0.25000   0.25000
     Eigenvalues ---    0.25000   0.25000   0.35385   0.44172   0.45249
     Eigenvalues ---    0.46545   0.46960   0.48271   0.49665   0.54180
     Eigenvalues ---    0.54745   0.54839   0.56816   0.57029   0.60397
     Eigenvalues ---    0.66485
 RFO step:  Lambda=-3.83648954D-04 EMin= 1.57363436D-02
 Linear search not attempted -- first point.
 Iteration  1 RMS(Cart)=  0.00918731 RMS(Int)=  0.00002576
 Iteration  2 RMS(Cart)=  0.00003213 RMS(Int)=  0.00000211
 Iteration  3 RMS(Cart)=  0.00000000 RMS(Int)=  0.00000211
 ITry= 1 IFail=0 DXMaxC= 3.77D-02 DCOld= 1.00D+10 DXMaxT= 3.00D-01 DXLimC= 3.00D+00 Rises=F
 Variable       Old X    -DE/DX   Delta X   Delta X   Delta X     New X
                                 (Linear)    (Quad)   (Total)
    R1        2.53372  -0.00012   0.00000  -0.00021  -0.00021   2.53351
    R2        1.90221   0.00145   0.00000   0.00310   0.00310   1.90532
    R3        1.89764   0.00135   0.00000   0.00288   0.00288   1.90052
    R4        2.46150   0.00005   0.00000   0.00008   0.00008   2.46158
    R5        2.05054  -0.00060   0.00000  -0.00170  -0.00170   2.04885
    R6        1.91688   0.00098   0.00000   0.00216   0.00216   1.91904
    R7        2.66249   0.00262   0.00000   0.00592   0.00592   2.66842
    R8        2.54119   0.00085   0.00000   0.00151   0.00152   2.54270
    R9        2.49533  -0.00283   0.00000  -0.00459  -0.00459   2.49073
   R10        2.54696   0.00147   0.00000   0.00267   0.00267   2.54963
   R11        2.55276   0.00256   0.00000   0.00466   0.00466   2.55742
   R12        2.52800  -0.00320   0.00000  -0.00552  -0.00552   2.52248
   R13        1.82059   0.00031   0.00000   0.00056   0.00056   1.82115
   R14        2.58864   0.00335   0.00000   0.00654   0.00653   2.59518
    A1        2.14071   0.00011   0.00000   0.00067   0.00067   2.14139
    A2        2.08920  -0.00018   0.00000  -0.00113  -0.00113   2.08807
    A3        2.05327   0.00007   0.00000   0.00046   0.00046   2.05373
    A4        2.18008  -0.00069   0.00000  -0.00315  -0.00315   2.17694
    A5        2.08146  -0.00002   0.00000  -0.00072  -0.00072   2.08074
    A6        2.02165   0.00071   0.00000   0.00387   0.00387   2.02551
    A7        2.11738   0.00045   0.00000   0.00192   0.00192   2.11930
    A8        2.18189  -0.00104   0.00000  -0.00471  -0.00471   2.17718
    A9        1.98392   0.00059   0.00000   0.00279   0.00279   1.98671
   A10        2.10001   0.00156   0.00000   0.00626   0.00626   2.10628
   A11        2.13096   0.00210   0.00000   0.00839   0.00839   2.13935
   A12        2.05221  -0.00366   0.00000  -0.01465  -0.01465   2.03756
   A13        1.70626   0.00412   0.00000   0.01654   0.01654   1.72280
   A14        2.14361   0.00098   0.00000   0.00388   0.00388   2.14749
   A15        2.02413  -0.00325   0.00000  -0.01290  -0.01290   2.01123
   A16        2.11544   0.00227   0.00000   0.00902   0.00902   2.12446
   A17        1.85312   0.00262   0.00000   0.01632   0.01632   1.86944
   A18        1.82818   0.00112   0.00000   0.00445   0.00444   1.83262
   A19        1.81399   0.00168   0.00000   0.00657   0.00657   1.82056
    D1       -0.00089   0.00000   0.00000   0.00013   0.00013  -0.00076
    D2        3.14092   0.00000   0.00000   0.00007   0.00007   3.14099
    D3       -3.14078  -0.00000   0.00000  -0.00001  -0.00001  -3.14080
    D4        0.00102  -0.00000   0.00000  -0.00007  -0.00007   0.00095
    D5        0.00018   0.00000   0.00000   0.00000   0.00000   0.00018
    D6       -3.14137  -0.00000   0.00000  -0.00004  -0.00004  -3.14141
    D7        3.14157   0.00000   0.00000   0.00006   0.00006  -3.14156
    D8        0.00002   0.00000   0.00000   0.00001   0.00001   0.00003
    D9        3.14157   0.00001   0.00000   0.00039   0.00039  -3.14123
   D10        0.00011  -0.00000   0.00000  -0.00013  -0.00013  -0.00002
   D11        0.00002   0.00001   0.00000   0.00034   0.00034   0.00036
   D12       -3.14144  -0.00000   0.00000  -0.00018  -0.00018   3.14157
   D13        3.14134   0.00001   0.00000   0.00045   0.00045  -3.14139
   D14       -0.00038   0.00002   0.00000   0.00095   0.00095   0.00057
   D15       -3.14124  -0.00002   0.00000  -0.00072  -0.00072   3.14122
   D16        0.00048  -0.00003   0.00000  -0.00123  -0.00123  -0.00075
   D17       -3.14150  -0.00001   0.00000  -0.00028  -0.00028   3.14141
   D18        0.00012  -0.00001   0.00000  -0.00028  -0.00028  -0.00015
   D19       -0.00002   0.00000   0.00000   0.00007   0.00007   0.00006
   D20        3.14155   0.00000   0.00000   0.00007   0.00007  -3.14157
   D21        0.00014  -0.00001   0.00000  -0.00040  -0.00040  -0.00026
   D22       -3.14143  -0.00001   0.00000  -0.00039  -0.00039   3.14136
   D23       -0.00034   0.00002   0.00000   0.00089   0.00090   0.00056
         Item               Value     Threshold  Converged?
 Maximum Force            0.004118     0.000450     NO 
 RMS     Force            0.001455     0.000300     NO 
 Maximum Displacement     0.037706     0.001800     NO 
 RMS     Displacement     0.009166     0.001200     NO 
 Predicted change in Energy=-1.921014D-04
 Lowest energy point so far.  Saving SCF results.
 GradGradGradGradGradGradGradGradGradGradGradGradGradGradGradGradGradGrad

 Leave Link  103 at Thu Nov  3 23:52:54 2022, MaxMem=  8053063680 cpu:               1.2 elap:               0.1
 (Enter /public3/home/scg5914/software-scg5914/g16/l202.exe)
                          Input orientation:                          
 ---------------------------------------------------------------------
 Center     Atomic      Atomic             Coordinates (Angstroms)
 Number     Number       Type             X           Y           Z
 ---------------------------------------------------------------------
      1          7           0       -0.000067    1.361733   -0.008395
      2          6           0        0.027383    0.021484   -0.028206
      3          7           0        1.110619   -0.699539    0.031110
      4          1           0        2.028861   -0.271077    0.098311
      5          6           0        1.139890   -2.111145    0.010060
      6          7           0        2.308562   -2.774690    0.076339
      7          6           0        1.830917   -4.035434    0.024041
      8          8           0        2.628042   -5.128551    0.058498
      9          7           0        0.502992   -4.137651   -0.065173
     10          7           0        0.046530   -2.842447   -0.073530
     11          1           0        0.835273    1.922649    0.055999
     12          1           0       -0.882379    1.841886   -0.057739
     13          1           0       -0.905814   -0.525988   -0.098294
     14          1           0        3.536912   -4.814777    0.123614
 ---------------------------------------------------------------------
                    Distance matrix (angstroms):
                    1          2          3          4          5
     1  N    0.000000
     2  C    1.340676   0.000000
     3  N    2.341800   1.302610   0.000000
     4  H    2.606531   2.026700   1.015512   0.000000
     5  C    3.655232   2.405669   1.412066   2.045460   0.000000
     6  N    4.737821   3.610166   2.396532   2.519285   1.345541
     7  C    5.699383   4.440050   3.412781   3.770289   2.044652
     8  O    7.002515   5.770078   4.681824   4.894451   3.364771
     9  N    5.522636   4.186403   3.492720   4.159975   2.125565
    10  N    4.204943   2.864354   2.394847   3.251325   1.318039
    11  H    1.008250   2.067415   2.636722   2.497775   4.045540
    12  H    1.005711   2.035289   3.230909   3.600595   4.440790
    13  H    2.095698   1.084202   2.028021   2.952279   2.590245
    14  H    7.118773   5.977396   4.778142   4.787490   3.615002
                    6          7          8          9         10
     6  N    0.000000
     7  C    1.349205   0.000000
     8  O    2.375510   1.353329   0.000000
     9  N    2.266665   1.334838   2.347981   0.000000
    10  N    2.268004   2.148668   3.450783   1.373309   0.000000
    11  H    4.923006   6.040785   7.275538   6.070612   4.831670
    12  H    5.613631   6.473913   7.805354   6.137928   4.775573
    13  H    3.926751   4.452064   5.804852   3.876847   2.504707
    14  H    2.381813   1.878220   0.963712   3.114292   4.013940
                   11         12         13         14
    11  H    0.000000
    12  H    1.723307   0.000000
    13  H    3.008490   2.368337   0.000000
    14  H    7.259224   7.992132   6.179059   0.000000
 Stoichiometry    C3H5N5O
 Framework group  C1[X(C3H5N5O)]
 Deg. of freedom    36
 Full point group                 C1      NOp   1
 RotChk:  IX=0 Diff= 2.90D-04
 Largest Abelian subgroup         C1      NOp   1
 Largest concise Abelian subgroup C1      NOp   1
                         Standard orientation:                         
 ---------------------------------------------------------------------
 Center     Atomic      Atomic             Coordinates (Angstroms)
 Number     Number       Type             X           Y           Z
 ---------------------------------------------------------------------
      1          7           0        3.690261   -0.178391   -0.000232
      2          6           0        2.420047    0.250524    0.000047
      3          7           0        1.374456   -0.526350   -0.000082
      4          1           0        1.466239   -1.537705   -0.000255
      5          6           0        0.036493   -0.074922    0.000005
      6          7           0       -0.983991   -0.951901    0.000283
      7          6           0       -2.008158   -0.073587   -0.000012
      8          8           0       -3.306814   -0.454368   -0.000109
      9          7           0       -1.654111    1.213442   -0.000243
     10          7           0       -0.280832    1.204348    0.000252
     11          1           0        3.934760   -1.156547    0.000072
     12          1           0        4.441116    0.490691    0.000591
     13          1           0        2.221369    1.316368    0.000261
     14          1           0       -3.319754   -1.417992    0.000122
 ---------------------------------------------------------------------
 Rotational constants (GHZ):           7.2381961           0.8192629           0.7359623
 Leave Link  202 at Thu Nov  3 23:52:54 2022, MaxMem=  8053063680 cpu:               0.2 elap:               0.0
 (Enter /public3/home/scg5914/software-scg5914/g16/l301.exe)
 Standard basis: 6-311+G(d,p) (5D, 7F)
 Ernie: Thresh=  0.10000D-02 Tol=  0.10000D-05 Strict=F.
 There are   237 symmetry adapted cartesian basis functions of A   symmetry.
 There are   228 symmetry adapted basis functions of A   symmetry.
   228 basis functions,   364 primitive gaussians,   237 cartesian basis functions
    33 alpha electrons       33 beta electrons
       nuclear repulsion energy       427.9352273405 Hartrees.
 IExCor=  402 DFT=T Ex+Corr=B3LYP ExCW=0 ScaHFX=  0.200000
 ScaDFX=  0.800000  0.720000  1.000000  0.810000 ScalE2=  1.000000  1.000000
 IRadAn=      5 IRanWt=     -1 IRanGd=            0 ICorTp=0 IEmpDi=141
 NAtoms=   14 NActive=   14 NUniq=   14 SFac= 1.00D+00 NAtFMM=   60 NAOKFM=F Big=F
 Integral buffers will be    131072 words long.
 Raffenetti 2 integral format.
 Two-electron integral symmetry is turned on.
 R6Disp:  Grimme-D3(BJ) Dispersion energy=       -0.0201718265 Hartrees.
 Nuclear repulsion after empirical dispersion term =      427.9150555141 Hartrees.
 Leave Link  301 at Thu Nov  3 23:52:54 2022, MaxMem=  8053063680 cpu:               0.6 elap:               0.0
 (Enter /public3/home/scg5914/software-scg5914/g16/l302.exe)
 NPDir=0 NMtPBC=     1 NCelOv=     1 NCel=       1 NClECP=     1 NCelD=      1
         NCelK=      1 NCelE2=     1 NClLst=     1 CellRange=     0.0.
 One-electron integrals computed using PRISM.
 One-electron integral symmetry used in STVInt
 NBasis=   228 RedAO= T EigKep=  1.98D-05  NBF=   228
 NBsUse=   228 1.00D-06 EigRej= -1.00D+00 NBFU=   228
 Precomputing XC quadrature grid using
 IXCGrd= 4 IRadAn=           5 IRanWt=          -1 IRanGd=           0 AccXCQ= 0.00D+00.
 Generated NRdTot=       0 NPtTot=           0 NUsed=           0 NTot=          32
 NSgBfM=   237   237   237   237   237 MxSgAt=    14 MxSgA2=    14.
 Leave Link  302 at Thu Nov  3 23:52:54 2022, MaxMem=  8053063680 cpu:               3.6 elap:               0.1
 (Enter /public3/home/scg5914/software-scg5914/g16/l303.exe)
 DipDrv:  MaxL=1.
 Leave Link  303 at Thu Nov  3 23:52:54 2022, MaxMem=  8053063680 cpu:               1.6 elap:               0.1
 (Enter /public3/home/scg5914/software-scg5914/g16/l401.exe)
 Initial guess from the checkpoint file:  "dsgdb9nsd_130366.chk"
 B after Tr=    -0.000000    0.000000    0.000000
         Rot=    1.000000    0.000000    0.000000    0.000007 Ang=   0.00 deg.
 Guess basis will be translated and rotated to current coordinates.
 JPrj=2 DoOrth=T DoCkMO=T.
 Generating alternative initial guess.
 ExpMin= 4.38D-02 ExpMax= 8.59D+03 ExpMxC= 1.30D+03 IAcc=3 IRadAn=         5 AccDes= 0.00D+00
 Harris functional with IExCor=  402 and IRadAn=       5 diagonalized for initial guess.
 HarFok:  IExCor=  402 AccDes= 0.00D+00 IRadAn=         5 IDoV= 1 UseB2=F ITyADJ=14
 ICtDFT=  3500011 ScaDFX=  1.000000  1.000000  1.000000  1.000000
 FoFCou: FMM=F IPFlag=           0 FMFlag=      100000 FMFlg1=           0
         NFxFlg=           0 DoJE=T BraDBF=F KetDBF=T FulRan=T
         wScrn=  0.000000 ICntrl=       500 IOpCl=  0 I1Cent=   200000004 NGrid=           0
         NMat0=    1 NMatS0=      1 NMatT0=    0 NMatD0=    1 NMtDS0=    0 NMtDT0=    0
 Petite list used in FoFCou.
 Harris En= -466.405153539197    
 Leave Link  401 at Thu Nov  3 23:52:55 2022, MaxMem=  8053063680 cpu:              13.5 elap:               0.4
 (Enter /public3/home/scg5914/software-scg5914/g16/l502.exe)
 Integral symmetry usage will be decided dynamically.
 Closed shell SCF:
 Using DIIS extrapolation, IDIIS=  1040.
 NGot=  8053063680 LenX=  8052941140 LenY=  8052884530
 Requested convergence on RMS density matrix=1.00D-08 within 128 cycles.
 Requested convergence on MAX density matrix=1.00D-06.
 Requested convergence on             energy=1.00D-06.
 No special actions if energy rises.
 Fock matrices will be formed incrementally for  20 cycles.

 Cycle   1  Pass 1  IDiag  1:
 FoFJK:  IHMeth= 1 ICntrl=       0 DoSepK=F KAlg= 0 I1Cent=           0 FoldK=F
 IRaf= 900000000 NMat=       1 IRICut=       1 DoRegI=T DoRafI=F ISym2E= 0 IDoP0=0 IntGTp=1.
 FoFCou: FMM=F IPFlag=           0 FMFlag=      100000 FMFlg1=           0
         NFxFlg=           0 DoJE=F BraDBF=F KetDBF=F FulRan=T
         wScrn=  0.000000 ICntrl=         0 IOpCl=  0 I1Cent=           0 NGrid=           0
         NMat0=    1 NMatS0=      1 NMatT0=    0 NMatD0=    1 NMtDS0=    0 NMtDT0=    0
 Symmetry not used in FoFCou.
 E= -466.410428215702    
 DIIS: error= 4.24D-04 at cycle   1 NSaved=   1.
 NSaved= 1 IEnMin= 1 EnMin= -466.410428215702     IErMin= 1 ErrMin= 4.24D-04
 ErrMax= 4.24D-04  0.00D+00 EMaxC= 1.00D-01 BMatC= 1.09D-04 BMatP= 1.09D-04
 IDIUse=3 WtCom= 9.96D-01 WtEn= 4.24D-03
 Coeff-Com:  0.100D+01
 Coeff-En:   0.100D+01
 Coeff:      0.100D+01
 Gap=     0.400 Goal=   None    Shift=    0.000
 RMSDP=2.09D-04 MaxDP=1.41D-02              OVMax= 4.48D-03

 Cycle   2  Pass 1  IDiag  1:
 RMSU=  1.98D-04    CP:  9.95D-01
 E= -466.410540157866     Delta-E=       -0.000111942165 Rises=F Damp=F
 DIIS: error= 4.49D-04 at cycle   2 NSaved=   2.
 NSaved= 2 IEnMin= 2 EnMin= -466.410540157866     IErMin= 1 ErrMin= 4.24D-04
 ErrMax= 4.49D-04  0.00D+00 EMaxC= 1.00D-01 BMatC= 1.49D-05 BMatP= 1.09D-04
 IDIUse=3 WtCom= 9.96D-01 WtEn= 4.49D-03
 Coeff-Com:  0.136D+00 0.864D+00
 Coeff-En:   0.000D+00 0.100D+01
 Coeff:      0.135D+00 0.865D+00
 Gap=     0.111 Goal=   None    Shift=    0.000
 RMSDP=6.14D-05 MaxDP=2.35D-03 DE=-1.12D-04 OVMax= 4.24D-03

 Cycle   3  Pass 1  IDiag  1:
 RMSU=  5.87D-05    CP:  9.96D-01  9.49D-01
 E= -466.410510269911     Delta-E=        0.000029887955 Rises=F Damp=F
 DIIS: error= 8.30D-04 at cycle   3 NSaved=   3.
 NSaved= 3 IEnMin= 2 EnMin= -466.410540157866     IErMin= 1 ErrMin= 4.24D-04
 ErrMax= 8.30D-04  0.00D+00 EMaxC= 1.00D-01 BMatC= 4.76D-05 BMatP= 1.49D-05
 IDIUse=3 WtCom= 2.58D-01 WtEn= 7.42D-01
 Coeff-Com: -0.116D-01 0.651D+00 0.361D+00
 Coeff-En:   0.000D+00 0.712D+00 0.288D+00
 Coeff:     -0.299D-02 0.697D+00 0.306D+00
 Gap=     0.112 Goal=   None    Shift=    0.000
 RMSDP=3.72D-05 MaxDP=1.49D-03 DE= 2.99D-05 OVMax= 2.81D-03

 Cycle   4  Pass 1  IDiag  1:
 RMSU=  8.45D-06    CP:  9.96D-01  1.01D+00  4.50D-01
 E= -466.410552498052     Delta-E=       -0.000042228141 Rises=F Damp=F
 DIIS: error= 8.91D-05 at cycle   4 NSaved=   4.
 NSaved= 4 IEnMin= 4 EnMin= -466.410552498052     IErMin= 4 ErrMin= 8.91D-05
 ErrMax= 8.91D-05  0.00D+00 EMaxC= 1.00D-01 BMatC= 1.23D-06 BMatP= 1.49D-05
 IDIUse=1 WtCom= 1.00D+00 WtEn= 0.00D+00
 Coeff-Com: -0.121D-01 0.330D+00 0.107D+00 0.576D+00
 Coeff:     -0.121D-01 0.330D+00 0.107D+00 0.576D+00
 Gap=     0.112 Goal=   None    Shift=    0.000
 RMSDP=5.89D-06 MaxDP=1.23D-04 DE=-4.22D-05 OVMax= 2.86D-04

 Cycle   5  Pass 1  IDiag  1:
 RMSU=  5.11D-06    CP:  9.96D-01  1.02D+00  4.02D-01  9.52D-01
 E= -466.410553450195     Delta-E=       -0.000000952142 Rises=F Damp=F
 DIIS: error= 1.65D-05 at cycle   5 NSaved=   5.
 NSaved= 5 IEnMin= 5 EnMin= -466.410553450195     IErMin= 5 ErrMin= 1.65D-05
 ErrMax= 1.65D-05  0.00D+00 EMaxC= 1.00D-01 BMatC= 6.24D-08 BMatP= 1.23D-06
 IDIUse=1 WtCom= 1.00D+00 WtEn= 0.00D+00
 Coeff-Com: -0.400D-02 0.691D-01 0.145D-02 0.296D+00 0.637D+00
 Coeff:     -0.400D-02 0.691D-01 0.145D-02 0.296D+00 0.637D+00
 Gap=     0.112 Goal=   None    Shift=    0.000
 RMSDP=1.47D-06 MaxDP=3.55D-05 DE=-9.52D-07 OVMax= 1.53D-04

 Cycle   6  Pass 1  IDiag  1:
 RMSU=  8.94D-07    CP:  9.96D-01  1.02D+00  3.97D-01  1.02D+00  8.19D-01
 E= -466.410553499739     Delta-E=       -0.000000049544 Rises=F Damp=F
 DIIS: error= 4.97D-06 at cycle   6 NSaved=   6.
 NSaved= 6 IEnMin= 6 EnMin= -466.410553499739     IErMin= 6 ErrMin= 4.97D-06
 ErrMax= 4.97D-06  0.00D+00 EMaxC= 1.00D-01 BMatC= 5.76D-09 BMatP= 6.24D-08
 IDIUse=1 WtCom= 1.00D+00 WtEn= 0.00D+00
 Coeff-Com: -0.144D-02 0.170D-01-0.316D-02 0.114D+00 0.331D+00 0.542D+00
 Coeff:     -0.144D-02 0.170D-01-0.316D-02 0.114D+00 0.331D+00 0.542D+00
 Gap=     0.112 Goal=   None    Shift=    0.000
 RMSDP=5.10D-07 MaxDP=1.33D-05 DE=-4.95D-08 OVMax= 2.80D-05

 Cycle   7  Pass 1  IDiag  1:
 RMSU=  3.35D-07    CP:  9.96D-01  1.02D+00  4.00D-01  1.02D+00  8.72D-01
                    CP:  7.84D-01
 E= -466.410553504186     Delta-E=       -0.000000004447 Rises=F Damp=F
 DIIS: error= 2.45D-06 at cycle   7 NSaved=   7.
 NSaved= 7 IEnMin= 7 EnMin= -466.410553504186     IErMin= 7 ErrMin= 2.45D-06
 ErrMax= 2.45D-06  0.00D+00 EMaxC= 1.00D-01 BMatC= 8.59D-10 BMatP= 5.76D-09
 IDIUse=1 WtCom= 1.00D+00 WtEn= 0.00D+00
 Coeff-Com: -0.168D-04-0.480D-02-0.201D-02 0.751D-02 0.794D-01 0.300D+00
 Coeff-Com:  0.620D+00
 Coeff:     -0.168D-04-0.480D-02-0.201D-02 0.751D-02 0.794D-01 0.300D+00
 Coeff:      0.620D+00
 Gap=     0.112 Goal=   None    Shift=    0.000
 RMSDP=2.36D-07 MaxDP=6.60D-06 DE=-4.45D-09 OVMax= 1.47D-05

 Cycle   8  Pass 1  IDiag  1:
 RMSU=  1.72D-07    CP:  9.96D-01  1.02D+00  4.00D-01  1.03D+00  8.47D-01
                    CP:  8.43D-01  9.25D-01
 E= -466.410553504889     Delta-E=       -0.000000000703 Rises=F Damp=F
 DIIS: error= 8.12D-07 at cycle   8 NSaved=   8.
 NSaved= 8 IEnMin= 8 EnMin= -466.410553504889     IErMin= 8 ErrMin= 8.12D-07
 ErrMax= 8.12D-07  0.00D+00 EMaxC= 1.00D-01 BMatC= 8.87D-11 BMatP= 8.59D-10
 IDIUse=1 WtCom= 1.00D+00 WtEn= 0.00D+00
 Coeff-Com:  0.584D-04-0.354D-02-0.770D-03-0.232D-02 0.288D-01 0.127D+00
 Coeff-Com:  0.355D+00 0.496D+00
 Coeff:      0.584D-04-0.354D-02-0.770D-03-0.232D-02 0.288D-01 0.127D+00
 Coeff:      0.355D+00 0.496D+00
 Gap=     0.112 Goal=   None    Shift=    0.000
 RMSDP=5.43D-08 MaxDP=1.48D-06 DE=-7.03D-10 OVMax= 3.29D-06

 Cycle   9  Pass 1  IDiag  1:
 RMSU=  3.45D-08    CP:  9.96D-01  1.02D+00  4.01D-01  1.03D+00  8.50D-01
                    CP:  8.42D-01  1.01D+00  9.42D-01
 E= -466.410553504965     Delta-E=       -0.000000000077 Rises=F Damp=F
 DIIS: error= 2.94D-07 at cycle   9 NSaved=   9.
 NSaved= 9 IEnMin= 9 EnMin= -466.410553504965     IErMin= 9 ErrMin= 2.94D-07
 ErrMax= 2.94D-07  0.00D+00 EMaxC= 1.00D-01 BMatC= 1.35D-11 BMatP= 8.87D-11
 IDIUse=1 WtCom= 1.00D+00 WtEn= 0.00D+00
 Coeff-Com:  0.397D-04-0.983D-03 0.129D-03-0.338D-02 0.871D-03 0.379D-02
 Coeff-Com:  0.834D-01 0.294D+00 0.622D+00
 Coeff:      0.397D-04-0.983D-03 0.129D-03-0.338D-02 0.871D-03 0.379D-02
 Coeff:      0.834D-01 0.294D+00 0.622D+00
 Gap=     0.112 Goal=   None    Shift=    0.000
 RMSDP=2.71D-08 MaxDP=7.71D-07 DE=-7.67D-11 OVMax= 1.12D-06

 Cycle  10  Pass 1  IDiag  1:
 RMSU=  1.73D-08    CP:  9.96D-01  1.02D+00  4.01D-01  1.03D+00  8.53D-01
                    CP:  8.43D-01  1.03D+00  9.80D-01  9.59D-01
 E= -466.410553504971     Delta-E=       -0.000000000006 Rises=F Damp=F
 DIIS: error= 7.84D-08 at cycle  10 NSaved=  10.
 NSaved=10 IEnMin=10 EnMin= -466.410553504971     IErMin=10 ErrMin= 7.84D-08
 ErrMax= 7.84D-08  0.00D+00 EMaxC= 1.00D-01 BMatC= 9.29D-13 BMatP= 1.35D-11
 IDIUse=1 WtCom= 1.00D+00 WtEn= 0.00D+00
 Coeff-Com:  0.158D-04-0.233D-03 0.146D-03-0.170D-02-0.201D-02-0.981D-02
 Coeff-Com:  0.101D-01 0.102D+00 0.308D+00 0.594D+00
 Coeff:      0.158D-04-0.233D-03 0.146D-03-0.170D-02-0.201D-02-0.981D-02
 Coeff:      0.101D-01 0.102D+00 0.308D+00 0.594D+00
 Gap=     0.112 Goal=   None    Shift=    0.000
 RMSDP=5.90D-09 MaxDP=1.81D-07 DE=-6.03D-12 OVMax= 2.92D-07

 SCF Done:  E(RB3LYP) =  -466.410553505     A.U. after   10 cycles
            NFock= 10  Conv=0.59D-08     -V/T= 2.0037
 KE= 4.647099886771D+02 PE=-1.946953161383D+03 EE= 5.879175636866D+02
 Leave Link  502 at Thu Nov  3 23:53:00 2022, MaxMem=  8053063680 cpu:             175.2 elap:               5.5
 (Enter /public3/home/scg5914/software-scg5914/g16/l701.exe)
 ... and contract with generalized density number  0.
 Compute integral first derivatives.
 R6Disp: Adding Grimme-D3(BJ) dispersion energy 1st derivatives to the gradient.
 Leave Link  701 at Thu Nov  3 23:53:00 2022, MaxMem=  8053063680 cpu:               3.5 elap:               0.1
 (Enter /public3/home/scg5914/software-scg5914/g16/l702.exe)
 L702 exits ... SP integral derivatives will be done elsewhere.
 Leave Link  702 at Thu Nov  3 23:53:00 2022, MaxMem=  8053063680 cpu:               0.8 elap:               0.0
 (Enter /public3/home/scg5914/software-scg5914/g16/l703.exe)
 Integral derivatives from FoFJK, PRISM(SPDF).
 Compute integral first derivatives, UseDBF=F ICtDFT=           0.
 Calling FoFJK, ICntrl=      2127 FMM=F ISym2X=0 I1Cent= 0 IOpClX= 0 NMat=1 NMatS=1 NMatT=0.
 FoFJK:  IHMeth= 1 ICntrl=    2127 DoSepK=F KAlg= 0 I1Cent=           0 FoldK=F
 IRaf=         0 NMat=       1 IRICut=       1 DoRegI=T DoRafI=F ISym2E= 0 IDoP0=0 IntGTp=1.
 FoFCou: FMM=F IPFlag=           0 FMFlag=      100000 FMFlg1=         800
         NFxFlg=           0 DoJE=F BraDBF=F KetDBF=F FulRan=T
         wScrn=  0.000000 ICntrl=      2127 IOpCl=  0 I1Cent=           0 NGrid=           0
         NMat0=    1 NMatS0=      1 NMatT0=    0 NMatD0=    1 NMtDS0=    0 NMtDT0=    0
 Symmetry not used in FoFCou.
 Leave Link  703 at Thu Nov  3 23:53:02 2022, MaxMem=  8053063680 cpu:              38.1 elap:               1.2
 (Enter /public3/home/scg5914/software-scg5914/g16/l716.exe)
 Dipole        = 4.74697239D+00-1.81084661D+00 6.73123491D-04
 ***** Axes restored to original set *****
 -------------------------------------------------------------------
 Center     Atomic                   Forces (Hartrees/Bohr)
 Number     Number              X              Y              Z
 -------------------------------------------------------------------
      1        7          -0.000068358   -0.000306782   -0.000004417
      2        6          -0.000040667   -0.000214173   -0.000007006
      3        7           0.000657994   -0.000040698    0.000058875
      4        1          -0.000030107   -0.000175954   -0.000005264
      5        6           0.000591817   -0.003726713    0.000051697
      6        7           0.002224442    0.001167551    0.000111849
      7        6          -0.001394008    0.002308438   -0.000055595
      8        8          -0.000412990    0.000622062   -0.000014458
      9        7           0.000010531    0.000023655    0.000063237
     10        7          -0.000960733   -0.000007047   -0.000158014
     11        1          -0.000026580   -0.000007529   -0.000002987
     12        1          -0.000000591    0.000037336   -0.000003178
     13        1          -0.000022636    0.000008623   -0.000002028
     14        1          -0.000528115    0.000311230   -0.000032713
 -------------------------------------------------------------------
 Cartesian Forces:  Max     0.003726713 RMS     0.000850025
 Leave Link  716 at Thu Nov  3 23:53:02 2022, MaxMem=  8053063680 cpu:               0.2 elap:               0.0
 (Enter /public3/home/scg5914/software-scg5914/g16/l103.exe)

 GradGradGradGradGradGradGradGradGradGradGradGradGradGradGradGradGradGrad
 Berny optimization.
 Using GEDIIS/GDIIS optimizer.
 FormGI is forming the generalized inverse of G from B-inverse, IUseBI=4.
 Internal  Forces:  Max     0.002817496 RMS     0.000804598
 Search for a local minimum.
 Step number   2 out of a maximum of   66
 All quantities printed in internal units (Hartrees-Bohrs-Radians)
 RMS Force = .80460D-03 SwitMx=.10000D-02 MixMth= 2
 Mixed Optimization -- En-DIIS/RFO-DIIS
 Update second derivatives using D2CorX and points    1    2
 DE= -9.66D-05 DEPred=-1.92D-04 R= 5.03D-01
 TightC=F SS=  1.41D+00  RLast= 3.80D-02 DXNew= 5.0454D-01 1.1392D-01
 Trust test= 5.03D-01 RLast= 3.80D-02 DXMaxT set to 3.00D-01
 ITU=  1  0
 Use linear search instead of GDIIS.
     Eigenvalues ---    0.01574   0.02050   0.02326   0.02330   0.02342
     Eigenvalues ---    0.02429   0.02475   0.02475   0.02518   0.02721
     Eigenvalues ---    0.02981   0.15853   0.16000   0.16000   0.16000
     Eigenvalues ---    0.16068   0.21269   0.22013   0.24863   0.25000
     Eigenvalues ---    0.25000   0.35306   0.36111   0.44516   0.45197
     Eigenvalues ---    0.46327   0.46851   0.48673   0.49763   0.54583
     Eigenvalues ---    0.54724   0.55871   0.57003   0.59069   0.60847
     Eigenvalues ---    0.66506
 RFO step:  Lambda=-1.70325559D-05 EMin= 1.57363763D-02
 Quartic linear search produced a step of -0.33165.
 Iteration  1 RMS(Cart)=  0.00436926 RMS(Int)=  0.00000465
 Iteration  2 RMS(Cart)=  0.00000653 RMS(Int)=  0.00000018
 Iteration  3 RMS(Cart)=  0.00000000 RMS(Int)=  0.00000018
 ITry= 1 IFail=0 DXMaxC= 1.03D-02 DCOld= 1.00D+10 DXMaxT= 3.00D-01 DXLimC= 3.00D+00 Rises=F
 Variable       Old X    -DE/DX   Delta X   Delta X   Delta X     New X
                                 (Linear)    (Quad)   (Total)
    R1        2.53351  -0.00028   0.00007  -0.00040  -0.00033   2.53318
    R2        1.90532  -0.00003  -0.00103   0.00113   0.00010   1.90541
    R3        1.90052   0.00002  -0.00096   0.00111   0.00015   1.90067
    R4        2.46158  -0.00013  -0.00003  -0.00011  -0.00013   2.46144
    R5        2.04885   0.00002   0.00056  -0.00061  -0.00005   2.04880
    R6        1.91904  -0.00010  -0.00072   0.00066  -0.00006   1.91898
    R7        2.66842  -0.00071  -0.00196   0.00115  -0.00081   2.66761
    R8        2.54270  -0.00122  -0.00050  -0.00088  -0.00139   2.54132
    R9        2.49073   0.00022   0.00152  -0.00147   0.00005   2.49078
   R10        2.54963  -0.00090  -0.00089  -0.00009  -0.00098   2.54865
   R11        2.55742  -0.00131  -0.00155   0.00016  -0.00139   2.55603
   R12        2.52248  -0.00022   0.00183  -0.00234  -0.00051   2.52197
   R13        1.82115  -0.00040  -0.00019  -0.00028  -0.00046   1.82069
   R14        2.59518  -0.00157  -0.00217   0.00041  -0.00176   2.59342
    A1        2.14139  -0.00001  -0.00022   0.00021  -0.00001   2.14138
    A2        2.08807   0.00004   0.00037  -0.00027   0.00010   2.08817
    A3        2.05373  -0.00003  -0.00015   0.00006  -0.00009   2.05364
    A4        2.17694   0.00013   0.00104  -0.00079   0.00025   2.17719
    A5        2.08074  -0.00008   0.00024  -0.00055  -0.00031   2.08043
    A6        2.02551  -0.00004  -0.00128   0.00134   0.00005   2.02557
    A7        2.11930   0.00055  -0.00064   0.00256   0.00193   2.12122
[...]
 226. BD*(   2) C   7 - N   9        /109. RY*(   3) N   6                    0.53    0.45    0.029
 226. BD*(   2) C   7 - N   9        /127. RY*(   4) C   7                    1.46    1.55    0.090
 226. BD*(   2) C   7 - N   9        /131. RY*(   8) C   7                    1.68    0.59    0.060
 226. BD*(   2) C   7 - N   9        /142. RY*(   2) O   8                    0.66    0.67    0.040
 226. BD*(   2) C   7 - N   9        /162. RY*(   5) N   9                    0.71    1.79    0.068
 226. BD*(   2) C   7 - N   9        /173. RY*(  16) N   9                    0.79    1.22    0.059


 Natural Bond Orbitals (Summary):

                                                            Principal Delocalizations
           NBO                        Occupancy    Energy   (geminal,vicinal,remote)
 ====================================================================================
 Molecular unit  1  (C3H5N5O)
     1. BD (   1) N   1 - C   2          1.99344    -0.94728  219(v),68(v),215(g)
     2. BD (   1) N   1 - H  11          1.98999    -0.76114  52(v),217(v),215(v)
     3. BD (   1) N   1 - H  12          1.98974    -0.75555  215(v),51(v),55(v),217(v)
     4. BD (   1) C   2 - N   3          1.98894    -0.96339  90(v),219(g),220(v),214(v)
                                                    212(g),218(g),35(v)
     5. BD (   2) C   2 - N   3          1.96370    -0.42700  222(v),94(v),34(v),216(g)
     6. BD (   1) C   2 - H  13          1.97358    -0.61437  218(v),213(v),68(v),214(v)
                                                    35(v),69(v)
     7. BD (   1) N   3 - H   4          1.98297    -0.72777  221(v),217(v),52(v),212(v)
                                                    90(v)
     8. BD (   1) N   3 - C   5          1.98411    -0.83892  212(v),51(v),215(g),228(v)
                                                    223(v),221(g)
     9. BD (   1) C   5 - N   6          1.97526    -0.79256  224(v),215(v),221(g),124(v)
                                                    219(g),223(g),129(v),125(v)
    10. BD (   1) C   5 - N  10          1.98951    -0.82720  220(g),159(v),224(r),218(v)
                                                    219(g)
    11. BD (   2) C   5 - N  10          1.87624    -0.29694  29(v),226(v),216(v),160(v)
                                                    109(v),70(v)
    12. BD (   1) N   6 - C   7          1.97816    -0.77671  219(v),90(v),225(g),220(g)
                                                    95(v),91(v)
    13. BD (   1) C   7 - O   8          1.99456    -0.90160  228(v),220(v)
    14. BD (   1) C   7 - N   9          1.99120    -0.79120  219(r),176(v),227(v),223(g)
                                                    224(g)
    15. BD (   2) C   7 - N   9          1.82029    -0.27083  29(v),222(v),178(v),142(v)
                                                    177(v),109(v),226(g)
    16. BD (   1) O   8 - H  14          1.98473    -0.71421  225(v),126(v),124(v),223(v)
                                                    108(r)
    17. BD (   1) N   9 - N  10          1.96871    -0.75843  219(v),224(v),124(v),220(v)
    18. CR (   1) N   1                  1.99946   -14.25632  52(v),198(v),192(v),55(v)
    19. CR (   1) C   2                  1.99941   -10.20255  219(v),69(v),36(v)
    20. CR (   1) N   3                  1.99925   -14.25161  95(v),52(v),55(v),87(v)
    21. CR (   1) C   5                  1.99925   -10.11022  215(v),176(v),223(v)
    22. CR (   1) N   6                  1.99934   -14.08171  124(v),90(v),219(v),224(v)
    23. CR (   1) C   7                  1.99921   -10.11969  159(v),220(v),224(g)
    24. CR (   1) O   8                  1.99973   -18.91271  126(v),210(v)
    25. CR (   1) N   9                  1.99941   -14.10717  124(v),224(v),130(v),129(v)
                                                    223(v)
    26. CR (   1) N  10                  1.99934   -14.11595  90(v),219(v),159(v),95(v)
                                                    220(v)
    27. LP (   1) N   1                  1.72286    -0.34622  216(v),53(v),54(v),197(v)
                                                    193(v),34(g)
    28. LP (   1) N   6                  1.92772    -0.37813  221(v),225(v),90(v),124(v)
                                                    219(v),224(v),91(v),125(v)
                                                    137(v),103(v)
    29. LP (   2) N   6                  1.37090    -0.16537  222(v),226(v),128(v),92(v)
                                                    109(g),123(g),96(v)
    30. LP (   1) O   8                  1.97494    -0.58958  223(v),126(v),124(v),208(v)
                                                    129(v),225(v)
    31. LP (   2) O   8                  1.88321    -0.29870  226(v),127(v),207(v),29(r)
    32. LP (   1) N   9                  1.94676    -0.35845  223(v),124(v),221(v),175(v)
                                                    224(v),125(v),133(v)
    33. LP (   1) N  10                  1.94098    -0.37544  220(v),90(v),225(v),158(v)
                                                    219(v),91(v),217(r)
    34. RY*(   1) N   1                  0.00245     0.50582   
    35. RY*(   2) N   1                  0.00147     0.98536   
    36. RY*(   3) N   1                  0.00038     0.92566   
    37. RY*(   4) N   1                  0.00014     0.82268   
    38. RY*(   5) N   1                  0.00005     0.38097   
    39. RY*(   6) N   1                  0.00005     3.18381   
    40. RY*(   7) N   1                  0.00004     0.83829   
    41. RY*(   8) N   1                  0.00002     1.08192   
    42. RY*(   9) N   1                  0.00000     4.23128   
    43. RY*(  10) N   1                  0.00000     3.44530   
    44. RY*(  11) N   1                  0.00000    35.00872   
    45. RY*(  12) N   1                  0.00000     3.56559   
    46. RY*(  13) N   1                  0.00000     0.51736   
    47. RY*(  14) N   1                  0.00001     1.97222   
    48. RY*(  15) N   1                  0.00000     1.91594   
    49. RY*(  16) N   1                  0.00000     2.73589   
    50. RY*(  17) N   1                  0.00001     2.34557   
    51. RY*(   1) C   2                  0.00531     1.04845   
    52. RY*(   2) C   2                  0.00412     1.10725   
    53. RY*(   3) C   2                  0.00365     1.55090   
    54. RY*(   4) C   2                  0.00167     0.48536   
    55. RY*(   5) C   2                  0.00141     1.02381   
    56. RY*(   6) C   2                  0.00070     0.75808   
    57. RY*(   7) C   2                  0.00040     0.14883   
    58. RY*(   8) C   2                  0.00034     1.18926   
    59. RY*(   9) C   2                  0.00020     2.41879   
    60. RY*(  10) C   2                  0.00008     4.67853   
    61. RY*(  11) C   2                  0.00006     1.51084   
    62. RY*(  12) C   2                  0.00002     3.02307   
    63. RY*(  13) C   2                  0.00001     0.75793   
    64. RY*(  14) C   2                  0.00000    14.94009   
    65. RY*(  15) C   2                  0.00000     1.46479   
    66. RY*(  16) C   2                  0.00000     2.61515   
    67. RY*(  17) C   2                  0.00000     6.26336   
    68. RY*(   1) N   3                  0.00468     0.93419   
    69. RY*(   2) N   3                  0.00285     1.01076   
    70. RY*(   3) N   3                  0.00108     0.65285   
    71. RY*(   4) N   3                  0.00093     2.00279   
    72. RY*(   5) N   3                  0.00064     1.77759   
    73. RY*(   6) N   3                  0.00030     1.37158   
    74. RY*(   7) N   3                  0.00016     1.77604   
    75. RY*(   8) N   3                  0.00010     0.89106   
    76. RY*(   9) N   3                  0.00007     2.43059   
    77. RY*(  10) N   3                  0.00005     2.66707   
    78. RY*(  11) N   3                  0.00002     4.13642   
    79. RY*(  12) N   3                  0.00003     1.41028   
    80. RY*(  13) N   3                  0.00003     2.66125   
    81. RY*(  14) N   3                  0.00000    34.51861   
    82. RY*(  15) N   3                  0.00001     1.74064   
    83. RY*(  16) N   3                  0.00000     3.73524   
    84. RY*(  17) N   3                  0.00000     3.25026   
    85. RY*(   1) H   4                  0.00369     0.35192   
    86. RY*(   2) H   4                  0.00039     1.50974   
    87. RY*(   3) H   4                  0.00036     2.21567   
    88. RY*(   4) H   4                  0.00016     1.96487   
    89. RY*(   5) H   4                  0.00005     2.53401   
    90. RY*(   1) C   5                  0.01587     1.10250   
    91. RY*(   2) C   5                  0.00645     1.64208   
    92. RY*(   3) C   5                  0.00386     1.56349   
    93. RY*(   4) C   5                  0.00224     1.07823   
    94. RY*(   5) C   5                  0.00183     0.98205   
    95. RY*(   6) C   5                  0.00163     1.22491   
    96. RY*(   7) C   5                  0.00142     1.20845   
    97. RY*(   8) C   5                  0.00048     1.23653   
    98. RY*(   9) C   5                  0.00029     2.69328   
    99. RY*(  10) C   5                  0.00014     5.94869   
   100. RY*(  11) C   5                  0.00008     4.16238   
   101. RY*(  12) C   5                  0.00005     3.42813   
   102. RY*(  13) C   5                  0.00005     0.30394   
   103. RY*(  14) C   5                  0.00003     2.42883   
   104. RY*(  15) C   5                  0.00000    12.05913   
   105. RY*(  16) C   5                  0.00001     2.84903   
   106. RY*(  17) C   5                  0.00000     2.69468   
   107. RY*(   1) N   6                  0.00239     0.85145   
   108. RY*(   2) N   6                  0.00202     0.84428   
   109. RY*(   3) N   6                  0.00139     0.48188   
   110. RY*(   4) N   6                  0.00115     0.99109   
   111. RY*(   5) N   6                  0.00034     1.90171   
   112. RY*(   6) N   6                  0.00031     0.88891   
   113. RY*(   7) N   6                  0.00025     1.96092   
   114. RY*(   8) N   6                  0.00014     1.11866   
   115. RY*(   9) N   6                  0.00009     1.98127   
   116. RY*(  10) N   6                  0.00003     3.73418   
   117. RY*(  11) N   6                  0.00003     2.80844   
   118. RY*(  12) N   6                  0.00000     3.88399   
   119. RY*(  13) N   6                  0.00001     2.52373   
   120. RY*(  14) N   6                  0.00001     3.31147   
   121. RY*(  15) N   6                  0.00001     2.61454   
   122. RY*(  16) N   6                  0.00000    34.92408   
   123. RY*(  17) N   6                  0.00000     2.15699   
   124. RY*(   1) C   7                  0.01374     1.05909   
   125. RY*(   2) C   7                  0.00662     1.73534   
   126. RY*(   3) C   7                  0.00406     1.11001   
   127. RY*(   4) C   7                  0.00398     1.58232   
   128. RY*(   5) C   7                  0.00286     1.51833   
   129. RY*(   6) C   7                  0.00284     1.49444   
   130. RY*(   7) C   7                  0.00062     1.40481   
   131. RY*(   8) C   7                  0.00058     0.62343   
   132. RY*(   9) C   7                  0.00029     1.49395   
   133. RY*(  10) C   7                  0.00013     1.10762   
   134. RY*(  11) C   7                  0.00010     8.37027   
   135. RY*(  12) C   7                  0.00004     1.79755   
   136. RY*(  13) C   7                  0.00000    12.49234   
   137. RY*(  14) C   7                  0.00000     2.48489   
   138. RY*(  15) C   7                  0.00001     5.09377   
   139. RY*(  16) C   7                  0.00000     0.37221   
   140. RY*(  17) C   7                  0.00000     2.68565   
   141. RY*(   1) O   8                  0.00257     0.55165   
   142. RY*(   2) O   8                  0.00200     0.70431   
   143. RY*(   3) O   8                  0.00058     2.16698   
   144. RY*(   4) O   8                  0.00030     0.46004   
   145. RY*(   5) O   8                  0.00011     1.76725   
   146. RY*(   6) O   8                  0.00008     2.08544   
   147. RY*(   7) O   8                  0.00005     1.23182   
   148. RY*(   8) O   8                  0.00001     4.04669   
   149. RY*(   9) O   8                  0.00000     5.28844   
   150. RY*(  10) O   8                  0.00001     2.91501   
   151. RY*(  11) O   8                  0.00000     0.84911   
   152. RY*(  12) O   8                  0.00001     2.95810   
   153. RY*(  13) O   8                  0.00000     2.59497   
   154. RY*(  14) O   8                  0.00000    49.73023   
   155. RY*(  15) O   8                  0.00000     4.88588   
   156. RY*(  16) O   8                  0.00000     3.11741   
   157. RY*(  17) O   8                  0.00000     3.22194   
   158. RY*(   1) N   9                  0.00454     0.99416   
   159. RY*(   2) N   9                  0.00175     0.93663   
   160. RY*(   3) N   9                  0.00154     0.95519   
   161. RY*(   4) N   9                  0.00063     0.85609   
   162. RY*(   5) N   9                  0.00041     1.82543   
   163. RY*(   6) N   9                  0.00028     1.77904   
   164. RY*(   7) N   9                  0.00016     0.88944   
   165. RY*(   8) N   9                  0.00010     2.46436   
   166. RY*(   9) N   9                  0.00005     2.95471   
   167. RY*(  10) N   9                  0.00006     1.76621   
   168. RY*(  11) N   9                  0.00003     2.64842   
   169. RY*(  12) N   9                  0.00001     1.73803   
   170. RY*(  13) N   9                  0.00000    34.98572   
   171. RY*(  14) N   9                  0.00000     3.72235   
   172. RY*(  15) N   9                  0.00001     4.08462   
   173. RY*(  16) N   9                  0.00000     1.26035   
   174. RY*(  17) N   9                  0.00001     2.79022   
   175. RY*(   1) N  10                  0.00474     1.05106   
   176. RY*(   2) N  10                  0.00151     0.85611   
   177. RY*(   3) N  10                  0.00142     0.49711   
   178. RY*(   4) N  10                  0.00097     2.18543   
   179. RY*(   5) N  10                  0.00058     0.99802   
   180. RY*(   6) N  10                  0.00020     1.09042   
   181. RY*(   7) N  10                  0.00016     1.93893   
   182. RY*(   8) N  10                  0.00010     2.14173   
   183. RY*(   9) N  10                  0.00004     2.62886   
   184. RY*(  10) N  10                  0.00003     0.78680   
   185. RY*(  11) N  10                  0.00001     3.92109   
   186. RY*(  12) N  10                  0.00001     2.27721   
   187. RY*(  13) N  10                  0.00001     2.61892   
   188. RY*(  14) N  10                  0.00001     3.06217   
   189. RY*(  15) N  10                  0.00000     2.17709   
   190. RY*(  16) N  10                  0.00000     3.82477   
   191. RY*(  17) N  10                  0.00000    34.93477   
   192. RY*(   1) H  11                  0.00093     0.90277   
   193. RY*(   2) H  11                  0.00054     1.45996   
   194. RY*(   3) H  11                  0.00028     2.15561   
   195. RY*(   4) H  11                  0.00007     1.80427   
   196. RY*(   5) H  11                  0.00003     2.19377   
   197. RY*(   1) H  12                  0.00063     1.46168   
   198. RY*(   2) H  12                  0.00038     1.56605   
   199. RY*(   3) H  12                  0.00025     1.70011   
   200. RY*(   4) H  12                  0.00005     1.79491   
   201. RY*(   5) H  12                  0.00003     2.02428   
   202. RY*(   1) H  13                  0.00235     0.87797   
   203. RY*(   2) H  13                  0.00010     1.91015   
   204. RY*(   3) H  13                  0.00009     1.52261   
   205. RY*(   4) H  13                  0.00005     1.70794   
   206. RY*(   5) H  13                  0.00003     2.69322   
   207. RY*(   1) H  14                  0.00159     1.52748   
   208. RY*(   2) H  14                  0.00126     1.81029   
   209. RY*(   3) H  14                  0.00079     0.60354   
   210. RY*(   4) H  14                  0.00032     2.21244   
   211. RY*(   5) H  14                  0.00003     2.51039   
   212. BD*(   1) N   1 - C   2          0.00987     0.41762   
   213. BD*(   1) N   1 - H  11          0.01003     0.33581   
   214. BD*(   1) N   1 - H  12          0.00422     0.34573   
   215. BD*(   1) C   2 - N   3          0.01560     0.48902   
   216. BD*(   2) C   2 - N   3          0.39365    -0.09239  222(v),54(g),53(g),34(v)
                                                    57(g),70(g),71(g)
   217. BD*(   1) C   2 - H  13          0.01708     0.33461   
   218. BD*(   1) N   3 - H   4          0.01914     0.32091   
   219. BD*(   1) N   3 - C   5          0.05265     0.37737   
   220. BD*(   1) C   5 - N   6          0.02725     0.52561   
   221. BD*(   1) C   5 - N  10          0.03469     0.57016   
   222. BD*(   2) C   5 - N  10          0.49464     0.01914  226(v),29(v),216(v),177(g)
                                                    96(g),109(v),184(g),92(g)
                                                    102(g)
   223. BD*(   1) N   6 - C   7          0.03712     0.52935   
   224. BD*(   1) C   7 - O   8          0.03932     0.39535   
   225. BD*(   1) C   7 - N   9          0.03673     0.56539   
   226. BD*(   2) C   7 - N   9          0.43802     0.03559  222(v),29(v),131(g),127(g)
                                                    173(g),162(g),142(v),109(v)
   227. BD*(   1) O   8 - H  14          0.00553     0.42927   
   228. BD*(   1) N   9 - N  10          0.00594     0.44192   
       -------------------------------
              Total Lewis   64.20692  ( 97.2832%)
        Valence non-Lewis    1.64148  (  2.4871%)
        Rydberg non-Lewis    0.15160  (  0.2297%)
       -------------------------------
            Total unit  1   66.00000  (100.0000%)
           Charge unit  1    0.00000
 Leave Link  607 at Thu Nov  3 23:54:12 2022, MaxMem=  8053063680 cpu:              57.3 elap:               1.8
 (Enter /public3/home/scg5914/software-scg5914/g16/l9999.exe)
 Unable to Open any file for archive entry.
 1\1\GINC-E0807\SP\RB3LYP\Gen\C3H5N5O1\SCG5914\03-Nov-2022\0\\#p b3lyp/
 chkbas pop=nbo geom=allcheck guess=tcheck em=gd3bj\\dsgdb9nsd_130366\\
 0,1\N,0,-0.001913486,1.3576297081,-0.0084403846\C,0,0.0316822664,0.017
 8972784,-0.0279372339\N,0,1.1170872352,-0.6996232962,0.031628541\H,0,2
 .0351975102,-0.2715053756,0.0989036039\C,0,1.1435992719,-2.1119532137,
 0.0102481679\N,0,2.3125022394,-2.773099521,0.0761884685\C,0,1.82704407
 27,-4.0310911106,0.023888542\O,0,2.6213221906,-5.1254177961,0.05835127
 37\N,0,0.5002892119,-4.1329247124,-0.0647203852\N,0,0.0465003946,-2.83
 66579649,-0.073926658\H,0,0.8307931468,1.9224408143,0.0557994849\H,0,-
 0.8862724596,1.8340336746,-0.0582625757\H,0,-0.8991957891,-0.533619506
 7,-0.0980782573\H,0,3.529087565,-4.8096548983,0.122994323\\Version=ES6
 4L-G16RevC.01\State=1-A\HF=-466.4105975\RMSD=7.102e-09\Dipole=0.090701
 4,5.078026,0.0893376\Quadrupole=-1.4184378,8.101062,-6.6826242,-9.1835
 529,0.1943751,-0.3565148\PG=C01 [X(C3H5N5O1)]\\@
 The archive entry for this job was punched.


 WISDOM IS KNOWING WHAT TO DO,
 SKILL IS KNOWING HOW TO DO IT,
 AND VIRTUE IS NOT DOING IT.
 Job cpu time:       0 days  0 hours  1 minutes 35.2 seconds.
 Elapsed time:       0 days  0 hours  0 minutes  3.1 seconds.
 File lengths (MBytes):  RWF=     33 Int=      0 D2E=      0 Chk=      5 Scr=      1
 Normal termination of Gaussian 16 at Thu Nov  3 23:54:13 2022.
