 Entering Gaussian System, Link 0=/public3/home/scg5914/software-scg5914/g16/g16
 Input=dsgdb9nsd_133858.gjf
 Output=dsgdb9nsd_133858.log
 Initial command:
 /public3/home/scg5914/software-scg5914/g16/l1.exe "/public3/home/scg5914/software-scg5914/test/tmp/dsgdb9nsd_133858/Gau-244259.inp" -scrdir="/public3/home/scg5914/software-scg5914/test/tmp/dsgdb9nsd_133858/"
 Entering Link 1 = /public3/home/scg5914/software-scg5914/g16/l1.exe PID=    244260.
  
 Copyright (c) 1988-2019, Gaussian, Inc.  All Rights Reserved.
  
 This is part of the Gaussian(R) 16 program.  It is based on
 the Gaussian(R) 09 system (copyright 2009, Gaussian, Inc.),
 the Gaussian(R) 03 system (copyright 2003, Gaussian, Inc.),
 the Gaussian(R) 98 system (copyright 1998, Gaussian, Inc.),
 the Gaussian(R) 94 system (copyright 1995, Gaussian, Inc.),
 the Gaussian 92(TM) system (copyright 1992, Gaussian, Inc.),
 the Gaussian 90(TM) system (copyright 1990, Gaussian, Inc.),
 the Gaussian 88(TM) system (copyright 1988, Gaussian, Inc.),
 the Gaussian 86(TM) system (copyright 1986, Carnegie Mellon
 University), and the Gaussian 82(TM) system (copyright 1983,
 Carnegie Mellon University). Gaussian is a federally registered
 trademark of Gaussian, Inc.
  
 This software contains proprietary and confidential information,
 including trade secrets, belonging to Gaussian, Inc.
  
 This software is provided under written license and may be
 used, copied, transmitted, or stored only in accord with that
 written license.
  
 The following legend is applicable only to US Government
 contracts under FAR:
  
                    RESTRICTED RIGHTS LEGEND
  
 Use, reproduction and disclosure by the US Government is
 subject to restrictions as set forth in subparagraphs (a)
 and (c) of the Commercial Computer Software - Restricted
 Rights clause in FAR 52.227-19.
  
 Gaussian, Inc.
 340 Quinnipiac St., Bldg. 40, Wallingford CT 06492
  
  
 ---------------------------------------------------------------
 Warning -- This program may not be used in any manner that
 competes with the business of Gaussian, Inc. or will provide
 assistance to any competitor of Gaussian, Inc.  The licensee
 of this program is prohibited from giving any competitor of
 Gaussian, Inc. access to this program.  By using this program,
 the user acknowledges that Gaussian, Inc. is engaged in the
 business of creating and licensing software in the field of
 computational chemistry and represents and warrants to the
 licensee that it is not a competitor of Gaussian, Inc. and that
 it will not use this program in any manner prohibited above.
 ---------------------------------------------------------------
  

 Cite this work as:
 Gaussian 16, Revision C.01,
 M. J. Frisch, G. W. Trucks, H. B. Schlegel, G. E. Scuseria, 
 M. A. Robb, J. R. Cheeseman, G. Scalmani, V. Barone, 
 G. A. Petersson, H. Nakatsuji, X. Li, M. Caricato, A. V. Marenich, 
 J. Bloino, B. G. Janesko, R. Gomperts, B. Mennucci, H. P. Hratchian, 
 J. V. Ortiz, A. F. Izmaylov, J. L. Sonnenberg, D. Williams-Young, 
 F. Ding, F. Lipparini, F. Egidi, J. Goings, B. Peng, A. Petrone, 
 T. Henderson, D. Ranasinghe, V. G. Zakrzewski, J. Gao, N. Rega, 
 G. Zheng, W. Liang, M. Hada, M. Ehara, K. Toyota, R. Fukuda, 
 J. Hasegawa, M. Ishida, T. Nakajima, Y. Honda, O. Kitao, H. Nakai, 
 T. Vreven, K. Throssell, J. A. Montgomery, Jr., J. E. Peralta, 
 F. Ogliaro, M. J. Bearpark, J. J. Heyd, E. N. Brothers, K. N. Kudin, 
 V. N. Staroverov, T. A. Keith, R. Kobayashi, J. Normand, 
 K. Raghavachari, A. P. Rendell, J. C. Burant, S. S. Iyengar, 
 J. Tomasi, M. Cossi, J. M. Millam, M. Klene, C. Adamo, R. Cammi, 
 J. W. Ochterski, R. L. Martin, K. Morokuma, O. Farkas, 
 J. B. Foresman, and D. J. Fox, Gaussian, Inc., Wallingford CT, 2019.
 
 ******************************************
 Gaussian 16:  ES64L-G16RevC.01  3-Jul-2019
                 4-Nov-2022 
 ******************************************
 %chk=dsgdb9nsd_133858.chk
 %mem=60GB
 %nprocshared=32
 Will use up to   32 processors via shared memory.
 ------------------------------------
 #p opt freq b3lyp/6-311+g** em=gd3bj
 ------------------------------------
 1/18=20,19=15,26=3,38=1/1,3;
 2/9=110,12=2,17=6,18=5,40=1/2;
 3/5=4,6=6,7=111,11=2,25=1,30=1,71=1,74=-5,124=41/1,2,3;
 4//1;
 5/5=2,38=5/2;
 6/7=2,8=2,9=2,10=2,28=1/1;
 7//1,2,3,16;
 1/18=20,19=15,26=3/3(2);
 2/9=110/2;
 99//99;
 2/9=110/2;
 3/5=4,6=6,7=111,11=2,25=1,30=1,71=1,74=-5,124=41/1,2,3;
 4/5=5,16=3,69=1/1;
 5/5=2,38=5/2;
 7//1,2,3,16;
 1/18=20,19=15,26=3/3(-5);
 2/9=110/2;
 6/7=2,8=2,9=2,10=2,19=2,28=1/1;
 99/9=1/99;
 Leave Link    1 at Fri Nov  4 17:04:40 2022, MaxMem=  8053063680 cpu:               1.0 elap:               0.0
 (Enter /public3/home/scg5914/software-scg5914/g16/l101.exe)
 ----------------
 dsgdb9nsd_133858
 ----------------
 Symbolic Z-matrix:
 Charge =  0 Multiplicity = 1
 C                     4.99876   5.91405  -2.78605 
 C                     4.20182   4.61882  -2.9115 
 N                     3.20219   4.50573  -1.7341 
 C                     2.426     3.31031  -2.08456 
 C                     3.27034   2.39179  -1.54975 
 C                     4.00023   1.27546  -2.23575 
 C                     5.02027   2.00231  -3.06491 
 C                     4.99692   3.40077  -2.45082 
 C                     4.18912   3.46781  -1.11683 
 H                     4.3236    6.7704   -2.87008 
 H                     5.75533   5.97523  -3.57395 
 H                     5.50527   5.97082  -1.81814 
 H                     3.70445   4.57718  -3.88627 
 H                     1.62008   3.29274  -2.8132 
 H                     4.31642   0.40664  -1.65528 
 H                     4.76763   2.10194  -4.12596 
 H                     5.99078   1.48997  -3.01477 
 H                     4.63881   3.65195  -0.14184 
 
 ITRead=  0  0  0  0  0  0  0  0  0  0  0  0  0  0  0  0  0  0
 MicOpt= -1 -1 -1 -1 -1 -1 -1 -1 -1 -1 -1 -1 -1 -1 -1 -1 -1 -1
 NAtoms=     18 NQM=       18 NQMF=       0 NMMI=      0 NMMIF=      0
                NMic=       0 NMicF=      0.
                    Isotopes and Nuclear Properties:
 (Nuclear quadrupole moments (NQMom) in fm**2, nuclear magnetic moments (NMagM)
  in nuclear magnetons)

  Atom         1           2           3           4           5           6           7           8           9          10
 IAtWgt=          12          12          14          12          12          12          12          12          12           1
 AtmWgt=  12.0000000  12.0000000  14.0030740  12.0000000  12.0000000  12.0000000  12.0000000  12.0000000  12.0000000   1.0078250
 NucSpn=           0           0           2           0           0           0           0           0           0           1
 AtZEff=  -0.0000000  -0.0000000  -0.0000000  -0.0000000  -0.0000000  -0.0000000  -0.0000000  -0.0000000  -0.0000000  -0.0000000
 NQMom=    0.0000000   0.0000000   2.0440000   0.0000000   0.0000000   0.0000000   0.0000000   0.0000000   0.0000000   0.0000000
 NMagM=    0.0000000   0.0000000   0.4037610   0.0000000   0.0000000   0.0000000   0.0000000   0.0000000   0.0000000   2.7928460
 AtZNuc=   6.0000000   6.0000000   7.0000000   6.0000000   6.0000000   6.0000000   6.0000000   6.0000000   6.0000000   1.0000000

  Atom        11          12          13          14          15          16          17          18
 IAtWgt=           1           1           1           1           1           1           1           1
 AtmWgt=   1.0078250   1.0078250   1.0078250   1.0078250   1.0078250   1.0078250   1.0078250   1.0078250
 NucSpn=           1           1           1           1           1           1           1           1
 AtZEff=  -0.0000000  -0.0000000  -0.0000000  -0.0000000  -0.0000000  -0.0000000  -0.0000000  -0.0000000
 NQMom=    0.0000000   0.0000000   0.0000000   0.0000000   0.0000000   0.0000000   0.0000000   0.0000000
 NMagM=    2.7928460   2.7928460   2.7928460   2.7928460   2.7928460   2.7928460   2.7928460   2.7928460
 AtZNuc=   1.0000000   1.0000000   1.0000000   1.0000000   1.0000000   1.0000000   1.0000000   1.0000000
 Leave Link  101 at Fri Nov  4 17:04:40 2022, MaxMem=  8053063680 cpu:               4.2 elap:               0.1
 (Enter /public3/home/scg5914/software-scg5914/g16/l103.exe)

 GradGradGradGradGradGradGradGradGradGradGradGradGradGradGradGradGradGrad
 Berny optimization.
 Initialization pass.
                           ----------------------------
                           !    Initial Parameters    !
                           ! (Angstroms and Degrees)  !
 --------------------------                            --------------------------
 ! Name  Definition              Value          Derivative Info.                !
 --------------------------------------------------------------------------------
 ! R1    R(1,2)                  1.5259         estimate D2E/DX2                !
 ! R2    R(1,10)                 1.0937         estimate D2E/DX2                !
 ! R3    R(1,11)                 1.094          estimate D2E/DX2                !
 ! R4    R(1,12)                 1.0939         estimate D2E/DX2                !
 ! R5    R(2,3)                  1.5487         estimate D2E/DX2                !
 ! R6    R(2,8)                  1.5258         estimate D2E/DX2                !
 ! R7    R(2,13)                 1.0951         estimate D2E/DX2                !
 ! R8    R(3,4)                  1.4678         estimate D2E/DX2                !
 ! R9    R(3,9)                  1.5596         estimate D2E/DX2                !
 ! R10   R(4,5)                  1.3574         estimate D2E/DX2                !
 ! R11   R(4,14)                 1.0866         estimate D2E/DX2                !
 ! R12   R(5,6)                  1.4998         estimate D2E/DX2                !
 ! R13   R(5,9)                  1.4797         estimate D2E/DX2                !
 ! R14   R(6,7)                  1.5021         estimate D2E/DX2                !
 ! R15   R(6,15)                 1.0917         estimate D2E/DX2                !
 ! R16   R(7,8)                  1.5275         estimate D2E/DX2                !
 ! R17   R(7,16)                 1.0953         estimate D2E/DX2                !
 ! R18   R(7,17)                 1.0986         estimate D2E/DX2                !
 ! R19   R(8,9)                  1.561          estimate D2E/DX2                !
 ! R20   R(9,18)                 1.0894         estimate D2E/DX2                !
 ! A1    A(2,1,10)             109.6261         estimate D2E/DX2                !
 ! A2    A(2,1,11)             110.4522         estimate D2E/DX2                !
 ! A3    A(2,1,12)             111.0151         estimate D2E/DX2                !
 ! A4    A(10,1,11)            109.1335         estimate D2E/DX2                !
 ! A5    A(10,1,12)            108.251          estimate D2E/DX2                !
 ! A6    A(11,1,12)            108.3076         estimate D2E/DX2                !
 ! A7    A(1,2,3)              109.6694         estimate D2E/DX2                !
 ! A8    A(1,2,8)              112.373          estimate D2E/DX2                !
 ! A9    A(1,2,13)             110.0379         estimate D2E/DX2                !
 ! A10   A(3,2,8)               92.7815         estimate D2E/DX2                !
 ! A11   A(3,2,13)             112.3828         estimate D2E/DX2                !
 ! A12   A(8,2,13)             118.3633         estimate D2E/DX2                !
 ! A13   A(2,3,4)              102.6671         estimate D2E/DX2                !
 ! A14   A(2,3,9)               86.6195         estimate D2E/DX2                !
 ! A15   A(4,3,9)               83.5186         estimate D2E/DX2                !
 ! A16   A(3,4,5)               97.3601         estimate D2E/DX2                !
 ! A17   A(3,4,14)             124.4367         estimate D2E/DX2                !
 ! A18   A(5,4,14)             135.6093         estimate D2E/DX2                !
 ! A19   A(4,5,6)              128.7658         estimate D2E/DX2                !
 ! A20   A(4,5,9)               90.5404         estimate D2E/DX2                !
 ! A21   A(6,5,9)              111.8951         estimate D2E/DX2                !
 ! A22   A(5,6,7)              102.8723         estimate D2E/DX2                !
 ! A23   A(5,6,15)             119.3475         estimate D2E/DX2                !
 ! A24   A(7,6,15)             118.8115         estimate D2E/DX2                !
 ! A25   A(6,7,8)              102.1645         estimate D2E/DX2                !
 ! A26   A(6,7,16)             114.9695         estimate D2E/DX2                !
 ! A27   A(6,7,17)             110.4292         estimate D2E/DX2                !
 ! A28   A(8,7,16)             107.617          estimate D2E/DX2                !
 ! A29   A(8,7,17)             114.9682         estimate D2E/DX2                !
 ! A30   A(16,7,17)            106.8823         estimate D2E/DX2                !
 ! A31   A(2,8,7)              128.1297         estimate D2E/DX2                !
 ! A32   A(2,8,9)               87.3673         estimate D2E/DX2                !
 ! A33   A(7,8,9)              113.0034         estimate D2E/DX2                !
 ! A34   A(3,9,5)               88.5804         estimate D2E/DX2                !
 ! A35   A(3,9,8)               91.0212         estimate D2E/DX2                !
 ! A36   A(3,9,18)             120.1959         estimate D2E/DX2                !
 ! A37   A(5,9,8)               92.2962         estimate D2E/DX2                !
 ! A38   A(5,9,18)             129.8746         estimate D2E/DX2                !
 ! A39   A(8,9,18)             123.9522         estimate D2E/DX2                !
 ! D1    D(10,1,2,3)           -63.4872         estimate D2E/DX2                !
 ! D2    D(10,1,2,8)          -165.1916         estimate D2E/DX2                !
 ! D3    D(10,1,2,13)           60.6248         estimate D2E/DX2                !
 ! D4    D(11,1,2,3)           176.2222         estimate D2E/DX2                !
 ! D5    D(11,1,2,8)            74.5178         estimate D2E/DX2                !
 ! D6    D(11,1,2,13)          -59.6658         estimate D2E/DX2                !
 ! D7    D(12,1,2,3)            56.0627         estimate D2E/DX2                !
 ! D8    D(12,1,2,8)           -45.6417         estimate D2E/DX2                !
 ! D9    D(12,1,2,13)         -179.8252         estimate D2E/DX2                !
 ! D10   D(1,2,3,4)            173.7798         estimate D2E/DX2                !
 ! D11   D(1,2,3,9)           -103.6422         estimate D2E/DX2                !
 ! D12   D(8,2,3,4)            -71.2553         estimate D2E/DX2                !
 ! D13   D(8,2,3,9)             11.3228         estimate D2E/DX2                !
 ! D14   D(13,2,3,4)            51.0468         estimate D2E/DX2                !
 ! D15   D(13,2,3,9)           133.6249         estimate D2E/DX2                !
 ! D16   D(1,2,8,7)           -141.231          estimate D2E/DX2                !
 ! D17   D(1,2,8,9)            101.3027         estimate D2E/DX2                !
 ! D18   D(3,2,8,7)            106.1613         estimate D2E/DX2                !
 ! D19   D(3,2,8,9)            -11.3049         estimate D2E/DX2                !
 ! D20   D(13,2,8,7)           -11.1924         estimate D2E/DX2                !
 ! D21   D(13,2,8,9)          -128.6586         estimate D2E/DX2                !
 ! D22   D(2,3,4,5)             85.2192         estimate D2E/DX2                !
 ! D23   D(2,3,4,14)           -78.9748         estimate D2E/DX2                !
 ! D24   D(9,3,4,5)              0.1735         estimate D2E/DX2                !
 ! D25   D(9,3,4,14)          -164.0206         estimate D2E/DX2                !
 ! D26   D(2,3,9,5)           -103.325          estimate D2E/DX2                !
 ! D27   D(2,3,9,8)            -11.0531         estimate D2E/DX2                !
 ! D28   D(2,3,9,18)           119.9924         estimate D2E/DX2                !
 ! D29   D(4,3,9,5)             -0.1579         estimate D2E/DX2                !
 ! D30   D(4,3,9,8)             92.1141         estimate D2E/DX2                !
 ! D31   D(4,3,9,18)          -136.8405         estimate D2E/DX2                !
 ! D32   D(3,4,5,6)           -119.2504         estimate D2E/DX2                !
 ! D33   D(3,4,5,9)             -0.1817         estimate D2E/DX2                !
 ! D34   D(14,4,5,6)            42.0183         estimate D2E/DX2                !
 ! D35   D(14,4,5,9)           161.0871         estimate D2E/DX2                !
 ! D36   D(4,5,6,7)             69.8371         estimate D2E/DX2                !
 ! D37   D(4,5,6,15)          -156.0857         estimate D2E/DX2                !
 ! D38   D(9,5,6,7)            -39.7826         estimate D2E/DX2                !
 ! D39   D(9,5,6,15)            94.2946         estimate D2E/DX2                !
 ! D40   D(4,5,9,3)              0.1696         estimate D2E/DX2                !
 ! D41   D(4,5,9,8)            -90.7958         estimate D2E/DX2                !
 ! D42   D(4,5,9,18)           129.5793         estimate D2E/DX2                !
 ! D43   D(6,5,9,3)            132.9067         estimate D2E/DX2                !
 ! D44   D(6,5,9,8)             41.9412         estimate D2E/DX2                !
 ! D45   D(6,5,9,18)           -97.6836         estimate D2E/DX2                !
 ! D46   D(5,6,7,8)             15.1942         estimate D2E/DX2                !
 ! D47   D(5,6,7,16)          -101.0311         estimate D2E/DX2                !
 ! D48   D(5,6,7,17)           137.9516         estimate D2E/DX2                !
 ! D49   D(15,6,7,8)          -119.1892         estimate D2E/DX2                !
 ! D50   D(15,6,7,16)          124.5855         estimate D2E/DX2                !
 ! D51   D(15,6,7,17)            3.5682         estimate D2E/DX2                !
 ! D52   D(6,7,8,2)            -95.1464         estimate D2E/DX2                !
 ! D53   D(6,7,8,9)             10.5061         estimate D2E/DX2                !
 ! D54   D(16,7,8,2)            26.2885         estimate D2E/DX2                !
 ! D55   D(16,7,8,9)           131.941          estimate D2E/DX2                !
 ! D56   D(17,7,8,2)           145.2334         estimate D2E/DX2                !
 ! D57   D(17,7,8,9)          -109.1141         estimate D2E/DX2                !
 ! D58   D(2,8,9,3)             11.213          estimate D2E/DX2                !
 ! D59   D(2,8,9,5)             99.833          estimate D2E/DX2                !
 ! D60   D(2,8,9,18)          -116.9888         estimate D2E/DX2                !
 ! D61   D(7,8,9,3)           -119.4773         estimate D2E/DX2                !
 ! D62   D(7,8,9,5)            -30.8572         estimate D2E/DX2                !
 ! D63   D(7,8,9,18)           112.3209         estimate D2E/DX2                !
 --------------------------------------------------------------------------------
 Trust Radius=3.00D-01 FncErr=1.00D-07 GrdErr=1.00D-06 EigMax=2.50D+02 EigMin=1.00D-04
 Number of steps in this run=    108 maximum allowed number of steps=    108.
 GradGradGradGradGradGradGradGradGradGradGradGradGradGradGradGradGradGrad

 Leave Link  103 at Fri Nov  4 17:04:40 2022, MaxMem=  8053063680 cpu:               0.3 elap:               0.0
 (Enter /public3/home/scg5914/software-scg5914/g16/l202.exe)
                          Input orientation:                          
 ---------------------------------------------------------------------
 Center     Atomic      Atomic             Coordinates (Angstroms)
 Number     Number       Type             X           Y           Z
 ---------------------------------------------------------------------
      1          6           0        4.998760    5.914050   -2.786049
      2          6           0        4.201821    4.618819   -2.911497
      3          7           0        3.202190    4.505734   -1.734096
      4          6           0        2.426005    3.310306   -2.084557
      5          6           0        3.270338    2.391790   -1.549754
      6          6           0        4.000226    1.275455   -2.235754
      7          6           0        5.020269    2.002309   -3.064906
      8          6           0        4.996919    3.400774   -2.450824
      9          6           0        4.189116    3.467810   -1.116829
     10          1           0        4.323601    6.770400   -2.870079
     11          1           0        5.755327    5.975232   -3.573950
     12          1           0        5.505273    5.970815   -1.818143
     13          1           0        3.704454    4.577183   -3.886274
     14          1           0        1.620077    3.292737   -2.813197
     15          1           0        4.316418    0.406636   -1.655283
     16          1           0        4.767630    2.101937   -4.125963
     17          1           0        5.990785    1.489966   -3.014769
     18          1           0        4.638809    3.651955   -0.141838
 ---------------------------------------------------------------------
                    Distance matrix (angstroms):
                    1          2          3          4          5
     1  C    0.000000
     2  C    1.525933   0.000000
     3  N    2.513488   1.548652   0.000000
     4  C    3.727015   2.355750   1.467765   0.000000
     5  C    4.113657   2.771581   2.123060   1.357418   0.000000
     6  C    4.776657   3.416921   3.365000   2.577140   1.499845
     7  C    3.921727   2.745818   3.368027   3.066292   2.347262
     8  C    2.535535   1.525790   2.226137   2.598449   2.193412
     9  C    3.070164   2.132092   1.559592   2.017391   1.479661
    10  H    1.093726   2.155423   2.770691   4.023701   4.693063
    11  H    1.094040   2.166121   3.473182   4.517135   4.807659
    12  H    1.093901   2.173086   2.730883   4.078134   4.228047
    13  H    2.161697   1.095125   2.211163   2.546683   3.228579
    14  H    4.276391   2.904059   2.266914   1.086621   2.265249
    15  H    5.663553   4.397009   4.248567   3.491309   2.246387
    16  H    4.047344   2.851274   3.734953   3.333273   2.993785
    17  H    4.539707   3.605659   4.302469   4.109330   3.218755
    18  H    3.498355   2.965939   2.308268   2.964352   2.333014
                    6          7          8          9         10
     6  C    0.000000
     7  C    1.502097   0.000000
     8  C    2.357251   1.527530   0.000000
     9  C    2.468621   2.575561   1.560955   0.000000
    10  H    5.540881   4.822655   3.461721   3.741533   0.000000
    11  H    5.192210   4.072291   2.909369   3.844167   1.782573
    12  H    4.948330   4.187922   2.695148   2.913614   1.772640
    13  H    3.703121   3.005993   2.261619   3.022487   2.495235
    14  H    3.173008   3.645527   3.397948   3.083549   4.405272
    15  H    1.091682   2.242457   3.171881   3.110775   6.478678
    16  H    2.201107   1.095260   2.132051   3.354873   4.854787
    17  H    2.148303   1.098595   2.226430   3.280252   5.539261
    18  H    3.231102   3.378042   2.350053   1.089376   4.155400
                   11         12         13         14         15
    11  H    0.000000
    12  H    1.773528   0.000000
    13  H    2.501633   3.076089   0.000000
    14  H    4.987467   4.822550   2.673187   0.000000
    15  H    6.063085   5.692099   4.769202   4.115896   0.000000
    16  H    4.035180   4.564906   2.704559   3.612265   3.030165
    17  H    4.526116   4.663222   3.939256   4.732199   2.413568
    18  H    4.292274   2.989627   3.968610   4.046966   3.595350
                   16         17         18
    16  H    0.000000
    17  H    1.762205   0.000000
    18  H    4.276961   3.841323   0.000000
 Stoichiometry    C8H9N
 Framework group  C1[X(C8H9N)]
 Deg. of freedom    48
 Full point group                 C1      NOp   1
 Largest Abelian subgroup         C1      NOp   1
 Largest concise Abelian subgroup C1      NOp   1
                         Standard orientation:                         
 ---------------------------------------------------------------------
 Center     Atomic      Atomic             Coordinates (Angstroms)
 Number     Number       Type             X           Y           Z
 ---------------------------------------------------------------------
      1          6           0       -2.560532    0.598863    0.058993
      2          6           0       -1.187333    0.200529   -0.474042
      3          7           0       -0.802106   -1.197084    0.070569
      4          6           0        0.444805   -1.489432   -0.646424
      5          6           0        1.287840   -0.847436    0.201938
      6          6           0        2.205095    0.305410   -0.079350
      7          6           0        1.252308    1.447197   -0.291044
      8          6           0       -0.051007    0.888347    0.276761
      9          6           0        0.147300   -0.449349    1.056392
     10          1           0       -3.316058   -0.097944   -0.315007
     11          1           0       -2.816537    1.612437   -0.263582
     12          1           0       -2.580123    0.570992    1.152364
     13          1           0       -1.184691    0.236835   -1.568561
     14          1           0        0.495232   -1.839874   -1.673747
     15          1           0        3.079522    0.460662    0.555509
     16          1           0        1.071538    1.710351   -1.338739
     17          1           0        1.623687    2.353747    0.206103
     18          1           0        0.011313   -0.552400    2.132324
 ---------------------------------------------------------------------
 Rotational constants (GHZ):           3.3511314           1.7901649           1.4092938
 Leave Link  202 at Fri Nov  4 17:04:40 2022, MaxMem=  8053063680 cpu:               0.2 elap:               0.0
 (Enter /public3/home/scg5914/software-scg5914/g16/l301.exe)
 Standard basis: 6-311+G(d,p) (5D, 7F)
 Ernie: Thresh=  0.10000D-02 Tol=  0.10000D-05 Strict=F.
 There are   261 symmetry adapted cartesian basis functions of A   symmetry.
 There are   252 symmetry adapted basis functions of A   symmetry.
   252 basis functions,   396 primitive gaussians,   261 cartesian basis functions
    32 alpha electrons       32 beta electrons
       nuclear repulsion energy       434.0012398061 Hartrees.
 IExCor=  402 DFT=T Ex+Corr=B3LYP ExCW=0 ScaHFX=  0.200000
 ScaDFX=  0.800000  0.720000  1.000000  0.810000 ScalE2=  1.000000  1.000000
 IRadAn=      5 IRanWt=     -1 IRanGd=            0 ICorTp=0 IEmpDi=141
 NAtoms=   18 NActive=   18 NUniq=   18 SFac= 1.00D+00 NAtFMM=   60 NAOKFM=F Big=F
 Integral buffers will be    131072 words long.
 Raffenetti 2 integral format.
 Two-electron integral symmetry is turned on.
 R6Disp:  Grimme-D3(BJ) Dispersion energy=       -0.0319814898 Hartrees.
 Nuclear repulsion after empirical dispersion term =      433.9692583163 Hartrees.
 Leave Link  301 at Fri Nov  4 17:04:40 2022, MaxMem=  8053063680 cpu:               1.0 elap:               0.0
 (Enter /public3/home/scg5914/software-scg5914/g16/l302.exe)
 NPDir=0 NMtPBC=     1 NCelOv=     1 NCel=       1 NClECP=     1 NCelD=      1
         NCelK=      1 NCelE2=     1 NClLst=     1 CellRange=     0.0.
 One-electron integrals computed using PRISM.
 One-electron integral symmetry used in STVInt
 NBasis=   252 RedAO= T EigKep=  8.03D-06  NBF=   252
 NBsUse=   252 1.00D-06 EigRej= -1.00D+00 NBFU=   252
 Precomputing XC quadrature grid using
 IXCGrd= 4 IRadAn=           5 IRanWt=          -1 IRanGd=           0 AccXCQ= 0.00D+00.
 Generated NRdTot=       0 NPtTot=           0 NUsed=           0 NTot=          32
 NSgBfM=   261   261   261   261   261 MxSgAt=    18 MxSgA2=    18.
 Leave Link  302 at Fri Nov  4 17:04:41 2022, MaxMem=  8053063680 cpu:               4.9 elap:               0.2
 (Enter /public3/home/scg5914/software-scg5914/g16/l303.exe)
 DipDrv:  MaxL=1.
 Leave Link  303 at Fri Nov  4 17:04:41 2022, MaxMem=  8053063680 cpu:               0.6 elap:               0.0
 (Enter /public3/home/scg5914/software-scg5914/g16/l401.exe)
 ExpMin= 4.38D-02 ExpMax= 6.29D+03 ExpMxC= 9.49D+02 IAcc=3 IRadAn=         5 AccDes= 0.00D+00
 Harris functional with IExCor=  402 and IRadAn=       5 diagonalized for initial guess.
 HarFok:  IExCor=  402 AccDes= 0.00D+00 IRadAn=         5 IDoV= 1 UseB2=F ITyADJ=14
 ICtDFT=  3500011 ScaDFX=  1.000000  1.000000  1.000000  1.000000
 FoFCou: FMM=F IPFlag=           0 FMFlag=      100000 FMFlg1=           0
         NFxFlg=           0 DoJE=T BraDBF=F KetDBF=T FulRan=T
         wScrn=  0.000000 ICntrl=       500 IOpCl=  0 I1Cent=   200000004 NGrid=           0
         NMat0=    1 NMatS0=      1 NMatT0=    0 NMatD0=    1 NMtDS0=    0 NMtDT0=    0
 Petite list used in FoFCou.
 Harris En= -364.839597411389    
 JPrj=0 DoOrth=F DoCkMO=F.
 Leave Link  401 at Fri Nov  4 17:04:41 2022, MaxMem=  8053063680 cpu:              15.3 elap:               0.5
 (Enter /public3/home/scg5914/software-scg5914/g16/l502.exe)
 Integral symmetry usage will be decided dynamically.
 Closed shell SCF:
 Using DIIS extrapolation, IDIIS=  1040.
 NGot=  8053063680 LenX=  8052916040 LenY=  8052847478
 Requested convergence on RMS density matrix=1.00D-08 within 128 cycles.
 Requested convergence on MAX density matrix=1.00D-06.
 Requested convergence on             energy=1.00D-06.
 No special actions if energy rises.
 Fock matrices will be formed incrementally for  20 cycles.

 Cycle   1  Pass 1  IDiag  1:
 FoFJK:  IHMeth= 1 ICntrl=       0 DoSepK=F KAlg= 0 I1Cent=           0 FoldK=F
 IRaf= 980000000 NMat=       1 IRICut=       1 DoRegI=T DoRafI=F ISym2E= 0 IDoP0=0 IntGTp=1.
 FoFCou: FMM=F IPFlag=           0 FMFlag=      100000 FMFlg1=           0
         NFxFlg=           0 DoJE=F BraDBF=F KetDBF=F FulRan=T
         wScrn=  0.000000 ICntrl=         0 IOpCl=  0 I1Cent=           0 NGrid=           0
         NMat0=    1 NMatS0=      1 NMatT0=    0 NMatD0=    1 NMtDS0=    0 NMtDT0=    0
 Symmetry not used in FoFCou.
 E= -364.586737642349    
 DIIS: error= 2.34D-02 at cycle   1 NSaved=   1.
 NSaved= 1 IEnMin= 1 EnMin= -364.586737642349     IErMin= 1 ErrMin= 2.34D-02
 ErrMax= 2.34D-02  0.00D+00 EMaxC= 1.00D-01 BMatC= 2.47D-01 BMatP= 2.47D-01
 IDIUse=3 WtCom= 7.66D-01 WtEn= 2.34D-01
 Coeff-Com:  0.100D+01
 Coeff-En:   0.100D+01
 Coeff:      0.100D+01
 Gap=    -0.040 Goal=   None    Shift=    0.000
 GapD=   -0.040 DampG=0.250 DampE=0.500 DampFc=0.2500 IDamp=-1.
 Damping current iteration by 2.50D-01
 RMSDP=2.11D-02 MaxDP=1.39D+00              OVMax= 6.13D-01

 Cycle   2  Pass 1  IDiag  1:
 RMSU=  3.74D-03    CP:  8.86D-01
 E= -364.677036214590     Delta-E=       -0.090298572241 Rises=F Damp=T
 DIIS: error= 1.06D-02 at cycle   2 NSaved=   2.
 NSaved= 2 IEnMin= 2 EnMin= -364.677036214590     IErMin= 2 ErrMin= 1.06D-02
 ErrMax= 1.06D-02  0.00D+00 EMaxC= 1.00D-01 BMatC= 6.06D-02 BMatP= 2.47D-01
 IDIUse=3 WtCom= 8.94D-01 WtEn= 1.06D-01
 Coeff-Com: -0.374D+00 0.137D+01
 Coeff-En:   0.000D+00 0.100D+01
 Coeff:     -0.334D+00 0.133D+01
 Gap=     0.089 Goal=   None    Shift=    0.000
 RMSDP=9.74D-03 MaxDP=8.32D-01 DE=-9.03D-02 OVMax= 8.52D-01

 Cycle   3  Pass 1  IDiag  1:
 RMSU=  7.59D-03    CP:  7.02D-01  7.07D-01
 E= -364.571445485311     Delta-E=        0.105590729279 Rises=F Damp=F
 DIIS: error= 2.01D-02 at cycle   3 NSaved=   3.
 NSaved= 3 IEnMin= 2 EnMin= -364.677036214590     IErMin= 2 ErrMin= 1.06D-02
 ErrMax= 2.01D-02  0.00D+00 EMaxC= 1.00D-01 BMatC= 2.00D-01 BMatP= 6.06D-02
 IDIUse=2 WtCom= 0.00D+00 WtEn= 1.00D+00
 Coeff-En:   0.000D+00 0.687D+00 0.313D+00
 Coeff:      0.000D+00 0.687D+00 0.313D+00
 Gap=    -0.038 Goal=   None    Shift=    0.000
 RMSDP=9.95D-03 MaxDP=4.59D-01 DE= 1.06D-01 OVMax= 8.35D-01

 Cycle   4  Pass 1  IDiag  1:
 RMSU=  5.39D-03    CP:  6.69D-01  2.44D+00  3.18D-01
 E= -364.420196255273     Delta-E=        0.151249230038 Rises=F Damp=F
 DIIS: error= 2.41D-02 at cycle   4 NSaved=   4.
 NSaved= 4 IEnMin= 2 EnMin= -364.677036214590     IErMin= 2 ErrMin= 1.06D-02
 ErrMax= 2.41D-02  0.00D+00 EMaxC= 1.00D-01 BMatC= 3.09D-01 BMatP= 6.06D-02
 IDIUse=2 WtCom= 0.00D+00 WtEn= 1.00D+00
 Coeff-En:   0.000D+00 0.000D+00 0.569D+00 0.431D+00
 Coeff:      0.000D+00 0.000D+00 0.569D+00 0.431D+00
 Gap=     0.032 Goal=   None    Shift=    0.000
 RMSDP=1.02D-02 MaxDP=6.64D-01 DE= 1.51D-01 OVMax= 5.04D-01

 Cycle   5  Pass 1  IDiag  1:
 RMSU=  3.44D-03    CP:  8.79D-01  7.48D-01  5.04D-01  6.50D-01
 E= -364.815211628717     Delta-E=       -0.395015373444 Rises=F Damp=F
 DIIS: error= 7.31D-03 at cycle   5 NSaved=   5.
 NSaved= 5 IEnMin= 5 EnMin= -364.815211628717     IErMin= 5 ErrMin= 7.31D-03
 ErrMax= 7.31D-03  0.00D+00 EMaxC= 1.00D-01 BMatC= 1.96D-02 BMatP= 6.06D-02
 IDIUse=3 WtCom= 9.27D-01 WtEn= 7.31D-02
 Coeff-Com: -0.395D+00 0.574D+00 0.246D+00-0.550D-01 0.629D+00
 Coeff-En:   0.000D+00 0.000D+00 0.845D-01 0.000D+00 0.916D+00
 Coeff:     -0.366D+00 0.532D+00 0.234D+00-0.510D-01 0.650D+00
 Gap=     0.057 Goal=   None    Shift=    0.000
 RMSDP=3.30D-03 MaxDP=3.06D-01 DE=-3.95D-01 OVMax= 4.31D-02

 Cycle   6  Pass 1  IDiag  1:
 RMSU=  1.28D-03    CP:  7.94D-01  1.04D+00  5.47D-01  5.81D-01  8.50D-01
 E= -364.825074933512     Delta-E=       -0.009863304795 Rises=F Damp=F
 DIIS: error= 4.61D-03 at cycle   6 NSaved=   6.
 NSaved= 6 IEnMin= 6 EnMin= -364.825074933512     IErMin= 6 ErrMin= 4.61D-03
 ErrMax= 4.61D-03  0.00D+00 EMaxC= 1.00D-01 BMatC= 9.12D-03 BMatP= 1.96D-02
 IDIUse=3 WtCom= 9.54D-01 WtEn= 4.61D-02
 EnCoef did     1 forward-backward iterations
 Coeff-Com: -0.224D+00 0.322D+00 0.179D+00-0.629D-01 0.427D+00 0.359D+00
 Coeff-En:   0.000D+00 0.000D+00 0.769D-01 0.000D+00 0.887D-01 0.834D+00
 Coeff:     -0.214D+00 0.307D+00 0.175D+00-0.600D-01 0.411D+00 0.381D+00
 Gap=     0.059 Goal=   None    Shift=    0.000
 RMSDP=7.67D-04 MaxDP=3.75D-02 DE=-9.86D-03 OVMax= 4.66D-02

 Cycle   7  Pass 1  IDiag  1:
 RMSU=  5.80D-04    CP:  8.00D-01  9.69D-01  5.68D-01  5.73D-01  9.35D-01
                    CP:  8.49D-01
 E= -364.833097734267     Delta-E=       -0.008022800754 Rises=F Damp=F
 DIIS: error= 2.27D-03 at cycle   7 NSaved=   7.
 NSaved= 7 IEnMin= 7 EnMin= -364.833097734267     IErMin= 7 ErrMin= 2.27D-03
 ErrMax= 2.27D-03  0.00D+00 EMaxC= 1.00D-01 BMatC= 2.16D-03 BMatP= 9.12D-03
 IDIUse=3 WtCom= 9.77D-01 WtEn= 2.27D-02
 Coeff-Com:  0.198D+00-0.281D+00-0.476D-02-0.810D-02-0.171D+00 0.127D+00
 Coeff-Com:  0.114D+01
 Coeff-En:   0.000D+00 0.000D+00 0.000D+00 0.000D+00 0.000D+00 0.000D+00
 Coeff-En:   0.100D+01
 Coeff:      0.193D+00-0.275D+00-0.465D-02-0.791D-02-0.167D+00 0.124D+00
 Coeff:      0.114D+01
 Gap=     0.065 Goal=   None    Shift=    0.000
 RMSDP=8.47D-04 MaxDP=3.83D-02 DE=-8.02D-03 OVMax= 5.50D-02

 Cycle   8  Pass 1  IDiag  1:
 RMSU=  3.48D-04    CP:  8.08D-01  8.44D-01  6.09D-01  4.89D-01  9.50D-01
                    CP:  8.33D-01  1.02D+00
 E= -364.835057713591     Delta-E=       -0.001959979324 Rises=F Damp=F
 DIIS: error= 9.96D-04 at cycle   8 NSaved=   8.
 NSaved= 8 IEnMin= 8 EnMin= -364.835057713591     IErMin= 8 ErrMin= 9.96D-04
 ErrMax= 9.96D-04  0.00D+00 EMaxC= 1.00D-01 BMatC= 4.79D-04 BMatP= 2.16D-03
 IDIUse=3 WtCom= 9.90D-01 WtEn= 9.96D-03
 Coeff-Com:  0.812D-01-0.113D+00-0.116D-01-0.716D-03-0.781D-01 0.547D-01
 Coeff-Com:  0.568D+00 0.500D+00
 Coeff-En:   0.000D+00 0.000D+00 0.000D+00 0.000D+00 0.000D+00 0.000D+00
 Coeff-En:   0.277D+00 0.723D+00
 Coeff:      0.803D-01-0.112D+00-0.115D-01-0.709D-03-0.773D-01 0.541D-01
 Coeff:      0.565D+00 0.502D+00
 Gap=     0.064 Goal=   None    Shift=    0.000
 RMSDP=2.02D-04 MaxDP=8.50D-03 DE=-1.96D-03 OVMax= 9.84D-03

 Cycle   9  Pass 1  IDiag  1:
 RMSU=  8.64D-05    CP:  8.08D-01  8.57D-01  5.99D-01  5.07D-01  9.40D-01
                    CP:  8.03D-01  9.37D-01  6.94D-01
 E= -364.835504400910     Delta-E=       -0.000446687319 Rises=F Damp=F
 DIIS: error= 4.28D-04 at cycle   9 NSaved=   9.
 NSaved= 9 IEnMin= 9 EnMin= -364.835504400910     IErMin= 9 ErrMin= 4.28D-04
 ErrMax= 4.28D-04  0.00D+00 EMaxC= 1.00D-01 BMatC= 8.01D-05 BMatP= 4.79D-04
 IDIUse=3 WtCom= 9.96D-01 WtEn= 4.28D-03
 Coeff-Com:  0.116D-01-0.158D-01-0.384D-02-0.732D-03-0.820D-02 0.390D-01
 Coeff-Com:  0.187D+00 0.262D+00 0.528D+00
 Coeff-En:   0.000D+00 0.000D+00 0.000D+00 0.000D+00 0.000D+00 0.000D+00
 Coeff-En:   0.858D-01 0.000D+00 0.914D+00
 Coeff:      0.116D-01-0.157D-01-0.383D-02-0.729D-03-0.816D-02 0.388D-01
 Coeff:      0.187D+00 0.261D+00 0.530D+00
 Gap=     0.063 Goal=   None    Shift=    0.000
 RMSDP=1.19D-04 MaxDP=7.66D-03 DE=-4.47D-04 OVMax= 4.83D-03

 Cycle  10  Pass 1  IDiag  1:
 RMSU=  3.98D-05    CP:  8.07D-01  8.74D-01  5.94D-01  5.10D-01  9.30D-01
                    CP:  8.24D-01  8.79D-01  6.74D-01  7.23D-01
 E= -364.835588113551     Delta-E=       -0.000083712641 Rises=F Damp=F
 DIIS: error= 1.12D-04 at cycle  10 NSaved=  10.
 NSaved=10 IEnMin=10 EnMin= -364.835588113551     IErMin=10 ErrMin= 1.12D-04
 ErrMax= 1.12D-04  0.00D+00 EMaxC= 1.00D-01 BMatC= 5.52D-06 BMatP= 8.01D-05
 IDIUse=3 WtCom= 9.99D-01 WtEn= 1.12D-03
 Coeff-Com:  0.245D-03-0.415D-03-0.133D-02-0.350D-03 0.204D-02 0.210D-01
 Coeff-Com:  0.569D-01 0.792D-01 0.214D+00 0.629D+00
 Coeff-En:   0.000D+00 0.000D+00 0.000D+00 0.000D+00 0.000D+00 0.000D+00
 Coeff-En:   0.000D+00 0.000D+00 0.000D+00 0.100D+01
 Coeff:      0.244D-03-0.415D-03-0.133D-02-0.349D-03 0.204D-02 0.209D-01
 Coeff:      0.568D-01 0.791D-01 0.213D+00 0.630D+00
 Gap=     0.063 Goal=   None    Shift=    0.000
 RMSDP=1.85D-05 MaxDP=1.17D-03 DE=-8.37D-05 OVMax= 9.50D-04

 Cycle  11  Pass 1  IDiag  1:
 RMSU=  1.05D-05    CP:  8.07D-01  8.75D-01  5.93D-01  5.10D-01  9.30D-01
                    CP:  8.30D-01  8.75D-01  6.68D-01  7.19D-01  1.04D+00
 E= -364.835592995232     Delta-E=       -0.000004881681 Rises=F Damp=F
 DIIS: error= 4.80D-05 at cycle  11 NSaved=  11.
 NSaved=11 IEnMin=11 EnMin= -364.835592995232     IErMin=11 ErrMin= 4.80D-05
 ErrMax= 4.80D-05  0.00D+00 EMaxC= 1.00D-01 BMatC= 1.02D-06 BMatP= 5.52D-06
 IDIUse=1 WtCom= 1.00D+00 WtEn= 0.00D+00
 Coeff-Com: -0.524D-03 0.608D-03-0.625D-03-0.648D-04 0.166D-02 0.105D-01
 Coeff-Com:  0.175D-01 0.176D-01 0.584D-01 0.335D+00 0.560D+00
 Coeff:     -0.524D-03 0.608D-03-0.625D-03-0.648D-04 0.166D-02 0.105D-01
 Coeff:      0.175D-01 0.176D-01 0.584D-01 0.335D+00 0.560D+00
 Gap=     0.063 Goal=   None    Shift=    0.000
 RMSDP=7.64D-06 MaxDP=6.21D-04 DE=-4.88D-06 OVMax= 2.50D-04

 Cycle  12  Pass 1  IDiag  1:
 RMSU=  4.47D-06    CP:  8.07D-01  8.75D-01  5.92D-01  5.10D-01  9.30D-01
                    CP:  8.30D-01  8.68D-01  6.68D-01  7.26D-01  1.09D+00
                    CP:  1.07D+00
 E= -364.835593747672     Delta-E=       -0.000000752440 Rises=F Damp=F
 DIIS: error= 2.96D-05 at cycle  12 NSaved=  12.
 NSaved=12 IEnMin=12 EnMin= -364.835593747672     IErMin=12 ErrMin= 2.96D-05
 ErrMax= 2.96D-05  0.00D+00 EMaxC= 1.00D-01 BMatC= 3.17D-07 BMatP= 1.02D-06
 IDIUse=1 WtCom= 1.00D+00 WtEn= 0.00D+00
 Coeff-Com: -0.263D-03 0.311D-03-0.162D-03-0.451D-04 0.602D-03 0.332D-02
 Coeff-Com:  0.220D-02-0.162D-02-0.702D-02-0.174D-02 0.159D+00 0.845D+00
 Coeff:     -0.263D-03 0.311D-03-0.162D-03-0.451D-04 0.602D-03 0.332D-02
 Coeff:      0.220D-02-0.162D-02-0.702D-02-0.174D-02 0.159D+00 0.845D+00
 Gap=     0.063 Goal=   None    Shift=    0.000
 RMSDP=6.29D-06 MaxDP=3.57D-04 DE=-7.52D-07 OVMax= 3.76D-04

 Cycle  13  Pass 1  IDiag  1:
 RMSU=  1.27D-06    CP:  8.07D-01  8.76D-01  5.92D-01  5.10D-01  9.29D-01
                    CP:  8.32D-01  8.64D-01  6.69D-01  7.24D-01  1.13D+00
                    CP:  1.24D+00  9.19D-01
 E= -364.835594102479     Delta-E=       -0.000000354808 Rises=F Damp=F
 DIIS: error= 4.55D-06 at cycle  13 NSaved=  13.
 NSaved=13 IEnMin=13 EnMin= -364.835594102479     IErMin=13 ErrMin= 4.55D-06
 ErrMax= 4.55D-06  0.00D+00 EMaxC= 1.00D-01 BMatC= 1.05D-08 BMatP= 3.17D-07
 IDIUse=1 WtCom= 1.00D+00 WtEn= 0.00D+00
 Coeff-Com: -0.188D-03 0.259D-03 0.135D-04-0.378D-04 0.204D-03 0.324D-03
 Coeff-Com: -0.186D-02-0.378D-02-0.127D-01-0.558D-01-0.232D-01 0.449D+00
 Coeff-Com:  0.648D+00
 Coeff:     -0.188D-03 0.259D-03 0.135D-04-0.378D-04 0.204D-03 0.324D-03
 Coeff:     -0.186D-02-0.378D-02-0.127D-01-0.558D-01-0.232D-01 0.449D+00
 Coeff:      0.648D+00
 Gap=     0.063 Goal=   None    Shift=    0.000
 RMSDP=1.61D-06 MaxDP=5.94D-05 DE=-3.55D-07 OVMax= 1.20D-04

 Cycle  14  Pass 1  IDiag  1:
 RMSU=  6.76D-07    CP:  8.07D-01  8.76D-01  5.92D-01  5.10D-01  9.29D-01
                    CP:  8.32D-01  8.63D-01  6.69D-01  7.26D-01  1.13D+00
                    CP:  1.27D+00  1.00D+00  1.09D+00
 E= -364.835594110801     Delta-E=       -0.000000008321 Rises=F Damp=F
 DIIS: error= 2.49D-06 at cycle  14 NSaved=  14.
 NSaved=14 IEnMin=14 EnMin= -364.835594110801     IErMin=14 ErrMin= 2.49D-06
 ErrMax= 2.49D-06  0.00D+00 EMaxC= 1.00D-01 BMatC= 3.16D-09 BMatP= 1.05D-08
 IDIUse=1 WtCom= 1.00D+00 WtEn= 0.00D+00
 Coeff-Com: -0.219D-04 0.346D-04 0.352D-05-0.783D-05 0.134D-04-0.909D-04
 Coeff-Com: -0.656D-03-0.747D-03-0.234D-02-0.161D-01-0.285D-01 0.117D+00
 Coeff-Com:  0.322D+00 0.610D+00
 Coeff:     -0.219D-04 0.346D-04 0.352D-05-0.783D-05 0.134D-04-0.909D-04
 Coeff:     -0.656D-03-0.747D-03-0.234D-02-0.161D-01-0.285D-01 0.117D+00
 Coeff:      0.322D+00 0.610D+00
 Gap=     0.063 Goal=   None    Shift=    0.000
 RMSDP=7.92D-07 MaxDP=7.46D-05 DE=-8.32D-09 OVMax= 3.90D-05

 Cycle  15  Pass 1  IDiag  1:
 RMSU=  2.92D-07    CP:  8.07D-01  8.76D-01  5.92D-01  5.10D-01  9.29D-01
                    CP:  8.32D-01  8.63D-01  6.69D-01  7.26D-01  1.13D+00
                    CP:  1.26D+00  1.05D+00  1.15D+00  1.03D+00
 E= -364.835594114420     Delta-E=       -0.000000003619 Rises=F Damp=F
 DIIS: error= 6.28D-07 at cycle  15 NSaved=  15.
 NSaved=15 IEnMin=15 EnMin= -364.835594114420     IErMin=15 ErrMin= 6.28D-07
 ErrMax= 6.28D-07  0.00D+00 EMaxC= 1.00D-01 BMatC= 2.00D-10 BMatP= 3.16D-09
 IDIUse=1 WtCom= 1.00D+00 WtEn= 0.00D+00
 Coeff-Com: -0.458D-06 0.332D-05 0.391D-05 0.572D-06-0.785D-05-0.133D-03
 Coeff-Com: -0.207D-03-0.540D-05 0.551D-03 0.855D-03-0.102D-01-0.663D-05
 Coeff-Com:  0.401D-01 0.254D+00 0.715D+00
 Coeff:     -0.458D-06 0.332D-05 0.391D-05 0.572D-06-0.785D-05-0.133D-03
 Coeff:     -0.207D-03-0.540D-05 0.551D-03 0.855D-03-0.102D-01-0.663D-05
 Coeff:      0.401D-01 0.254D+00 0.715D+00
 Gap=     0.063 Goal=   None    Shift=    0.000
 RMSDP=2.23D-07 MaxDP=1.42D-05 DE=-3.62D-09 OVMax= 9.02D-06

 Cycle  16  Pass 1  IDiag  1:
 RMSU=  9.05D-08    CP:  8.07D-01  8.76D-01  5.92D-01  5.10D-01  9.29D-01
                    CP:  8.32D-01  8.63D-01  6.69D-01  7.26D-01  1.13D+00
                    CP:  1.26D+00  1.04D+00  1.20D+00  1.14D+00  1.02D+00
 E= -364.835594114656     Delta-E=       -0.000000000237 Rises=F Damp=F
 DIIS: error= 1.78D-07 at cycle  16 NSaved=  16.
 NSaved=16 IEnMin=16 EnMin= -364.835594114656     IErMin=16 ErrMin= 1.78D-07
 ErrMax= 1.78D-07  0.00D+00 EMaxC= 1.00D-01 BMatC= 1.32D-11 BMatP= 2.00D-10
 IDIUse=1 WtCom= 1.00D+00 WtEn= 0.00D+00
 Coeff-Com:  0.244D-05-0.225D-05 0.271D-05 0.136D-05-0.781D-05-0.765D-04
 Coeff-Com: -0.454D-04 0.440D-04 0.520D-03 0.272D-02-0.148D-02-0.150D-01
 Coeff-Com: -0.326D-01 0.497D-01 0.336D+00 0.660D+00
 Coeff:      0.244D-05-0.225D-05 0.271D-05 0.136D-05-0.781D-05-0.765D-04
 Coeff:     -0.454D-04 0.440D-04 0.520D-03 0.272D-02-0.148D-02-0.150D-01
 Coeff:     -0.326D-01 0.497D-01 0.336D+00 0.660D+00
 Gap=     0.063 Goal=   None    Shift=    0.000
 RMSDP=8.87D-08 MaxDP=5.01D-06 DE=-2.37D-10 OVMax= 5.05D-06

 Cycle  17  Pass 1  IDiag  1:
 RMSU=  2.89D-08    CP:  8.07D-01  8.76D-01  5.92D-01  5.10D-01  9.29D-01
                    CP:  8.32D-01  8.63D-01  6.69D-01  7.26D-01  1.13D+00
                    CP:  1.26D+00  1.05D+00  1.22D+00  1.20D+00  1.13D+00
                    CP:  1.17D+00
 E= -364.835594114677     Delta-E=       -0.000000000021 Rises=F Damp=F
 DIIS: error= 5.69D-08 at cycle  17 NSaved=  17.
 NSaved=17 IEnMin=17 EnMin= -364.835594114677     IErMin=17 ErrMin= 5.69D-08
 ErrMax= 5.69D-08  0.00D+00 EMaxC= 1.00D-01 BMatC= 1.69D-12 BMatP= 1.32D-11
 IDIUse=1 WtCom= 1.00D+00 WtEn= 0.00D+00
 Coeff-Com: -0.663D-07-0.121D-06 0.101D-05 0.681D-06-0.761D-06-0.140D-04
 Coeff-Com:  0.750D-05-0.705D-05 0.871D-04 0.108D-02 0.137D-02-0.534D-02
 Coeff-Com: -0.244D-01-0.199D-01-0.161D-01 0.296D+00 0.767D+00
 Coeff:     -0.663D-07-0.121D-06 0.101D-05 0.681D-06-0.761D-06-0.140D-04
 Coeff:      0.750D-05-0.705D-05 0.871D-04 0.108D-02 0.137D-02-0.534D-02
 Coeff:     -0.244D-01-0.199D-01-0.161D-01 0.296D+00 0.767D+00
 Gap=     0.063 Goal=   None    Shift=    0.000
 RMSDP=6.89D-08 MaxDP=6.69D-06 DE=-2.11D-11 OVMax= 2.37D-06

 Cycle  18  Pass 1  IDiag  1:
 RMSU=  1.22D-08    CP:  8.07D-01  8.76D-01  5.92D-01  5.10D-01  9.29D-01
                    CP:  8.32D-01  8.63D-01  6.69D-01  7.26D-01  1.13D+00
                    CP:  1.26D+00  1.05D+00  1.23D+00  1.24D+00  1.20D+00
                    CP:  1.36D+00  1.04D+00
 E= -364.835594114678     Delta-E=       -0.000000000001 Rises=F Damp=F
 DIIS: error= 8.85D-09 at cycle  18 NSaved=  18.
 NSaved=18 IEnMin=18 EnMin= -364.835594114678     IErMin=18 ErrMin= 8.85D-09
 ErrMax= 8.85D-09  0.00D+00 EMaxC= 1.00D-01 BMatC= 5.77D-14 BMatP= 1.69D-12
 IDIUse=1 WtCom= 1.00D+00 WtEn= 0.00D+00
 Coeff-Com: -0.527D-07 0.155D-07-0.743D-07 0.140D-07 0.109D-06 0.404D-05
 Coeff-Com:  0.835D-05-0.114D-04-0.387D-04-0.294D-04 0.475D-03 0.831D-03
 Coeff-Com: -0.205D-02-0.475D-02-0.452D-01 0.152D-02 0.132D+00 0.917D+00
 Coeff:     -0.527D-07 0.155D-07-0.743D-07 0.140D-07 0.109D-06 0.404D-05
 Coeff:      0.835D-05-0.114D-04-0.387D-04-0.294D-04 0.475D-03 0.831D-03
 Coeff:     -0.205D-02-0.475D-02-0.452D-01 0.152D-02 0.132D+00 0.917D+00
 Gap=     0.063 Goal=   None    Shift=    0.000
 RMSDP=1.15D-08 MaxDP=5.66D-07 DE=-6.82D-13 OVMax= 6.35D-07

 Cycle  19  Pass 1  IDiag  1:
 RMSU=  2.77D-09    CP:  8.07D-01  8.76D-01  5.92D-01  5.10D-01  9.29D-01
                    CP:  8.32D-01  8.63D-01  6.69D-01  7.26D-01  1.13D+00
                    CP:  1.26D+00  1.05D+00  1.23D+00  1.24D+00  1.21D+00
                    CP:  1.42D+00  1.10D+00  1.00D+00
 E= -364.835594114681     Delta-E=       -0.000000000003 Rises=F Damp=F
 DIIS: error= 6.87D-09 at cycle  19 NSaved=  19.
 NSaved=19 IEnMin=19 EnMin= -364.835594114681     IErMin=19 ErrMin= 6.87D-09
 ErrMax= 6.87D-09  0.00D+00 EMaxC= 1.00D-01 BMatC= 1.46D-14 BMatP= 5.77D-14
 IDIUse=1 WtCom= 1.00D+00 WtEn= 0.00D+00
 Coeff-Com:  0.400D-07-0.536D-07-0.460D-07-0.292D-07 0.407D-07 0.115D-05
 Coeff-Com:  0.210D-05-0.215D-05-0.114D-04-0.674D-04-0.171D-05 0.398D-03
 Coeff-Com:  0.604D-03 0.768D-03-0.913D-02-0.125D-01-0.167D-01 0.178D+00
 Coeff-Com:  0.859D+00
 Coeff:      0.400D-07-0.536D-07-0.460D-07-0.292D-07 0.407D-07 0.115D-05
 Coeff:      0.210D-05-0.215D-05-0.114D-04-0.674D-04-0.171D-05 0.398D-03
 Coeff:      0.604D-03 0.768D-03-0.913D-02-0.125D-01-0.167D-01 0.178D+00
 Coeff:      0.859D+00
 Gap=     0.063 Goal=   None    Shift=    0.000
 RMSDP=3.19D-09 MaxDP=2.45D-07 DE=-2.61D-12 OVMax= 1.17D-07

 SCF Done:  E(RB3LYP) =  -364.835594115     A.U. after   19 cycles
            NFock= 19  Conv=0.32D-08     -V/T= 2.0046
 KE= 3.631650540495D+02 PE=-1.714514971603D+03 EE= 5.525450651229D+02
 Leave Link  502 at Fri Nov  4 17:04:55 2022, MaxMem=  8053063680 cpu:             444.8 elap:              13.9
 (Enter /public3/home/scg5914/software-scg5914/g16/l601.exe)
 Copying SCF densities to generalized density rwf, IOpCl= 0 IROHF=0.

 **********************************************************************

            Population analysis using the SCF Density.

 **********************************************************************

 Orbital symmetries:
       Occupied  (A) (A) (A) (A) (A) (A) (A) (A) (A) (A) (A) (A)
                 (A) (A) (A) (A) (A) (A) (A) (A) (A) (A) (A) (A)
                 (A) (A) (A) (A) (A) (A) (A) (A)
       Virtual   (A) (A) (A) (A) (A) (A) (A) (A) (A) (A) (A) (A)
                 (A) (A) (A) (A) (A) (A) (A) (A) (A) (A) (A) (A)
                 (A) (A) (A) (A) (A) (A) (A) (A) (A) (A) (A) (A)
                 (A) (A) (A) (A) (A) (A) (A) (A) (A) (A) (A) (A)
                 (A) (A) (A) (A) (A) (A) (A) (A) (A) (A) (A) (A)
                 (A) (A) (A) (A) (A) (A) (A) (A) (A) (A) (A) (A)
                 (A) (A) (A) (A) (A) (A) (A) (A) (A) (A) (A) (A)
                 (A) (A) (A) (A) (A) (A) (A) (A) (A) (A) (A) (A)
                 (A) (A) (A) (A) (A) (A) (A) (A) (A) (A) (A) (A)
                 (A) (A) (A) (A) (A) (A) (A) (A) (A) (A) (A) (A)
                 (A) (A) (A) (A) (A) (A) (A) (A) (A) (A) (A) (A)
                 (A) (A) (A) (A) (A) (A) (A) (A) (A) (A) (A) (A)
                 (A) (A) (A) (A) (A) (A) (A) (A) (A) (A) (A) (A)
                 (A) (A) (A) (A) (A) (A) (A) (A) (A) (A) (A) (A)
                 (A) (A) (A) (A) (A) (A) (A) (A) (A) (A) (A) (A)
                 (A) (A) (A) (A) (A) (A) (A) (A) (A) (A) (A) (A)
                 (A) (A) (A) (A) (A) (A) (A) (A) (A) (A) (A) (A)
                 (A) (A) (A) (A) (A) (A) (A) (A) (A) (A) (A) (A)
                 (A) (A) (A) (A)
 The electronic state is 1-A.
 Alpha  occ. eigenvalues --  -14.32624 -10.22397 -10.21649 -10.21432 -10.21388
 Alpha  occ. eigenvalues --  -10.20193 -10.19973 -10.18892 -10.17254  -0.99551
 Alpha  occ. eigenvalues --   -0.82847  -0.79742  -0.70961  -0.69793  -0.63906
 Alpha  occ. eigenvalues --   -0.62577  -0.53825  -0.53177  -0.49781  -0.47882
 Alpha  occ. eigenvalues --   -0.45384  -0.44016  -0.41635  -0.40663  -0.39817
 Alpha  occ. eigenvalues --   -0.38809  -0.35183  -0.34673  -0.31946  -0.29843
 Alpha  occ. eigenvalues --   -0.22515  -0.18546
 Alpha virt. eigenvalues --   -0.12213  -0.03061   0.00382   0.01166   0.01814
 Alpha virt. eigenvalues --    0.02622   0.03996   0.04088   0.04945   0.05161
 Alpha virt. eigenvalues --    0.05725   0.06375   0.06971   0.08050   0.08741
 Alpha virt. eigenvalues --    0.09381   0.09450   0.10332   0.11449   0.11994
 Alpha virt. eigenvalues --    0.12394   0.12630   0.13728   0.14429   0.15489
 Alpha virt. eigenvalues --    0.15855   0.16321   0.16571   0.16706   0.17250
 Alpha virt. eigenvalues --    0.18067   0.18852   0.19483   0.19833   0.20318
 Alpha virt. eigenvalues --    0.20876   0.21015   0.21427   0.22501   0.23095
 Alpha virt. eigenvalues --    0.23707   0.23838   0.24770   0.25473   0.25930
 Alpha virt. eigenvalues --    0.26146   0.26974   0.27514   0.28271   0.30821
 Alpha virt. eigenvalues --    0.31883   0.32534   0.33299   0.33775   0.34964
 Alpha virt. eigenvalues --    0.37250   0.40036   0.42922   0.43889   0.46203
 Alpha virt. eigenvalues --    0.47343   0.48907   0.51886   0.53392   0.55038
 Alpha virt. eigenvalues --    0.55178   0.55881   0.57224   0.58912   0.59884
 Alpha virt. eigenvalues --    0.60348   0.61391   0.62201   0.64116   0.64464
 Alpha virt. eigenvalues --    0.64942   0.65989   0.66505   0.67934   0.68481
 Alpha virt. eigenvalues --    0.69302   0.70327   0.71033   0.71836   0.72746
 Alpha virt. eigenvalues --    0.74054   0.74490   0.75642   0.77281   0.79029
 Alpha virt. eigenvalues --    0.83703   0.84288   0.85610   0.90013   0.91432
 Alpha virt. eigenvalues --    0.92925   0.94568   0.98563   1.00662   1.03745
 Alpha virt. eigenvalues --    1.04634   1.10046   1.12275   1.13192   1.16326
 Alpha virt. eigenvalues --    1.27036   1.30672   1.34621   1.36954   1.37568
 Alpha virt. eigenvalues --    1.40781   1.43615   1.44545   1.46128   1.46575
 Alpha virt. eigenvalues --    1.48772   1.51386   1.53158   1.55789   1.57282
 Alpha virt. eigenvalues --    1.58258   1.59182   1.60498   1.61922   1.62176
 Alpha virt. eigenvalues --    1.63371   1.65883   1.67342   1.69187   1.71772
 Alpha virt. eigenvalues --    1.73236   1.74824   1.75790   1.78257   1.81027
 Alpha virt. eigenvalues --    1.82938   1.85003   1.86406   1.88804   1.90333
 Alpha virt. eigenvalues --    1.93055   1.93824   1.96619   1.98029   2.01347
 Alpha virt. eigenvalues --    2.02037   2.05557   2.07479   2.11014   2.14052
 Alpha virt. eigenvalues --    2.15293   2.15670   2.19095   2.24990   2.26769
 Alpha virt. eigenvalues --    2.28569   2.32876   2.34274   2.36676   2.38248
 Alpha virt. eigenvalues --    2.42290   2.42824   2.43920   2.47298   2.49049
 Alpha virt. eigenvalues --    2.51508   2.54107   2.56335   2.56992   2.57758
 Alpha virt. eigenvalues --    2.63352   2.65340   2.65760   2.66314   2.69095
 Alpha virt. eigenvalues --    2.71008   2.71862   2.74896   2.76935   2.80732
 Alpha virt. eigenvalues --    2.81869   2.84591   2.91517   2.93302   2.97138
 Alpha virt. eigenvalues --    2.98679   3.03182   3.05368   3.12615   3.15053
 Alpha virt. eigenvalues --    3.17623   3.18473   3.29875   3.32004   3.40018
 Alpha virt. eigenvalues --    3.45501   3.57762   3.64036   3.70343   3.79406
 Alpha virt. eigenvalues --    3.80771   3.81088   3.94864   4.05368   4.10095
 Alpha virt. eigenvalues --    4.16418   4.21907   4.37754   4.54310   4.65101
 Alpha virt. eigenvalues --    4.78977  23.68228  23.78313  23.81486  23.82644
 Alpha virt. eigenvalues --   23.88352  23.95167  24.01012  24.24811  35.58416
          Condensed to atoms (all electrons):
               1          2          3          4          5          6
     1  C    5.478972  -0.005414  -0.110727  -0.151940   0.078661   0.034016
     2  C   -0.005414   8.458801   0.371181  -1.395696   0.956357   0.413195
     3  N   -0.110727   0.371181   6.620050   0.245805  -0.009644  -0.023172
     4  C   -0.151940  -1.395696   0.245805   6.801686  -0.908454  -0.166327
     5  C    0.078661   0.956357  -0.009644  -0.908454   8.436170  -0.579714
     6  C    0.034016   0.413195  -0.023172  -0.166327  -0.579714   6.470934
     7  C   -0.150815  -0.481243   0.073345   0.449734  -0.882211  -0.371924
     8  C    0.139379  -1.005929  -0.107055   0.021287   1.047112   0.102605
     9  C   -0.003924  -1.289733   0.014020   1.085981  -2.821717  -0.177261
    10  H    0.402664  -0.064396  -0.010524   0.006615  -0.006492  -0.002749
    11  H    0.412443  -0.071423   0.021356   0.004990  -0.002100  -0.002201
    12  H    0.382373   0.000850  -0.017210   0.003860  -0.004972  -0.002127
    13  H   -0.014274   0.309030  -0.044826   0.020019  -0.094035  -0.003003
    14  H   -0.001317   0.001261  -0.049294   0.404654  -0.078242   0.018394
    15  H    0.001445  -0.000658  -0.000885   0.000873   0.019577   0.417470
    16  H    0.009579   0.013014  -0.002387  -0.041355   0.005304  -0.002082
    17  H    0.004675   0.013363  -0.000656  -0.001874   0.061348  -0.037693
    18  H   -0.000783   0.017065  -0.009847  -0.022285   0.132894   0.026513
               7          8          9         10         11         12
     1  C   -0.150815   0.139379  -0.003924   0.402664   0.412443   0.382373
     2  C   -0.481243  -1.005929  -1.289733  -0.064396  -0.071423   0.000850
     3  N    0.073345  -0.107055   0.014020  -0.010524   0.021356  -0.017210
     4  C    0.449734   0.021287   1.085981   0.006615   0.004990   0.003860
     5  C   -0.882211   1.047112  -2.821717  -0.006492  -0.002100  -0.004972
     6  C   -0.371924   0.102605  -0.177261  -0.002749  -0.002201  -0.002127
     7  C    7.124053  -1.039259   1.316881   0.003760   0.001879   0.013847
     8  C   -1.039259   7.949636  -1.682163   0.031639   0.000463  -0.026449
     9  C    1.316881  -1.682163  10.081892   0.007948   0.004575   0.015233
    10  H    0.003760   0.031639   0.007948   0.526937  -0.024863  -0.025874
    11  H    0.001879   0.000463   0.004575  -0.024863   0.546236  -0.028510
    12  H    0.013847  -0.026449   0.015233  -0.025874  -0.028510   0.531939
    13  H    0.044245  -0.087095   0.152213  -0.005364  -0.004661   0.008347
    14  H    0.009070  -0.041124   0.078657   0.000121   0.000010   0.000029
    15  H   -0.104507   0.076714  -0.084318  -0.000002   0.000002  -0.000007
    16  H    0.340077   0.019923  -0.028425  -0.000139  -0.000112  -0.000019
    17  H    0.376734  -0.024806  -0.054000   0.000010  -0.000083  -0.000059
    18  H   -0.026793   0.071635   0.107941  -0.000174  -0.000083  -0.000766
              13         14         15         16         17         18
     1  C   -0.014274  -0.001317   0.001445   0.009579   0.004675  -0.000783
     2  C    0.309030   0.001261  -0.000658   0.013014   0.013363   0.017065
     3  N   -0.044826  -0.049294  -0.000885  -0.002387  -0.000656  -0.009847
     4  C    0.020019   0.404654   0.000873  -0.041355  -0.001874  -0.022285
     5  C   -0.094035  -0.078242   0.019577   0.005304   0.061348   0.132894
     6  C   -0.003003   0.018394   0.417470  -0.002082  -0.037693   0.026513
     7  C    0.044245   0.009070  -0.104507   0.340077   0.376734  -0.026793
     8  C   -0.087095  -0.041124   0.076714   0.019923  -0.024806   0.071635
     9  C    0.152213   0.078657  -0.084318  -0.028425  -0.054000   0.107941
    10  H   -0.005364   0.000121  -0.000002  -0.000139   0.000010  -0.000174
    11  H   -0.004661   0.000010   0.000002  -0.000112  -0.000083  -0.000083
    12  H    0.008347   0.000029  -0.000007  -0.000019  -0.000059  -0.000766
    13  H    0.567127   0.004350  -0.000136   0.000753  -0.000245  -0.001694
    14  H    0.004350   0.532415  -0.000213  -0.000809  -0.000033  -0.001019
    15  H   -0.000136  -0.000213   0.540902   0.003411  -0.004913   0.001255
    16  H    0.000753  -0.000809   0.003411   0.510586  -0.018366  -0.000016
    17  H   -0.000245  -0.000033  -0.004913  -0.018366   0.500451   0.000400
    18  H   -0.001694  -0.001019   0.001255  -0.000016   0.000400   0.547732
 Mulliken charges:
               1
     1  C   -0.505010
     2  C   -0.239627
     3  N    0.040467
     4  C   -0.357573
     5  C    0.650158
     6  C   -0.114873
     7  C   -0.696875
     8  C    0.553488
     9  C   -0.723800
    10  H    0.160883
    11  H    0.142081
    12  H    0.149514
    13  H    0.149250
    14  H    0.123088
    15  H    0.133991
    16  H    0.191064
    17  H    0.185748
    18  H    0.158026
 Sum of Mulliken charges =  -0.00000
 Mulliken charges with hydrogens summed into heavy atoms:
               1
     1  C   -0.052531
     2  C   -0.090377
     3  N    0.040467
     4  C   -0.234485
     5  C    0.650158
     6  C    0.019118
     7  C   -0.320064
     8  C    0.553488
     9  C   -0.565775
 Electronic spatial extent (au):  <R**2>=            953.4413
 Charge=             -0.0000 electrons
 Dipole moment (field-independent basis, Debye):
    X=             -0.1322    Y=              1.9747    Z=             -0.5927  Tot=              2.0660
 Quadrupole moment (field-independent basis, Debye-Ang):
   XX=            -56.5431   YY=            -57.6785   ZZ=            -51.6709
   XY=             -0.4321   XZ=              2.5925   YZ=              0.7811
 Traceless Quadrupole moment (field-independent basis, Debye-Ang):
   XX=             -1.2456   YY=             -2.3810   ZZ=              3.6266
   XY=             -0.4321   XZ=              2.5925   YZ=              0.7811
 Octapole moment (field-independent basis, Debye-Ang**2):
  XXX=            -13.1391  YYY=              9.9956  ZZZ=              0.1401  XYY=              4.9647
  XXY=              8.0882  XXZ=              5.1067  XZZ=             -4.4404  YZZ=             -3.1706
  YYZ=             -6.7548  XYZ=              1.4311
 Hexadecapole moment (field-independent basis, Debye-Ang**3):
 XXXX=           -800.2759 YYYY=           -402.7077 ZZZZ=           -169.4751 XXXY=              4.0060
 XXXZ=             26.9443 YYYX=              6.4668 YYYZ=              3.6824 ZZZX=              1.7705
 ZZZY=             -0.7120 XXYY=           -202.8100 XXZZ=           -168.9815 YYZZ=            -90.7192
 XXYZ=              5.6050 YYXZ=              2.6516 ZZXY=              0.5260
 N-N= 4.339692583163D+02 E-N=-1.714514972240D+03  KE= 3.631650540495D+02
 No NMR shielding tensors so no spin-rotation constants.
 Leave Link  601 at Fri Nov  4 17:04:55 2022, MaxMem=  8053063680 cpu:               3.2 elap:               0.1
 (Enter /public3/home/scg5914/software-scg5914/g16/l701.exe)
 ... and contract with generalized density number  0.
 Compute integral first derivatives.
 R6Disp: Adding Grimme-D3(BJ) dispersion energy 1st derivatives to the gradient.
 Leave Link  701 at Fri Nov  4 17:04:56 2022, MaxMem=  8053063680 cpu:               7.0 elap:               0.2
 (Enter /public3/home/scg5914/software-scg5914/g16/l702.exe)
 L702 exits ... SP integral derivatives will be done elsewhere.
 Leave Link  702 at Fri Nov  4 17:04:56 2022, MaxMem=  8053063680 cpu:               0.2 elap:               0.0
 (Enter /public3/home/scg5914/software-scg5914/g16/l703.exe)
 Integral derivatives from FoFJK, PRISM(SPDF).
 Compute integral first derivatives, UseDBF=F ICtDFT=           0.
 Calling FoFJK, ICntrl=      2127 FMM=F ISym2X=0 I1Cent= 0 IOpClX= 0 NMat=1 NMatS=1 NMatT=0.
 FoFJK:  IHMeth= 1 ICntrl=    2127 DoSepK=F KAlg= 0 I1Cent=           0 FoldK=F
 IRaf=         0 NMat=       1 IRICut=       1 DoRegI=T DoRafI=F ISym2E= 0 IDoP0=0 IntGTp=1.
 FoFCou: FMM=F IPFlag=           0 FMFlag=      100000 FMFlg1=         800
         NFxFlg=           0 DoJE=F BraDBF=F KetDBF=F FulRan=T
         wScrn=  0.000000 ICntrl=      2127 IOpCl=  0 I1Cent=           0 NGrid=           0
         NMat0=    1 NMatS0=      1 NMatT0=    0 NMatD0=    1 NMtDS0=    0 NMtDT0=    0
 Symmetry not used in FoFCou.
 Leave Link  703 at Fri Nov  4 17:04:58 2022, MaxMem=  8053063680 cpu:              68.6 elap:               2.2
 (Enter /public3/home/scg5914/software-scg5914/g16/l716.exe)
 Dipole        =-5.20023933D-02 7.76919298D-01-2.33201195D-01
 ***** Axes restored to original set *****
 -------------------------------------------------------------------
 Center     Atomic                   Forces (Hartrees/Bohr)
 Number     Number              X              Y              Z
 -------------------------------------------------------------------
      1        6           0.000399753    0.000186146    0.000205046
      2        6           0.001373714    0.001947211   -0.000977028
      3        7           0.000003736   -0.000716005   -0.000742220
      4        6          -0.002398521   -0.000137910   -0.000812472
      5        6          -0.003398372   -0.001112344    0.002127904
      6        6           0.001432946   -0.000299052    0.000517308
      7        6           0.000401090    0.000729085   -0.001433676
      8        6           0.001521396    0.001332245   -0.001064257
      9        6           0.002858265   -0.000067666    0.000620398
     10        1           0.000305651   -0.000947953    0.000014165
     11        1          -0.000690846   -0.000363204    0.000592706
     12        1          -0.000626074   -0.000280716   -0.000723937
     13        1           0.000594264   -0.000628326    0.001049387
     14        1           0.000283261   -0.000477293    0.000490315
     15        1          -0.000966748    0.000604632   -0.000766016
     16        1          -0.000150947   -0.000028057    0.001309896
     17        1          -0.000577687    0.000612968    0.000392765
     18        1          -0.000364882   -0.000353760   -0.000800284
 -------------------------------------------------------------------
 Cartesian Forces:  Max     0.003398372 RMS     0.001065913
 Leave Link  716 at Fri Nov  4 17:04:58 2022, MaxMem=  8053063680 cpu:               0.3 elap:               0.0
 (Enter /public3/home/scg5914/software-scg5914/g16/l103.exe)

 GradGradGradGradGradGradGradGradGradGradGradGradGradGradGradGradGradGrad
 Berny optimization.
 FormGI is forming the generalized inverse of G from B-inverse, IUseBI=4.
 Internal  Forces:  Max     0.001503695 RMS     0.000549609
 Search for a local minimum.
 Step number   1 out of a maximum of  108
 All quantities printed in internal units (Hartrees-Bohrs-Radians)
 RMS Force = .54961D-03 SwitMx=.10000D-02 MixMth= 2
 Mixed Optimization -- En-DIIS/RFO-DIIS
 Second derivative matrix not updated -- first step.
 ITU=  0
     Eigenvalues ---    0.00423   0.00651   0.01667   0.01970   0.02353
     Eigenvalues ---    0.02782   0.03660   0.03735   0.04435   0.05124
     Eigenvalues ---    0.05457   0.05623   0.05730   0.06408   0.07024
     Eigenvalues ---    0.07098   0.07532   0.08336   0.08504   0.09412
     Eigenvalues ---    0.10390   0.11444   0.13891   0.14786   0.16000
     Eigenvalues ---    0.16000   0.16000   0.17431   0.18382   0.20522
     Eigenvalues ---    0.25520   0.26650   0.27102   0.28533   0.29802
     Eigenvalues ---    0.30613   0.31386   0.33838   0.34212   0.34227
     Eigenvalues ---    0.34350   0.34366   0.34386   0.34583   0.34619
     Eigenvalues ---    0.34885   0.35206   0.45902
 RFO step:  Lambda=-2.51753131D-04 EMin= 4.22901604D-03
 Linear search not attempted -- first point.
 Iteration  1 RMS(Cart)=  0.00719403 RMS(Int)=  0.00004594
 Iteration  2 RMS(Cart)=  0.00004486 RMS(Int)=  0.00001711
 Iteration  3 RMS(Cart)=  0.00000000 RMS(Int)=  0.00001711
 ITry= 1 IFail=0 DXMaxC= 2.24D-02 DCOld= 1.00D+10 DXMaxT= 3.00D-01 DXLimC= 3.00D+00 Rises=F
 Variable       Old X    -DE/DX   Delta X   Delta X   Delta X     New X
                                 (Linear)    (Quad)   (Total)
    R1        2.88360  -0.00150   0.00000  -0.00504  -0.00504   2.87855
    R2        2.06684  -0.00093   0.00000  -0.00271  -0.00271   2.06413
    R3        2.06744  -0.00092   0.00000  -0.00269  -0.00269   2.06475
    R4        2.06717  -0.00094   0.00000  -0.00274  -0.00274   2.06443
    R5        2.92653   0.00099   0.00000   0.00297   0.00296   2.92949
    R6        2.88332  -0.00104   0.00000  -0.00348  -0.00348   2.87985
    R7        2.06949  -0.00118   0.00000  -0.00345  -0.00345   2.06604
    R8        2.77367   0.00147   0.00000   0.00302   0.00301   2.77668
    R9        2.94720   0.00071   0.00000   0.00216   0.00214   2.94935
   R10        2.56515   0.00012   0.00000   0.00052   0.00053   2.56568
   R11        2.05342  -0.00053   0.00000  -0.00151  -0.00151   2.05191
   R12        2.83430   0.00025   0.00000   0.00083   0.00085   2.83515
   R13        2.79615   0.00131   0.00000   0.00560   0.00562   2.80178
   R14        2.83855   0.00107   0.00000   0.00285   0.00285   2.84140
   R15        2.06298  -0.00117   0.00000  -0.00338  -0.00338   2.05961
   R16        2.88661  -0.00095   0.00000  -0.00365  -0.00367   2.88295
   R17        2.06974  -0.00124   0.00000  -0.00361  -0.00361   2.06613
   R18        2.07604  -0.00078   0.00000  -0.00230  -0.00230   2.07374
   R19        2.94978   0.00026   0.00000   0.00160   0.00159   2.95137
   R20        2.05862  -0.00093   0.00000  -0.00265  -0.00265   2.05597
    A1        1.91334  -0.00037   0.00000  -0.00241  -0.00241   1.91093
    A2        1.92775  -0.00030   0.00000  -0.00174  -0.00174   1.92601
    A3        1.93758  -0.00030   0.00000  -0.00193  -0.00193   1.93565
    A4        1.90474   0.00036   0.00000   0.00233   0.00233   1.90707
    A5        1.88934   0.00032   0.00000   0.00174   0.00174   1.89108
    A6        1.89032   0.00033   0.00000   0.00220   0.00220   1.89252
    A7        1.91409   0.00018   0.00000   0.00038   0.00038   1.91447
    A8        1.96128  -0.00018   0.00000  -0.00085  -0.00085   1.96043
    A9        1.92052   0.00037   0.00000   0.00422   0.00422   1.92474
   A10        1.61934   0.00004   0.00000   0.00070   0.00071   1.62005
   A11        1.96145  -0.00021   0.00000   0.00071   0.00070   1.96215
   A12        2.06583  -0.00024   0.00000  -0.00552  -0.00552   2.06031
   A13        1.79188   0.00099   0.00000   0.01246   0.01247   1.80435
   A14        1.51180  -0.00029   0.00000  -0.00127  -0.00128   1.51051
   A15        1.45767   0.00056   0.00000   0.00344   0.00345   1.46112
   A16        1.69925  -0.00070   0.00000  -0.00295  -0.00295   1.69631
   A17        2.17183   0.00068   0.00000   0.00395   0.00394   2.17577
   A18        2.36683  -0.00007   0.00000  -0.00201  -0.00201   2.36482
   A19        2.24739  -0.00039   0.00000  -0.00566  -0.00566   2.24172
   A20        1.58023   0.00083   0.00000   0.00333   0.00331   1.58354
   A21        1.95294  -0.00125   0.00000  -0.00830  -0.00832   1.94462
   A22        1.79546   0.00023   0.00000   0.00549   0.00549   1.80095
   A23        2.08301  -0.00010   0.00000   0.00212   0.00200   2.08501
   A24        2.07365   0.00013   0.00000   0.00665   0.00659   2.08025
   A25        1.78311   0.00053   0.00000   0.00344   0.00345   1.78656
   A26        2.00660  -0.00031   0.00000  -0.00312  -0.00311   2.00348
   A27        1.92735  -0.00008   0.00000   0.00024   0.00023   1.92759
   A28        1.87827  -0.00007   0.00000  -0.00160  -0.00162   1.87666
   A29        2.00657  -0.00049   0.00000  -0.00301  -0.00299   2.00358
   A30        1.86545   0.00037   0.00000   0.00357   0.00357   1.86902
   A31        2.23628  -0.00034   0.00000  -0.00473  -0.00476   2.23153
   A32        1.52485   0.00051   0.00000   0.00097   0.00095   1.52580
   A33        1.97228  -0.00057   0.00000  -0.00523  -0.00525   1.96704
   A34        1.54602  -0.00068   0.00000  -0.00381  -0.00381   1.54221
   A35        1.58862  -0.00031   0.00000  -0.00078  -0.00076   1.58786
   A36        2.09781   0.00060   0.00000   0.00121   0.00119   2.09901
   A37        1.61087   0.00099   0.00000   0.01061   0.01061   1.62148
   A38        2.26674  -0.00027   0.00000  -0.00345  -0.00346   2.26328
   A39        2.16337  -0.00039   0.00000  -0.00291  -0.00291   2.16047
    D1       -1.10806  -0.00004   0.00000  -0.00914  -0.00914  -1.11720
    D2       -2.88314  -0.00009   0.00000  -0.00977  -0.00977  -2.89291
    D3        1.05810   0.00007   0.00000  -0.00512  -0.00512   1.05299
    D4        3.07566  -0.00005   0.00000  -0.00938  -0.00938   3.06627
    D5        1.30058  -0.00011   0.00000  -0.01001  -0.01002   1.29056
    D6       -1.04136   0.00005   0.00000  -0.00537  -0.00536  -1.04673
    D7        0.97848  -0.00007   0.00000  -0.00973  -0.00973   0.96875
    D8       -0.79660  -0.00013   0.00000  -0.01036  -0.01037  -0.80696
    D9       -3.13854   0.00003   0.00000  -0.00571  -0.00571   3.13893
   D10        3.03303  -0.00013   0.00000  -0.00054  -0.00053   3.03250
   D11       -1.80890   0.00028   0.00000   0.00160   0.00159  -1.80731
   D12       -1.24364  -0.00028   0.00000  -0.00109  -0.00107  -1.24471
   D13        0.19762   0.00014   0.00000   0.00105   0.00105   0.19867
   D14        0.89093  -0.00059   0.00000  -0.00672  -0.00671   0.88423
   D15        2.33219  -0.00017   0.00000  -0.00458  -0.00459   2.32760
   D16       -2.46495  -0.00042   0.00000  -0.00826  -0.00827  -2.47321
   D17        1.76807   0.00001   0.00000  -0.00050  -0.00050   1.76756
   D18        1.85286  -0.00060   0.00000  -0.00882  -0.00882   1.84404
   D19       -0.19731  -0.00016   0.00000  -0.00106  -0.00106  -0.19837
   D20       -0.19534  -0.00030   0.00000  -0.00826  -0.00826  -0.20360
   D21       -2.24552   0.00014   0.00000  -0.00050  -0.00050  -2.24601
   D22        1.48736  -0.00025   0.00000  -0.00350  -0.00348   1.48388
   D23       -1.37837   0.00009   0.00000   0.00017   0.00019  -1.37818
   D24        0.00303   0.00005   0.00000  -0.00133  -0.00133   0.00170
   D25       -2.86270   0.00039   0.00000   0.00234   0.00234  -2.86036
   D26       -1.80336  -0.00103   0.00000  -0.01124  -0.01124  -1.81460
   D27       -0.19291  -0.00005   0.00000  -0.00067  -0.00067  -0.19358
   D28        2.09426  -0.00047   0.00000  -0.00435  -0.00434   2.08992
   D29       -0.00276  -0.00004   0.00000   0.00121   0.00121  -0.00154
   D30        1.60769   0.00094   0.00000   0.01178   0.01179   1.61948
   D31       -2.38832   0.00052   0.00000   0.00810   0.00811  -2.38020
   D32       -2.08131   0.00107   0.00000   0.01221   0.01220  -2.06911
   D33       -0.00317  -0.00005   0.00000   0.00139   0.00140  -0.00177
   D34        0.73336   0.00084   0.00000   0.00943   0.00943   0.74279
   D35        2.81150  -0.00028   0.00000  -0.00139  -0.00137   2.81013
   D36        1.21889   0.00006   0.00000   0.00186   0.00188   1.22077
   D37       -2.72421   0.00039   0.00000   0.01875   0.01877  -2.70544
   D38       -0.69434   0.00037   0.00000   0.00927   0.00923  -0.68510
   D39        1.64575   0.00070   0.00000   0.02616   0.02612   1.67187
   D40        0.00296   0.00005   0.00000  -0.00130  -0.00130   0.00166
   D41       -1.58469   0.00041   0.00000  -0.00011  -0.00009  -1.58478
   D42        2.26159   0.00002   0.00000  -0.00583  -0.00582   2.25577
   D43        2.31966  -0.00042   0.00000  -0.00911  -0.00910   2.31056
   D44        0.73201  -0.00006   0.00000  -0.00792  -0.00789   0.72412
   D45       -1.70490  -0.00044   0.00000  -0.01364  -0.01361  -1.71851
   D46        0.26519   0.00026   0.00000  -0.00053  -0.00055   0.26464
   D47       -1.76333   0.00016   0.00000   0.00070   0.00070  -1.76263
   D48        2.40771  -0.00005   0.00000  -0.00195  -0.00195   2.40576
   D49       -2.08024   0.00007   0.00000  -0.01472  -0.01476  -2.09500
   D50        2.17443  -0.00004   0.00000  -0.01349  -0.01351   2.16091
   D51        0.06228  -0.00024   0.00000  -0.01614  -0.01616   0.04612
   D52       -1.66062   0.00001   0.00000   0.00416   0.00415  -1.65647
   D53        0.18337  -0.00002   0.00000  -0.00246  -0.00246   0.18090
   D54        0.45882  -0.00011   0.00000   0.00163   0.00161   0.46044
   D55        2.30281  -0.00014   0.00000  -0.00500  -0.00500   2.29781
   D56        2.53480   0.00001   0.00000   0.00315   0.00314   2.53794
   D57       -1.90440  -0.00002   0.00000  -0.00348  -0.00348  -1.90788
   D58        0.19570   0.00018   0.00000   0.00110   0.00110   0.19680
   D59        1.74242  -0.00050   0.00000  -0.00257  -0.00257   1.73984
   D60       -2.04184  -0.00013   0.00000   0.00178   0.00178  -2.04006
   D61       -2.08527   0.00047   0.00000   0.00752   0.00754  -2.07773
   D62       -0.53856  -0.00021   0.00000   0.00385   0.00387  -0.53469
   D63        1.96037   0.00016   0.00000   0.00820   0.00822   1.96859
         Item               Value     Threshold  Converged?
 Maximum Force            0.001504     0.000450     NO 
 RMS     Force            0.000550     0.000300     NO 
 Maximum Displacement     0.022408     0.001800     NO 
 RMS     Displacement     0.007199     0.001200     NO 
 Predicted change in Energy=-1.264402D-04
 Lowest energy point so far.  Saving SCF results.
 GradGradGradGradGradGradGradGradGradGradGradGradGradGradGradGradGradGrad

 Leave Link  103 at Fri Nov  4 17:04:58 2022, MaxMem=  8053063680 cpu:               1.9 elap:               0.1
 (Enter /public3/home/scg5914/software-scg5914/g16/l202.exe)
                          Input orientation:                          
 ---------------------------------------------------------------------
 Center     Atomic      Atomic             Coordinates (Angstroms)
 Number     Number       Type             X           Y           Z
 ---------------------------------------------------------------------
      1          6           0        4.999693    5.913996   -2.786048
      2          6           0        4.207562    4.619205   -2.914049
      3          7           0        3.203229    4.502956   -1.738898
      4          6           0        2.419990    3.306900   -2.078011
      5          6           0        3.267467    2.391295   -1.542476
      6          6           0        3.999670    1.280389   -2.235767
      7          6           0        5.021416    2.008015   -3.064873
      8          6           0        5.004370    3.405051   -2.452156
      9          6           0        4.193801    3.468566   -1.118680
     10          1           0        4.323032    6.766111   -2.881595
     11          1           0        5.763367    5.970892   -3.565391
     12          1           0        5.493519    5.974314   -1.813453
     13          1           0        3.715765    4.570678   -3.889285
     14          1           0        1.611385    3.283113   -2.802306
     15          1           0        4.304560    0.402257   -1.666732
     16          1           0        4.765274    2.109428   -4.122947
     17          1           0        5.990528    1.495557   -3.015414
     18          1           0        4.643389    3.655185   -0.145682
 ---------------------------------------------------------------------
                    Distance matrix (angstroms):
                    1          2          3          4          5
     1  C    0.000000
     2  C    1.523265   0.000000
     3  N    2.512935   1.550219   0.000000
     4  C    3.735389   2.369920   1.469357   0.000000
     5  C    4.117827   2.780031   2.121749   1.357699   0.000000
     6  C    4.772124   3.413353   3.356507   2.574301   1.500295
     7  C    3.915980   2.739237   3.359873   3.070573   2.353919
     8  C    2.531069   1.523948   2.226711   2.613167   2.207272
     9  C    3.067525   2.132489   1.560726   2.023081   1.482636
    10  H    1.092291   2.150254   2.771568   4.029077   4.695368
    11  H    1.092617   2.161443   3.470623   4.526293   4.809909
    12  H    1.092449   2.168252   2.723212   4.078195   4.226909
    13  H    2.161042   1.093301   2.211661   2.560641   3.233914
    14  H    4.289806   2.921945   2.269982   1.085823   2.263873
    15  H    5.667040   4.398620   4.246631   3.486790   2.246614
    16  H    4.039428   2.841031   3.721914   3.334075   2.996949
    17  H    4.533979   3.598113   4.294529   4.111986   3.222880
    18  H    3.492952   2.963635   2.308921   2.966261   2.332727
                    6          7          8          9         10
     6  C    0.000000
     7  C    1.503604   0.000000
     8  C    2.360177   1.525589   0.000000
     9  C    2.464485   2.570180   1.561799   0.000000
    10  H    5.533065   4.812568   3.456207   3.741441   0.000000
    11  H    5.184530   4.062684   2.898088   3.835567   1.781717
    12  H    4.943973   4.185745   2.692271   2.907018   1.771415
    13  H    3.693336   2.991926   2.254891   3.019839   2.490811
    14  H    3.167930   3.650087   3.413184   3.088343   4.414815
    15  H    1.089896   2.246585   3.181729   3.116870   6.478802
    16  H    2.198841   1.093349   2.127756   3.346559   4.839548
    17  H    2.148875   1.097377   2.221696   3.273926   5.529665
    18  H    3.228388   3.373092   2.347913   1.087971   4.155203
                   11         12         13         14         15
    11  H    0.000000
    12  H    1.772602   0.000000
    13  H    2.501636   3.072407   0.000000
    14  H    5.004539   4.826112   2.695879   0.000000
    15  H    6.061578   5.699384   4.760479   4.103907   0.000000
    16  H    4.027153   4.560860   2.685855   3.615058   3.026497
    17  H    4.514720   4.663796   3.923591   4.734730   2.420070
    18  H    4.279166   2.980359   3.963986   4.048350   3.606930
                   16         17         18
    16  H    0.000000
    17  H    1.762020   0.000000
    18  H    4.268823   3.835901   0.000000
 Stoichiometry    C8H9N
 Framework group  C1[X(C8H9N)]
 Deg. of freedom    48
 Full point group                 C1      NOp   1
 RotChk:  IX=0 Diff= 7.23D-03
 Largest Abelian subgroup         C1      NOp   1
 Largest concise Abelian subgroup C1      NOp   1
                         Standard orientation:                         
 ---------------------------------------------------------------------
 Center     Atomic      Atomic             Coordinates (Angstroms)
 Number     Number       Type             X           Y           Z
 ---------------------------------------------------------------------
      1          6           0       -2.562768    0.586529    0.057392
      2          6           0       -1.188913    0.199546   -0.474683
      3          7           0       -0.793389   -1.197859    0.067535
      4          6           0        0.458078   -1.496292   -0.642238
      5          6           0        1.294480   -0.847187    0.207729
      6          6           0        2.199601    0.314224   -0.079960
      7          6           0        1.240239    1.452324   -0.292512
      8          6           0       -0.060122    0.894144    0.277503
      9          6           0        0.148393   -0.443031    1.057054
     10          1           0       -3.311682   -0.109612   -0.326815
[...]
                                                    251(v),243(g),244(g),231(r)
                                                    235(v),171(v),119(v),250(r)
                                                    67(v),239(v),241(g),242(g)
    12. BD (   1) C   4 - H  14          1.99249    -0.56197  102(v),103(v),240(g),244(v)
                                                    241(g)
    13. BD (   1) C   5 - C   6          1.98615    -0.64080  246(g),240(g),250(v),84(v)
                                                    241(g)
    14. BD (   1) C   5 - C   9          1.96840    -0.60490  242(v),240(g),252(g),238(v)
                                                    241(g),243(g),118(v),153(v)
                                                    85(v)
    15. BD (   1) C   6 - C   7          1.95972    -0.63654  246(g),241(v),249(g),240(v)
                                                    236(v),153(v),102(v),248(g)
    16. BD (   1) C   6 - C   8          1.84991    -0.18718  248(g),245(g),252(v),240(v)
                                                    249(v),231(v),251(g),136(v)
                                                    135(v),244(v),237(v),235(v)
                                                    243(g),250(v),246(g),241(v)
                                                    232(r),171(v),50(v),101(v)
    17. BD (   1) C   6 - H  15          1.98563    -0.52568  246(g),240(v),249(v),135(v)
                                                    101(v),250(v),241(v)
    18. BD (   1) C   7 - C   8          1.96271    -0.64052  246(g),250(g),247(v),245(g)
                                                    51(v),241(r),231(v),252(v)
    19. BD (   1) C   7 - H  16          1.94089    -0.51220  246(v),251(v),247(v),154(v)
                                                    118(v),248(g)
    20. BD (   1) C   7 - H  17          1.94469    -0.51443  246(v),236(v),243(v),152(v)
                                                    247(v)
    21. BD (   1) C   8 - C   9          1.94740    -0.57066  241(v),237(v),246(g),249(v)
                                                    235(v),101(v),252(g),244(g)
                                                    137(v),52(v)
    22. BD (   1) C   9 - H  18          1.98695    -0.54249  241(v)
    23. CR (   1) C   1                  1.99928   -10.02679  53(v),186(v),191(v),196(v)
    24. CR (   1) C   2                  1.99908   -10.08610  154(v),248(v),35(v),202(v)
    25. CR (   1) N   3                  1.99960   -14.15709  169(v),85(v),52(v)
    26. CR (   1) C   4                  1.99891   -10.07707  103(v),243(v),241(g),240(g)
                                                    206(v)
    27. CR (   1) C   5                  1.99861   -10.04421  241(g),242(v),85(v),170(v)
                                                    86(v),252(v)
    28. CR (   1) C   6                  1.99910   -10.07441  246(g),240(v),102(v),137(v)
                                                    241(v)
    29. CR (   1) C   7                  1.99912   -10.05311  153(v),120(v),236(v)
    30. CR (   1) C   8                  1.99907   -10.08452  246(g),53(v),137(v)
    31. CR (   1) C   9                  1.99902   -10.07836  102(v),153(v),243(v)
    32. LP (   1) N   3                  1.94320    -0.39191  241(v),85(v),169(v),252(v)
                                                    52(v),231(v),233(r),236(v)
    33. RY*(   1) C   1                  0.00388     0.60831   
    34. RY*(   2) C   1                  0.00326     0.59264   
    35. RY*(   3) C   1                  0.00064     0.91642   
    36. RY*(   4) C   1                  0.00025     1.03130   
    37. RY*(   5) C   1                  0.00021     2.25157   
    38. RY*(   6) C   1                  0.00015     1.66315   
    39. RY*(   7) C   1                  0.00006     0.94819   
    40. RY*(   8) C   1                  0.00007     1.38284   
    41. RY*(   9) C   1                  0.00002     1.81595   
    42. RY*(  10) C   1                  0.00001     1.11265   
    43. RY*(  11) C   1                  0.00001     1.18180   
    44. RY*(  12) C   1                  0.00000     2.15759   
    45. RY*(  13) C   1                  0.00001     2.07118   
    46. RY*(  14) C   1                  0.00000    22.34439   
    47. RY*(  15) C   1                  0.00000     1.90004   
    48. RY*(  16) C   1                  0.00000     3.11901   
    49. RY*(  17) C   1                  0.00001     1.85294   
    50. RY*(   1) C   2                  0.00776     0.63148   
    51. RY*(   2) C   2                  0.00433     1.01243   
    52. RY*(   3) C   2                  0.00231     1.10505   
    53. RY*(   4) C   2                  0.00206     0.94706   
    54. RY*(   5) C   2                  0.00115     1.30788   
    55. RY*(   6) C   2                  0.00091     1.45363   
    56. RY*(   7) C   2                  0.00075     1.65951   
    57. RY*(   8) C   2                  0.00036     1.27001   
    58. RY*(   9) C   2                  0.00029     2.55336   
    59. RY*(  10) C   2                  0.00017     2.01070   
    60. RY*(  11) C   2                  0.00010     1.68119   
    61. RY*(  12) C   2                  0.00004     2.73638   
    62. RY*(  13) C   2                  0.00001     1.03359   
    63. RY*(  14) C   2                  0.00001     2.29926   
    64. RY*(  15) C   2                  0.00000    22.40753   
    65. RY*(  16) C   2                  0.00001     1.41803   
    66. RY*(  17) C   2                  0.00001     2.63994   
    67. RY*(   1) N   3                  0.00506     0.59392   
    68. RY*(   2) N   3                  0.00316     0.59360   
    69. RY*(   3) N   3                  0.00165     0.84383   
    70. RY*(   4) N   3                  0.00147     0.85354   
    71. RY*(   5) N   3                  0.00106     0.78819   
    72. RY*(   6) N   3                  0.00058     1.32933   
    73. RY*(   7) N   3                  0.00045     0.96036   
    74. RY*(   8) N   3                  0.00014     1.73916   
    75. RY*(   9) N   3                  0.00010     1.96679   
    76. RY*(  10) N   3                  0.00008     2.35487   
    77. RY*(  11) N   3                  0.00005     2.68558   
    78. RY*(  12) N   3                  0.00000     3.82110   
    79. RY*(  13) N   3                  0.00001     2.21660   
    80. RY*(  14) N   3                  0.00000     4.02958   
    81. RY*(  15) N   3                  0.00000    34.97393   
    82. RY*(  16) N   3                  0.00001     2.46078   
    83. RY*(  17) N   3                  0.00001     4.00833   
    84. RY*(   1) C   4                  0.00553     0.84879   
    85. RY*(   2) C   4                  0.00384     1.02199   
    86. RY*(   3) C   4                  0.00164     1.19675   
    87. RY*(   4) C   4                  0.00080     1.17262   
    88. RY*(   5) C   4                  0.00061     1.44307   
    89. RY*(   6) C   4                  0.00054     1.72720   
    90. RY*(   7) C   4                  0.00016     1.50761   
    91. RY*(   8) C   4                  0.00012     1.94757   
    92. RY*(   9) C   4                  0.00007     1.67029   
    93. RY*(  10) C   4                  0.00006     1.13310   
    94. RY*(  11) C   4                  0.00003     1.76039   
    95. RY*(  12) C   4                  0.00001     2.33109   
    96. RY*(  13) C   4                  0.00001     3.04939   
    97. RY*(  14) C   4                  0.00001     0.82146   
    98. RY*(  15) C   4                  0.00001     2.75810   
    99. RY*(  16) C   4                  0.00001     0.97103   
   100. RY*(  17) C   4                  0.00000    21.81152   
   101. RY*(   1) C   5                  0.00391     0.77026   
   102. RY*(   2) C   5                  0.00306     1.13233   
   103. RY*(   3) C   5                  0.00187     0.92119   
   104. RY*(   4) C   5                  0.00154     1.36664   
   105. RY*(   5) C   5                  0.00077     1.67776   
   106. RY*(   6) C   5                  0.00048     1.55457   
   107. RY*(   7) C   5                  0.00033     1.49337   
   108. RY*(   8) C   5                  0.00023     1.53537   
   109. RY*(   9) C   5                  0.00011     1.70238   
   110. RY*(  10) C   5                  0.00009     2.64457   
   111. RY*(  11) C   5                  0.00006     2.95427   
   112. RY*(  12) C   5                  0.00002     3.89627   
   113. RY*(  13) C   5                  0.00001     0.83802   
   114. RY*(  14) C   5                  0.00002     2.35792   
   115. RY*(  15) C   5                  0.00000     2.21974   
   116. RY*(  16) C   5                  0.00001     2.78843   
   117. RY*(  17) C   5                  0.00000    18.57324   
   118. RY*(   1) C   6                  0.00615     0.54865   
   119. RY*(   2) C   6                  0.00241     0.83512   
   120. RY*(   3) C   6                  0.00187     0.86885   
   121. RY*(   4) C   6                  0.00071     0.77694   
   122. RY*(   5) C   6                  0.00042     1.34758   
   123. RY*(   6) C   6                  0.00022     1.71191   
   124. RY*(   7) C   6                  0.00012     1.57508   
   125. RY*(   8) C   6                  0.00009     1.46052   
   126. RY*(   9) C   6                  0.00004     0.90194   
   127. RY*(  10) C   6                  0.00004     1.80810   
   128. RY*(  11) C   6                  0.00001     2.03656   
   129. RY*(  12) C   6                  0.00000     2.73726   
   130. RY*(  13) C   6                  0.00000    22.16332   
   131. RY*(  14) C   6                  0.00001     0.64182   
   132. RY*(  15) C   6                  0.00000     2.45745   
   133. RY*(  16) C   6                  0.00000     2.78420   
   134. RY*(  17) C   6                  0.00001     1.81445   
   135. RY*(   1) C   7                  0.00452     0.87576   
   136. RY*(   2) C   7                  0.00274     1.06365   
   137. RY*(   3) C   7                  0.00162     1.02578   
   138. RY*(   4) C   7                  0.00119     1.18719   
   139. RY*(   5) C   7                  0.00037     1.10400   
   140. RY*(   6) C   7                  0.00023     1.92590   
   141. RY*(   7) C   7                  0.00018     1.38329   
   142. RY*(   8) C   7                  0.00008     1.60588   
   143. RY*(   9) C   7                  0.00005     1.79812   
   144. RY*(  10) C   7                  0.00005     0.60031   
   145. RY*(  11) C   7                  0.00001     2.37256   
   146. RY*(  12) C   7                  0.00001     0.80206   
   147. RY*(  13) C   7                  0.00000    22.96500   
   148. RY*(  14) C   7                  0.00001     0.90020   
   149. RY*(  15) C   7                  0.00000     2.65489   
   150. RY*(  16) C   7                  0.00000     2.90191   
   151. RY*(  17) C   7                  0.00001     2.02834   
   152. RY*(   1) C   8                  0.00570     0.64853   
   153. RY*(   2) C   8                  0.00291     0.72630   
   154. RY*(   3) C   8                  0.00174     0.76298   
   155. RY*(   4) C   8                  0.00085     1.65904   
   156. RY*(   5) C   8                  0.00073     1.36479   
   157. RY*(   6) C   8                  0.00071     1.19965   
   158. RY*(   7) C   8                  0.00034     1.46157   
   159. RY*(   8) C   8                  0.00019     1.92245   
   160. RY*(   9) C   8                  0.00016     0.88225   
   161. RY*(  10) C   8                  0.00007     1.43860   
   162. RY*(  11) C   8                  0.00005     1.84371   
   163. RY*(  12) C   8                  0.00003     1.75649   
   164. RY*(  13) C   8                  0.00001     0.79091   
   165. RY*(  14) C   8                  0.00002     3.24396   
   166. RY*(  15) C   8                  0.00001     2.87187   
   167. RY*(  16) C   8                  0.00001     2.54952   
   168. RY*(  17) C   8                  0.00000    22.76088   
   169. RY*(   1) C   9                  0.00467     0.85065   
   170. RY*(   2) C   9                  0.00379     0.81314   
   171. RY*(   3) C   9                  0.00233     1.52638   
   172. RY*(   4) C   9                  0.00118     1.68592   
   173. RY*(   5) C   9                  0.00072     1.16523   
   174. RY*(   6) C   9                  0.00063     0.92793   
   175. RY*(   7) C   9                  0.00043     1.30396   
   176. RY*(   8) C   9                  0.00031     1.42262   
   177. RY*(   9) C   9                  0.00016     2.05672   
   178. RY*(  10) C   9                  0.00011     1.60313   
   179. RY*(  11) C   9                  0.00006     0.92848   
   180. RY*(  12) C   9                  0.00003     3.58726   
   181. RY*(  13) C   9                  0.00003     1.71568   
   182. RY*(  14) C   9                  0.00001     2.39100   
   183. RY*(  15) C   9                  0.00001     1.29928   
   184. RY*(  16) C   9                  0.00000     1.11698   
   185. RY*(  17) C   9                  0.00000    21.77635   
   186. RY*(   1) H  10                  0.00113     1.18096   
   187. RY*(   2) H  10                  0.00028     1.59841   
   188. RY*(   3) H  10                  0.00012     1.73380   
   189. RY*(   4) H  10                  0.00009     1.79070   
   190. RY*(   5) H  10                  0.00003     2.62998   
   191. RY*(   1) H  11                  0.00085     1.03247   
   192. RY*(   2) H  11                  0.00032     1.71091   
   193. RY*(   3) H  11                  0.00014     1.74038   
   194. RY*(   4) H  11                  0.00009     1.79521   
   195. RY*(   5) H  11                  0.00002     2.65181   
   196. RY*(   1) H  12                  0.00082     1.04811   
   197. RY*(   2) H  12                  0.00031     1.64336   
   198. RY*(   3) H  12                  0.00009     1.80214   
   199. RY*(   4) H  12                  0.00009     1.78362   
   200. RY*(   5) H  12                  0.00003     2.69212   
   201. RY*(   1) H  13                  0.00170     0.41014   
   202. RY*(   2) H  13                  0.00039     2.33370   
   203. RY*(   3) H  13                  0.00017     1.93073   
   204. RY*(   4) H  13                  0.00011     2.39883   
   205. RY*(   5) H  13                  0.00005     2.15087   
   206. RY*(   1) H  14                  0.00175     0.96673   
   207. RY*(   2) H  14                  0.00033     1.78722   
   208. RY*(   3) H  14                  0.00016     1.82362   
   209. RY*(   4) H  14                  0.00011     2.40106   
   210. RY*(   5) H  14                  0.00007     1.85063   
   211. RY*(   1) H  15                  0.00132     0.53831   
   212. RY*(   2) H  15                  0.00027     1.95045   
   213. RY*(   3) H  15                  0.00016     1.83359   
   214. RY*(   4) H  15                  0.00009     1.99770   
   215. RY*(   5) H  15                  0.00005     2.55636   
   216. RY*(   1) H  16                  0.00121     0.86160   
   217. RY*(   2) H  16                  0.00043     1.82055   
   218. RY*(   3) H  16                  0.00016     1.84377   
   219. RY*(   4) H  16                  0.00010     2.01273   
   220. RY*(   5) H  16                  0.00004     2.53997   
   221. RY*(   1) H  17                  0.00155     0.74469   
   222. RY*(   2) H  17                  0.00025     1.73507   
   223. RY*(   3) H  17                  0.00012     1.97628   
   224. RY*(   4) H  17                  0.00007     2.08637   
   225. RY*(   5) H  17                  0.00005     2.49465   
   226. RY*(   1) H  18                  0.00158     0.87323   
   227. RY*(   2) H  18                  0.00025     2.15270   
   228. RY*(   3) H  18                  0.00022     1.90136   
   229. RY*(   4) H  18                  0.00018     1.87686   
   230. RY*(   5) H  18                  0.00005     2.64676   
   231. BD*(   1) C   1 - C   2          0.01830     0.38303   
   232. BD*(   1) C   1 - H  10          0.00725     0.40164   
   233. BD*(   1) C   1 - H  11          0.00547     0.39668   
   234. BD*(   1) C   1 - H  12          0.00735     0.39844   
   235. BD*(   1) C   2 - N   3          0.03426     0.25145   
   236. BD*(   1) C   2 - C   8          0.02122     0.37758   
   237. BD*(   1) C   2 - H  13          0.02863     0.39596   
   238. BD*(   1) N   3 - C   4          0.00972     0.34035   
   239. BD*(   1) N   3 - C   9          0.00898     0.23274   
   240. BD*(   1) C   4 - C   5          0.02484     0.56581   
   241. BD*(   2) C   4 - C   5          0.14672     0.03784  240(g),243(g),86(g),245(v)
   242. BD*(   1) C   4 - H  14          0.02906     0.41247   
   243. BD*(   1) C   5 - C   6          0.02093     0.41059   
   244. BD*(   1) C   5 - C   9          0.01621     0.40940   
   245. BD*(   1) C   6 - C   7          0.02667     0.40662   
   246. BD*(   1) C   6 - C   8          0.23844    -0.12789  244(v),250(v),249(v)
   247. BD*(   1) C   6 - H  15          0.01819     0.42610   
   248. BD*(   1) C   7 - C   8          0.04190     0.38098   
   249. BD*(   1) C   7 - H  16          0.01855     0.38043   
   250. BD*(   1) C   7 - H  17          0.01500     0.37724   
   251. BD*(   1) C   8 - C   9          0.02435     0.32061   
   252. BD*(   1) C   9 - H  18          0.03864     0.39791   
       -------------------------------
              Total Lewis   63.06208  ( 98.5345%)
        Valence non-Lewis    0.80068  (  1.2511%)
        Rydberg non-Lewis    0.13724  (  0.2144%)
       -------------------------------
            Total unit  1   64.00000  (100.0000%)
           Charge unit  1    0.00000
 Leave Link  607 at Fri Nov  4 17:07:38 2022, MaxMem=  8053063680 cpu:              50.1 elap:               1.6
 (Enter /public3/home/scg5914/software-scg5914/g16/l9999.exe)
 Unable to Open any file for archive entry.
 1\1\GINC-E0504\SP\RB3LYP\Gen\C8H9N1\SCG5914\04-Nov-2022\0\\#p b3lyp/ch
 kbas pop=nbo geom=allcheck guess=tcheck em=gd3bj\\dsgdb9nsd_133858\\0,
 1\C,0,4.996601258,5.9206926757,-2.7858748247\C,0,4.218700153,4.6182774
 022,-2.916305327\N,0,3.2089743947,4.5011247285,-1.7434299124\C,0,2.429
 5415021,3.3056959923,-2.0801624847\C,0,3.2671018172,2.3888865968,-1.53
 05865393\C,0,3.9991020006,1.2823706543,-2.2299744723\C,0,5.0138961747,
 2.0094783664,-3.0623876814\C,0,5.0166043208,3.4072319227,-2.4496419429
 \C,0,4.199473354,3.4667452476,-1.1184698671\H,0,4.3140926523,6.7669654
 653,-2.8912692372\H,0,5.7679985531,5.9806264271,-3.5573311625\H,0,5.47
 97170206,5.9880334772,-1.8084674774\H,0,3.729847772,4.5619140742,-3.89
 2773661\H,0,1.6186859844,3.2772254927,-2.8018343728\H,0,4.2939769699,0
 .3888617802,-1.6808580413\H,0,4.7487886677,2.1086137505,-4.1186118939\
 H,0,5.9804392599,1.4905183844,-3.0211962795\H,0,4.6444748849,3.6606458
 918,-0.1445880426\\Version=ES64L-G16RevC.01\State=1-A\HF=-364.8358045\
 RMSD=6.648e-10\Dipole=0.5267984,-0.1535823,-0.5946942\Quadrupole=-0.56
 40482,-0.9212172,1.4852654,-0.4661827,2.0095823,-1.7187958\PG=C01 [X(C
 8H9N1)]\\@
 The archive entry for this job was punched.


 THE CHYMISTS ARE A STRANGE CLASS OF MORTALS IMPELLED
 BY AN ALMOST INSANE IMPULSE TO SEEK THEIR PLEASURE
 AMONG SMOKE AND VAPOR, SOOT AND FLAME, POISONS AND
 POVERTY; YET AMONG ALL THESE EVILS I SEEM TO LIVE
 SO SWEETLY, THAT I MAY DIE IF I WOULD CHANGE PLACES
 WITH THE PERSIAN KING.
   --  JOHANN JOACHIM BECHER, 1635-1682
 ACTA LABORATORII CHYMICA MONACENSIS, 1669
 Job cpu time:       0 days  0 hours  2 minutes 27.3 seconds.
 Elapsed time:       0 days  0 hours  0 minutes  4.7 seconds.
 File lengths (MBytes):  RWF=     38 Int=      0 D2E=      0 Chk=      6 Scr=      1
 Normal termination of Gaussian 16 at Fri Nov  4 17:07:38 2022.
