 Entering Gaussian System, Link 0=/public3/home/scg5914/software-scg5914/g16/g16
 Input=dsgdb9nsd_000001-3-.gjf
 Output=dsgdb9nsd_000001-3-.log
 Initial command:
 /public3/home/scg5914/software-scg5914/g16/l1.exe "/public3/home/scg5914/software-scg5914/test/tmp/dsgdb9nsd_000001-3-/Gau-90098.inp" -scrdir="/public3/home/scg5914/software-scg5914/test/tmp/dsgdb9nsd_000001-3-/"
 Entering Link 1 = /public3/home/scg5914/software-scg5914/g16/l1.exe PID=     90099.
  
 Copyright (c) 1988-2019, Gaussian, Inc.  All Rights Reserved.
  
 This is part of the Gaussian(R) 16 program.  It is based on
 the Gaussian(R) 09 system (copyright 2009, Gaussian, Inc.),
 the Gaussian(R) 03 system (copyright 2003, Gaussian, Inc.),
 the Gaussian(R) 98 system (copyright 1998, Gaussian, Inc.),
 the Gaussian(R) 94 system (copyright 1995, Gaussian, Inc.),
 the Gaussian 92(TM) system (copyright 1992, Gaussian, Inc.),
 the Gaussian 90(TM) system (copyright 1990, Gaussian, Inc.),
 the Gaussian 88(TM) system (copyright 1988, Gaussian, Inc.),
 the Gaussian 86(TM) system (copyright 1986, Carnegie Mellon
 University), and the Gaussian 82(TM) system (copyright 1983,
 Carnegie Mellon University). Gaussian is a federally registered
 trademark of Gaussian, Inc.
  
 This software contains proprietary and confidential information,
 including trade secrets, belonging to Gaussian, Inc.
  
 This software is provided under written license and may be
 used, copied, transmitted, or stored only in accord with that
 written license.
  
 The following legend is applicable only to US Government
 contracts under FAR:
  
                    RESTRICTED RIGHTS LEGEND
  
 Use, reproduction and disclosure by the US Government is
 subject to restrictions as set forth in subparagraphs (a)
 and (c) of the Commercial Computer Software - Restricted
 Rights clause in FAR 52.227-19.
  
 Gaussian, Inc.
 340 Quinnipiac St., Bldg. 40, Wallingford CT 06492
  
  
 ---------------------------------------------------------------
 Warning -- This program may not be used in any manner that
 competes with the business of Gaussian, Inc. or will provide
 assistance to any competitor of Gaussian, Inc.  The licensee
 of this program is prohibited from giving any competitor of
 Gaussian, Inc. access to this program.  By using this program,
 the user acknowledges that Gaussian, Inc. is engaged in the
 business of creating and licensing software in the field of
 computational chemistry and represents and warrants to the
 licensee that it is not a competitor of Gaussian, Inc. and that
 it will not use this program in any manner prohibited above.
 ---------------------------------------------------------------
  

 Cite this work as:
 Gaussian 16, Revision C.01,
 M. J. Frisch, G. W. Trucks, H. B. Schlegel, G. E. Scuseria, 
 M. A. Robb, J. R. Cheeseman, G. Scalmani, V. Barone, 
 G. A. Petersson, H. Nakatsuji, X. Li, M. Caricato, A. V. Marenich, 
 J. Bloino, B. G. Janesko, R. Gomperts, B. Mennucci, H. P. Hratchian, 
 J. V. Ortiz, A. F. Izmaylov, J. L. Sonnenberg, D. Williams-Young, 
 F. Ding, F. Lipparini, F. Egidi, J. Goings, B. Peng, A. Petrone, 
 T. Henderson, D. Ranasinghe, V. G. Zakrzewski, J. Gao, N. Rega, 
 G. Zheng, W. Liang, M. Hada, M. Ehara, K. Toyota, R. Fukuda, 
 J. Hasegawa, M. Ishida, T. Nakajima, Y. Honda, O. Kitao, H. Nakai, 
 T. Vreven, K. Throssell, J. A. Montgomery, Jr., J. E. Peralta, 
 F. Ogliaro, M. J. Bearpark, J. J. Heyd, E. N. Brothers, K. N. Kudin, 
 V. N. Staroverov, T. A. Keith, R. Kobayashi, J. Normand, 
 K. Raghavachari, A. P. Rendell, J. C. Burant, S. S. Iyengar, 
 J. Tomasi, M. Cossi, J. M. Millam, M. Klene, C. Adamo, R. Cammi, 
 J. W. Ochterski, R. L. Martin, K. Morokuma, O. Farkas, 
 J. B. Foresman, and D. J. Fox, Gaussian, Inc., Wallingford CT, 2019.
 
 ******************************************
 Gaussian 16:  ES64L-G16RevC.01  3-Jul-2019
                24-Oct-2022 
 ******************************************
 %chk=dsgdb9nsd_000001-3.chk
 %mem=60GB
 %nprocshared=32
 Will use up to   32 processors via shared memory.
 ------------------------------------
 #p opt freq b3lyp/6-311+g** em=gd3bj
 ------------------------------------
 1/18=20,19=15,26=3,38=1/1,3;
 2/9=110,12=2,17=6,18=5,40=1/2;
 3/5=4,6=6,7=111,11=2,25=1,30=1,71=1,74=-5,124=41/1,2,3;
 4//1;
 5/5=2,38=5/2;
 6/7=2,8=2,9=2,10=2,28=1/1;
 7//1,2,3,16;
 1/18=20,19=15,26=3/3(2);
 2/9=110/2;
 99//99;
 2/9=110/2;
 3/5=4,6=6,7=111,11=2,25=1,30=1,71=1,74=-5,124=41/1,2,3;
 4/5=5,16=3,69=1/1;
 5/5=2,38=5/2;
 7//1,2,3,16;
 1/18=20,19=15,26=3/3(-5);
 2/9=110/2;
 6/7=2,8=2,9=2,10=2,19=2,28=1/1;
 99/9=1/99;
 Leave Link    1 at Mon Oct 24 13:36:26 2022, MaxMem=  8053063680 cpu:               2.0 elap:               0.1
 (Enter /public3/home/scg5914/software-scg5914/g16/l101.exe)
 ------------------
 dsgdb9nsd_000001-3
 ------------------
 Symbolic Z-matrix:
 Charge = -1 Multiplicity = 1
 C                    -0.0127    1.0858    0.008 
 H                     0.00215  -0.00603   0.00198 
 H                     1.01173   1.46375   0.00028 
 H                    -0.52381   1.43793   0.9064 
 
 ITRead=  0  0  0  0
 MicOpt= -1 -1 -1 -1
 NAtoms=      4 NQM=        4 NQMF=       0 NMMI=      0 NMMIF=      0
                NMic=       0 NMicF=      0.
                    Isotopes and Nuclear Properties:
 (Nuclear quadrupole moments (NQMom) in fm**2, nuclear magnetic moments (NMagM)
  in nuclear magnetons)

  Atom         1           2           3           4
 IAtWgt=          12           1           1           1
 AtmWgt=  12.0000000   1.0078250   1.0078250   1.0078250
 NucSpn=           0           1           1           1
 AtZEff=  -0.0000000  -0.0000000  -0.0000000  -0.0000000
 NQMom=    0.0000000   0.0000000   0.0000000   0.0000000
 NMagM=    0.0000000   2.7928460   2.7928460   2.7928460
 AtZNuc=   6.0000000   1.0000000   1.0000000   1.0000000
 Leave Link  101 at Mon Oct 24 13:36:26 2022, MaxMem=  8053063680 cpu:               4.0 elap:               0.1
 (Enter /public3/home/scg5914/software-scg5914/g16/l103.exe)

 GradGradGradGradGradGradGradGradGradGradGradGradGradGradGradGradGradGrad
 Berny optimization.
 Initialization pass.
                           ----------------------------
                           !    Initial Parameters    !
                           ! (Angstroms and Degrees)  !
 --------------------------                            --------------------------
 ! Name  Definition              Value          Derivative Info.                !
 --------------------------------------------------------------------------------
 ! R1    R(1,2)                  1.092          estimate D2E/DX2                !
 ! R2    R(1,3)                  1.092          estimate D2E/DX2                !
 ! R3    R(1,4)                  1.0919         estimate D2E/DX2                !
 ! A1    A(2,1,3)              109.4684         estimate D2E/DX2                !
 ! A2    A(2,1,4)              109.4721         estimate D2E/DX2                !
 ! A3    A(3,1,4)              109.4714         estimate D2E/DX2                !
 ! D1    D(2,1,4,3)            119.9972         estimate D2E/DX2                !
 --------------------------------------------------------------------------------
 Trust Radius=3.00D-01 FncErr=1.00D-07 GrdErr=1.00D-06 EigMax=2.50D+02 EigMin=1.00D-04
 Number of steps in this run=     20 maximum allowed number of steps=    100.
 GradGradGradGradGradGradGradGradGradGradGradGradGradGradGradGradGradGrad

 Leave Link  103 at Mon Oct 24 13:36:26 2022, MaxMem=  8053063680 cpu:               0.5 elap:               0.0
 (Enter /public3/home/scg5914/software-scg5914/g16/l202.exe)
                          Input orientation:                          
 ---------------------------------------------------------------------
 Center     Atomic      Atomic             Coordinates (Angstroms)
 Number     Number       Type             X           Y           Z
 ---------------------------------------------------------------------
      1          6           0       -0.012698    1.085804    0.008001
      2          1           0        0.002150   -0.006031    0.001976
      3          1           0        1.011731    1.463751    0.000277
      4          1           0       -0.523814    1.437933    0.906397
 ---------------------------------------------------------------------
                    Distance matrix (angstroms):
                    1          2          3          4
     1  C    0.000000
     2  H    1.091953   0.000000
     3  H    1.091952   1.783120   0.000000
     4  H    1.091948   1.783157   1.783148   0.000000
 Stoichiometry    CH3(1-)
 Framework group  C1[X(CH3)]
 Deg. of freedom     6
 Full point group                 C1      NOp   1
 Largest Abelian subgroup         C1      NOp   1
 Largest concise Abelian subgroup C1      NOp   1
                         Standard orientation:                         
 ---------------------------------------------------------------------
 Center     Atomic      Atomic             Coordinates (Angstroms)
 Number     Number       Type             X           Y           Z
 ---------------------------------------------------------------------
      1          6           0       -0.000006   -0.000001   -0.121331
      2          1           0        0.607709   -0.830997    0.242659
      3          1           0        0.415849    0.941771    0.242657
      4          1           0       -1.023521   -0.110765    0.242672
 ---------------------------------------------------------------------
 Rotational constants (GHZ):         262.9218078         262.9108084         157.7104193
 Leave Link  202 at Mon Oct 24 13:36:26 2022, MaxMem=  8053063680 cpu:               0.2 elap:               0.0
 (Enter /public3/home/scg5914/software-scg5914/g16/l301.exe)
 Standard basis: 6-311+G(d,p) (5D, 7F)
 Ernie: Thresh=  0.10000D-02 Tol=  0.10000D-05 Strict=F.
 There are    41 symmetry adapted cartesian basis functions of A   symmetry.
 There are    40 symmetry adapted basis functions of A   symmetry.
    40 basis functions,    60 primitive gaussians,    41 cartesian basis functions
     5 alpha electrons        5 beta electrons
       nuclear repulsion energy         9.6133951457 Hartrees.
 IExCor=  402 DFT=T Ex+Corr=B3LYP ExCW=0 ScaHFX=  0.200000
 ScaDFX=  0.800000  0.720000  1.000000  0.810000 ScalE2=  1.000000  1.000000
 IRadAn=      5 IRanWt=     -1 IRanGd=            0 ICorTp=0 IEmpDi=141
 NAtoms=    4 NActive=    4 NUniq=    4 SFac= 1.00D+00 NAtFMM=   60 NAOKFM=F Big=F
 Integral buffers will be    131072 words long.
 Raffenetti 2 integral format.
 Two-electron integral symmetry is turned on.
 R6Disp:  Grimme-D3(BJ) Dispersion energy=       -0.0013912305 Hartrees.
 Nuclear repulsion after empirical dispersion term =        9.6120039152 Hartrees.
 Leave Link  301 at Mon Oct 24 13:36:27 2022, MaxMem=  8053063680 cpu:               0.9 elap:               0.0
 (Enter /public3/home/scg5914/software-scg5914/g16/l302.exe)
 NPDir=0 NMtPBC=     1 NCelOv=     1 NCel=       1 NClECP=     1 NCelD=      1
         NCelK=      1 NCelE2=     1 NClLst=     1 CellRange=     0.0.
 One-electron integrals computed using PRISM.
 One-electron integral symmetry used in STVInt
 NBasis=    40 RedAO= T EigKep=  1.38D-02  NBF=    40
 NBsUse=    40 1.00D-06 EigRej= -1.00D+00 NBFU=    40
 Precomputing XC quadrature grid using
 IXCGrd= 4 IRadAn=           5 IRanWt=          -1 IRanGd=           0 AccXCQ= 0.00D+00.
 Generated NRdTot=       0 NPtTot=           0 NUsed=           0 NTot=          32
 NSgBfM=    41    41    41    41    41 MxSgAt=     4 MxSgA2=     4.
 Leave Link  302 at Mon Oct 24 13:36:27 2022, MaxMem=  8053063680 cpu:               2.6 elap:               0.1
 (Enter /public3/home/scg5914/software-scg5914/g16/l303.exe)
 DipDrv:  MaxL=1.
 Leave Link  303 at Mon Oct 24 13:36:27 2022, MaxMem=  8053063680 cpu:               0.3 elap:               0.0
 (Enter /public3/home/scg5914/software-scg5914/g16/l401.exe)
 ExpMin= 4.38D-02 ExpMax= 4.56D+03 ExpMxC= 6.82D+02 IAcc=3 IRadAn=         5 AccDes= 0.00D+00
 Harris functional with IExCor=  402 and IRadAn=       5 diagonalized for initial guess.
 HarFok:  IExCor=  402 AccDes= 0.00D+00 IRadAn=         5 IDoV= 1 UseB2=F ITyADJ=14
 ICtDFT=  3500011 ScaDFX=  1.000000  1.000000  1.000000  1.000000
 FoFCou: FMM=F IPFlag=           0 FMFlag=      100000 FMFlg1=           0
         NFxFlg=           0 DoJE=T BraDBF=F KetDBF=T FulRan=T
         wScrn=  0.000000 ICntrl=       500 IOpCl=  0 I1Cent=   200000004 NGrid=           0
         NMat0=    1 NMatS0=      1 NMatT0=    0 NMatD0=    1 NMtDS0=    0 NMtDT0=    0
 Petite list used in FoFCou.
 Harris En= -40.1166740967077    
 JPrj=0 DoOrth=F DoCkMO=F.
 Leave Link  401 at Mon Oct 24 13:36:27 2022, MaxMem=  8053063680 cpu:               3.5 elap:               0.1
 (Enter /public3/home/scg5914/software-scg5914/g16/l502.exe)
 Keep R1 ints in memory in canonical form, NReq=27996358.
 FoFCou: FMM=F IPFlag=           0 FMFlag=           0 FMFlg1=           0
         NFxFlg=           0 DoJE=F BraDBF=F KetDBF=F FulRan=T
         wScrn=  0.000000 ICntrl=       600 IOpCl=  0 I1Cent=           0 NGrid=           0
         NMat0=    1 NMatS0=    820 NMatT0=    0 NMatD0=    1 NMtDS0=    0 NMtDT0=    0
 Symmetry not used in FoFCou.
 Two-electron integral symmetry not used.
 Closed shell SCF:
 Using DIIS extrapolation, IDIIS=  1040.
 NGot=  8053063680 LenX=  8052721718 LenY=  8052719596
 Requested convergence on RMS density matrix=1.00D-08 within 128 cycles.
 Requested convergence on MAX density matrix=1.00D-06.
 Requested convergence on             energy=1.00D-06.
 No special actions if energy rises.

 Cycle   1  Pass 1  IDiag  1:
 E= -39.5936400339688    
 DIIS: error= 9.54D-02 at cycle   1 NSaved=   1.
 NSaved= 1 IEnMin= 1 EnMin= -39.5936400339688     IErMin= 1 ErrMin= 9.54D-02
 ErrMax= 9.54D-02  0.00D+00 EMaxC= 1.00D-01 BMatC= 2.17D-01 BMatP= 2.17D-01
 IDIUse=3 WtCom= 4.64D-02 WtEn= 9.54D-01
 Coeff-Com:  0.100D+01
 Coeff-En:   0.100D+01
 Coeff:      0.100D+01
 Gap=    -0.121 Goal=   None    Shift=    0.000
 GapD=   -0.121 DampG=0.250 DampE=0.500 DampFc=0.2500 IDamp=-1.
 Damping current iteration by 2.50D-01
 RMSDP=1.39D-01 MaxDP=2.82D+00              OVMax= 9.17D-01

 Cycle   2  Pass 1  IDiag  1:
 E= -39.6891516338450     Delta-E=       -0.095511599876 Rises=F Damp=T
 DIIS: error= 3.06D-02 at cycle   2 NSaved=   2.
 NSaved= 2 IEnMin= 2 EnMin= -39.6891516338450     IErMin= 2 ErrMin= 3.06D-02
 ErrMax= 3.06D-02  0.00D+00 EMaxC= 1.00D-01 BMatC= 2.17D-02 BMatP= 2.17D-01
 IDIUse=3 WtCom= 6.94D-01 WtEn= 3.06D-01
 Coeff-Com: -0.404D+00 0.140D+01
 Coeff-En:   0.469D-01 0.953D+00
 Coeff:     -0.266D+00 0.127D+01
 Gap=     0.008 Goal=   None    Shift=    0.000
 RMSDP=3.46D-02 MaxDP=7.05D-01 DE=-9.55D-02 OVMax= 8.31D-01

 Cycle   3  Pass 1  IDiag  1:
 E= -39.8531408819228     Delta-E=       -0.163989248078 Rises=F Damp=F
 DIIS: error= 9.93D-03 at cycle   3 NSaved=   3.
 NSaved= 3 IEnMin= 3 EnMin= -39.8531408819228     IErMin= 3 ErrMin= 9.93D-03
 ErrMax= 9.93D-03  0.00D+00 EMaxC= 1.00D-01 BMatC= 2.28D-03 BMatP= 2.17D-02
 IDIUse=3 WtCom= 9.01D-01 WtEn= 9.93D-02
 Coeff-Com: -0.173D+00 0.572D+00 0.601D+00
 Coeff-En:   0.000D+00 0.000D+00 0.100D+01
 Coeff:     -0.156D+00 0.515D+00 0.641D+00
 Gap=     0.110 Goal=   None    Shift=    0.000
 RMSDP=2.80D-03 MaxDP=3.02D-02 DE=-1.64D-01 OVMax= 4.16D-02

 Cycle   4  Pass 1  IDiag  1:
 E= -39.8565966035908     Delta-E=       -0.003455721668 Rises=F Damp=F
 DIIS: error= 3.51D-03 at cycle   4 NSaved=   4.
 NSaved= 4 IEnMin= 4 EnMin= -39.8565966035908     IErMin= 4 ErrMin= 3.51D-03
 ErrMax= 3.51D-03  0.00D+00 EMaxC= 1.00D-01 BMatC= 2.87D-04 BMatP= 2.28D-03
 IDIUse=3 WtCom= 9.65D-01 WtEn= 3.51D-02
 Coeff-Com: -0.492D-01 0.646D-01-0.135D+00 0.112D+01
 Coeff-En:   0.000D+00 0.000D+00 0.000D+00 0.100D+01
 Coeff:     -0.475D-01 0.623D-01-0.130D+00 0.112D+01
 Gap=     0.109 Goal=   None    Shift=    0.000
 RMSDP=1.17D-03 MaxDP=2.59D-02 DE=-3.46D-03 OVMax= 3.11D-02

 Cycle   5  Pass 1  IDiag  1:
 E= -39.8572394466063     Delta-E=       -0.000642843015 Rises=F Damp=F
 DIIS: error= 1.35D-03 at cycle   5 NSaved=   5.
 NSaved= 5 IEnMin= 5 EnMin= -39.8572394466063     IErMin= 5 ErrMin= 1.35D-03
 ErrMax= 1.35D-03  0.00D+00 EMaxC= 1.00D-01 BMatC= 3.50D-05 BMatP= 2.87D-04
 IDIUse=3 WtCom= 9.86D-01 WtEn= 1.35D-02
 Coeff-Com:  0.943D-02-0.140D-01-0.538D-01 0.193D+00 0.865D+00
 Coeff-En:   0.000D+00 0.000D+00 0.000D+00 0.000D+00 0.100D+01
 Coeff:      0.931D-02-0.138D-01-0.530D-01 0.190D+00 0.867D+00
 Gap=     0.111 Goal=   None    Shift=    0.000
 RMSDP=1.11D-04 MaxDP=1.47D-03 DE=-6.43D-04 OVMax= 2.16D-03

 Cycle   6  Pass 1  IDiag  1:
 E= -39.8572776497517     Delta-E=       -0.000038203145 Rises=F Damp=F
 DIIS: error= 3.61D-04 at cycle   6 NSaved=   6.
 NSaved= 6 IEnMin= 6 EnMin= -39.8572776497517     IErMin= 6 ErrMin= 3.61D-04
 ErrMax= 3.61D-04  0.00D+00 EMaxC= 1.00D-01 BMatC= 2.73D-06 BMatP= 3.50D-05
 IDIUse=3 WtCom= 9.96D-01 WtEn= 3.61D-03
 Coeff-Com:  0.403D-02-0.679D-02 0.151D-01 0.962D-03-0.105D+00 0.109D+01
 Coeff-En:   0.000D+00 0.000D+00 0.000D+00 0.000D+00 0.000D+00 0.100D+01
 Coeff:      0.402D-02-0.677D-02 0.150D-01 0.959D-03-0.105D+00 0.109D+01
 Gap=     0.111 Goal=   None    Shift=    0.000
 RMSDP=5.47D-05 MaxDP=5.26D-04 DE=-3.82D-05 OVMax= 5.77D-04

 Cycle   7  Pass 1  IDiag  1:
 E= -39.8572808249896     Delta-E=       -0.000003175238 Rises=F Damp=F
 DIIS: error= 1.48D-04 at cycle   7 NSaved=   7.
 NSaved= 7 IEnMin= 7 EnMin= -39.8572808249896     IErMin= 7 ErrMin= 1.48D-04
 ErrMax= 1.48D-04  0.00D+00 EMaxC= 1.00D-01 BMatC= 4.58D-07 BMatP= 2.73D-06
 IDIUse=3 WtCom= 9.99D-01 WtEn= 1.48D-03
 Coeff-Com:  0.797D-04 0.358D-03 0.204D-02 0.943D-02-0.385D-01-0.241D+00
 Coeff-Com:  0.127D+01
 Coeff-En:   0.000D+00 0.000D+00 0.000D+00 0.000D+00 0.000D+00 0.000D+00
 Coeff-En:   0.100D+01
 Coeff:      0.796D-04 0.357D-03 0.204D-02 0.941D-02-0.384D-01-0.241D+00
 Coeff:      0.127D+01
 Gap=     0.111 Goal=   None    Shift=    0.000
 RMSDP=2.88D-05 MaxDP=5.67D-04 DE=-3.18D-06 OVMax= 6.33D-04

 Cycle   8  Pass 1  IDiag  1:
 E= -39.8572815064749     Delta-E=       -0.000000681485 Rises=F Damp=F
 DIIS: error= 5.64D-06 at cycle   8 NSaved=   8.
 NSaved= 8 IEnMin= 8 EnMin= -39.8572815064749     IErMin= 8 ErrMin= 5.64D-06
 ErrMax= 5.64D-06  0.00D+00 EMaxC= 1.00D-01 BMatC= 7.00D-10 BMatP= 4.58D-07
 IDIUse=1 WtCom= 1.00D+00 WtEn= 0.00D+00
 Coeff-Com:  0.187D-04-0.110D-04 0.277D-04 0.380D-03-0.126D-02-0.144D-02
 Coeff-Com:  0.681D-01 0.934D+00
 Coeff:      0.187D-04-0.110D-04 0.277D-04 0.380D-03-0.126D-02-0.144D-02
 Coeff:      0.681D-01 0.934D+00
 Gap=     0.111 Goal=   None    Shift=    0.000
 RMSDP=1.89D-06 MaxDP=3.22D-05 DE=-6.81D-07 OVMax= 3.32D-05

 Cycle   9  Pass 1  IDiag  1:
 E= -39.8572815076837     Delta-E=       -0.000000001209 Rises=F Damp=F
 DIIS: error= 9.15D-07 at cycle   9 NSaved=   9.
 NSaved= 9 IEnMin= 9 EnMin= -39.8572815076837     IErMin= 9 ErrMin= 9.15D-07
 ErrMax= 9.15D-07  0.00D+00 EMaxC= 1.00D-01 BMatC= 1.77D-11 BMatP= 7.00D-10
 IDIUse=1 WtCom= 1.00D+00 WtEn= 0.00D+00
 Coeff-Com:  0.196D-05-0.370D-05-0.707D-05-0.986D-05 0.591D-04 0.133D-02
 Coeff-Com: -0.103D-01-0.139D-01 0.102D+01
 Coeff:      0.196D-05-0.370D-05-0.707D-05-0.986D-05 0.591D-04 0.133D-02
 Coeff:     -0.103D-01-0.139D-01 0.102D+01
 Gap=     0.111 Goal=   None    Shift=    0.000
 RMSDP=1.13D-07 MaxDP=2.02D-06 DE=-1.21D-09 OVMax= 2.93D-06

 Cycle  10  Pass 1  IDiag  1:
 E= -39.8572815077077     Delta-E=       -0.000000000024 Rises=F Damp=F
 DIIS: error= 1.16D-07 at cycle  10 NSaved=  10.
 NSaved=10 IEnMin=10 EnMin= -39.8572815077077     IErMin=10 ErrMin= 1.16D-07
 ErrMax= 1.16D-07  0.00D+00 EMaxC= 1.00D-01 BMatC= 2.93D-13 BMatP= 1.77D-11
 IDIUse=1 WtCom= 1.00D+00 WtEn= 0.00D+00
 Coeff-Com:  0.154D-07-0.510D-07-0.597D-06 0.132D-05 0.167D-04-0.179D-03
 Coeff-Com: -0.622D-03-0.502D-02-0.940D-02 0.102D+01
 Coeff:      0.154D-07-0.510D-07-0.597D-06 0.132D-05 0.167D-04-0.179D-03
 Coeff:     -0.622D-03-0.502D-02-0.940D-02 0.102D+01
 Gap=     0.111 Goal=   None    Shift=    0.000
 RMSDP=1.97D-08 MaxDP=3.59D-07 DE=-2.40D-11 OVMax= 4.30D-07

 Cycle  11  Pass 1  IDiag  1:
 E= -39.8572815077081     Delta-E=       -0.000000000000 Rises=F Damp=F
 DIIS: error= 1.34D-09 at cycle  11 NSaved=  11.
 NSaved=11 IEnMin=11 EnMin= -39.8572815077081     IErMin=11 ErrMin= 1.34D-09
 ErrMax= 1.34D-09  0.00D+00 EMaxC= 1.00D-01 BMatC= 4.40D-17 BMatP= 2.93D-13
 IDIUse=1 WtCom= 1.00D+00 WtEn= 0.00D+00
 Coeff-Com: -0.110D-07 0.324D-07 0.120D-06 0.949D-07-0.152D-05 0.664D-05
 Coeff-Com:  0.121D-03 0.487D-03-0.113D-02-0.128D+00 0.113D+01
 Coeff:     -0.110D-07 0.324D-07 0.120D-06 0.949D-07-0.152D-05 0.664D-05
 Coeff:      0.121D-03 0.487D-03-0.113D-02-0.128D+00 0.113D+01
 Gap=     0.111 Goal=   None    Shift=    0.000
 RMSDP=1.17D-09 MaxDP=1.41D-08 DE=-4.12D-13 OVMax= 1.47D-08

 SCF Done:  E(RB3LYP) =  -39.8572815077     A.U. after   11 cycles
            NFock= 11  Conv=0.12D-08     -V/T= 2.0044
 KE= 3.968072316227D+01 PE=-1.137684280073D+02 EE= 2.461841942221D+01
 Leave Link  502 at Mon Oct 24 13:36:27 2022, MaxMem=  8053063680 cpu:               8.6 elap:               0.3
 (Enter /public3/home/scg5914/software-scg5914/g16/l601.exe)
 Copying SCF densities to generalized density rwf, IOpCl= 0 IROHF=0.

 **********************************************************************

            Population analysis using the SCF Density.

 **********************************************************************

 Orbital symmetries:
       Occupied  (A) (A) (A) (A) (A)
       Virtual   (A) (A) (A) (A) (A) (A) (A) (A) (A) (A) (A) (A)
                 (A) (A) (A) (A) (A) (A) (A) (A) (A) (A) (A) (A)
                 (A) (A) (A) (A) (A) (A) (A) (A) (A) (A) (A)
 The electronic state is 1-A.
 Alpha  occ. eigenvalues --   -9.88293  -0.39871  -0.13218  -0.13217   0.06647
 Alpha virt. eigenvalues --    0.17788   0.21397   0.21397   0.24790   0.36309
 Alpha virt. eigenvalues --    0.36309   0.38188   0.63033   0.63033   0.72747
 Alpha virt. eigenvalues --    0.82969   0.84100   0.84100   0.98758   1.29032
 Alpha virt. eigenvalues --    1.29033   1.62056   1.70254   1.76898   1.76899
 Alpha virt. eigenvalues --    1.95631   1.95632   2.21262   2.43116   2.43118
 Alpha virt. eigenvalues --    2.60593   2.71166   2.71169   2.77596   2.77596
 Alpha virt. eigenvalues --    2.94788   3.17866   3.99680   3.99684  24.18741
          Condensed to atoms (all electrons):
               1          2          3          4
     1  C    5.849039   0.416808   0.416808   0.416812
     2  H    0.416808   0.664572  -0.057270  -0.057265
     3  H    0.416808  -0.057270   0.664574  -0.057266
     4  H    0.416812  -0.057265  -0.057266   0.664561
 Mulliken charges:
               1
     1  C   -1.099466
     2  H    0.033154
     3  H    0.033154
     4  H    0.033158
 Sum of Mulliken charges =  -1.00000
 Mulliken charges with hydrogens summed into heavy atoms:
               1
     1  C   -1.000000
 Electronic spatial extent (au):  <R**2>=             47.0666
 Charge=             -1.0000 electrons
 Dipole moment (field-independent basis, Debye):
    X=              0.0000    Y=              0.0000    Z=              1.6174  Tot=              1.6174
 Quadrupole moment (field-independent basis, Debye-Ang):
   XX=            -13.0103   YY=            -13.0105   ZZ=            -20.7403
   XY=              0.0000   XZ=             -0.0001   YZ=             -0.0000
 Traceless Quadrupole moment (field-independent basis, Debye-Ang):
   XX=              2.5767   YY=              2.5766   ZZ=             -5.1533
   XY=              0.0000   XZ=             -0.0001   YZ=             -0.0000
 Octapole moment (field-independent basis, Debye-Ang**2):
  XXX=             -0.0323  YYY=              0.0109  ZZZ=              4.8767  XYY=              0.0324
  XXY=             -0.0108  XXZ=              0.8948  XZZ=              0.0001  YZZ=              0.0000
  YYZ=              0.8948  XYZ=              0.0000
 Hexadecapole moment (field-independent basis, Debye-Ang**3):
 XXXX=            -35.5597 YYYY=            -35.5598 ZZZZ=            -83.5218 XXXY=              0.0000
 XXXZ=             -0.1752 YYYX=              0.0000 YYYZ=              0.0586 ZZZX=             -0.0003
 ZZZY=             -0.0001 XXYY=            -11.8532 XXZZ=            -19.7598 YYZZ=            -19.7598
 XXYZ=             -0.0587 YYXZ=              0.1748 ZZXY=              0.0000
 N-N= 9.612003915159D+00 E-N=-1.137684280478D+02  KE= 3.968072316227D+01
 No NMR shielding tensors so no spin-rotation constants.
 Leave Link  601 at Mon Oct 24 13:36:28 2022, MaxMem=  8053063680 cpu:               2.3 elap:               0.1
 (Enter /public3/home/scg5914/software-scg5914/g16/l701.exe)
 ... and contract with generalized density number  0.
 Compute integral first derivatives.
 R6Disp: Adding Grimme-D3(BJ) dispersion energy 1st derivatives to the gradient.
 Leave Link  701 at Mon Oct 24 13:36:28 2022, MaxMem=  8053063680 cpu:               2.6 elap:               0.1
 (Enter /public3/home/scg5914/software-scg5914/g16/l702.exe)
 L702 exits ... SP integral derivatives will be done elsewhere.
 Leave Link  702 at Mon Oct 24 13:36:28 2022, MaxMem=  8053063680 cpu:               0.2 elap:               0.0
 (Enter /public3/home/scg5914/software-scg5914/g16/l703.exe)
 Integral derivatives from FoFJK, PRISM(SPDF).
 Compute integral first derivatives, UseDBF=F ICtDFT=           0.
 Calling FoFJK, ICntrl=      2127 FMM=F ISym2X=0 I1Cent= 0 IOpClX= 0 NMat=1 NMatS=1 NMatT=0.
 FoFJK:  IHMeth= 1 ICntrl=    2127 DoSepK=F KAlg= 0 I1Cent=           0 FoldK=F
 IRaf=         0 NMat=       1 IRICut=       1 DoRegI=T DoRafI=F ISym2E= 0 IDoP0=0 IntGTp=1.
 FoFCou: FMM=F IPFlag=           0 FMFlag=      100000 FMFlg1=         800
         NFxFlg=           0 DoJE=F BraDBF=F KetDBF=F FulRan=T
         wScrn=  0.000000 ICntrl=      2127 IOpCl=  0 I1Cent=           0 NGrid=           0
         NMat0=    1 NMatS0=      1 NMatT0=    0 NMatD0=    1 NMtDS0=    0 NMtDT0=    0
 Symmetry not used in FoFCou.
 Leave Link  703 at Mon Oct 24 13:36:28 2022, MaxMem=  8053063680 cpu:               5.9 elap:               0.2
 (Enter /public3/home/scg5914/software-scg5914/g16/l716.exe)
 Dipole        = 1.46199593D-05 4.67020051D-06 6.36334437D-01
 ***** Axes restored to original set *****
 -------------------------------------------------------------------
 Center     Atomic                   Forces (Hartrees/Bohr)
 Number     Number              X              Y              Z
 -------------------------------------------------------------------
      1        6          -0.002528877    0.001731774   -0.004246012
      2        1          -0.000216245   -0.006948090   -0.000558763
      3        1           0.006408604    0.002694458   -0.000569871
      4        1          -0.003663481    0.002521858    0.005374647
 -------------------------------------------------------------------
 Cartesian Forces:  Max     0.006948090 RMS     0.003801103
 Leave Link  716 at Mon Oct 24 13:36:28 2022, MaxMem=  8053063680 cpu:               0.3 elap:               0.0
 (Enter /public3/home/scg5914/software-scg5914/g16/l103.exe)

 GradGradGradGradGradGradGradGradGradGradGradGradGradGradGradGradGradGrad
 Berny optimization.
 FormGI is forming the generalized inverse of G from B-inverse, IUseBI=4.
 Internal  Forces:  Max     0.006949994 RMS     0.004577170
 Search for a local minimum.
 Step number   1 out of a maximum of   20
 All quantities printed in internal units (Hartrees-Bohrs-Radians)
 RMS Force = .45772D-02 SwitMx=.10000D-02 MixMth= 1
 Mixed Optimization -- RFO/linear search
 Second derivative matrix not updated -- first step.
 The second derivative matrix:
                          R1        R2        R3        A1        A2
           R1           0.34588
           R2           0.00000   0.34588
           R3           0.00000   0.00000   0.34589
           A1           0.00000   0.00000   0.00000   0.16000
           A2           0.00000   0.00000   0.00000   0.00000   0.16000
           A3           0.00000   0.00000   0.00000   0.00000   0.00000
           D1           0.00000   0.00000   0.00000   0.00000   0.00000
                          A3        D1
           A3           0.16000
           D1           0.00000   0.00230
 ITU=  0
     Eigenvalues ---    0.05082   0.16000   0.16000   0.34588   0.34588
     Eigenvalues ---    0.34589
 RFO step:  Lambda=-4.46482239D-04 EMin= 5.08238911D-02
 Linear search not attempted -- first point.
 Iteration  1 RMS(Cart)=  0.01598788 RMS(Int)=  0.00009670
 Iteration  2 RMS(Cart)=  0.00005078 RMS(Int)=  0.00005701
 Iteration  3 RMS(Cart)=  0.00000001 RMS(Int)=  0.00005701
 ITry= 1 IFail=0 DXMaxC= 2.20D-02 DCOld= 1.00D+10 DXMaxT= 3.00D-01 DXLimC= 3.00D+00 Rises=F
 Variable       Old X    -DE/DX   Delta X   Delta X   Delta X     New X
                                 (Linear)    (Quad)   (Total)
    R1        2.06349   0.00695   0.00000   0.02006   0.02006   2.08355
    R2        2.06349   0.00695   0.00000   0.02006   0.02006   2.08355
    R3        2.06348   0.00695   0.00000   0.02007   0.02007   2.08355
    A1        1.91058   0.00010   0.00000   0.00743   0.00733   1.91791
    A2        1.91065   0.00067   0.00000   0.00757   0.00752   1.91817
    A3        1.91064   0.00067   0.00000   0.00758   0.00753   1.91817
    D1        2.09435   0.00094   0.00000   0.01838   0.01846   2.11281
         Item               Value     Threshold  Converged?
 Maximum Force            0.006950     0.000450     NO 
 RMS     Force            0.004577     0.000300     NO 
 Maximum Displacement     0.022015     0.001800     NO 
 RMS     Displacement     0.015988     0.001200     NO 
 Predicted change in Energy=-2.238660D-04
 Lowest energy point so far.  Saving SCF results.
 GradGradGradGradGradGradGradGradGradGradGradGradGradGradGradGradGradGrad

 Leave Link  103 at Mon Oct 24 13:36:28 2022, MaxMem=  8053063680 cpu:               0.4 elap:               0.0
 (Enter /public3/home/scg5914/software-scg5914/g16/l202.exe)
                          Input orientation:                          
 ---------------------------------------------------------------------
 Center     Atomic      Atomic             Coordinates (Angstroms)
 Number     Number       Type             X           Y           Z
 ---------------------------------------------------------------------
      1          6           0       -0.011165    1.084755    0.010626
      2          1           0       -0.000315   -0.017681   -0.002634
      3          1           0        1.021718    1.470225   -0.004357
      4          1           0       -0.532869    1.444158    0.913016
 ---------------------------------------------------------------------
                    Distance matrix (angstroms):
                    1          2          3          4
     1  C    0.000000
     2  H    1.102569   0.000000
     3  H    1.102569   1.805109   0.000000
     4  H    1.102567   1.805270   1.805269   0.000000
 Stoichiometry    CH3(1-)
 Framework group  C1[X(CH3)]
 Deg. of freedom     6
 Full point group                 C1      NOp   1
 RotChk:  IX=0 Diff= 1.46D-01
 Largest Abelian subgroup         C1      NOp   1
 Largest concise Abelian subgroup C1      NOp   1
                         Standard orientation:                         
 ---------------------------------------------------------------------
 Center     Atomic      Atomic             Coordinates (Angstroms)
 Number     Number       Type             X           Y           Z
 ---------------------------------------------------------------------
      1          6           0       -0.000025   -0.000000   -0.119902
      2          1           0        0.525195   -0.900237    0.239787
      3          1           0        0.517199    0.904854    0.239786
      4          1           0       -1.042243   -0.004615    0.239839
 ---------------------------------------------------------------------
 Rotational constants (GHZ):         258.5811261         258.5296181         153.8769822
 Leave Link  202 at Mon Oct 24 13:36:28 2022, MaxMem=  8053063680 cpu:               0.1 elap:               0.0
 (Enter /public3/home/scg5914/software-scg5914/g16/l301.exe)
 Standard basis: 6-311+G(d,p) (5D, 7F)
 Ernie: Thresh=  0.10000D-02 Tol=  0.10000D-05 Strict=F.
 There are    41 symmetry adapted cartesian basis functions of A   symmetry.
 There are    40 symmetry adapted basis functions of A   symmetry.
    40 basis functions,    60 primitive gaussians,    41 cartesian basis functions
     5 alpha electrons        5 beta electrons
       nuclear repulsion energy         9.5185065031 Hartrees.
 IExCor=  402 DFT=T Ex+Corr=B3LYP ExCW=0 ScaHFX=  0.200000
 ScaDFX=  0.800000  0.720000  1.000000  0.810000 ScalE2=  1.000000  1.000000
 IRadAn=      5 IRanWt=     -1 IRanGd=            0 ICorTp=0 IEmpDi=141
 NAtoms=    4 NActive=    4 NUniq=    4 SFac= 1.00D+00 NAtFMM=   60 NAOKFM=F Big=F
 Integral buffers will be    131072 words long.
 Raffenetti 2 integral format.
 Two-electron integral symmetry is turned on.
 R6Disp:  Grimme-D3(BJ) Dispersion energy=       -0.0013906935 Hartrees.
 Nuclear repulsion after empirical dispersion term =        9.5171158096 Hartrees.
 Leave Link  301 at Mon Oct 24 13:36:28 2022, MaxMem=  8053063680 cpu:               0.6 elap:               0.0
 (Enter /public3/home/scg5914/software-scg5914/g16/l302.exe)
 NPDir=0 NMtPBC=     1 NCelOv=     1 NCel=       1 NClECP=     1 NCelD=      1
         NCelK=      1 NCelE2=     1 NClLst=     1 CellRange=     0.0.
 One-electron integrals computed using PRISM.
 One-electron integral symmetry used in STVInt
 NBasis=    40 RedAO= T EigKep=  1.43D-02  NBF=    40
 NBsUse=    40 1.00D-06 EigRej= -1.00D+00 NBFU=    40
 Precomputing XC quadrature grid using
 IXCGrd= 4 IRadAn=           5 IRanWt=          -1 IRanGd=           0 AccXCQ= 0.00D+00.
 Generated NRdTot=       0 NPtTot=           0 NUsed=           0 NTot=          32
 NSgBfM=    41    41    41    41    41 MxSgAt=     4 MxSgA2=     4.
 Leave Link  302 at Mon Oct 24 13:36:28 2022, MaxMem=  8053063680 cpu:               2.2 elap:               0.1
 (Enter /public3/home/scg5914/software-scg5914/g16/l303.exe)
 DipDrv:  MaxL=1.
 Leave Link  303 at Mon Oct 24 13:36:28 2022, MaxMem=  8053063680 cpu:               0.2 elap:               0.0
 (Enter /public3/home/scg5914/software-scg5914/g16/l401.exe)
 Initial guess from the checkpoint file:  "dsgdb9nsd_000001-3.chk"
 B after Tr=     0.000000   -0.000000    0.000000
         Rot=    0.998664    0.000001   -0.000021    0.051665 Ang=   5.92 deg.
 Guess basis will be translated and rotated to current coordinates.
 JPrj=2 DoOrth=T DoCkMO=T.
 Generating alternative initial guess.
 ExpMin= 4.38D-02 ExpMax= 4.56D+03 ExpMxC= 6.82D+02 IAcc=3 IRadAn=         5 AccDes= 0.00D+00
 Harris functional with IExCor=  402 and IRadAn=       5 diagonalized for initial guess.
 HarFok:  IExCor=  402 AccDes= 0.00D+00 IRadAn=         5 IDoV= 1 UseB2=F ITyADJ=14
 ICtDFT=  3500011 ScaDFX=  1.000000  1.000000  1.000000  1.000000
 FoFCou: FMM=F IPFlag=           0 FMFlag=      100000 FMFlg1=           0
         NFxFlg=           0 DoJE=T BraDBF=F KetDBF=T FulRan=T
         wScrn=  0.000000 ICntrl=       500 IOpCl=  0 I1Cent=   200000004 NGrid=           0
         NMat0=    1 NMatS0=      1 NMatT0=    0 NMatD0=    1 NMtDS0=    0 NMtDT0=    0
 Petite list used in FoFCou.
 Harris En= -40.1118289979465    
 Leave Link  401 at Mon Oct 24 13:36:29 2022, MaxMem=  8053063680 cpu:               3.9 elap:               0.1
 (Enter /public3/home/scg5914/software-scg5914/g16/l502.exe)
 Keep R1 ints in memory in canonical form, NReq=27996358.
 FoFCou: FMM=F IPFlag=           0 FMFlag=           0 FMFlg1=           0
         NFxFlg=           0 DoJE=F BraDBF=F KetDBF=F FulRan=T
         wScrn=  0.000000 ICntrl=       600 IOpCl=  0 I1Cent=           0 NGrid=           0
         NMat0=    1 NMatS0=    820 NMatT0=    0 NMatD0=    1 NMtDS0=    0 NMtDT0=    0
 Symmetry not used in FoFCou.
 Two-electron integral symmetry not used.
 Closed shell SCF:
 Using DIIS extrapolation, IDIIS=  1040.
 NGot=  8053063680 LenX=  8052721718 LenY=  8052719596
 Requested convergence on RMS density matrix=1.00D-08 within 128 cycles.
 Requested convergence on MAX density matrix=1.00D-06.
 Requested convergence on             energy=1.00D-06.
 No special actions if energy rises.

 Cycle   1  Pass 1  IDiag  1:
 E= -39.8574435994744    
 DIIS: error= 9.68D-04 at cycle   1 NSaved=   1.
 NSaved= 1 IEnMin= 1 EnMin= -39.8574435994744     IErMin= 1 ErrMin= 9.68D-04
 ErrMax= 9.68D-04  0.00D+00 EMaxC= 1.00D-01 BMatC= 5.24D-05 BMatP= 5.24D-05
 IDIUse=3 WtCom= 9.90D-01 WtEn= 9.68D-03
 Coeff-Com:  0.100D+01
 Coeff-En:   0.100D+01
 Coeff:      0.100D+01
 Gap=     0.379 Goal=   None    Shift=    0.000
 RMSDP=2.19D-04 MaxDP=3.30D-03              OVMax= 5.45D-03

 Cycle   2  Pass 1  IDiag  1:
 E= -39.8574631624751     Delta-E=       -0.000019563001 Rises=F Damp=F
 DIIS: error= 1.05D-03 at cycle   2 NSaved=   2.
 NSaved= 2 IEnMin= 2 EnMin= -39.8574631624751     IErMin= 1 ErrMin= 9.68D-04
 ErrMax= 1.05D-03  0.00D+00 EMaxC= 1.00D-01 BMatC= 2.35D-05 BMatP= 5.24D-05
 IDIUse=3 WtCom= 9.90D-01 WtEn= 1.05D-02
 Coeff-Com:  0.357D+00 0.643D+00
 Coeff-En:   0.280D+00 0.720D+00
 Coeff:      0.356D+00 0.644D+00
 Gap=     0.113 Goal=   None    Shift=    0.000
 RMSDP=2.46D-04 MaxDP=5.71D-03 DE=-1.96D-05 OVMax= 6.70D-03

 Cycle   3  Pass 1  IDiag  1:
 E= -39.8574668505385     Delta-E=       -0.000003688063 Rises=F Damp=F
 DIIS: error= 9.68D-04 at cycle   3 NSaved=   3.
 NSaved= 3 IEnMin= 3 EnMin= -39.8574668505385     IErMin= 3 ErrMin= 9.68D-04
 ErrMax= 9.68D-04  0.00D+00 EMaxC= 1.00D-01 BMatC= 2.15D-05 BMatP= 2.35D-05
 IDIUse=3 WtCom= 9.90D-01 WtEn= 9.68D-03
 Coeff-Com:  0.232D-01 0.484D+00 0.493D+00
 Coeff-En:   0.000D+00 0.475D+00 0.525D+00
 Coeff:      0.230D-01 0.484D+00 0.494D+00
 Gap=     0.112 Goal=   None    Shift=    0.000
 RMSDP=1.23D-04 MaxDP=2.72D-03 DE=-3.69D-06 OVMax= 3.22D-03

 Cycle   4  Pass 1  IDiag  1:
 E= -39.8574924994331     Delta-E=       -0.000025648895 Rises=F Damp=F
 DIIS: error= 4.06D-05 at cycle   4 NSaved=   4.
 NSaved= 4 IEnMin= 4 EnMin= -39.8574924994331     IErMin= 4 ErrMin= 4.06D-05
 ErrMax= 4.06D-05  0.00D+00 EMaxC= 1.00D-01 BMatC= 3.31D-08 BMatP= 2.15D-05
 IDIUse=1 WtCom= 1.00D+00 WtEn= 0.00D+00
 Coeff-Com: -0.330D-02 0.105D+00 0.105D+00 0.793D+00
 Coeff:     -0.330D-02 0.105D+00 0.105D+00 0.793D+00
 Gap=     0.112 Goal=   None    Shift=    0.000
 RMSDP=1.21D-05 MaxDP=1.07D-04 DE=-2.56D-05 OVMax= 1.03D-04

 Cycle   5  Pass 1  IDiag  1:
 E= -39.8574925391342     Delta-E=       -0.000000039701 Rises=F Damp=F
 DIIS: error= 7.06D-06 at cycle   5 NSaved=   5.
 NSaved= 5 IEnMin= 5 EnMin= -39.8574925391342     IErMin= 5 ErrMin= 7.06D-06
 ErrMax= 7.06D-06  0.00D+00 EMaxC= 1.00D-01 BMatC= 1.11D-09 BMatP= 3.31D-08
 IDIUse=1 WtCom= 1.00D+00 WtEn= 0.00D+00
 Coeff-Com: -0.836D-03 0.623D-03-0.322D-02 0.134D+00 0.869D+00
 Coeff:     -0.836D-03 0.623D-03-0.322D-02 0.134D+00 0.869D+00
 Gap=     0.112 Goal=   None    Shift=    0.000
 RMSDP=1.84D-06 MaxDP=2.31D-05 DE=-3.97D-08 OVMax= 3.19D-05

 Cycle   6  Pass 1  IDiag  1:
 E= -39.8574925405035     Delta-E=       -0.000000001369 Rises=F Damp=F
 DIIS: error= 1.05D-06 at cycle   6 NSaved=   6.
 NSaved= 6 IEnMin= 6 EnMin= -39.8574925405035     IErMin= 6 ErrMin= 1.05D-06
 ErrMax= 1.05D-06  0.00D+00 EMaxC= 1.00D-01 BMatC= 2.15D-11 BMatP= 1.11D-09
 IDIUse=1 WtCom= 1.00D+00 WtEn= 0.00D+00
 Coeff-Com:  0.565D-04-0.180D-02-0.115D-02-0.137D-02 0.438D-01 0.960D+00
 Coeff:      0.565D-04-0.180D-02-0.115D-02-0.137D-02 0.438D-01 0.960D+00
 Gap=     0.112 Goal=   None    Shift=    0.000
 RMSDP=2.53D-07 MaxDP=4.74D-06 DE=-1.37D-09 OVMax= 5.61D-06

 Cycle   7  Pass 1  IDiag  1:
 E= -39.8574925405381     Delta-E=       -0.000000000035 Rises=F Damp=F
 DIIS: error= 1.16D-07 at cycle   7 NSaved=   7.
 NSaved= 7 IEnMin= 7 EnMin= -39.8574925405381     IErMin= 7 ErrMin= 1.16D-07
 ErrMax= 1.16D-07  0.00D+00 EMaxC= 1.00D-01 BMatC= 3.05D-13 BMatP= 2.15D-11
 IDIUse=1 WtCom= 1.00D+00 WtEn= 0.00D+00
 Coeff-Com:  0.127D-04-0.120D-03-0.182D-03-0.223D-02-0.110D-01 0.354D-02
 Coeff-Com:  0.101D+01
 Coeff:      0.127D-04-0.120D-03-0.182D-03-0.223D-02-0.110D-01 0.354D-02
 Coeff:      0.101D+01
 Gap=     0.112 Goal=   None    Shift=    0.000
 RMSDP=3.51D-08 MaxDP=4.31D-07 DE=-3.46D-11 OVMax= 6.07D-07

 Cycle   8  Pass 1  IDiag  1:
 E= -39.8574925405386     Delta-E=       -0.000000000000 Rises=F Damp=F
 DIIS: error= 2.72D-09 at cycle   8 NSaved=   8.
 NSaved= 8 IEnMin= 8 EnMin= -39.8574925405386     IErMin= 8 ErrMin= 2.72D-09
 ErrMax= 2.72D-09  0.00D+00 EMaxC= 1.00D-01 BMatC= 1.96D-16 BMatP= 3.05D-13
 IDIUse=1 WtCom= 1.00D+00 WtEn= 0.00D+00
 Coeff-Com: -0.467D-06 0.153D-04 0.159D-04 0.166D-03 0.412D-03-0.468D-02
 Coeff-Com: -0.668D-01 0.107D+01
 Coeff:     -0.467D-06 0.153D-04 0.159D-04 0.166D-03 0.412D-03-0.468D-02
 Coeff:     -0.668D-01 0.107D+01
 Gap=     0.112 Goal=   None    Shift=    0.000
 RMSDP=3.99D-09 MaxDP=5.38D-08 DE=-4.48D-13 OVMax= 6.14D-08

 SCF Done:  E(RB3LYP) =  -39.8574925405     A.U. after    8 cycles
            NFock=  8  Conv=0.40D-08     -V/T= 2.0055
 KE= 3.963932241482D+01 PE=-1.135433404600D+02 EE= 2.452940969507D+01
 Leave Link  502 at Mon Oct 24 13:36:29 2022, MaxMem=  8053063680 cpu:               6.4 elap:               0.2
 (Enter /public3/home/scg5914/software-scg5914/g16/l701.exe)
 ... and contract with generalized density number  0.
 Compute integral first derivatives.
 R6Disp: Adding Grimme-D3(BJ) dispersion energy 1st derivatives to the gradient.
 Leave Link  701 at Mon Oct 24 13:36:29 2022, MaxMem=  8053063680 cpu:               2.5 elap:               0.1
 (Enter /public3/home/scg5914/software-scg5914/g16/l702.exe)
 L702 exits ... SP integral derivatives will be done elsewhere.
 Leave Link  702 at Mon Oct 24 13:36:29 2022, MaxMem=  8053063680 cpu:               0.2 elap:               0.0
 (Enter /public3/home/scg5914/software-scg5914/g16/l703.exe)
 Integral derivatives from FoFJK, PRISM(SPDF).
 Compute integral first derivatives, UseDBF=F ICtDFT=           0.
 Calling FoFJK, ICntrl=      2127 FMM=F ISym2X=0 I1Cent= 0 IOpClX= 0 NMat=1 NMatS=1 NMatT=0.
 FoFJK:  IHMeth= 1 ICntrl=    2127 DoSepK=F KAlg= 0 I1Cent=           0 FoldK=F
 IRaf=         0 NMat=       1 IRICut=       1 DoRegI=T DoRafI=F ISym2E= 0 IDoP0=0 IntGTp=1.
 FoFCou: FMM=F IPFlag=           0 FMFlag=      100000 FMFlg1=         800
         NFxFlg=           0 DoJE=F BraDBF=F KetDBF=F FulRan=T
         wScrn=  0.000000 ICntrl=      2127 IOpCl=  0 I1Cent=           0 NGrid=           0
         NMat0=    1 NMatS0=      1 NMatT0=    0 NMatD0=    1 NMtDS0=    0 NMtDT0=    0
 Symmetry not used in FoFCou.
 Leave Link  703 at Mon Oct 24 13:36:29 2022, MaxMem=  8053063680 cpu:               4.7 elap:               0.2
 (Enter /public3/home/scg5914/software-scg5914/g16/l716.exe)
 Dipole        = 6.81194707D-05 9.01314526D-07 6.07163525D-01
 ***** Axes restored to original set *****
 -------------------------------------------------------------------
 Center     Atomic                   Forces (Hartrees/Bohr)
 Number     Number              X              Y              Z
 -------------------------------------------------------------------
      1        6          -0.000432317    0.000296597   -0.000753048
      2        1           0.000162181    0.000060136    0.000302969
      3        1           0.000002206   -0.000172673    0.000303125
      4        1           0.000267930   -0.000184059    0.000146954
 -------------------------------------------------------------------
 Cartesian Forces:  Max     0.000753048 RMS     0.000317887
 Leave Link  716 at Mon Oct 24 13:36:29 2022, MaxMem=  8053063680 cpu:               0.2 elap:               0.0
 (Enter /public3/home/scg5914/software-scg5914/g16/l103.exe)

 GradGradGradGradGradGradGradGradGradGradGradGradGradGradGradGradGradGrad
 Berny optimization.
 Using GEDIIS/GDIIS optimizer.
 FormGI is forming the generalized inverse of G from B-inverse, IUseBI=4.
 Internal  Forces:  Max     0.000545144 RMS     0.000297469
 Search for a local minimum.
 Step number   2 out of a maximum of   20
 All quantities printed in internal units (Hartrees-Bohrs-Radians)
 RMS Force = .29747D-03 SwitMx=.10000D-02 MixMth= 2
 Mixed Optimization -- En-DIIS/RFO-DIIS
 Update second derivatives using D2CorX and points    1    2
 DE= -2.11D-04 DEPred=-2.24D-04 R= 9.43D-01
 TightC=F SS=  1.41D+00  RLast= 4.14D-02 DXNew= 5.0454D-01 1.2426D-01
 Trust test= 9.43D-01 RLast= 4.14D-02 DXMaxT set to 3.00D-01
 The second derivative matrix:
                          R1        R2        R3        A1        A2
           R1           0.34307
           R2          -0.00281   0.34307
           R3          -0.00275  -0.00275   0.34320
           A1          -0.01627  -0.01627  -0.01627   0.15695
           A2          -0.00279  -0.00279  -0.00279  -0.00287   0.15917
           A3          -0.00280  -0.00280  -0.00279  -0.00287  -0.00084
           D1           0.02169   0.02169   0.02171   0.00031   0.00327
                          A3        D1
           A3           0.15916
           D1           0.00328   0.00704
 ITU=  1  0
 Use linear search instead of GDIIS.
     Eigenvalues ---    0.05231   0.16000   0.16104   0.33928   0.34588
     Eigenvalues ---    0.34588
 RFO step:  Lambda=-8.19819775D-06 EMin= 5.23080323D-02
 Quartic linear search produced a step of -0.04418.
 Iteration  1 RMS(Cart)=  0.00323760 RMS(Int)=  0.00002087
 Iteration  2 RMS(Cart)=  0.00001372 RMS(Int)=  0.00001543
 Iteration  3 RMS(Cart)=  0.00000000 RMS(Int)=  0.00001543
 ITry= 1 IFail=0 DXMaxC= 5.10D-03 DCOld= 1.00D+10 DXMaxT= 3.00D-01 DXLimC= 3.00D+00 Rises=F
 Variable       Old X    -DE/DX   Delta X   Delta X   Delta X     New X
                                 (Linear)    (Quad)   (Total)
    R1        2.08355  -0.00006  -0.00089   0.00108   0.00020   2.08375
    R2        2.08355  -0.00006  -0.00089   0.00108   0.00020   2.08375
    R3        2.08355  -0.00007  -0.00089   0.00107   0.00019   2.08374
    A1        1.91791  -0.00003  -0.00032  -0.00363  -0.00399   1.91393
    A2        1.91817  -0.00039  -0.00033  -0.00388  -0.00423   1.91394
    A3        1.91817  -0.00039  -0.00033  -0.00388  -0.00423   1.91394
    D1        2.11281  -0.00055  -0.00082  -0.00949  -0.01028   2.10253
         Item               Value     Threshold  Converged?
 Maximum Force            0.000545     0.000450     NO 
 RMS     Force            0.000297     0.000300     YES
 Maximum Displacement     0.005103     0.001800     NO 
 RMS     Displacement     0.003244     0.001200     NO 
 Predicted change in Energy=-4.432872D-06
 Lowest energy point so far.  Saving SCF results.
 GradGradGradGradGradGradGradGradGradGradGradGradGradGradGradGradGradGrad

 Leave Link  103 at Mon Oct 24 13:36:29 2022, MaxMem=  8053063680 cpu:               0.5 elap:               0.0
 (Enter /public3/home/scg5914/software-scg5914/g16/l202.exe)
                          Input orientation:                          
 ---------------------------------------------------------------------
 Center     Atomic      Atomic             Coordinates (Angstroms)
 Number     Number       Type             X           Y           Z
 ---------------------------------------------------------------------
      1          6           0       -0.012735    1.085831    0.007926
      2          1           0        0.000378   -0.016726   -0.001304
      3          1           0        1.021078    1.469237   -0.003025
      4          1           0       -0.531351    1.443114    0.913054
 ---------------------------------------------------------------------
                    Distance matrix (angstroms):
                    1          2          3          4
     1  C    0.000000
     2  H    1.102674   0.000000
     3  H    1.102674   1.802753   0.000000
     4  H    1.102665   1.802754   1.802753   0.000000
 Stoichiometry    CH3(1-)
 Framework group  C1[X(CH3)]
 Deg. of freedom     6
 Full point group                 C1      NOp   1
 RotChk:  IX=0 Diff= 3.18D-01
 Largest Abelian subgroup         C1      NOp   1
 Largest concise Abelian subgroup C1      NOp   1
                         Standard orientation:                         
 ---------------------------------------------------------------------
 Center     Atomic      Atomic             Coordinates (Angstroms)
 Number     Number       Type             X           Y           Z
 ---------------------------------------------------------------------
      1          6           0       -0.000002   -0.000001   -0.121370
      2          1           0        0.712289   -0.758917    0.242739
      3          1           0        0.301105    0.996317    0.242739
      4          1           0       -1.013380   -0.237396    0.242744
 ---------------------------------------------------------------------
 Rotational constants (GHZ):         258.1299917         258.1297210         154.2977360
 Leave Link  202 at Mon Oct 24 13:36:29 2022, MaxMem=  8053063680 cpu:               0.1 elap:               0.0
 (Enter /public3/home/scg5914/software-scg5914/g16/l301.exe)
 Standard basis: 6-311+G(d,p) (5D, 7F)
 Ernie: Thresh=  0.10000D-02 Tol=  0.10000D-05 Strict=F.
 There are    41 symmetry adapted cartesian basis functions of A   symmetry.
 There are    40 symmetry adapted basis functions of A   symmetry.
    40 basis functions,    60 primitive gaussians,    41 cartesian basis functions
     5 alpha electrons        5 beta electrons
       nuclear repulsion energy         9.5189040211 Hartrees.
 IExCor=  402 DFT=T Ex+Corr=B3LYP ExCW=0 ScaHFX=  0.200000
 ScaDFX=  0.800000  0.720000  1.000000  0.810000 ScalE2=  1.000000  1.000000
 IRadAn=      5 IRanWt=     -1 IRanGd=            0 ICorTp=0 IEmpDi=141
 NAtoms=    4 NActive=    4 NUniq=    4 SFac= 1.00D+00 NAtFMM=   60 NAOKFM=F Big=F
 Integral buffers will be    131072 words long.
 Raffenetti 2 integral format.
 Two-electron integral symmetry is turned on.
 R6Disp:  Grimme-D3(BJ) Dispersion energy=       -0.0013907976 Hartrees.
 Nuclear repulsion after empirical dispersion term =        9.5175132235 Hartrees.
 Leave Link  301 at Mon Oct 24 13:36:29 2022, MaxMem=  8053063680 cpu:               0.6 elap:               0.0
 (Enter /public3/home/scg5914/software-scg5914/g16/l302.exe)
 NPDir=0 NMtPBC=     1 NCelOv=     1 NCel=       1 NClECP=     1 NCelD=      1
         NCelK=      1 NCelE2=     1 NClLst=     1 CellRange=     0.0.
 One-electron integrals computed using PRISM.
 One-electron integral symmetry used in STVInt
 NBasis=    40 RedAO= T EigKep=  1.42D-02  NBF=    40
 NBsUse=    40 1.00D-06 EigRej= -1.00D+00 NBFU=    40
 Precomputing XC quadrature grid using
 IXCGrd= 4 IRadAn=           5 IRanWt=          -1 IRanGd=           0 AccXCQ= 0.00D+00.
 Generated NRdTot=       0 NPtTot=           0 NUsed=           0 NTot=          32
 NSgBfM=    41    41    41    41    41 MxSgAt=     4 MxSgA2=     4.
 Leave Link  302 at Mon Oct 24 13:36:29 2022, MaxMem=  8053063680 cpu:               2.1 elap:               0.1
 (Enter /public3/home/scg5914/software-scg5914/g16/l303.exe)
 DipDrv:  MaxL=1.
 Leave Link  303 at Mon Oct 24 13:36:29 2022, MaxMem=  8053063680 cpu:               0.2 elap:               0.0
 (Enter /public3/home/scg5914/software-scg5914/g16/l401.exe)
 Initial guess from the checkpoint file:  "dsgdb9nsd_000001-3.chk"
 B after Tr=     0.000000    0.000000    0.000000
         Rot=    0.993640   -0.000003    0.000026   -0.112602 Ang= -12.93 deg.
 Guess basis will be translated and rotated to current coordinates.
 JPrj=2 DoOrth=T DoCkMO=T.
 Leave Link  401 at Mon Oct 24 13:36:29 2022, MaxMem=  8053063680 cpu:               1.0 elap:               0.0
 (Enter /public3/home/scg5914/software-scg5914/g16/l502.exe)
 Keep R1 ints in memory in canonical form, NReq=27996358.
 FoFCou: FMM=F IPFlag=           0 FMFlag=           0 FMFlg1=           0
         NFxFlg=           0 DoJE=F BraDBF=F KetDBF=F FulRan=T
         wScrn=  0.000000 ICntrl=       600 IOpCl=  0 I1Cent=           0 NGrid=           0
         NMat0=    1 NMatS0=    820 NMatT0=    0 NMatD0=    1 NMtDS0=    0 NMtDT0=    0
 Symmetry not used in FoFCou.
 Two-electron integral symmetry not used.
 Closed shell SCF:
 Using DIIS extrapolation, IDIIS=  1040.
 NGot=  8053063680 LenX=  8052721718 LenY=  8052719596
 Requested convergence on RMS density matrix=1.00D-08 within 128 cycles.
 Requested convergence on MAX density matrix=1.00D-06.
 Requested convergence on             energy=1.00D-06.
 No special actions if energy rises.

 Cycle   1  Pass 1  IDiag  1:
 E= -39.8574953439048    
 DIIS: error= 4.14D-04 at cycle   1 NSaved=   1.
 NSaved= 1 IEnMin= 1 EnMin= -39.8574953439048     IErMin= 1 ErrMin= 4.14D-04
 ErrMax= 4.14D-04  0.00D+00 EMaxC= 1.00D-01 BMatC= 2.99D-06 BMatP= 2.99D-06
 IDIUse=3 WtCom= 9.96D-01 WtEn= 4.14D-03
 Coeff-Com:  0.100D+01
 Coeff-En:   0.100D+01
 Coeff:      0.100D+01
 Gap=     0.378 Goal=   None    Shift=    0.000
 RMSDP=5.78D-05 MaxDP=4.92D-04              OVMax= 1.22D-03

 Cycle   2  Pass 1  IDiag  1:
 E= -39.8574994500872     Delta-E=       -0.000004106182 Rises=F Damp=F
 DIIS: error= 6.79D-05 at cycle   2 NSaved=   2.
 NSaved= 2 IEnMin= 2 EnMin= -39.8574994500872     IErMin= 2 ErrMin= 6.79D-05
 ErrMax= 6.79D-05  0.00D+00 EMaxC= 1.00D-01 BMatC= 8.55D-08 BMatP= 2.99D-06
 IDIUse=1 WtCom= 1.00D+00 WtEn= 0.00D+00
 Coeff-Com:  0.172D-02 0.998D+00
 Coeff:      0.172D-02 0.998D+00
 Gap=     0.112 Goal=   None    Shift=    0.000
 RMSDP=2.07D-05 MaxDP=5.17D-04 DE=-4.11D-06 OVMax= 6.25D-04

 Cycle   3  Pass 1  IDiag  1:
 E= -39.8574992435337     Delta-E=        0.000000206553 Rises=F Damp=F
 DIIS: error= 1.11D-04 at cycle   3 NSaved=   3.
 NSaved= 3 IEnMin= 2 EnMin= -39.8574994500872     IErMin= 2 ErrMin= 6.79D-05
 ErrMax= 1.11D-04  0.00D+00 EMaxC= 1.00D-01 BMatC= 2.74D-07 BMatP= 8.55D-08
 IDIUse=3 WtCom= 4.87D-01 WtEn= 5.13D-01
 Coeff-Com: -0.341D-01 0.668D+00 0.366D+00
 Coeff-En:   0.000D+00 0.713D+00 0.287D+00
 Coeff:     -0.166D-01 0.691D+00 0.326D+00
 Gap=     0.112 Goal=   None    Shift=    0.000
 RMSDP=1.28D-05 MaxDP=2.89D-04 DE= 2.07D-07 OVMax= 3.43D-04

 Cycle   4  Pass 1  IDiag  1:
 E= -39.8574995689037     Delta-E=       -0.000000325370 Rises=F Damp=F
 DIIS: error= 6.02D-06 at cycle   4 NSaved=   4.
 NSaved= 4 IEnMin= 4 EnMin= -39.8574995689037     IErMin= 4 ErrMin= 6.02D-06
 ErrMax= 6.02D-06  0.00D+00 EMaxC= 1.00D-01 BMatC= 8.11D-10 BMatP= 8.55D-08
 IDIUse=1 WtCom= 1.00D+00 WtEn= 0.00D+00
 Coeff-Com: -0.545D-02 0.769D-01-0.185D-02 0.930D+00
 Coeff:     -0.545D-02 0.769D-01-0.185D-02 0.930D+00
 Gap=     0.112 Goal=   None    Shift=    0.000
 RMSDP=1.93D-06 MaxDP=1.90D-05 DE=-3.25D-07 OVMax= 1.69D-05

 Cycle   5  Pass 1  IDiag  1:
 E= -39.8574995699314     Delta-E=       -0.000000001028 Rises=F Damp=F
 DIIS: error= 1.46D-06 at cycle   5 NSaved=   5.
 NSaved= 5 IEnMin= 5 EnMin= -39.8574995699314     IErMin= 5 ErrMin= 1.46D-06
 ErrMax= 1.46D-06  0.00D+00 EMaxC= 1.00D-01 BMatC= 5.22D-11 BMatP= 8.11D-10
 IDIUse=1 WtCom= 1.00D+00 WtEn= 0.00D+00
 Coeff-Com:  0.219D-03-0.203D-01-0.271D-01 0.226D+00 0.821D+00
 Coeff:      0.219D-03-0.203D-01-0.271D-01 0.226D+00 0.821D+00
 Gap=     0.112 Goal=   None    Shift=    0.000
 RMSDP=1.86D-07 MaxDP=1.67D-06 DE=-1.03D-09 OVMax= 2.85D-06

 Cycle   6  Pass 1  IDiag  1:
 E= -39.8574995699882     Delta-E=       -0.000000000057 Rises=F Damp=F
 DIIS: error= 3.42D-07 at cycle   6 NSaved=   6.
 NSaved= 6 IEnMin= 6 EnMin= -39.8574995699882     IErMin= 6 ErrMin= 3.42D-07
 ErrMax= 3.42D-07  0.00D+00 EMaxC= 1.00D-01 BMatC= 2.13D-12 BMatP= 5.22D-11
 IDIUse=1 WtCom= 1.00D+00 WtEn= 0.00D+00
 Coeff-Com:  0.121D-03-0.284D-02-0.473D-02 0.918D-02 0.240D-01 0.974D+00
 Coeff:      0.121D-03-0.284D-02-0.473D-02 0.918D-02 0.240D-01 0.974D+00
 Gap=     0.112 Goal=   None    Shift=    0.000
 RMSDP=4.03D-08 MaxDP=5.87D-07 DE=-5.69D-11 OVMax= 8.49D-07

 Cycle   7  Pass 1  IDiag  1:
 E= -39.8574995699912     Delta-E=       -0.000000000003 Rises=F Damp=F
 DIIS: error= 1.42D-08 at cycle   7 NSaved=   7.
 NSaved= 7 IEnMin= 7 EnMin= -39.8574995699912     IErMin= 7 ErrMin= 1.42D-08
 ErrMax= 1.42D-08  0.00D+00 EMaxC= 1.00D-01 BMatC= 3.99D-15 BMatP= 2.13D-12
 IDIUse=1 WtCom= 1.00D+00 WtEn= 0.00D+00
 Coeff-Com: -0.384D-06 0.133D-03 0.245D-03-0.134D-02-0.960D-02 0.167D-01
 Coeff-Com:  0.994D+00
 Coeff:     -0.384D-06 0.133D-03 0.245D-03-0.134D-02-0.960D-02 0.167D-01
 Coeff:      0.994D+00
 Gap=     0.112 Goal=   None    Shift=    0.000
 RMSDP=4.91D-09 MaxDP=1.05D-07 DE=-2.96D-12 OVMax= 1.11D-07

 SCF Done:  E(RB3LYP) =  -39.8574995700     A.U. after    7 cycles
            NFock=  7  Conv=0.49D-08     -V/T= 2.0055
 KE= 3.964051193086D+01 PE=-1.135467297731D+02 EE= 2.453120504880D+01
 Leave Link  502 at Mon Oct 24 13:36:30 2022, MaxMem=  8053063680 cpu:               6.4 elap:               0.2
 (Enter /public3/home/scg5914/software-scg5914/g16/l701.exe)
 ... and contract with generalized density number  0.
 Compute integral first derivatives.
 R6Disp: Adding Grimme-D3(BJ) dispersion energy 1st derivatives to the gradient.
 Leave Link  701 at Mon Oct 24 13:36:30 2022, MaxMem=  8053063680 cpu:               4.4 elap:               0.2
 (Enter /public3/home/scg5914/software-scg5914/g16/l702.exe)
 L702 exits ... SP integral derivatives will be done elsewhere.
 Leave Link  702 at Mon Oct 24 13:36:30 2022, MaxMem=  8053063680 cpu:               0.2 elap:               0.0
 (Enter /public3/home/scg5914/software-scg5914/g16/l703.exe)
 Integral derivatives from FoFJK, PRISM(SPDF).
 Compute integral first derivatives, UseDBF=F ICtDFT=           0.
 Calling FoFJK, ICntrl=      2127 FMM=F ISym2X=0 I1Cent= 0 IOpClX= 0 NMat=1 NMatS=1 NMatT=0.
 FoFJK:  IHMeth= 1 ICntrl=    2127 DoSepK=F KAlg= 0 I1Cent=           0 FoldK=F
 IRaf=         0 NMat=       1 IRICut=       1 DoRegI=T DoRafI=F ISym2E= 0 IDoP0=0 IntGTp=1.
 FoFCou: FMM=F IPFlag=           0 FMFlag=      100000 FMFlg1=         800
         NFxFlg=           0 DoJE=F BraDBF=F KetDBF=F FulRan=T
         wScrn=  0.000000 ICntrl=      2127 IOpCl=  0 I1Cent=           0 NGrid=           0
         NMat0=    1 NMatS0=      1 NMatT0=    0 NMatD0=    1 NMtDS0=    0 NMtDT0=    0
 Symmetry not used in FoFCou.
 Leave Link  703 at Mon Oct 24 13:36:30 2022, MaxMem=  8053063680 cpu:               4.9 elap:               0.2
 (Enter /public3/home/scg5914/software-scg5914/g16/l716.exe)
 Dipole        = 6.63679451D-07 1.76807713D-07 6.14830011D-01
 ***** Axes restored to original set *****
 -------------------------------------------------------------------
 Center     Atomic                   Forces (Hartrees/Bohr)
 Number     Number              X              Y              Z
 -------------------------------------------------------------------
      1        6          -0.000296935    0.000203518   -0.000506578
      2        1           0.000087649   -0.000141257    0.000145003
      3        1           0.000163329   -0.000030544    0.000145074
      4        1           0.000045957   -0.000031717    0.000216500
 -------------------------------------------------------------------
 Cartesian Forces:  Max     0.000506578 RMS     0.000210855
 Leave Link  716 at Mon Oct 24 13:36:30 2022, MaxMem=  8053063680 cpu:               0.2 elap:               0.0
 (Enter /public3/home/scg5914/software-scg5914/g16/l103.exe)

 GradGradGradGradGradGradGradGradGradGradGradGradGradGradGradGradGradGrad
 Berny optimization.
 Using GEDIIS/GDIIS optimizer.
 FormGI is forming the generalized inverse of G from B-inverse, IUseBI=4.
 Internal  Forces:  Max     0.000267550 RMS     0.000171033
 Search for a local minimum.
 Step number   3 out of a maximum of   20
 All quantities printed in internal units (Hartrees-Bohrs-Radians)
 RMS Force = .17103D-03 SwitMx=.10000D-02 MixMth= 2
 Mixed Optimization -- En-DIIS/RFO-DIIS
 Swapping is turned off.
 Update second derivatives using D2CorX and points    1    2    3
 DE= -7.03D-06 DEPred=-4.43D-06 R= 1.59D+00
 TightC=F SS=  1.41D+00  RLast= 1.25D-02 DXNew= 5.0454D-01 3.7648D-02
 Trust test= 1.59D+00 RLast= 1.25D-02 DXMaxT set to 3.00D-01
 The second derivative matrix:
                          R1        R2        R3        A1        A2
           R1           0.34704
           R2           0.00117   0.34707
           R3           0.00150   0.00151   0.34774
           A1          -0.01557  -0.01559  -0.01583   0.11447
           A2           0.00356   0.00355   0.00366  -0.04950   0.11577
           A3           0.00354   0.00354   0.00365  -0.04948  -0.04421
           D1           0.02962   0.02963   0.03015  -0.00376   0.00978
                          A3        D1
           A3           0.11581
           D1           0.00977   0.02210
 ITU=  1  1  0
     Eigenvalues ---    0.02496   0.15185   0.16000   0.34587   0.34588
     Eigenvalues ---    0.35592
 En-DIIS/RFO-DIIS/Sim-DIIS IScMMF=       -3 using points:     3    2
 RFO step:  Lambda=-5.72066641D-06.
 NNeg= 0 NGDIIS= 2 SimSw=  2.50D-03 Rises=F DC= -7.03D-06 SmlDif=  1.00D-05
 NRisDI= 0 DoIntr=F SqrtH=F CThrHd= 10.0 CDAdj=  3.0
 RMS Error=  0.5579547512D-02 NUsed= 2 OKEnD=F EnDIS=F
 InvSVX:  RCond= 3.93D-05 Info=           0 Equed=N FErr=  5.97D-15 BErr=  6.23D-17
 DidBck=F Rises=F RFO-DIIS coefs:    2.16796   -1.16796
 Iteration  1 RMS(Cart)=  0.00355717 RMS(Int)=  0.00004909
 Iteration  2 RMS(Cart)=  0.00001950 RMS(Int)=  0.00004479
 Iteration  3 RMS(Cart)=  0.00000000 RMS(Int)=  0.00004479
 ITry= 1 IFail=0 DXMaxC= 6.11D-03 DCOld= 1.00D+10 DXMaxT= 3.00D-01 DXLimC= 3.00D+00 Rises=F
 Variable       Old X    -DE/DX   Delta X   Delta X   Delta X     New X
                                 (Linear)    (Quad)   (Total)
    R1        2.08375   0.00014   0.00023   0.00108   0.00131   2.08506
    R2        2.08375   0.00014   0.00023   0.00108   0.00131   2.08506
    R3        2.08374   0.00015   0.00022   0.00112   0.00133   2.08507
    A1        1.91393  -0.00003  -0.00465  -0.00008  -0.00481   1.90911
    A2        1.91394  -0.00019  -0.00494   0.00009  -0.00489   1.90905
    A3        1.91394  -0.00019  -0.00494   0.00009  -0.00489   1.90905
    D1        2.10253  -0.00027  -0.01201   0.00002  -0.01193   2.09060
         Item               Value     Threshold  Converged?
 Maximum Force            0.000268     0.000450     YES
 RMS     Force            0.000171     0.000300     YES
 Maximum Displacement     0.006106     0.001800     NO 
 RMS     Displacement     0.003565     0.001200     NO 
 Predicted change in Energy=-2.855542D-06
 Lowest energy point so far.  Saving SCF results.
 GradGradGradGradGradGradGradGradGradGradGradGradGradGradGradGradGradGrad

 Leave Link  103 at Mon Oct 24 13:36:30 2022, MaxMem=  8053063680 cpu:               0.3 elap:               0.0
 (Enter /public3/home/scg5914/software-scg5914/g16/l202.exe)
                          Input orientation:                          
 ---------------------------------------------------------------------
 Center     Atomic      Atomic             Coordinates (Angstroms)
 Number     Number       Type             X           Y           Z
 ---------------------------------------------------------------------
      1          6           0       -0.014647    1.087141    0.004695
      2          1           0        0.001180   -0.016101    0.000107
      3          1           0        1.020784    1.468267   -0.001613
      4          1           0       -0.529949    1.442150    0.913463
 ---------------------------------------------------------------------
                    Distance matrix (angstroms):
                    1          2          3          4
     1  C    0.000000
     2  H    1.103365   0.000000
     3  H    1.103365   1.800818   0.000000
     4  H    1.103371   1.800782   1.800783   0.000000
 Stoichiometry    CH3(1-)
 Framework group  C1[X(CH3)]
 Deg. of freedom     6
 Full point group                 C1      NOp   1
 RotChk:  IX=3 Diff= 1.78D+00
 Largest Abelian subgroup         C1      NOp   1
 Largest concise Abelian subgroup C1      NOp   1
                         Standard orientation:                         
 ---------------------------------------------------------------------
 Center     Atomic      Atomic             Coordinates (Angstroms)
 Number     Number       Type             X           Y           Z
 ---------------------------------------------------------------------
      1          6           0       -0.000000    0.000007   -0.123137
      2          1           0        0.891709    0.534609    0.246280
      3          1           0       -0.908863    0.504896    0.246280
      4          1           0        0.017156   -1.039548    0.246265
 ---------------------------------------------------------------------
 Rotational constants (GHZ):         257.3685320         257.3573134         154.6335917
 Leave Link  202 at Mon Oct 24 13:36:30 2022, MaxMem=  8053063680 cpu:               0.1 elap:               0.0
 (Enter /public3/home/scg5914/software-scg5914/g16/l301.exe)
 Standard basis: 6-311+G(d,p) (5D, 7F)
 Ernie: Thresh=  0.10000D-02 Tol=  0.10000D-05 Strict=F.
 There are    41 symmetry adapted cartesian basis functions of A   symmetry.
 There are    40 symmetry adapted basis functions of A   symmetry.
    40 basis functions,    60 primitive gaussians,    41 cartesian basis functions
     5 alpha electrons        5 beta electrons
       nuclear repulsion energy         9.5144113464 Hartrees.
 IExCor=  402 DFT=T Ex+Corr=B3LYP ExCW=0 ScaHFX=  0.200000
 ScaDFX=  0.800000  0.720000  1.000000  0.810000 ScalE2=  1.000000  1.000000
 IRadAn=      5 IRanWt=     -1 IRanGd=            0 ICorTp=0 IEmpDi=141
 NAtoms=    4 NActive=    4 NUniq=    4 SFac= 1.00D+00 NAtFMM=   60 NAOKFM=F Big=F
 Integral buffers will be    131072 words long.
 Raffenetti 2 integral format.
 Two-electron integral symmetry is turned on.
 R6Disp:  Grimme-D3(BJ) Dispersion energy=       -0.0013909018 Hartrees.
 Nuclear repulsion after empirical dispersion term =        9.5130204446 Hartrees.
 Leave Link  301 at Mon Oct 24 13:36:30 2022, MaxMem=  8053063680 cpu:               0.6 elap:               0.0
 (Enter /public3/home/scg5914/software-scg5914/g16/l302.exe)
 NPDir=0 NMtPBC=     1 NCelOv=     1 NCel=       1 NClECP=     1 NCelD=      1
         NCelK=      1 NCelE2=     1 NClLst=     1 CellRange=     0.0.
 One-electron integrals computed using PRISM.
 One-electron integral symmetry used in STVInt
 NBasis=    40 RedAO= T EigKep=  1.41D-02  NBF=    40
 NBsUse=    40 1.00D-06 EigRej= -1.00D+00 NBFU=    40
 Precomputing XC quadrature grid using
 IXCGrd= 4 IRadAn=           5 IRanWt=          -1 IRanGd=           0 AccXCQ= 0.00D+00.
 Generated NRdTot=       0 NPtTot=           0 NUsed=           0 NTot=          32
 NSgBfM=    41    41    41    41    41 MxSgAt=     4 MxSgA2=     4.
 Leave Link  302 at Mon Oct 24 13:36:30 2022, MaxMem=  8053063680 cpu:               2.1 elap:               0.1
 (Enter /public3/home/scg5914/software-scg5914/g16/l303.exe)
 DipDrv:  MaxL=1.
 Leave Link  303 at Mon Oct 24 13:36:30 2022, MaxMem=  8053063680 cpu:               0.2 elap:               0.0
 (Enter /public3/home/scg5914/software-scg5914/g16/l401.exe)
 Initial guess from the checkpoint file:  "dsgdb9nsd_000001-3.chk"
 B after Tr=    -0.000000   -0.000000   -0.000000
         Rot=    0.778457   -0.000009    0.000007   -0.627698 Ang= -77.76 deg.
 Guess basis will be translated and rotated to current coordinates.
 JPrj=2 DoOrth=T DoCkMO=T.
 Leave Link  401 at Mon Oct 24 13:36:30 2022, MaxMem=  8053063680 cpu:               1.0 elap:               0.0
 (Enter /public3/home/scg5914/software-scg5914/g16/l502.exe)
 Keep R1 ints in memory in canonical form, NReq=27996358.
 FoFCou: FMM=F IPFlag=           0 FMFlag=           0 FMFlg1=           0
         NFxFlg=           0 DoJE=F BraDBF=F KetDBF=F FulRan=T
         wScrn=  0.000000 ICntrl=       600 IOpCl=  0 I1Cent=           0 NGrid=           0
         NMat0=    1 NMatS0=    820 NMatT0=    0 NMatD0=    1 NMtDS0=    0 NMtDT0=    0
 Symmetry not used in FoFCou.
 Two-electron integral symmetry not used.
 Closed shell SCF:
 Using DIIS extrapolation, IDIIS=  1040.
 NGot=  8053063680 LenX=  8052721718 LenY=  8052719596
 Requested convergence on RMS density matrix=1.00D-08 within 128 cycles.
 Requested convergence on MAX density matrix=1.00D-06.
 Requested convergence on             energy=1.00D-06.
 No special actions if energy rises.

 Cycle   1  Pass 1  IDiag  1:
 E= -39.8574958863604    
 DIIS: error= 4.77D-04 at cycle   1 NSaved=   1.
 NSaved= 1 IEnMin= 1 EnMin= -39.8574958863604     IErMin= 1 ErrMin= 4.77D-04
 ErrMax= 4.77D-04  0.00D+00 EMaxC= 1.00D-01 BMatC= 4.39D-06 BMatP= 4.39D-06
 IDIUse=3 WtCom= 9.95D-01 WtEn= 4.77D-03
 Coeff-Com:  0.100D+01
 Coeff-En:   0.100D+01
 Coeff:      0.100D+01
 Gap=     0.378 Goal=   None    Shift=    0.000
 RMSDP=7.53D-05 MaxDP=7.30D-04              OVMax= 1.44D-03

 Cycle   2  Pass 1  IDiag  1:
 E= -39.8575017124192     Delta-E=       -0.000005826059 Rises=F Damp=F
 DIIS: error= 1.36D-04 at cycle   2 NSaved=   2.
 NSaved= 2 IEnMin= 2 EnMin= -39.8575017124192     IErMin= 2 ErrMin= 1.36D-04
 ErrMax= 1.36D-04  0.00D+00 EMaxC= 1.00D-01 BMatC= 3.76D-07 BMatP= 4.39D-06
 IDIUse=3 WtCom= 9.99D-01 WtEn= 1.36D-03
 Coeff-Com:  0.850D-01 0.915D+00
 Coeff-En:   0.000D+00 0.100D+01
 Coeff:      0.849D-01 0.915D+00
 Gap=     0.113 Goal=   None    Shift=    0.000
 RMSDP=4.21D-05 MaxDP=1.03D-03 DE=-5.83D-06 OVMax= 1.23D-03

 Cycle   3  Pass 1  IDiag  1:
 E= -39.8575009082672     Delta-E=        0.000000804152 Rises=F Damp=F
 DIIS: error= 2.20D-04 at cycle   3 NSaved=   3.
 NSaved= 3 IEnMin= 2 EnMin= -39.8575017124192     IErMin= 2 ErrMin= 1.36D-04
 ErrMax= 2.20D-04  0.00D+00 EMaxC= 1.00D-01 BMatC= 1.07D-06 BMatP= 3.76D-07
 IDIUse=3 WtCom= 4.03D-01 WtEn= 5.97D-01
 Coeff-Com: -0.364D-01 0.647D+00 0.389D+00
 Coeff-En:   0.000D+00 0.691D+00 0.309D+00
 Coeff:     -0.147D-01 0.673D+00 0.342D+00
 Gap=     0.112 Goal=   None    Shift=    0.000
 RMSDP=2.47D-05 MaxDP=5.44D-04 DE= 8.04D-07 OVMax= 6.45D-04

 Cycle   4  Pass 1  IDiag  1:
 E= -39.8575021844360     Delta-E=       -0.000001276169 Rises=F Damp=F
 DIIS: error= 2.14D-05 at cycle   4 NSaved=   4.
 NSaved= 4 IEnMin= 4 EnMin= -39.8575021844360     IErMin= 4 ErrMin= 2.14D-05
 ErrMax= 2.14D-05  0.00D+00 EMaxC= 1.00D-01 BMatC= 9.52D-09 BMatP= 3.76D-07
 IDIUse=1 WtCom= 1.00D+00 WtEn= 0.00D+00
 Coeff-Com: -0.838D-02 0.125D+00-0.643D-02 0.890D+00
 Coeff:     -0.838D-02 0.125D+00-0.643D-02 0.890D+00
 Gap=     0.112 Goal=   None    Shift=    0.000
 RMSDP=2.85D-06 MaxDP=3.41D-05 DE=-1.28D-06 OVMax= 4.76D-05

 Cycle   5  Pass 1  IDiag  1:
 E= -39.8575021957057     Delta-E=       -0.000000011270 Rises=F Damp=F
 DIIS: error= 1.86D-06 at cycle   5 NSaved=   5.
 NSaved= 5 IEnMin= 5 EnMin= -39.8575021957057     IErMin= 5 ErrMin= 1.86D-06
 ErrMax= 1.86D-06  0.00D+00 EMaxC= 1.00D-01 BMatC= 8.09D-11 BMatP= 9.52D-09
 IDIUse=1 WtCom= 1.00D+00 WtEn= 0.00D+00
 Coeff-Com:  0.749D-03-0.252D-01-0.306D-01 0.137D+00 0.918D+00
 Coeff:      0.749D-03-0.252D-01-0.306D-01 0.137D+00 0.918D+00
 Gap=     0.112 Goal=   None    Shift=    0.000
 RMSDP=2.74D-07 MaxDP=2.23D-06 DE=-1.13D-08 OVMax= 4.30D-06

 Cycle   6  Pass 1  IDiag  1:
 E= -39.8575021957971     Delta-E=       -0.000000000091 Rises=F Damp=F
 DIIS: error= 3.23D-07 at cycle   6 NSaved=   6.
 NSaved= 6 IEnMin= 6 EnMin= -39.8575021957971     IErMin= 6 ErrMin= 3.23D-07
 ErrMax= 3.23D-07  0.00D+00 EMaxC= 1.00D-01 BMatC= 2.10D-12 BMatP= 8.09D-11
 IDIUse=1 WtCom= 1.00D+00 WtEn= 0.00D+00
 Coeff-Com:  0.925D-04-0.194D-02-0.333D-02 0.888D-02 0.229D-01 0.973D+00
 Coeff:      0.925D-04-0.194D-02-0.333D-02 0.888D-02 0.229D-01 0.973D+00
 Gap=     0.112 Goal=   None    Shift=    0.000
 RMSDP=4.08D-08 MaxDP=6.30D-07 DE=-9.14D-11 OVMax= 8.79D-07

 Cycle   7  Pass 1  IDiag  1:
 E= -39.8575021957999     Delta-E=       -0.000000000003 Rises=F Damp=F
 DIIS: error= 1.25D-08 at cycle   7 NSaved=   7.
 NSaved= 7 IEnMin= 7 EnMin= -39.8575021957999     IErMin= 7 ErrMin= 1.25D-08
 ErrMax= 1.25D-08  0.00D+00 EMaxC= 1.00D-01 BMatC= 2.90D-15 BMatP= 2.10D-12
 IDIUse=1 WtCom= 1.00D+00 WtEn= 0.00D+00
 Coeff-Com: -0.249D-05 0.161D-03 0.269D-03-0.120D-02-0.920D-02 0.314D-02
 Coeff-Com:  0.101D+01
 Coeff:     -0.249D-05 0.161D-03 0.269D-03-0.120D-02-0.920D-02 0.314D-02
 Coeff:      0.101D+01
 Gap=     0.112 Goal=   None    Shift=    0.000
 RMSDP=6.09D-09 MaxDP=1.17D-07 DE=-2.86D-12 OVMax= 1.20D-07

 SCF Done:  E(RB3LYP) =  -39.8575021958     A.U. after    7 cycles
            NFock=  7  Conv=0.61D-08     -V/T= 2.0055
 KE= 3.963984380386D+01 PE=-1.135391477024D+02 EE= 2.452878125817D+01
 Leave Link  502 at Mon Oct 24 13:36:30 2022, MaxMem=  8053063680 cpu:               6.0 elap:               0.2
 (Enter /public3/home/scg5914/software-scg5914/g16/l701.exe)
 ... and contract with generalized density number  0.
 Compute integral first derivatives.
 R6Disp: Adding Grimme-D3(BJ) dispersion energy 1st derivatives to the gradient.
 Leave Link  701 at Mon Oct 24 13:36:31 2022, MaxMem=  8053063680 cpu:               2.2 elap:               0.1
 (Enter /public3/home/scg5914/software-scg5914/g16/l702.exe)
 L702 exits ... SP integral derivatives will be done elsewhere.
 Leave Link  702 at Mon Oct 24 13:36:31 2022, MaxMem=  8053063680 cpu:               0.2 elap:               0.0
 (Enter /public3/home/scg5914/software-scg5914/g16/l703.exe)
 Integral derivatives from FoFJK, PRISM(SPDF).
 Compute integral first derivatives, UseDBF=F ICtDFT=           0.
 Calling FoFJK, ICntrl=      2127 FMM=F ISym2X=0 I1Cent= 0 IOpClX= 0 NMat=1 NMatS=1 NMatT=0.
 FoFJK:  IHMeth= 1 ICntrl=    2127 DoSepK=F KAlg= 0 I1Cent=           0 FoldK=F
 IRaf=         0 NMat=       1 IRICut=       1 DoRegI=T DoRafI=F ISym2E= 0 IDoP0=0 IntGTp=1.
 FoFCou: FMM=F IPFlag=           0 FMFlag=      100000 FMFlg1=         800
         NFxFlg=           0 DoJE=F BraDBF=F KetDBF=F FulRan=T
         wScrn=  0.000000 ICntrl=      2127 IOpCl=  0 I1Cent=           0 NGrid=           0
         NMat0=    1 NMatS0=      1 NMatT0=    0 NMatD0=    1 NMtDS0=    0 NMtDT0=    0
 Symmetry not used in FoFCou.
 Leave Link  703 at Mon Oct 24 13:36:31 2022, MaxMem=  8053063680 cpu:               4.9 elap:               0.2
 (Enter /public3/home/scg5914/software-scg5914/g16/l716.exe)
 Dipole        = 7.92350124D-07-1.55828179D-05 6.22946909D-01
 ***** Axes restored to original set *****
 -------------------------------------------------------------------
 Center     Atomic                   Forces (Hartrees/Bohr)
 Number     Number              X              Y              Z
 -------------------------------------------------------------------
      1        6          -0.000014514    0.000009989   -0.000012680
      2        1          -0.000000102   -0.000041685   -0.000007550
      3        1           0.000038732    0.000014971   -0.000007396
      4        1          -0.000024116    0.000016725    0.000027626
 -------------------------------------------------------------------
 Cartesian Forces:  Max     0.000041685 RMS     0.000021736
 Leave Link  716 at Mon Oct 24 13:36:31 2022, MaxMem=  8053063680 cpu:               0.2 elap:               0.0
 (Enter /public3/home/scg5914/software-scg5914/g16/l103.exe)

 GradGradGradGradGradGradGradGradGradGradGradGradGradGradGradGradGradGrad
 Berny optimization.
 Using GEDIIS/GDIIS optimizer.
 FormGI is forming the generalized inverse of G from B-inverse, IUseBI=4.
 Internal  Forces:  Max     0.000041719 RMS     0.000027740
 Search for a local minimum.
 Step number   4 out of a maximum of   20
 All quantities printed in internal units (Hartrees-Bohrs-Radians)
 RMS Force = .27740D-04 SwitMx=.10000D-02 MixMth= 2
 Mixed Optimization -- En-DIIS/RFO-DIIS
 Swapping is turned off.
 Update second derivatives using D2CorX and points    1    2    3    4
 DE= -2.63D-06 DEPred=-2.86D-06 R= 9.20D-01
 TightC=F SS=  1.41D+00  RLast= 1.48D-02 DXNew= 5.0454D-01 4.4337D-02
 Trust test= 9.20D-01 RLast= 1.48D-02 DXMaxT set to 3.00D-01
 The second derivative matrix:
                          R1        R2        R3        A1        A2
           R1           0.33875
           R2          -0.00712   0.33877
           R3          -0.00715  -0.00714   0.33874
           A1           0.00163   0.00162   0.00141   0.11192
           A2           0.01190   0.01189   0.01189  -0.05050   0.11620
           A3           0.01189   0.01188   0.01188  -0.05047  -0.04379
           D1           0.01679   0.01679   0.01708  -0.00136   0.01142
                          A3        D1
           A3           0.11622
           D1           0.01140   0.02008
 ITU=  1  1  1  0
     Eigenvalues ---    0.02544   0.15193   0.16000   0.33097   0.34588
     Eigenvalues ---    0.34590
 En-DIIS/RFO-DIIS/Sim-DIIS IScMMF=       -3 using points:     4    3    2
 RFO step:  Lambda=-1.57166858D-08.
 NNeg= 0 NGDIIS= 3 SimSw=  2.50D-01 Rises=F DC= -2.63D-06 SmlDif=  1.00D-05
 NRisDI= 0 DoIntr=F SqrtH=F CThrHd= 10.0 CDAdj=  3.0
 RMS Error=  0.1152962678D-03 NUsed= 3 OKEnD=F EnDIS=F
 InvSVX:  RCond= 1.19D-07 Info=           0 Equed=N FErr=  1.71D-13 BErr=  6.54D-17
 DidBck=F Rises=F RFO-DIIS coefs:    1.10508   -0.25171    0.14663
 Iteration  1 RMS(Cart)=  0.00013039 RMS(Int)=  0.00000616
 Iteration  2 RMS(Cart)=  0.00000001 RMS(Int)=  0.00000616
 ITry= 1 IFail=0 DXMaxC= 1.51D-04 DCOld= 1.00D+10 DXMaxT= 3.00D-01 DXLimC= 3.00D+00 Rises=F
 Variable       Old X    -DE/DX   Delta X   Delta X   Delta X     New X
                                 (Linear)    (Quad)   (Total)
    R1        2.08506   0.00004   0.00011   0.00000   0.00011   2.08517
    R2        2.08506   0.00004   0.00011   0.00000   0.00011   2.08517
    R3        2.08507   0.00004   0.00011  -0.00001   0.00010   2.08517
    A1        1.90911  -0.00000   0.00008  -0.00002   0.00007   1.90919
    A2        1.90905   0.00001   0.00011   0.00001   0.00013   1.90917
    A3        1.90905   0.00001   0.00011   0.00001   0.00012   1.90917
    D1        2.09060   0.00001   0.00025  -0.00000   0.00024   2.09084
         Item               Value     Threshold  Converged?
 Maximum Force            0.000042     0.000450     YES
 RMS     Force            0.000028     0.000300     YES
 Maximum Displacement     0.000151     0.001800     YES
 RMS     Displacement     0.000130     0.001200     YES
 Predicted change in Energy=-8.621789D-09
 Optimization completed.
    -- Stationary point found.
                           ----------------------------
                           !   Optimized Parameters   !
                           ! (Angstroms and Degrees)  !
 --------------------------                            --------------------------
 ! Name  Definition              Value          Derivative Info.                !
 --------------------------------------------------------------------------------
 ! R1    R(1,2)                  1.1034         -DE/DX =    0.0                 !
 ! R2    R(1,3)                  1.1034         -DE/DX =    0.0                 !
 ! R3    R(1,4)                  1.1034         -DE/DX =    0.0                 !
 ! A1    A(2,1,3)              109.3841         -DE/DX =    0.0                 !
 ! A2    A(2,1,4)              109.3804         -DE/DX =    0.0                 !
 ! A3    A(3,1,4)              109.3805         -DE/DX =    0.0                 !
 ! D1    D(2,1,4,3)            119.7827         -DE/DX =    0.0                 !
 --------------------------------------------------------------------------------
 Lowest energy point so far.  Saving SCF results.
 Largest change from initial coordinates is atom    3       1.395 Angstoms.
 GradGradGradGradGradGradGradGradGradGradGradGradGradGradGradGradGradGrad

 Leave Link  103 at Mon Oct 24 13:36:31 2022, MaxMem=  8053063680 cpu:               0.4 elap:               0.0
 (Enter /public3/home/scg5914/software-scg5914/g16/l202.exe)
                          Input orientation:                          
 ---------------------------------------------------------------------
[...]
       /RESON  / : Allow strongly delocalized NBO set

 Analyzing the SCF density

 Job title: dsgdb9nsd_000001-3                                              

 Storage needed:      5080 in NPA,      6558 in NBO (8053063568 available)
 GSVD:  LWork=         456 too small for GESVD, short by        1634 words or        1634 for optimal perf.


 NATURAL POPULATIONS:  Natural atomic orbital occupancies 
                                                          
   NAO  Atom  No  lang   Type(AO)    Occupancy      Energy
 ----------------------------------------------------------
     1    C    1  S      Cor( 1S)     1.99947      -9.76866
     2    C    1  S      Val( 2S)     1.26823      -0.04653
     3    C    1  S      Ryd( 3S)     0.00135       0.44368
     4    C    1  S      Ryd( 5S)     0.00000      23.55862
     5    C    1  S      Ryd( 4S)     0.00000       1.09582
     6    C    1  px     Val( 2p)     1.11115       0.18327
     7    C    1  px     Ryd( 3p)     0.01701       0.41890
     8    C    1  px     Ryd( 5p)     0.00000       3.07700
     9    C    1  px     Ryd( 4p)     0.00000       0.94016
    10    C    1  py     Val( 2p)     1.11115       0.18327
    11    C    1  py     Ryd( 3p)     0.01701       0.41889
    12    C    1  py     Ryd( 5p)     0.00000       3.07696
    13    C    1  py     Ryd( 4p)     0.00000       0.94016
    14    C    1  pz     Val( 2p)     1.81973       0.10824
    15    C    1  pz     Ryd( 3p)     0.04881       0.35884
    16    C    1  pz     Ryd( 5p)     0.00005       2.78257
    17    C    1  pz     Ryd( 4p)     0.00000       0.97374
    18    C    1  dxy    Ryd( 3d)     0.00024       2.32540
    19    C    1  dxz    Ryd( 3d)     0.00088       2.11360
    20    C    1  dyz    Ryd( 3d)     0.00088       2.11355
    21    C    1  dx2y2  Ryd( 3d)     0.00024       2.32545
    22    C    1  dz2    Ryd( 3d)     0.00085       1.94236
 
    23    H    2  S      Val( 1S)     0.86577       0.26225
    24    H    2  S      Ryd( 3S)     0.00027       1.57884
    25    H    2  S      Ryd( 2S)     0.00005       1.43738
    26    H    2  px     Ryd( 2p)     0.00043       2.50828
    27    H    2  py     Ryd( 2p)     0.00033       2.10940
    28    H    2  pz     Ryd( 2p)     0.00081       1.93418
 
    29    H    3  S      Val( 1S)     0.86577       0.26225
    30    H    3  S      Ryd( 3S)     0.00027       1.57885
    31    H    3  S      Ryd( 2S)     0.00005       1.43738
    32    H    3  px     Ryd( 2p)     0.00044       2.53247
    33    H    3  py     Ryd( 2p)     0.00032       2.08521
    34    H    3  pz     Ryd( 2p)     0.00081       1.93418
 
    35    H    4  S      Val( 1S)     0.86577       0.26224
    36    H    4  S      Ryd( 3S)     0.00027       1.57880
    37    H    4  S      Ryd( 2S)     0.00005       1.43743
    38    H    4  px     Ryd( 2p)     0.00027       1.88581
    39    H    4  py     Ryd( 2p)     0.00049       2.73186
    40    H    4  pz     Ryd( 2p)     0.00081       1.93416

 WARNING:  Population inversion found on atom  C    1
           Population inversion found on atom  H    2
           Population inversion found on atom  H    3
           Population inversion found on atom  H    4


 Summary of Natural Population Analysis:                  
                                                          
                                       Natural Population 
                Natural  -----------------------------------------------
    Atom  No    Charge         Core      Valence    Rydberg      Total
 -----------------------------------------------------------------------
      C    1   -1.39704      1.99947     5.31025    0.08732     7.39704
      H    2    0.13235      0.00000     0.86577    0.00188     0.86765
      H    3    0.13235      0.00000     0.86577    0.00188     0.86765
      H    4    0.13235      0.00000     0.86577    0.00188     0.86765
 =======================================================================
   * Total *   -1.00000      1.99947     7.90756    0.09297    10.00000

                                 Natural Population      
 --------------------------------------------------------
   Core                       1.99947 ( 99.9736% of   2)
   Valence                    7.90756 ( 98.8445% of   8)
   Natural Minimal Basis      9.90703 ( 99.0703% of  10)
   Natural Rydberg Basis      0.09297 (  0.9297% of  10)
 --------------------------------------------------------

    Atom  No          Natural Electron Configuration
 ----------------------------------------------------------------------------
      C    1      [core]2S( 1.27)2p( 4.04)3p( 0.08)
      H    2            1S( 0.87)
      H    3            1S( 0.87)
      H    4            1S( 0.87)


 NATURAL BOND ORBITAL ANALYSIS:

                       Occupancies       Lewis Structure    Low   High
           Occ.    -------------------  -----------------   occ   occ
  Cycle   Thresh.   Lewis   Non-Lewis     CR  BD  3C  LP    (L)   (NL)   Dev
 =============================================================================
   1(1)    1.90     9.99569   0.00431      1   3   0   1     0      0    0.00
 -----------------------------------------------------------------------------

 Structure accepted: No low occupancy Lewis orbitals

 --------------------------------------------------------
   Core                      1.99947 ( 99.974% of   2)
   Valence Lewis             7.99622 ( 99.953% of   8)
  ==================       ============================
   Total Lewis               9.99569 ( 99.957% of  10)
  -----------------------------------------------------
   Valence non-Lewis         0.00005 (  0.001% of  10)
   Rydberg non-Lewis         0.00425 (  0.043% of  10)
  ==================       ============================
   Total non-Lewis           0.00431 (  0.043% of  10)
 --------------------------------------------------------


       (Occupancy)   Bond orbital/ Coefficients/ Hybrids
 ---------------------------------------------------------------------------------
     1. (1.99962) BD ( 1) C   1 - H   2  
                ( 56.68%)   0.7529* C   1 s( 27.94%)p 2.58( 71.99%)d 0.00(  0.07%)
                                            0.0000  0.5285  0.0099  0.0000  0.0000
                                            0.6946  0.0859 -0.0006 -0.0000  0.4165
                                            0.0515 -0.0004 -0.0000  0.2321  0.0083
                                            0.0036  0.0002  0.0105  0.0195  0.0117
                                            0.0056 -0.0055
                ( 43.32%)   0.6582* H   2 s( 99.94%)p 0.00(  0.06%)
                                            0.9997  0.0000 -0.0000 -0.0200 -0.0120
                                           -0.0059
     2. (1.99962) BD ( 1) C   1 - H   3  
                ( 56.68%)   0.7529* C   1 s( 27.94%)p 2.58( 71.99%)d 0.00(  0.07%)
                                            0.0000  0.5285  0.0099  0.0000  0.0000
                                           -0.7080 -0.0876  0.0006  0.0000  0.3933
                                            0.0487 -0.0004 -0.0000  0.2321  0.0083
                                            0.0036  0.0002 -0.0101 -0.0199  0.0111
                                            0.0063 -0.0055
                ( 43.32%)   0.6582* H   3 s( 99.94%)p 0.00(  0.06%)
                                            0.9997  0.0000 -0.0000  0.0203 -0.0113
                                           -0.0059
     3. (1.99962) BD ( 1) C   1 - H   4  
                ( 56.68%)   0.7529* C   1 s( 27.94%)p 2.58( 71.99%)d 0.00(  0.07%)
                                            0.0000  0.5285  0.0099 -0.0000 -0.0000
                                            0.0134  0.0017 -0.0000 -0.0000 -0.8098
                                           -0.1002  0.0007  0.0000  0.2320  0.0083
                                            0.0036  0.0002 -0.0004  0.0004 -0.0228
                                           -0.0119 -0.0055
                ( 43.32%)   0.6582* H   4 s( 99.94%)p 0.00(  0.06%)
                                            0.9997  0.0000 -0.0000 -0.0004  0.0233
                                           -0.0059
     4. (1.99947) CR ( 1) C   1           s(100.00%)
                                            1.0000 -0.0001  0.0000  0.0000  0.0000
                                           -0.0000 -0.0000 -0.0000 -0.0000  0.0000
                                            0.0000  0.0000 -0.0000  0.0001 -0.0000
                                           -0.0000 -0.0000  0.0000 -0.0000  0.0000
                                            0.0000  0.0000
     5. (1.99737) LP ( 1) C   1           s( 15.66%)p 5.38( 84.30%)d 0.00(  0.04%)
                                            0.0001  0.3951 -0.0226 -0.0000  0.0000
                                           -0.0000  0.0000  0.0000  0.0000  0.0000
                                           -0.0000  0.0000 -0.0000 -0.9049  0.1558
                                            0.0004  0.0001 -0.0000 -0.0000  0.0000
                                           -0.0000 -0.0193
     6. (0.00010) RY*( 1) C   1           s(  0.58%)p99.99( 97.33%)d 3.62(  2.09%)
     7. (0.00000) RY*( 2) C   1           s(100.00%)
     8. (0.00000) RY*( 3) C   1           s(100.00%)
     9. (0.00000) RY*( 4) C   1           s(  0.00%)p 1.00(100.00%)
    10. (0.00000) RY*( 5) C   1           s(  0.00%)p 1.00(100.00%)
    11. (0.00000) RY*( 6) C   1           s(  0.00%)p 1.00(100.00%)
    12. (0.00000) RY*( 7) C   1           s(  0.00%)p 1.00(100.00%)
    13. (0.00000) RY*( 8) C   1           s(  0.00%)p 1.00(100.00%)
    14. (0.00000) RY*( 9) C   1           s(  0.00%)p 1.00(100.00%)
    15. (0.00000) RY*(10) C   1           s( 99.92%)p 0.00(  0.08%)d 0.00(  0.00%)
    16. (0.00000) RY*(11) C   1           s(  0.00%)p 1.00(100.00%)
    17. (0.00000) RY*(12) C   1           s(  0.02%)p99.99( 99.98%)
    18. (0.00000) RY*(13) C   1           s(  0.00%)p 1.00(  0.02%)d99.99( 99.98%)
    19. (0.00000) RY*(14) C   1           s(  0.00%)p 1.00(  0.08%)d99.99( 99.92%)
    20. (0.00000) RY*(15) C   1           s(  0.00%)p 1.00(  0.08%)d99.99( 99.92%)
    21. (0.00000) RY*(16) C   1           s(  0.00%)p 1.00(  0.02%)d99.99( 99.98%)
    22. (0.00000) RY*(17) C   1           s(  0.00%)p 1.00(  2.14%)d45.81( 97.86%)
    23. (0.00092) RY*( 1) H   2           s( 16.76%)p 4.97( 83.24%)
                                           -0.0046  0.4044  0.0632  0.0298  0.0179
                                           -0.9117
    24. (0.00027) RY*( 2) H   2           s(  0.00%)p 1.00(100.00%)
                                           -0.0000  0.0004 -0.0001  0.5141 -0.8577
                                            0.0001
    25. (0.00016) RY*( 3) H   2           s( 76.74%)p 0.30( 23.26%)
                                           -0.0057  0.8486 -0.2175 -0.2860 -0.1710
                                            0.3486
    26. (0.00004) RY*( 4) H   2           s( 97.73%)p 0.02(  2.27%)
    27. (0.00000) RY*( 5) H   2           s(  8.83%)p10.32( 91.17%)
    28. (0.00092) RY*( 1) H   3           s( 16.76%)p 4.97( 83.24%)
                                           -0.0046  0.4044  0.0632 -0.0304  0.0169
                                           -0.9117
    29. (0.00027) RY*( 2) H   3           s(  0.00%)p 1.00(100.00%)
                                           -0.0000  0.0004 -0.0001 -0.4855 -0.8742
                                            0.0001
    30. (0.00016) RY*( 3) H   3           s( 76.74%)p 0.30( 23.26%)
                                           -0.0057  0.8486 -0.2175  0.2915 -0.1615
                                            0.3486
    31. (0.00004) RY*( 4) H   3           s( 97.73%)p 0.02(  2.27%)
    32. (0.00000) RY*( 5) H   3           s(  8.83%)p10.32( 91.17%)
    33. (0.00092) RY*( 1) H   4           s( 16.75%)p 4.97( 83.25%)
                                           -0.0046  0.4044  0.0633  0.0006 -0.0347
                                           -0.9117
    34. (0.00027) RY*( 2) H   4           s(  0.00%)p 1.00(100.00%)
                                           -0.0000  0.0000 -0.0000  0.9999  0.0165
                                            0.0000
    35. (0.00016) RY*( 3) H   4           s( 76.75%)p 0.30( 23.25%)
                                           -0.0057  0.8486 -0.2176 -0.0055  0.3331
                                            0.3486
    36. (0.00004) RY*( 4) H   4           s( 97.73%)p 0.02(  2.27%)
    37. (0.00000) RY*( 5) H   4           s(  8.83%)p10.32( 91.17%)
    38. (0.00002) BD*( 1) C   1 - H   2  
                ( 43.32%)   0.6582* C   1 s( 27.94%)p 2.58( 71.99%)d 0.00(  0.07%)
                ( 56.68%)  -0.7529* H   2 s( 99.94%)p 0.00(  0.06%)
    39. (0.00002) BD*( 1) C   1 - H   3  
                ( 43.32%)   0.6582* C   1 s( 27.94%)p 2.58( 71.99%)d 0.00(  0.07%)
                ( 56.68%)  -0.7529* H   3 s( 99.94%)p 0.00(  0.06%)
    40. (0.00002) BD*( 1) C   1 - H   4  
                ( 43.32%)   0.6582* C   1 s( 27.94%)p 2.58( 71.99%)d 0.00(  0.07%)
                ( 56.68%)  -0.7529* H   4 s( 99.94%)p 0.00(  0.06%)


 NHO Directionality and "Bond Bending" (deviations from line of nuclear centers)

         [Thresholds for printing:  angular deviation  >  1.0 degree]
                                    hybrid p-character > 25.0%
                                    orbital occupancy  >  0.10e

                                Line of Centers        Hybrid 1              Hybrid 2
                                ---------------  -------------------   ------------------
                NBO               Theta   Phi    Theta   Phi    Dev    Theta   Phi    Dev
 ========================================================================================
     1. BD (   1) C   1 - H   2    70.4   30.9    75.0   30.9   4.5      --     --    --
     2. BD (   1) C   1 - H   3    70.4  150.9    75.0  150.9   4.5      --     --    --
     3. BD (   1) C   1 - H   4    70.4  270.9    75.0  270.9   4.5      --     --    --
     5. LP (   1) C   1             --     --    180.0    0.0   --       --     --    --


 Second Order Perturbation Theory Analysis of Fock Matrix in NBO Basis

     Threshold for printing:   0.50 kcal/mol
                                                                              E(2)  E(j)-E(i) F(i,j)
         Donor NBO (i)                     Acceptor NBO (j)                 kcal/mol   a.u.    a.u. 
 ===================================================================================================

 within unit  1
   4. CR (   1) C   1                /  6. RY*(   1) C   1                    0.59   10.15    0.069
   4. CR (   1) C   1                / 25. RY*(   3) H   2                    0.55   11.12    0.070
   4. CR (   1) C   1                / 30. RY*(   3) H   3                    0.55   11.12    0.070
   4. CR (   1) C   1                / 35. RY*(   3) H   4                    0.55   11.12    0.070
   5. LP (   1) C   1                / 23. RY*(   1) H   2                    1.00    1.87    0.039
   5. LP (   1) C   1                / 28. RY*(   1) H   3                    1.00    1.87    0.039
   5. LP (   1) C   1                / 33. RY*(   1) H   4                    1.00    1.87    0.039


 Natural Bond Orbitals (Summary):

                                                            Principal Delocalizations
           NBO                        Occupancy    Energy   (geminal,vicinal,remote)
 ====================================================================================
 Molecular unit  1  (CH3)
     1. BD (   1) C   1 - H   2          1.99962    -0.24795   
     2. BD (   1) C   1 - H   3          1.99962    -0.24795   
     3. BD (   1) C   1 - H   4          1.99962    -0.24794   
     4. CR (   1) C   1                  1.99947    -9.76851  6(g),25(v),30(v),35(v)
     5. LP (   1) C   1                  1.99737     0.04032  23(v),28(v),33(v)
     6. RY*(   1) C   1                  0.00010     0.38546   
     7. RY*(   2) C   1                  0.00000    23.55862   
     8. RY*(   3) C   1                  0.00000     1.09582   
     9. RY*(   4) C   1                  0.00000     0.39653   
    10. RY*(   5) C   1                  0.00000     3.07697   
    11. RY*(   6) C   1                  0.00000     0.94016   
    12. RY*(   7) C   1                  0.00000     0.39653   
    13. RY*(   8) C   1                  0.00000     3.07694   
    14. RY*(   9) C   1                  0.00000     0.94016   
    15. RY*(  10) C   1                  0.00000     0.44394   
    16. RY*(  11) C   1                  0.00000     2.76646   
    17. RY*(  12) C   1                  0.00000     1.01149   
    18. RY*(  13) C   1                  0.00000     2.32361   
    19. RY*(  14) C   1                  0.00000     2.11218   
    20. RY*(  15) C   1                  0.00000     2.11190   
    21. RY*(  16) C   1                  0.00000     2.32389   
    22. RY*(  17) C   1                  0.00000     1.89953   
    23. RY*(   1) H   2                  0.00092     1.90931   
    24. RY*(   2) H   2                  0.00027     1.88558   
    25. RY*(   3) H   2                  0.00016     1.35209   
    26. RY*(   4) H   2                  0.00004     1.81213   
    27. RY*(   5) H   2                  0.00000     2.60700   
    28. RY*(   1) H   3                  0.00092     1.90931   
    29. RY*(   2) H   3                  0.00027     1.88558   
    30. RY*(   3) H   3                  0.00016     1.35209   
    31. RY*(   4) H   3                  0.00004     1.81213   
    32. RY*(   5) H   3                  0.00000     2.60699   
    33. RY*(   1) H   4                  0.00092     1.90932   
    34. RY*(   2) H   4                  0.00027     1.88558   
    35. RY*(   3) H   4                  0.00016     1.35191   
    36. RY*(   4) H   4                  0.00004     1.81217   
    37. RY*(   5) H   4                  0.00000     2.60711   
    38. BD*(   1) C   1 - H   2          0.00002     0.65660   
    39. BD*(   1) C   1 - H   3          0.00002     0.65660   
    40. BD*(   1) C   1 - H   4          0.00002     0.65659   
       -------------------------------
              Total Lewis    9.99569  ( 99.9569%)
        Valence non-Lewis    0.00005  (  0.0005%)
        Rydberg non-Lewis    0.00425  (  0.0425%)
       -------------------------------
            Total unit  1   10.00000  (100.0000%)
           Charge unit  1   -1.00000
 Leave Link  607 at Mon Oct 24 13:36:36 2022, MaxMem=  8053063680 cpu:              44.0 elap:               1.4
 (Enter /public3/home/scg5914/software-scg5914/g16/l9999.exe)
 Unable to Open any file for archive entry.
 1\1\GINC-J0710\SP\RB3LYP\Gen\C1H3(1-)\SCG5914\24-Oct-2022\0\\#p b3lyp/
 chkbas pop=nbo geom=allcheck guess=tcheck em=gd3bj\\dsgdb9nsd_000001-3
 \\-1,1\C,0,-0.0146465486,1.0871405891,0.0046945981\H,0,0.0011801285,-0
 .016101252,0.0001067363\H,0,1.0207844477,1.4682669841,-0.001613481\H,0
 ,-0.5299485387,1.4421503251,0.9134631317\\Version=ES64L-G16RevC.01\Sta
 te=1-A\HF=-39.8575022\RMSD=2.700e-09\Dipole=0.3012781,-0.2063619,0.504
 6873\Quadrupole=0.5673423,1.2759283,-1.8432706,0.9143068,-2.2358715,1.
 5314656\PG=C01 [X(C1H3)]\\@
 The archive entry for this job was punched.


 AND HERE I AM, FOR ALL MY LORE,
 THE WRETCHED FOOL I WAS BEFORE.
 CALLED MASTER OF ARTS, AND DOCTOR TO BOOT,
 FOR TEN YEARS ALMOST I CONFUTE
 AND UP AND DOWN, WHEREVER IT GOES
 I DRAG MY STUDENTS BY THE NOSE --
 AND SEE THAT FOR ALL OUR SCIENCE AND ART
 WE CAN KNOW NOTHING.  IT BURNS MY HEART.

                                       -- FAUST
 Job cpu time:       0 days  0 hours  1 minutes  0.1 seconds.
 Elapsed time:       0 days  0 hours  0 minutes  2.0 seconds.
 File lengths (MBytes):  RWF=      6 Int=      0 D2E=      0 Chk=      1 Scr=      1
 Normal termination of Gaussian 16 at Mon Oct 24 13:36:36 2022.
