 Entering Gaussian System, Link 0=/public3/home/scg5914/software-scg5914/g16/g16
 Input=dsgdb9nsd_131941-4+.gjf
 Output=dsgdb9nsd_131941-4+.log
 Initial command:
 /public3/home/scg5914/software-scg5914/g16/l1.exe "/public3/home/scg5914/software-scg5914/test/tmp/dsgdb9nsd_131941-4+/Gau-236053.inp" -scrdir="/public3/home/scg5914/software-scg5914/test/tmp/dsgdb9nsd_131941-4+/"
 Entering Link 1 = /public3/home/scg5914/software-scg5914/g16/l1.exe PID=    236054.
  
 Copyright (c) 1988-2019, Gaussian, Inc.  All Rights Reserved.
  
 This is part of the Gaussian(R) 16 program.  It is based on
 the Gaussian(R) 09 system (copyright 2009, Gaussian, Inc.),
 the Gaussian(R) 03 system (copyright 2003, Gaussian, Inc.),
 the Gaussian(R) 98 system (copyright 1998, Gaussian, Inc.),
 the Gaussian(R) 94 system (copyright 1995, Gaussian, Inc.),
 the Gaussian 92(TM) system (copyright 1992, Gaussian, Inc.),
 the Gaussian 90(TM) system (copyright 1990, Gaussian, Inc.),
 the Gaussian 88(TM) system (copyright 1988, Gaussian, Inc.),
 the Gaussian 86(TM) system (copyright 1986, Carnegie Mellon
 University), and the Gaussian 82(TM) system (copyright 1983,
 Carnegie Mellon University). Gaussian is a federally registered
 trademark of Gaussian, Inc.
  
 This software contains proprietary and confidential information,
 including trade secrets, belonging to Gaussian, Inc.
  
 This software is provided under written license and may be
 used, copied, transmitted, or stored only in accord with that
 written license.
  
 The following legend is applicable only to US Government
 contracts under FAR:
  
                    RESTRICTED RIGHTS LEGEND
  
 Use, reproduction and disclosure by the US Government is
 subject to restrictions as set forth in subparagraphs (a)
 and (c) of the Commercial Computer Software - Restricted
 Rights clause in FAR 52.227-19.
  
 Gaussian, Inc.
 340 Quinnipiac St., Bldg. 40, Wallingford CT 06492
  
  
 ---------------------------------------------------------------
 Warning -- This program may not be used in any manner that
 competes with the business of Gaussian, Inc. or will provide
 assistance to any competitor of Gaussian, Inc.  The licensee
 of this program is prohibited from giving any competitor of
 Gaussian, Inc. access to this program.  By using this program,
 the user acknowledges that Gaussian, Inc. is engaged in the
 business of creating and licensing software in the field of
 computational chemistry and represents and warrants to the
 licensee that it is not a competitor of Gaussian, Inc. and that
 it will not use this program in any manner prohibited above.
 ---------------------------------------------------------------
  

 Cite this work as:
 Gaussian 16, Revision C.01,
 M. J. Frisch, G. W. Trucks, H. B. Schlegel, G. E. Scuseria, 
 M. A. Robb, J. R. Cheeseman, G. Scalmani, V. Barone, 
 G. A. Petersson, H. Nakatsuji, X. Li, M. Caricato, A. V. Marenich, 
 J. Bloino, B. G. Janesko, R. Gomperts, B. Mennucci, H. P. Hratchian, 
 J. V. Ortiz, A. F. Izmaylov, J. L. Sonnenberg, D. Williams-Young, 
 F. Ding, F. Lipparini, F. Egidi, J. Goings, B. Peng, A. Petrone, 
 T. Henderson, D. Ranasinghe, V. G. Zakrzewski, J. Gao, N. Rega, 
 G. Zheng, W. Liang, M. Hada, M. Ehara, K. Toyota, R. Fukuda, 
 J. Hasegawa, M. Ishida, T. Nakajima, Y. Honda, O. Kitao, H. Nakai, 
 T. Vreven, K. Throssell, J. A. Montgomery, Jr., J. E. Peralta, 
 F. Ogliaro, M. J. Bearpark, J. J. Heyd, E. N. Brothers, K. N. Kudin, 
 V. N. Staroverov, T. A. Keith, R. Kobayashi, J. Normand, 
 K. Raghavachari, A. P. Rendell, J. C. Burant, S. S. Iyengar, 
 J. Tomasi, M. Cossi, J. M. Millam, M. Klene, C. Adamo, R. Cammi, 
 J. W. Ochterski, R. L. Martin, K. Morokuma, O. Farkas, 
 J. B. Foresman, and D. J. Fox, Gaussian, Inc., Wallingford CT, 2019.
 
 ******************************************
 Gaussian 16:  ES64L-G16RevC.01  3-Jul-2019
                 2-May-2023 
 ******************************************
 %chk=dsgdb9nsd_131941-4.chk
 %mem=60GB
 %nprocshared=32
 Will use up to   32 processors via shared memory.
 ------------------------------------
 #p opt freq b3lyp/6-311+g** em=gd3bj
 ------------------------------------
 1/18=20,19=15,26=3,38=1/1,3;
 2/9=110,12=2,17=6,18=5,40=1/2;
 3/5=4,6=6,7=111,11=2,25=1,30=1,71=1,74=-5,124=41/1,2,3;
 4//1;
 5/5=2,38=5/2;
 6/7=2,8=2,9=2,10=2,28=1/1;
 7//1,2,3,16;
 1/18=20,19=15,26=3/3(2);
 2/9=110/2;
 99//99;
 2/9=110/2;
 3/5=4,6=6,7=111,11=2,25=1,30=1,71=1,74=-5,124=41/1,2,3;
 4/5=5,16=3,69=1/1;
 5/5=2,38=5/2;
 7//1,2,3,16;
 1/18=20,19=15,26=3/3(-5);
 2/9=110/2;
 6/7=2,8=2,9=2,10=2,19=2,28=1/1;
 99/9=1/99;
 Leave Link    1 at Tue May  2 17:52:44 2023, MaxMem=  8053063680 cpu:               1.3 elap:               0.0
 (Enter /public3/home/scg5914/software-scg5914/g16/l101.exe)
 ------------------
 dsgdb9nsd_131941-4
 ------------------
 Symbolic Z-matrix:
 Charge =  1 Multiplicity = 1
 C                    -0.01016   1.43135   0.01962 
 N                    -0.02503  -0.02062   0.02179 
 C                    -0.00629  -0.81457  -1.10974 
 C                     0.03571  -2.12948  -0.72581 
 C                     0.04459  -2.11634   0.69262 
 C                     0.00877  -0.80676   1.12946 
 N                     0.07473  -3.25756   1.55455 
 O                     0.10234  -4.36615   1.0266 
 O                     0.07223  -3.05626   2.76833 
 H                     0.99002   1.81658  -0.20347 
 H                    -0.7105    1.809    -0.72927 
 H                    -0.31851   1.79596   1.00054 
 H                     0.04843  -3.00279  -1.35521 
 H                     0.00488  -0.40657   2.12855 
 
 ITRead=  0  0  0  0  0  0  0  0  0  0  0  0  0  0
 MicOpt= -1 -1 -1 -1 -1 -1 -1 -1 -1 -1 -1 -1 -1 -1
 NAtoms=     14 NQM=       14 NQMF=       0 NMMI=      0 NMMIF=      0
                NMic=       0 NMicF=      0.
                    Isotopes and Nuclear Properties:
 (Nuclear quadrupole moments (NQMom) in fm**2, nuclear magnetic moments (NMagM)
  in nuclear magnetons)

  Atom         1           2           3           4           5           6           7           8           9          10
 IAtWgt=          12          14          12          12          12          12          14          16          16           1
 AtmWgt=  12.0000000  14.0030740  12.0000000  12.0000000  12.0000000  12.0000000  14.0030740  15.9949146  15.9949146   1.0078250
 NucSpn=           0           2           0           0           0           0           2           0           0           1
 AtZEff=  -0.0000000  -0.0000000  -0.0000000  -0.0000000  -0.0000000  -0.0000000  -0.0000000  -0.0000000  -0.0000000  -0.0000000
 NQMom=    0.0000000   2.0440000   0.0000000   0.0000000   0.0000000   0.0000000   2.0440000   0.0000000   0.0000000   0.0000000
 NMagM=    0.0000000   0.4037610   0.0000000   0.0000000   0.0000000   0.0000000   0.4037610   0.0000000   0.0000000   2.7928460
 AtZNuc=   6.0000000   7.0000000   6.0000000   6.0000000   6.0000000   6.0000000   7.0000000   8.0000000   8.0000000   1.0000000

  Atom        11          12          13          14
 IAtWgt=           1           1           1           1
 AtmWgt=   1.0078250   1.0078250   1.0078250   1.0078250
 NucSpn=           1           1           1           1
 AtZEff=  -0.0000000  -0.0000000  -0.0000000  -0.0000000
 NQMom=    0.0000000   0.0000000   0.0000000   0.0000000
 NMagM=    2.7928460   2.7928460   2.7928460   2.7928460
 AtZNuc=   1.0000000   1.0000000   1.0000000   1.0000000
 Leave Link  101 at Tue May  2 17:52:45 2023, MaxMem=  8053063680 cpu:               4.0 elap:               0.1
 (Enter /public3/home/scg5914/software-scg5914/g16/l103.exe)

 GradGradGradGradGradGradGradGradGradGradGradGradGradGradGradGradGradGrad
 Berny optimization.
 Initialization pass.
                           ----------------------------
                           !    Initial Parameters    !
                           ! (Angstroms and Degrees)  !
 --------------------------                            --------------------------
 ! Name  Definition              Value          Derivative Info.                !
 --------------------------------------------------------------------------------
 ! R1    R(1,2)                  1.4521         estimate D2E/DX2                !
 ! R2    R(1,10)                 1.0948         estimate D2E/DX2                !
 ! R3    R(1,11)                 1.0927         estimate D2E/DX2                !
 ! R4    R(1,12)                 1.091          estimate D2E/DX2                !
 ! R5    R(2,3)                  1.3824         estimate D2E/DX2                !
 ! R6    R(2,6)                  1.3587         estimate D2E/DX2                !
 ! R7    R(3,4)                  1.3705         estimate D2E/DX2                !
 ! R8    R(4,5)                  1.4185         estimate D2E/DX2                !
 ! R9    R(4,13)                 1.0766         estimate D2E/DX2                !
 ! R10   R(5,6)                  1.381          estimate D2E/DX2                !
 ! R11   R(5,7)                  1.4305         estimate D2E/DX2                !
 ! R12   R(6,14)                 1.0763         estimate D2E/DX2                !
 ! R13   R(7,8)                  1.2282         estimate D2E/DX2                !
 ! R14   R(7,9)                  1.2304         estimate D2E/DX2                !
 ! A1    A(2,1,10)             111.1935         estimate D2E/DX2                !
 ! A2    A(2,1,11)             109.8807         estimate D2E/DX2                !
 ! A3    A(2,1,12)             109.2656         estimate D2E/DX2                !
 ! A4    A(10,1,11)            108.922          estimate D2E/DX2                !
 ! A5    A(10,1,12)            108.8952         estimate D2E/DX2                !
 ! A6    A(11,1,12)            108.6373         estimate D2E/DX2                !
 ! A7    A(1,2,3)              124.9546         estimate D2E/DX2                !
 ! A8    A(1,2,6)              125.4171         estimate D2E/DX2                !
 ! A9    A(3,2,6)              109.5515         estimate D2E/DX2                !
 ! A10   A(2,3,4)              108.7928         estimate D2E/DX2                !
 ! A11   A(3,4,5)              105.7499         estimate D2E/DX2                !
 ! A12   A(3,4,13)             127.9447         estimate D2E/DX2                !
 ! A13   A(5,4,13)             126.3021         estimate D2E/DX2                !
 ! A14   A(4,5,6)              108.9613         estimate D2E/DX2                !
 ! A15   A(4,5,7)              126.531          estimate D2E/DX2                !
 ! A16   A(6,5,7)              124.506          estimate D2E/DX2                !
 ! A17   A(2,6,5)              106.9441         estimate D2E/DX2                !
 ! A18   A(2,6,14)             122.7891         estimate D2E/DX2                !
 ! A19   A(5,6,14)             130.2668         estimate D2E/DX2                !
 ! A20   A(5,7,8)              117.4885         estimate D2E/DX2                !
 ! A21   A(5,7,9)              117.6366         estimate D2E/DX2                !
 ! A22   A(8,7,9)              124.8749         estimate D2E/DX2                !
 ! D1    D(10,1,2,3)           -76.0507         estimate D2E/DX2                !
 ! D2    D(10,1,2,6)           100.4245         estimate D2E/DX2                !
 ! D3    D(11,1,2,3)            44.6172         estimate D2E/DX2                !
 ! D4    D(11,1,2,6)          -138.9077         estimate D2E/DX2                !
 ! D5    D(12,1,2,3)           163.7201         estimate D2E/DX2                !
 ! D6    D(12,1,2,6)           -19.8047         estimate D2E/DX2                !
 ! D7    D(1,2,3,4)            177.1499         estimate D2E/DX2                !
 ! D8    D(6,2,3,4)              0.1978         estimate D2E/DX2                !
 ! D9    D(1,2,6,5)           -177.146          estimate D2E/DX2                !
 ! D10   D(1,2,6,14)             2.8998         estimate D2E/DX2                !
 ! D11   D(3,2,6,5)             -0.2113         estimate D2E/DX2                !
 ! D12   D(3,2,6,14)           179.8345         estimate D2E/DX2                !
 ! D13   D(2,3,4,5)             -0.1001         estimate D2E/DX2                !
 ! D14   D(2,3,4,13)           179.2659         estimate D2E/DX2                !
 ! D15   D(3,4,5,6)             -0.029          estimate D2E/DX2                !
 ! D16   D(3,4,5,7)            179.5133         estimate D2E/DX2                !
 ! D17   D(13,4,5,6)          -179.4087         estimate D2E/DX2                !
 ! D18   D(13,4,5,7)             0.1337         estimate D2E/DX2                !
 ! D19   D(4,5,6,2)              0.1478         estimate D2E/DX2                !
 ! D20   D(4,5,6,14)          -179.9027         estimate D2E/DX2                !
 ! D21   D(7,5,6,2)           -179.406          estimate D2E/DX2                !
 ! D22   D(7,5,6,14)             0.5435         estimate D2E/DX2                !
 ! D23   D(4,5,7,8)              0.3753         estimate D2E/DX2                !
 ! D24   D(4,5,7,9)           -179.6843         estimate D2E/DX2                !
 ! D25   D(6,5,7,8)            179.8501         estimate D2E/DX2                !
 ! D26   D(6,5,7,9)             -0.2095         estimate D2E/DX2                !
 --------------------------------------------------------------------------------
 Trust Radius=3.00D-01 FncErr=1.00D-07 GrdErr=1.00D-06 EigMax=2.50D+02 EigMin=1.00D-04
 Number of steps in this run=     72 maximum allowed number of steps=    100.
 GradGradGradGradGradGradGradGradGradGradGradGradGradGradGradGradGradGrad

 Leave Link  103 at Tue May  2 17:52:45 2023, MaxMem=  8053063680 cpu:               0.2 elap:               0.0
 (Enter /public3/home/scg5914/software-scg5914/g16/l202.exe)
                          Input orientation:                          
 ---------------------------------------------------------------------
 Center     Atomic      Atomic             Coordinates (Angstroms)
 Number     Number       Type             X           Y           Z
 ---------------------------------------------------------------------
      1          6           0       -0.010159    1.431352    0.019623
      2          7           0       -0.025030   -0.020621    0.021792
      3          6           0       -0.006294   -0.814567   -1.109742
      4          6           0        0.035710   -2.129479   -0.725806
      5          6           0        0.044589   -2.116340    0.692620
      6          6           0        0.008773   -0.806761    1.129464
      7          7           0        0.074733   -3.257561    1.554545
      8          8           0        0.102335   -4.366154    1.026595
      9          8           0        0.072229   -3.056262    2.768328
     10          1           0        0.990017    1.816576   -0.203469
     11          1           0       -0.710499    1.809003   -0.729265
     12          1           0       -0.318505    1.795958    1.000544
     13          1           0        0.048427   -3.002793   -1.355207
     14          1           0        0.004879   -0.406571    2.128549
 ---------------------------------------------------------------------
                    Distance matrix (angstroms):
                    1          2          3          4          5
     1  C    0.000000
     2  N    1.452051   0.000000
     3  C    2.513888   1.382414   0.000000
     4  C    3.638308   2.238274   1.370461   0.000000
     5  C    3.611377   2.201567   2.223895   1.418514   0.000000
     6  C    2.498250   1.358712   2.239270   2.278670   1.380983
     7  N    4.934480   3.582885   3.615689   2.544424   1.430457
     8  O    5.885382   4.462007   4.146022   2.842193   2.275200
     9  O    5.263159   4.094879   4.480043   3.615139   2.278767
    10  H    1.094769   2.111008   2.955822   4.093273   4.143023
    11  H    1.092671   2.093199   2.742953   4.008551   4.242669
    12  H    1.090973   2.084237   3.371294   4.302883   3.941159
    13  H    4.642761   3.285555   2.202630   1.076562   2.231459
    14  H    2.797455   2.142026   3.263910   3.334172   2.233110
                    6          7          8          9         10
     6  C    0.000000
     7  N    2.488265   0.000000
     8  O    3.562108   1.228199   0.000000
     9  O    2.783910   1.230364   2.179531   0.000000
    10  H    3.101845   5.447497   6.366096   5.780870   0.000000
    11  H    3.288533   5.612704   6.471191   6.042899   1.779965
    12  H    2.626381   5.098981   6.176520   5.178974   1.778286
    13  H    3.316281   2.921003   2.744930   4.123950   5.043750
    14  H    1.076260   2.909038   4.111215   2.726668   3.369152
                   11         12         13         14
    11  H    0.000000
    12  H    1.773716   0.000000
    13  H    4.911330   5.358378   0.000000
    14  H    3.686141   2.495618   4.344976   0.000000
 Stoichiometry    C5H5N2O2(1+)
 Framework group  C1[X(C5H5N2O2)]
 Deg. of freedom    36
 Full point group                 C1      NOp   1
 Largest Abelian subgroup         C1      NOp   1
 Largest concise Abelian subgroup C1      NOp   1
                         Standard orientation:                         
 ---------------------------------------------------------------------
 Center     Atomic      Atomic             Coordinates (Angstroms)
 Number     Number       Type             X           Y           Z
 ---------------------------------------------------------------------
      1          6           0       -3.083369   -0.597028    0.021415
      2          7           0       -1.742140   -0.042367   -0.022253
      3          6           0       -1.442400    1.307117   -0.011481
      4          6           0       -0.080192    1.456706    0.001806
      5          6           0        0.451598    0.141647    0.001192
      6          6           0       -0.590921   -0.763949   -0.011657
      7          7           0        1.836407   -0.216835    0.002779
      8          8           0        2.658245    0.695837    0.012028
      9          8           0        2.115770   -1.415043   -0.004078
     10          1           0       -3.503644   -0.537427    1.030541
     11          1           0       -3.733828   -0.051035   -0.666136
     12          1           0       -3.050471   -1.643164   -0.286380
     13          1           0        0.485194    2.372853    0.001534
     14          1           0       -0.577539   -1.840122   -0.014486
 ---------------------------------------------------------------------
 Rotational constants (GHZ):           4.5371098           1.1046113           0.8934196
 Leave Link  202 at Tue May  2 17:52:45 2023, MaxMem=  8053063680 cpu:               0.1 elap:               0.0
 (Enter /public3/home/scg5914/software-scg5914/g16/l301.exe)
 Standard basis: 6-311+G(d,p) (5D, 7F)
 Ernie: Thresh=  0.10000D-02 Tol=  0.10000D-05 Strict=F.
 There are   237 symmetry adapted cartesian basis functions of A   symmetry.
 There are   228 symmetry adapted basis functions of A   symmetry.
   228 basis functions,   364 primitive gaussians,   237 cartesian basis functions
    32 alpha electrons       32 beta electrons
       nuclear repulsion energy       422.8420030929 Hartrees.
 IExCor=  402 DFT=T Ex+Corr=B3LYP ExCW=0 ScaHFX=  0.200000
 ScaDFX=  0.800000  0.720000  1.000000  0.810000 ScalE2=  1.000000  1.000000
 IRadAn=      5 IRanWt=     -1 IRanGd=            0 ICorTp=0 IEmpDi=141
 NAtoms=   14 NActive=   14 NUniq=   14 SFac= 1.00D+00 NAtFMM=   60 NAOKFM=F Big=F
 Integral buffers will be    131072 words long.
 Raffenetti 2 integral format.
 Two-electron integral symmetry is turned on.
 R6Disp:  Grimme-D3(BJ) Dispersion energy=       -0.0223887774 Hartrees.
 Nuclear repulsion after empirical dispersion term =      422.8196143155 Hartrees.
 Leave Link  301 at Tue May  2 17:52:45 2023, MaxMem=  8053063680 cpu:               0.7 elap:               0.0
 (Enter /public3/home/scg5914/software-scg5914/g16/l302.exe)
 NPDir=0 NMtPBC=     1 NCelOv=     1 NCel=       1 NClECP=     1 NCelD=      1
         NCelK=      1 NCelE2=     1 NClLst=     1 CellRange=     0.0.
 One-electron integrals computed using PRISM.
 One-electron integral symmetry used in STVInt
 NBasis=   228 RedAO= T EigKep=  6.67D-06  NBF=   228
 NBsUse=   228 1.00D-06 EigRej= -1.00D+00 NBFU=   228
 Precomputing XC quadrature grid using
 IXCGrd= 4 IRadAn=           5 IRanWt=          -1 IRanGd=           0 AccXCQ= 0.00D+00.
 Generated NRdTot=       0 NPtTot=           0 NUsed=           0 NTot=          32
 NSgBfM=   237   237   237   237   237 MxSgAt=    14 MxSgA2=    14.
 Leave Link  302 at Tue May  2 17:52:45 2023, MaxMem=  8053063680 cpu:               3.9 elap:               0.1
 (Enter /public3/home/scg5914/software-scg5914/g16/l303.exe)
 DipDrv:  MaxL=1.
 Leave Link  303 at Tue May  2 17:52:45 2023, MaxMem=  8053063680 cpu:               0.4 elap:               0.0
 (Enter /public3/home/scg5914/software-scg5914/g16/l401.exe)
 ExpMin= 4.38D-02 ExpMax= 8.59D+03 ExpMxC= 1.30D+03 IAcc=3 IRadAn=         5 AccDes= 0.00D+00
 Harris functional with IExCor=  402 and IRadAn=       5 diagonalized for initial guess.
 HarFok:  IExCor=  402 AccDes= 0.00D+00 IRadAn=         5 IDoV= 1 UseB2=F ITyADJ=14
 ICtDFT=  3500011 ScaDFX=  1.000000  1.000000  1.000000  1.000000
 FoFCou: FMM=F IPFlag=           0 FMFlag=      100000 FMFlg1=           0
         NFxFlg=           0 DoJE=T BraDBF=F KetDBF=T FulRan=T
         wScrn=  0.000000 ICntrl=       500 IOpCl=  0 I1Cent=   200000004 NGrid=           0
         NMat0=    1 NMatS0=      1 NMatT0=    0 NMatD0=    1 NMtDS0=    0 NMtDT0=    0
 Petite list used in FoFCou.
 Harris En= -453.152759416798    
 JPrj=0 DoOrth=F DoCkMO=F.
 Leave Link  401 at Tue May  2 17:52:45 2023, MaxMem=  8053063680 cpu:              10.8 elap:               0.4
 (Enter /public3/home/scg5914/software-scg5914/g16/l502.exe)
 Integral symmetry usage will be decided dynamically.
 Closed shell SCF:
 Using DIIS extrapolation, IDIIS=  1040.
 NGot=  8053063680 LenX=  8052941112 LenY=  8052884502
 Requested convergence on RMS density matrix=1.00D-08 within 128 cycles.
 Requested convergence on MAX density matrix=1.00D-06.
 Requested convergence on             energy=1.00D-06.
 No special actions if energy rises.
 Fock matrices will be formed incrementally for  20 cycles.

 Cycle   1  Pass 1  IDiag  1:
 FoFJK:  IHMeth= 1 ICntrl=       0 DoSepK=F KAlg= 0 I1Cent=           0 FoldK=F
 IRaf= 940000000 NMat=       1 IRICut=       1 DoRegI=T DoRafI=F ISym2E= 0 IDoP0=0 IntGTp=1.
 FoFCou: FMM=F IPFlag=           0 FMFlag=      100000 FMFlg1=           0
         NFxFlg=           0 DoJE=F BraDBF=F KetDBF=F FulRan=T
         wScrn=  0.000000 ICntrl=         0 IOpCl=  0 I1Cent=           0 NGrid=           0
         NMat0=    1 NMatS0=      1 NMatT0=    0 NMatD0=    1 NMtDS0=    0 NMtDT0=    0
 Symmetry not used in FoFCou.
 E= -452.685891930704    
 DIIS: error= 4.75D-02 at cycle   1 NSaved=   1.
 NSaved= 1 IEnMin= 1 EnMin= -452.685891930704     IErMin= 1 ErrMin= 4.75D-02
 ErrMax= 4.75D-02  0.00D+00 EMaxC= 1.00D-01 BMatC= 4.10D-01 BMatP= 4.10D-01
 IDIUse=3 WtCom= 5.25D-01 WtEn= 4.75D-01
 Coeff-Com:  0.100D+01
 Coeff-En:   0.100D+01
 Coeff:      0.100D+01
 Gap=    -0.138 Goal=   None    Shift=    0.000
 GapD=   -0.138 DampG=0.250 DampE=0.500 DampFc=0.2500 IDamp=-1.
 Damping current iteration by 2.50D-01
 RMSDP=1.11D-02 MaxDP=3.82D-01              OVMax= 6.92D-01

 Cycle   2  Pass 1  IDiag  1:
 RMSU=  2.76D-03    CP:  9.83D-01
 E= -452.800151142869     Delta-E=       -0.114259212165 Rises=F Damp=T
 DIIS: error= 1.37D-02 at cycle   2 NSaved=   2.
 NSaved= 2 IEnMin= 2 EnMin= -452.800151142869     IErMin= 2 ErrMin= 1.37D-02
 ErrMax= 1.37D-02  0.00D+00 EMaxC= 1.00D-01 BMatC= 7.01D-02 BMatP= 4.10D-01
 IDIUse=3 WtCom= 8.63D-01 WtEn= 1.37D-01
 Coeff-Com: -0.627D-01 0.106D+01
 Coeff-En:   0.275D+00 0.725D+00
 Coeff:     -0.165D-01 0.102D+01
 Gap=     0.018 Goal=   None    Shift=    0.000
 RMSDP=4.36D-03 MaxDP=1.94D-01 DE=-1.14D-01 OVMax= 7.03D-01

 Cycle   3  Pass 1  IDiag  1:
 RMSU=  4.20D-03    CP:  1.04D+00  9.44D-01
 E= -452.652071120059     Delta-E=        0.148080022810 Rises=F Damp=F
 DIIS: error= 7.10D-02 at cycle   3 NSaved=   3.
 NSaved= 3 IEnMin= 2 EnMin= -452.800151142869     IErMin= 2 ErrMin= 1.37D-02
 ErrMax= 7.10D-02  0.00D+00 EMaxC= 1.00D-01 BMatC= 3.31D-01 BMatP= 7.01D-02
 IDIUse=2 WtCom= 0.00D+00 WtEn= 1.00D+00
 Coeff-En:   0.000D+00 0.642D+00 0.358D+00
 Coeff:      0.000D+00 0.642D+00 0.358D+00
 Gap=    -0.009 Goal=   None    Shift=    0.000
 RMSDP=7.94D-03 MaxDP=3.26D-01 DE= 1.48D-01 OVMax= 8.95D-01

 Cycle   4  Pass 1  IDiag  1:
 RMSU=  3.80D-03    CP:  9.11D-01  2.54D+00 -1.21D-01
 E= -451.703892684192     Delta-E=        0.948178435867 Rises=F Damp=F
 DIIS: error= 7.64D-02 at cycle   4 NSaved=   4.
 NSaved= 4 IEnMin= 2 EnMin= -452.800151142869     IErMin= 2 ErrMin= 1.37D-02
 ErrMax= 7.64D-02  0.00D+00 EMaxC= 1.00D-01 BMatC= 8.54D-01 BMatP= 7.01D-02
 IDIUse=2 WtCom= 0.00D+00 WtEn= 1.00D+00
 EnCoef did     4 forward-backward iterations
 Coeff-En:   0.192D+00 0.000D+00 0.517D+00 0.291D+00
 Coeff:      0.192D+00 0.000D+00 0.517D+00 0.291D+00
 Gap=     0.023 Goal=   None    Shift=    0.000
 RMSDP=7.29D-03 MaxDP=3.04D-01 DE= 9.48D-01 OVMax= 7.73D-01

 Cycle   5  Pass 1  IDiag  1:
 RMSU=  2.84D-03    CP:  1.03D+00  8.93D-01  5.31D-01  1.24D-01
 E= -452.983426889795     Delta-E=       -1.279534205603 Rises=F Damp=F
 DIIS: error= 3.41D-02 at cycle   5 NSaved=   5.
 NSaved= 5 IEnMin= 5 EnMin= -452.983426889795     IErMin= 2 ErrMin= 1.37D-02
 ErrMax= 3.41D-02  0.00D+00 EMaxC= 1.00D-01 BMatC= 6.46D-02 BMatP= 7.01D-02
 IDIUse=3 WtCom= 6.59D-01 WtEn= 3.41D-01
 EnCoef did     9 forward-backward iterations
 Coeff-Com: -0.698D-01 0.515D+00 0.250D+00 0.638D-01 0.241D+00
 Coeff-En:   0.000D+00 0.000D+00 0.103D+00 0.887D-01 0.808D+00
 Coeff:     -0.461D-01 0.340D+00 0.200D+00 0.723D-01 0.434D+00
 Gap=     0.015 Goal=   None    Shift=    0.000
 RMSDP=3.49D-03 MaxDP=1.81D-01 DE=-1.28D+00 OVMax= 2.76D-01

 Cycle   6  Pass 1  IDiag  1:
 RMSU=  2.46D-03    CP:  1.05D+00  8.37D-01  4.87D-01 -1.10D-02  1.67D-01
 E= -452.914698685251     Delta-E=        0.068728204545 Rises=F Damp=F
 DIIS: error= 3.86D-02 at cycle   6 NSaved=   6.
 NSaved= 6 IEnMin= 5 EnMin= -452.983426889795     IErMin= 2 ErrMin= 1.37D-02
 ErrMax= 3.86D-02  0.00D+00 EMaxC= 1.00D-01 BMatC= 1.23D-01 BMatP= 6.46D-02
 IDIUse=2 WtCom= 0.00D+00 WtEn= 1.00D+00
 EnCoef did     4 forward-backward iterations
 Coeff-En:   0.000D+00 0.000D+00 0.000D+00 0.555D-01 0.591D+00 0.354D+00
 Coeff:      0.000D+00 0.000D+00 0.000D+00 0.555D-01 0.591D+00 0.354D+00
 Gap=     0.002 Goal=   None    Shift=    0.000
 RMSDP=3.62D-03 MaxDP=1.07D-01 DE= 6.87D-02 OVMax= 4.01D-01

 Cycle   7  Pass 1  IDiag  1:
 RMSU=  1.87D-03    CP:  1.02D+00  1.39D+00  2.25D-01  2.99D-01  7.89D-01
                    CP:  5.41D-01
 E= -452.938194610755     Delta-E=       -0.023495925504 Rises=F Damp=F
 DIIS: error= 2.65D-02 at cycle   7 NSaved=   7.
 NSaved= 7 IEnMin= 5 EnMin= -452.983426889795     IErMin= 2 ErrMin= 1.37D-02
 ErrMax= 2.65D-02  0.00D+00 EMaxC= 1.00D-01 BMatC= 9.61D-02 BMatP= 6.46D-02
 IDIUse=2 WtCom= 0.00D+00 WtEn= 1.00D+00
 EnCoef did     4 forward-backward iterations
 Coeff-En:   0.000D+00 0.000D+00 0.000D+00 0.000D+00 0.427D+00 0.299D+00
 Coeff-En:   0.274D+00
 Coeff:      0.000D+00 0.000D+00 0.000D+00 0.000D+00 0.427D+00 0.299D+00
 Coeff:      0.274D+00
 Gap=     0.019 Goal=   None    Shift=    0.000
 RMSDP=2.35D-03 MaxDP=7.32D-02 DE=-2.35D-02 OVMax= 3.39D-01

 Cycle   8  Pass 1  IDiag  1:
 RMSU=  5.93D-04    CP:  1.04D+00  9.39D-01  4.33D-01  8.56D-02  6.21D-01
                    CP:  5.98D-01  2.70D-01
 E= -453.034006185706     Delta-E=       -0.095811574951 Rises=F Damp=F
 DIIS: error= 6.29D-03 at cycle   8 NSaved=   8.
 NSaved= 8 IEnMin= 8 EnMin= -453.034006185706     IErMin= 8 ErrMin= 6.29D-03
 ErrMax= 6.29D-03  0.00D+00 EMaxC= 1.00D-01 BMatC= 5.19D-03 BMatP= 6.46D-02
 IDIUse=3 WtCom= 9.37D-01 WtEn= 6.29D-02
 EnCoef did     1 forward-backward iterations
 Coeff-Com: -0.220D-01 0.318D-01-0.383D-01-0.576D-02 0.132D+00 0.598D-02
 Coeff-Com:  0.112D+00 0.784D+00
 Coeff-En:   0.000D+00 0.000D+00 0.000D+00 0.000D+00 0.490D-02 0.000D+00
 Coeff-En:   0.143D+00 0.852D+00
 Coeff:     -0.206D-01 0.298D-01-0.359D-01-0.540D-02 0.124D+00 0.560D-02
 Coeff:      0.114D+00 0.788D+00
 Gap=     0.023 Goal=   None    Shift=    0.000
 RMSDP=9.57D-04 MaxDP=3.05D-02 DE=-9.58D-02 OVMax= 9.53D-02

 Cycle   9  Pass 1  IDiag  1:
 RMSU=  4.16D-04    CP:  1.03D+00  1.06D+00  3.79D-01  1.49D-01  8.21D-01
                    CP:  4.92D-01  4.25D-01  1.26D+00
 E= -453.040289070561     Delta-E=       -0.006282884855 Rises=F Damp=F
 DIIS: error= 3.67D-03 at cycle   9 NSaved=   9.
 NSaved= 9 IEnMin= 9 EnMin= -453.040289070561     IErMin= 9 ErrMin= 3.67D-03
 ErrMax= 3.67D-03  0.00D+00 EMaxC= 1.00D-01 BMatC= 1.86D-03 BMatP= 5.19D-03
 IDIUse=3 WtCom= 9.63D-01 WtEn= 3.67D-02
 Coeff-Com: -0.170D-01 0.265D-01-0.222D-01-0.104D-03 0.622D-01 0.266D-01
 Coeff-Com:  0.199D-01 0.473D+00 0.431D+00
 Coeff-En:   0.000D+00 0.000D+00 0.000D+00 0.000D+00 0.000D+00 0.000D+00
 Coeff-En:   0.000D+00 0.243D+00 0.757D+00
 Coeff:     -0.164D-01 0.255D-01-0.214D-01-0.100D-03 0.599D-01 0.256D-01
 Coeff:      0.191D-01 0.465D+00 0.443D+00
 Gap=     0.025 Goal=   None    Shift=    0.000
 RMSDP=3.97D-04 MaxDP=1.10D-02 DE=-6.28D-03 OVMax= 6.90D-02

 Cycle  10  Pass 1  IDiag  1:
 RMSU=  2.09D-04    CP:  1.03D+00  1.04D+00  3.82D-01  1.44D-01  7.57D-01
                    CP:  5.44D-01  3.84D-01  1.54D+00  1.39D+00
 E= -453.043440896809     Delta-E=       -0.003151826248 Rises=F Damp=F
 DIIS: error= 1.29D-03 at cycle  10 NSaved=  10.
 NSaved=10 IEnMin=10 EnMin= -453.043440896809     IErMin=10 ErrMin= 1.29D-03
 ErrMax= 1.29D-03  0.00D+00 EMaxC= 1.00D-01 BMatC= 2.77D-04 BMatP= 1.86D-03
 IDIUse=3 WtCom= 9.87D-01 WtEn= 1.29D-02
 Coeff-Com: -0.191D-01 0.289D-01-0.265D-01-0.338D-03 0.631D-01 0.239D-01
 Coeff-Com:  0.270D-01 0.591D+00 0.531D+00-0.219D+00
 Coeff-En:   0.000D+00 0.000D+00 0.000D+00 0.000D+00 0.000D+00 0.000D+00
 Coeff-En:   0.000D+00 0.000D+00 0.000D+00 0.100D+01
 Coeff:     -0.189D-01 0.286D-01-0.261D-01-0.333D-03 0.623D-01 0.235D-01
 Coeff:      0.267D-01 0.584D+00 0.524D+00-0.204D+00
 Gap=     0.024 Goal=   None    Shift=    0.000
 RMSDP=1.43D-04 MaxDP=3.07D-03 DE=-3.15D-03 OVMax= 3.15D-02

 Cycle  11  Pass 1  IDiag  1:
 RMSU=  3.51D-05    CP:  1.03D+00  1.04D+00  3.87D-01  1.38D-01  7.60D-01
                    CP:  5.34D-01  3.82D-01  1.44D+00  1.16D+00  6.69D-01
 E= -453.042735225117     Delta-E=        0.000705671692 Rises=F Damp=F
 DIIS: error= 1.65D-03 at cycle  11 NSaved=  11.
 NSaved=11 IEnMin=10 EnMin= -453.043440896809     IErMin=10 ErrMin= 1.29D-03
 ErrMax= 1.65D-03  0.00D+00 EMaxC= 1.00D-01 BMatC= 3.10D-04 BMatP= 2.77D-04
 IDIUse=3 WtCom= 9.87D-01 WtEn= 1.29D-02
 Rare condition: small coef for last iteration:  0.000D+00
 Coeff-Com: -0.189D-01 0.285D-01-0.260D-01-0.390D-03 0.648D-01 0.229D-01
 Coeff-Com:  0.274D-01 0.580D+00 0.520D+00-0.193D-01-0.179D+00
 Coeff-En:   0.000D+00 0.000D+00 0.000D+00 0.000D+00 0.000D+00 0.000D+00
 Coeff-En:   0.000D+00 0.000D+00 0.000D+00 0.000D+00 0.100D+01
 Coeff:     -0.189D-01 0.285D-01-0.260D-01-0.390D-03 0.648D-01 0.229D-01
 Coeff:      0.274D-01 0.580D+00 0.520D+00-0.193D-01-0.179D+00
 Gap=     0.024 Goal=   None    Shift=    0.000
 RMSDP=4.00D-05 MaxDP=8.36D-04 DE= 7.06D-04 OVMax= 9.33D-03

 Cycle  12  Pass 1  IDiag  1:
 RMSU=  6.38D-06    CP:  1.03D+00  1.04D+00  3.85D-01  1.41D-01  7.60D-01
                    CP:  5.34D-01  3.84D-01  1.46D+00  1.23D+00  7.60D-01
                    CP:  9.18D-01
 E= -453.042884839481     Delta-E=       -0.000149614364 Rises=F Damp=F
 DIIS: error= 1.78D-03 at cycle  12 NSaved=  12.
 NSaved=12 IEnMin=10 EnMin= -453.043440896809     IErMin=10 ErrMin= 1.29D-03
 ErrMax= 1.78D-03  0.00D+00 EMaxC= 1.00D-01 BMatC= 3.49D-04 BMatP= 2.77D-04
 IDIUse=3 WtCom= 9.87D-01 WtEn= 1.29D-02
 Large coefficients: NSaved= 12 BigCof=   15.80 CofMax=   10.00 Det=-1.01D-07
 Inversion failed.  Reducing to 11 matrices.
 Large coefficients: NSaved= 11 BigCof=   15.57 CofMax=   10.00 Det=-1.03D-07
 Inversion failed.  Reducing to 10 matrices.
 Large coefficients: NSaved= 10 BigCof=   18.76 CofMax=   10.00 Det=-1.12D-07
 Inversion failed.  Reducing to  9 matrices.
 Large coefficients: NSaved=  9 BigCof=   19.01 CofMax=   10.00 Det=-1.41D-07
 Inversion failed.  Reducing to  8 matrices.
 Large coefficients: NSaved=  8 BigCof=   18.88 CofMax=   10.00 Det=-1.41D-07
 Inversion failed.  Reducing to  7 matrices.
 Large coefficients: NSaved=  7 BigCof=   17.03 CofMax=   10.00 Det=-1.49D-07
 Inversion failed.  Reducing to  6 matrices.
 Large coefficients: NSaved=  6 BigCof=   17.41 CofMax=   10.00 Det=-1.52D-07
 Inversion failed.  Reducing to  5 matrices.
 Large coefficients: NSaved=  5 BigCof=   14.05 CofMax=   10.00 Det=-4.16D-07
 Inversion failed.  Reducing to  4 matrices.
 Large coefficients: NSaved=  4 BigCof=   12.22 CofMax=   10.00 Det=-8.23D-07
 Inversion failed.  Reducing to  3 matrices.
 Large coefficients: NSaved=  3 BigCof=   13.28 CofMax=   10.00 Det=-9.46D-07
 Inversion failed.  Reducing to  2 matrices.
 Large coefficients: NSaved=  2 BigCof=   12.46 CofMax=   10.00 Det=-1.62D-06
 Coeff-Com:  0.125D+02-0.115D+02
 Coeff-En:   0.000D+00 0.100D+01
 Coeff:      0.123D+02-0.113D+02
 Gap=     0.026 Goal=   None    Shift=    0.000
 RMSDP=2.37D-04 MaxDP=7.25D-03 DE=-1.50D-04 OVMax= 2.31D-02

 Cycle  13  Pass 1  IDiag  1:
 RMSU=  8.22D-05    CP:  1.03D+00  1.07D+00  3.58D-01  1.58D-01  7.87D-01
                    CP:  5.46D-01  4.41D-01  1.48D+00  1.40D+00  8.33D-01
                    CP:  1.03D+00 -3.00D+00
 E= -453.041766234815     Delta-E=        0.001118604666 Rises=F Damp=F
 DIIS: error= 3.67D-03 at cycle  13 NSaved=   3.
 NSaved= 3 IEnMin= 2 EnMin= -453.042884839481     IErMin= 1 ErrMin= 1.65D-03
 ErrMax= 3.67D-03  0.00D+00 EMaxC= 1.00D-01 BMatC= 1.59D-03 BMatP= 3.10D-04
 IDIUse=3 WtCom= 9.87D-01 WtEn= 1.29D-02
 Large coefficients: NSaved=  3 BigCof=   16.26 CofMax=   10.00 Det=-8.88D-07
 Inversion failed.  Reducing to  2 matrices.
 Coeff-Com:  0.120D+01-0.200D+00
 Coeff-En:   0.000D+00 0.100D+01
 Coeff:      0.118D+01-0.184D+00
 Gap=     0.031 Goal=   None    Shift=    0.000
 RMSDP=4.90D-04 MaxDP=1.18D-02 DE= 1.12D-03 OVMax= 8.89D-02

 Cycle  14  Pass 1  IDiag  1:
 RMSU=  1.16D-04    CP:  1.03D+00  1.05D+00  3.57D-01  1.67D-01  7.80D-01
                    CP:  5.76D-01  3.90D-01  1.79D+00  2.08D+00  1.78D+00
                    CP: -3.00D+00 -3.00D+00  1.59D-01
 E= -453.045243799374     Delta-E=       -0.003477564558 Rises=F Damp=F
 DIIS: error= 1.69D-03 at cycle  14 NSaved=   3.
 NSaved= 3 IEnMin= 3 EnMin= -453.045243799374     IErMin= 3 ErrMin= 1.69D-03
 ErrMax= 1.69D-03  0.00D+00 EMaxC= 1.00D-01 BMatC= 3.42D-04 BMatP= 3.49D-04
 IDIUse=3 WtCom= 9.87D-01 WtEn= 1.29D-02
 Coeff-Com:  0.668D+00-0.157D+00 0.489D+00
 Coeff-En:   0.000D+00 0.000D+00 0.100D+01
 Coeff:      0.660D+00-0.155D+00 0.495D+00
 Gap=     0.031 Goal=   None    Shift=    0.000
 RMSDP=4.16D-04 MaxDP=1.20D-02 DE=-3.48D-03 OVMax= 8.35D-02

 Cycle  15  Pass 1  IDiag  1:
 RMSU=  1.36D-04    CP:  1.03D+00  1.09D+00  3.52D-01  1.93D-01  7.83D-01
                    CP:  5.14D-01  3.81D-01  1.96D+00  2.63D+00  2.60D+00
                    CP: -3.00D+00  3.00D+00  9.07D-01  5.69D-01
 E= -453.046002293399     Delta-E=       -0.000758494025 Rises=F Damp=F
 DIIS: error= 3.22D-03 at cycle  15 NSaved=   4.
 NSaved= 4 IEnMin= 4 EnMin= -453.046002293399     IErMin= 3 ErrMin= 1.69D-03
 ErrMax= 3.22D-03  0.00D+00 EMaxC= 1.00D-01 BMatC= 1.21D-03 BMatP= 3.42D-04
 IDIUse=3 WtCom= 9.87D-01 WtEn= 1.29D-02
 Coeff-Com:  0.178D+00-0.289D+00 0.701D+00 0.411D+00
 Coeff-En:   0.000D+00 0.000D+00 0.205D+00 0.795D+00
 Coeff:      0.175D+00-0.285D+00 0.694D+00 0.416D+00
 Gap=     0.035 Goal=   None    Shift=    0.000
 RMSDP=3.84D-04 MaxDP=1.20D-02 DE=-7.58D-04 OVMax= 7.91D-02

 Cycle  16  Pass 1  IDiag  1:
 RMSU=  1.49D-04    CP:  1.02D+00  1.10D+00  3.36D-01  2.12D-01  7.70D-01
                    CP:  5.43D-01  3.48D-01  2.08D+00  3.00D+00  3.00D+00
                    CP: -3.00D+00  3.00D+00  1.03D+00  1.76D+00  1.85D+00
 E= -453.047724091097     Delta-E=       -0.001721797698 Rises=F Damp=F
 DIIS: error= 2.54D-03 at cycle  16 NSaved=   5.
 NSaved= 5 IEnMin= 5 EnMin= -453.047724091097     IErMin= 3 ErrMin= 1.69D-03
 ErrMax= 2.54D-03  0.00D+00 EMaxC= 1.00D-01 BMatC= 8.41D-04 BMatP= 3.42D-04
 IDIUse=3 WtCom= 9.87D-01 WtEn= 1.29D-02
 Coeff-Com:  0.127D+00-0.297D+00 0.713D+00 0.409D+00 0.479D-01
 Coeff-En:   0.000D+00 0.000D+00 0.000D+00 0.000D+00 0.100D+01
 Coeff:      0.125D+00-0.293D+00 0.704D+00 0.404D+00 0.602D-01
 Gap=     0.036 Goal=   None    Shift=    0.000
 RMSDP=5.35D-05 MaxDP=1.96D-03 DE=-1.72D-03 OVMax= 8.55D-03

 Cycle  17  Pass 1  IDiag  1:
 RMSU=  1.80D-05    CP:  1.02D+00  1.10D+00  3.34D-01  2.15D-01  7.74D-01
                    CP:  5.41D-01  3.42D-01  2.09D+00  3.00D+00  3.00D+00
                    CP: -3.00D+00  3.00D+00  1.05D+00  1.98D+00  1.98D+00
                    CP:  1.20D+00
 E= -453.047929045281     Delta-E=       -0.000204954184 Rises=F Damp=F
 DIIS: error= 2.46D-03 at cycle  17 NSaved=   6.
 NSaved= 6 IEnMin= 6 EnMin= -453.047929045281     IErMin= 3 ErrMin= 1.69D-03
 ErrMax= 2.46D-03  0.00D+00 EMaxC= 1.00D-01 BMatC= 7.69D-04 BMatP= 3.42D-04
 IDIUse=3 WtCom= 9.87D-01 WtEn= 1.29D-02
 Coeff-Com:  0.571D+00-0.214D+00 0.341D+00-0.590D+00-0.538D+01 0.628D+01
 Coeff-En:   0.000D+00 0.000D+00 0.000D+00 0.000D+00 0.000D+00 0.100D+01
 Coeff:      0.564D+00-0.211D+00 0.337D+00-0.582D+00-0.531D+01 0.621D+01
 Gap=     0.036 Goal=   None    Shift=    0.000
 RMSDP=2.76D-04 MaxDP=1.00D-02 DE=-2.05D-04 OVMax= 4.54D-02

 Cycle  18  Pass 1  IDiag  1:
 RMSU=  8.01D-05    CP:  1.02D+00  1.09D+00  3.29D-01  2.27D-01  7.63D-01
                    CP:  5.54D-01  2.97D-01  2.12D+00  3.00D+00  3.00D+00
                    CP: -3.00D+00  3.00D+00  5.91D-01  2.71D+00  2.81D+00
                    CP:  2.37D+00  3.00D+00
 E= -453.048785881137     Delta-E=       -0.000856835856 Rises=F Damp=F
 DIIS: error= 1.68D-03 at cycle  18 NSaved=   7.
 NSaved= 7 IEnMin= 7 EnMin= -453.048785881137     IErMin= 7 ErrMin= 1.68D-03
 ErrMax= 1.68D-03  0.00D+00 EMaxC= 1.00D-01 BMatC= 5.82D-04 BMatP= 3.42D-04
 IDIUse=3 WtCom= 9.87D-01 WtEn= 1.29D-02
 Large coefficients: NSaved=  7 BigCof=   11.21 CofMax=   10.00 Det=-7.25D-07
 Inversion failed.  Reducing to  6 matrices.
 Large coefficients: NSaved=  6 BigCof=   10.64 CofMax=   10.00 Det=-1.15D-06
 Inversion failed.  Reducing to  5 matrices.
 Coeff-Com:  0.249D+00-0.841D+00-0.822D+01 0.908D+01 0.735D+00
 Coeff-En:   0.000D+00 0.000D+00 0.000D+00 0.000D+00 0.100D+01
 Coeff:      0.246D+00-0.830D+00-0.811D+01 0.896D+01 0.738D+00
 Gap=     0.042 Goal=   None    Shift=    0.000
 RMSDP=6.27D-04 MaxDP=2.12D-02 DE=-8.57D-04 OVMax= 9.76D-02

 Cycle  19  Pass 1  IDiag  1:
 RMSU=  4.76D-04    CP:  1.02D+00  1.08D+00  3.16D-01  2.54D-01  7.62D-01
                    CP:  5.69D-01  1.86D-01  2.20D+00  3.00D+00  3.00D+00
                    CP: -3.00D+00  3.00D+00  6.34D-01  3.00D+00  3.00D+00
                    CP:  3.00D+00  3.00D+00  1.67D+00
 E= -453.049914824020     Delta-E=       -0.001128942883 Rises=F Damp=F
 DIIS: error= 1.20D-03 at cycle  19 NSaved=   6.
 NSaved= 6 IEnMin= 6 EnMin= -453.049914824020     IErMin= 6 ErrMin= 1.20D-03
 ErrMax= 1.20D-03  0.00D+00 EMaxC= 1.00D-01 BMatC= 1.73D-04 BMatP= 3.42D-04
 IDIUse=3 WtCom= 9.88D-01 WtEn= 1.20D-02
 Coeff-Com:  0.217D+00-0.392D+00-0.480D+01 0.524D+01 0.374D+00 0.352D+00
 Coeff-En:   0.000D+00 0.000D+00 0.000D+00 0.000D+00 0.000D+00 0.100D+01
 Coeff:      0.215D+00-0.387D+00-0.474D+01 0.518D+01 0.370D+00 0.360D+00
 Gap=     0.041 Goal=   None    Shift=    0.000
 RMSDP=1.47D-04 MaxDP=4.31D-03 DE=-1.13D-03 OVMax= 1.59D-02

 Cycle  20  Pass 1  IDiag  1:
 RMSU=  7.98D-05    CP:  1.02D+00  1.10D+00  3.07D-01  2.56D-01  7.82D-01
                    CP:  5.64D-01  2.17D-01  2.15D+00  3.00D+00  3.00D+00
                    CP: -3.00D+00  3.00D+00  8.20D-01  3.00D+00  3.00D+00
                    CP:  3.00D+00  3.00D+00  1.87D+00  8.77D-01
 E= -453.049942981337     Delta-E=       -0.000028157317 Rises=F Damp=F
 DIIS: error= 1.03D-03 at cycle  20 NSaved=   7.
 NSaved= 7 IEnMin= 7 EnMin= -453.049942981337     IErMin= 7 ErrMin= 1.03D-03
 ErrMax= 1.03D-03  0.00D+00 EMaxC= 1.00D-01 BMatC= 1.49D-04 BMatP= 1.73D-04
 IDIUse=3 WtCom= 9.90D-01 WtEn= 1.03D-02
 Coeff-Com:  0.891D-01 0.263D+00 0.106D+01-0.167D+01-0.809D-01 0.391D+00
 Coeff-Com:  0.944D+00
 Coeff-En:   0.000D+00 0.000D+00 0.000D+00 0.000D+00 0.000D+00 0.469D+00
 Coeff-En:   0.531D+00
 Coeff:      0.882D-01 0.260D+00 0.105D+01-0.165D+01-0.801D-01 0.392D+00
 Coeff:      0.939D+00
 Gap=     0.041 Goal=   None    Shift=    0.000
 RMSDP=1.56D-04 MaxDP=5.87D-03 DE=-2.82D-05 OVMax= 1.65D-02

 Cycle  21  Pass 1  IDiag  1:
 Restarting incremental Fock formation.
 E= -453.050154595910     Delta-E=       -0.000211614573 Rises=F Damp=F
 DIIS: error= 2.78D-04 at cycle  21 NSaved=   8.
 NSaved= 8 IEnMin= 8 EnMin= -453.050154595910     IErMin= 8 ErrMin= 2.78D-04
 ErrMax= 2.78D-04  0.00D+00 EMaxC= 1.00D-01 BMatC= 1.79D-05 BMatP= 1.49D-04
 IDIUse=3 WtCom= 9.97D-01 WtEn= 2.78D-03
 Coeff-Com:  0.308D-01 0.223D+00 0.128D+01-0.178D+01-0.125D+00 0.242D+00
 Coeff-Com:  0.614D+00 0.515D+00
 Coeff-En:   0.000D+00 0.000D+00 0.000D+00 0.000D+00 0.000D+00 0.000D+00
 Coeff-En:   0.000D+00 0.100D+01
 Coeff:      0.307D-01 0.222D+00 0.127D+01-0.177D+01-0.124D+00 0.241D+00
 Coeff:      0.612D+00 0.517D+00
 Gap=     0.041 Goal=   None    Shift=    0.000
 RMSDP=8.21D-05 MaxDP=2.94D-03 DE=-2.12D-04 OVMax= 1.25D-02

 Cycle  22  Pass 1  IDiag  1:
 RMSU=  8.17D-05    CP:  1.00D+00
 E= -453.050192725401     Delta-E=       -0.000038129491 Rises=F Damp=F
 DIIS: error= 1.03D-04 at cycle  22 NSaved=   9.
 NSaved= 9 IEnMin= 9 EnMin= -453.050192725401     IErMin= 9 ErrMin= 1.03D-04
 ErrMax= 1.03D-04  0.00D+00 EMaxC= 1.00D-01 BMatC= 2.48D-06 BMatP= 1.79D-05
 IDIUse=3 WtCom= 9.99D-01 WtEn= 1.03D-03
 Coeff-Com: -0.231D-02 0.655D-01 0.488D+00-0.643D+00-0.871D-01 0.723D-01
 Coeff-Com:  0.162D+00 0.258D+00 0.686D+00
 Coeff-En:   0.000D+00 0.000D+00 0.000D+00 0.000D+00 0.000D+00 0.000D+00
 Coeff-En:   0.000D+00 0.000D+00 0.100D+01
 Coeff:     -0.231D-02 0.655D-01 0.488D+00-0.642D+00-0.870D-01 0.722D-01
 Coeff:      0.162D+00 0.258D+00 0.686D+00
 Gap=     0.042 Goal=   None    Shift=    0.000
 RMSDP=5.26D-05 MaxDP=1.75D-03 DE=-3.81D-05 OVMax= 7.54D-03

 Cycle  23  Pass 1  IDiag  1:
 RMSU=  1.31D-05    CP:  9.99D-01  1.62D+00
 E= -453.050201486456     Delta-E=       -0.000008761055 Rises=F Damp=F
 DIIS: error= 4.97D-05 at cycle  23 NSaved=  10.
 NSaved=10 IEnMin=10 EnMin= -453.050201486456     IErMin=10 ErrMin= 4.97D-05
 ErrMax= 4.97D-05  0.00D+00 EMaxC= 1.00D-01 BMatC= 3.55D-07 BMatP= 2.48D-06
 IDIUse=1 WtCom= 1.00D+00 WtEn= 0.00D+00
 Coeff-Com: -0.119D-01-0.519D-01-0.133D+00 0.269D+00-0.174D-01-0.477D-01
 Coeff-Com: -0.176D+00-0.928D-01 0.432D+00 0.830D+00
 Coeff:     -0.119D-01-0.519D-01-0.133D+00 0.269D+00-0.174D-01-0.477D-01
 Coeff:     -0.176D+00-0.928D-01 0.432D+00 0.830D+00
 Gap=     0.042 Goal=   None    Shift=    0.000
 RMSDP=1.96D-05 MaxDP=5.48D-04 DE=-8.76D-06 OVMax= 3.29D-03

 Cycle  24  Pass 1  IDiag  1:
 RMSU=  1.13D-05    CP:  9.99D-01  1.81D+00  1.37D+00
 E= -453.050203858966     Delta-E=       -0.000002372510 Rises=F Damp=F
 DIIS: error= 2.67D-05 at cycle  24 NSaved=  11.
 NSaved=11 IEnMin=11 EnMin= -453.050203858966     IErMin=11 ErrMin= 2.67D-05
 ErrMax= 2.67D-05  0.00D+00 EMaxC= 1.00D-01 BMatC= 1.44D-07 BMatP= 3.55D-07
 IDIUse=1 WtCom= 1.00D+00 WtEn= 0.00D+00
 Coeff-Com:  0.886D-03-0.910D-02-0.325D-01 0.620D-01 0.606D-02-0.824D-02
 Coeff-Com: -0.364D-01 0.306D-02 0.645D-01-0.307D+00 0.126D+01
 Coeff:      0.886D-03-0.910D-02-0.325D-01 0.620D-01 0.606D-02-0.824D-02
 Coeff:     -0.364D-01 0.306D-02 0.645D-01-0.307D+00 0.126D+01
 Gap=     0.042 Goal=   None    Shift=    0.000
 RMSDP=1.41D-05 MaxDP=5.05D-04 DE=-2.37D-06 OVMax= 2.22D-03

 Cycle  25  Pass 1  IDiag  1:
 RMSU=  4.50D-06    CP:  9.99D-01  1.71D+00  1.49D+00  1.95D+00
 E= -453.050204737655     Delta-E=       -0.000000878689 Rises=F Damp=F
 DIIS: error= 3.04D-05 at cycle  25 NSaved=  12.
 NSaved=12 IEnMin=12 EnMin= -453.050204737655     IErMin=11 ErrMin= 2.67D-05
 ErrMax= 3.04D-05  0.00D+00 EMaxC= 1.00D-01 BMatC= 1.13D-07 BMatP= 1.44D-07
 IDIUse=1 WtCom= 1.00D+00 WtEn= 0.00D+00
 Coeff-Com:  0.129D-02-0.165D-01-0.133D+00 0.168D+00 0.214D-01-0.194D-01
 Coeff-Com: -0.526D-01-0.264D-02-0.751D-01-0.678D+00 0.102D+01 0.766D+00
 Coeff:      0.129D-02-0.165D-01-0.133D+00 0.168D+00 0.214D-01-0.194D-01
 Coeff:     -0.526D-01-0.264D-02-0.751D-01-0.678D+00 0.102D+01 0.766D+00
 Gap=     0.042 Goal=   None    Shift=    0.000
 RMSDP=1.48D-05 MaxDP=3.53D-04 DE=-8.79D-07 OVMax= 2.90D-03

 Cycle  26  Pass 1  IDiag  1:
 RMSU=  1.74D-06    CP:  9.99D-01  1.83D+00  1.89D+00  2.81D+00  1.41D+00
 E= -453.050205446115     Delta-E=       -0.000000708460 Rises=F Damp=F
 DIIS: error= 9.06D-06 at cycle  26 NSaved=  13.
 NSaved=13 IEnMin=13 EnMin= -453.050205446115     IErMin=13 ErrMin= 9.06D-06
 ErrMax= 9.06D-06  0.00D+00 EMaxC= 1.00D-01 BMatC= 1.49D-08 BMatP= 1.13D-07
 IDIUse=1 WtCom= 1.00D+00 WtEn= 0.00D+00
 Coeff-Com:  0.126D-02 0.167D-02-0.125D-01 0.767D-02 0.614D-02-0.252D-03
 Coeff-Com: -0.490D-02 0.130D-01-0.459D-01-0.316D+00 0.347D+00 0.294D+00
 Coeff-Com:  0.709D+00
 Coeff:      0.126D-02 0.167D-02-0.125D-01 0.767D-02 0.614D-02-0.252D-03
 Coeff:     -0.490D-02 0.130D-01-0.459D-01-0.316D+00 0.347D+00 0.294D+00
 Coeff:      0.709D+00
 Gap=     0.042 Goal=   None    Shift=    0.000
 RMSDP=2.79D-06 MaxDP=6.99D-05 DE=-7.08D-07 OVMax= 6.12D-04

 Cycle  27  Pass 1  IDiag  1:
 RMSU=  1.17D-06    CP:  9.99D-01  1.84D+00  1.92D+00  2.99D+00  1.41D+00
                    CP:  9.21D-01
 E= -453.050205492464     Delta-E=       -0.000000046349 Rises=F Damp=F
 DIIS: error= 4.72D-06 at cycle  27 NSaved=  14.
 NSaved=14 IEnMin=14 EnMin= -453.050205492464     IErMin=14 ErrMin= 4.72D-06
 ErrMax= 4.72D-06  0.00D+00 EMaxC= 1.00D-01 BMatC= 3.21D-09 BMatP= 1.49D-08
 IDIUse=1 WtCom= 1.00D+00 WtEn= 0.00D+00
 Coeff-Com:  0.303D-03 0.166D-02 0.767D-03-0.410D-02 0.493D-03 0.163D-02
 Coeff-Com:  0.238D-03 0.192D-02-0.140D-01-0.503D-01 0.379D-01-0.284D-01
 Coeff-Com:  0.309D+00 0.743D+00
 Coeff:      0.303D-03 0.166D-02 0.767D-03-0.410D-02 0.493D-03 0.163D-02
 Coeff:      0.238D-03 0.192D-02-0.140D-01-0.503D-01 0.379D-01-0.284D-01
 Coeff:      0.309D+00 0.743D+00
 Gap=     0.042 Goal=   None    Shift=    0.000
 RMSDP=1.76D-06 MaxDP=5.37D-05 DE=-4.63D-08 OVMax= 3.26D-04

 Cycle  28  Pass 1  IDiag  1:
 RMSU=  9.43D-07    CP:  9.99D-01  1.86D+00  1.97D+00  3.00D+00  1.45D+00
                    CP:  1.07D+00  1.11D+00
 E= -453.050205501979     Delta-E=       -0.000000009515 Rises=F Damp=F
 DIIS: error= 1.50D-06 at cycle  28 NSaved=  15.
 NSaved=15 IEnMin=15 EnMin= -453.050205501979     IErMin=15 ErrMin= 1.50D-06
 ErrMax= 1.50D-06  0.00D+00 EMaxC= 1.00D-01 BMatC= 2.63D-10 BMatP= 3.21D-09
 IDIUse=1 WtCom= 1.00D+00 WtEn= 0.00D+00
 Coeff-Com: -0.120D-03 0.551D-03 0.476D-03-0.123D-02-0.773D-03 0.106D-02
 Coeff-Com:  0.107D-02-0.957D-03 0.231D-02 0.279D-01-0.222D-01-0.629D-01
 Coeff-Com:  0.152D-01 0.225D+00 0.815D+00
 Coeff:     -0.120D-03 0.551D-03 0.476D-03-0.123D-02-0.773D-03 0.106D-02
 Coeff:      0.107D-02-0.957D-03 0.231D-02 0.279D-01-0.222D-01-0.629D-01
 Coeff:      0.152D-01 0.225D+00 0.815D+00
 Gap=     0.042 Goal=   None    Shift=    0.000
 RMSDP=3.37D-07 MaxDP=1.23D-05 DE=-9.52D-09 OVMax= 3.50D-05

 Cycle  29  Pass 1  IDiag  1:
 RMSU=  2.21D-07    CP:  9.99D-01  1.86D+00  1.98D+00  3.00D+00  1.46D+00
                    CP:  1.12D+00  1.15D+00  9.75D-01
 E= -453.050205502607     Delta-E=       -0.000000000628 Rises=F Damp=F
 DIIS: error= 3.67D-07 at cycle  29 NSaved=  16.
 NSaved=16 IEnMin=16 EnMin= -453.050205502607     IErMin=16 ErrMin= 3.67D-07
 ErrMax= 3.67D-07  0.00D+00 EMaxC= 1.00D-01 BMatC= 2.86D-11 BMatP= 2.63D-10
 IDIUse=1 WtCom= 1.00D+00 WtEn= 0.00D+00
 Coeff-Com: -0.465D-04 0.249D-03 0.800D-03-0.117D-02-0.242D-03 0.412D-03
 Coeff-Com:  0.987D-03-0.184D-03 0.258D-02 0.131D-01-0.134D-01-0.126D-01
 Coeff-Com: -0.551D-01-0.805D-01 0.246D+00 0.899D+00
 Coeff:     -0.465D-04 0.249D-03 0.800D-03-0.117D-02-0.242D-03 0.412D-03
 Coeff:      0.987D-03-0.184D-03 0.258D-02 0.131D-01-0.134D-01-0.126D-01
 Coeff:     -0.551D-01-0.805D-01 0.246D+00 0.899D+00
 Gap=     0.042 Goal=   None    Shift=    0.000
 RMSDP=2.03D-07 MaxDP=4.73D-06 DE=-6.28D-10 OVMax= 3.27D-05

 Cycle  30  Pass 1  IDiag  1:
 RMSU=  5.25D-08    CP:  9.99D-01  1.86D+00  1.98D+00  3.00D+00  1.47D+00
                    CP:  1.16D+00  1.22D+00  1.11D+00  1.24D+00
 E= -453.050205502777     Delta-E=       -0.000000000170 Rises=F Damp=F
 DIIS: error= 1.59D-07 at cycle  30 NSaved=  17.
 NSaved=17 IEnMin=17 EnMin= -453.050205502777     IErMin=17 ErrMin= 1.59D-07
 ErrMax= 1.59D-07  0.00D+00 EMaxC= 1.00D-01 BMatC= 6.52D-12 BMatP= 2.86D-11
 IDIUse=1 WtCom= 1.00D+00 WtEn= 0.00D+00
 Coeff-Com: -0.474D-04-0.116D-03-0.537D-03 0.781D-03 0.719D-04-0.132D-03
 Coeff-Com: -0.274D-03-0.297D-04 0.142D-02 0.123D-02-0.201D-02 0.704D-02
 Coeff-Com: -0.282D-01-0.723D-01-0.293D-01 0.401D+00 0.721D+00
 Coeff:     -0.474D-04-0.116D-03-0.537D-03 0.781D-03 0.719D-04-0.132D-03
 Coeff:     -0.274D-03-0.297D-04 0.142D-02 0.123D-02-0.201D-02 0.704D-02
 Coeff:     -0.282D-01-0.723D-01-0.293D-01 0.401D+00 0.721D+00
 Gap=     0.042 Goal=   None    Shift=    0.000
 RMSDP=7.05D-08 MaxDP=2.89D-06 DE=-1.70D-10 OVMax= 6.44D-06

 Cycle  31  Pass 1  IDiag  1:
 RMSU=  2.43D-08    CP:  9.99D-01  1.86D+00  1.98D+00  3.00D+00  1.47D+00
                    CP:  1.17D+00  1.24D+00  1.11D+00  1.39D+00  1.01D+00
 E= -453.050205502787     Delta-E=       -0.000000000010 Rises=F Damp=F
 DIIS: error= 1.27D-07 at cycle  31 NSaved=  18.
 NSaved=18 IEnMin=18 EnMin= -453.050205502787     IErMin=18 ErrMin= 1.27D-07
 ErrMax= 1.27D-07  0.00D+00 EMaxC= 1.00D-01 BMatC= 2.74D-12 BMatP= 6.52D-12
 IDIUse=1 WtCom= 1.00D+00 WtEn= 0.00D+00
 Coeff-Com:  0.165D-06-0.200D-04-0.655D-04 0.960D-04 0.785D-04-0.453D-04
 Coeff-Com: -0.103D-03 0.101D-03 0.129D-03-0.178D-02 0.677D-03 0.660D-02
 Coeff-Com: -0.857D-02-0.236D-01-0.551D-01 0.760D-01 0.392D+00 0.613D+00
 Coeff:      0.165D-06-0.200D-04-0.655D-04 0.960D-04 0.785D-04-0.453D-04
 Coeff:     -0.103D-03 0.101D-03 0.129D-03-0.178D-02 0.677D-03 0.660D-02
 Coeff:     -0.857D-02-0.236D-01-0.551D-01 0.760D-01 0.392D+00 0.613D+00
 Gap=     0.042 Goal=   None    Shift=    0.000
 RMSDP=5.32D-08 MaxDP=1.54D-06 DE=-1.03D-11 OVMax= 7.57D-06

 Cycle  32  Pass 1  IDiag  1:
 RMSU=  8.46D-09    CP:  9.99D-01  1.86D+00  1.98D+00  3.00D+00  1.47D+00
                    CP:  1.17D+00  1.25D+00  1.12D+00  1.42D+00  1.05D+00
                    CP:  1.07D+00
 E= -453.050205502792     Delta-E=       -0.000000000005 Rises=F Damp=F
 DIIS: error= 1.84D-08 at cycle  32 NSaved=  19.
 NSaved=19 IEnMin=19 EnMin= -453.050205502792     IErMin=19 ErrMin= 1.84D-08
 ErrMax= 1.84D-08  0.00D+00 EMaxC= 1.00D-01 BMatC= 1.03D-13 BMatP= 2.74D-12
 IDIUse=1 WtCom= 1.00D+00 WtEn= 0.00D+00
 Coeff-Com:  0.275D-05 0.138D-05-0.104D-04 0.553D-05 0.180D-04 0.142D-05
 Coeff-Com: -0.224D-04 0.243D-05-0.177D-03-0.518D-03 0.356D-03 0.123D-02
 Coeff-Com:  0.768D-03 0.364D-02-0.122D-01-0.282D-01 0.386D-02 0.183D+00
 Coeff-Com:  0.848D+00
 Coeff:      0.275D-05 0.138D-05-0.104D-04 0.553D-05 0.180D-04 0.142D-05
 Coeff:     -0.224D-04 0.243D-05-0.177D-03-0.518D-03 0.356D-03 0.123D-02
 Coeff:      0.768D-03 0.364D-02-0.122D-01-0.282D-01 0.386D-02 0.183D+00
 Coeff:      0.848D+00
 Gap=     0.042 Goal=   None    Shift=    0.000
 RMSDP=7.08D-09 MaxDP=1.50D-07 DE=-4.89D-12 OVMax= 8.40D-07

 SCF Done:  E(RB3LYP) =  -453.050205503     A.U. after   32 cycles
            NFock= 32  Conv=0.71D-08     -V/T= 2.0034
 KE= 4.515195377862D+02 PE=-1.891150264501D+03 EE= 5.637609068970D+02
 Leave Link  502 at Tue May  2 17:53:01 2023, MaxMem=  8053063680 cpu:             518.4 elap:              16.2
 (Enter /public3/home/scg5914/software-scg5914/g16/l601.exe)
 Copying SCF densities to generalized density rwf, IOpCl= 0 IROHF=0.

 **********************************************************************

            Population analysis using the SCF Density.

 **********************************************************************

 Orbital symmetries:
       Occupied  (A) (A) (A) (A) (A) (A) (A) (A) (A) (A) (A) (A)
                 (A) (A) (A) (A) (A) (A) (A) (A) (A) (A) (A) (A)
                 (A) (A) (A) (A) (A) (A) (A) (A)
       Virtual   (A) (A) (A) (A) (A) (A) (A) (A) (A) (A) (A) (A)
                 (A) (A) (A) (A) (A) (A) (A) (A) (A) (A) (A) (A)
                 (A) (A) (A) (A) (A) (A) (A) (A) (A) (A) (A) (A)
                 (A) (A) (A) (A) (A) (A) (A) (A) (A) (A) (A) (A)
                 (A) (A) (A) (A) (A) (A) (A) (A) (A) (A) (A) (A)
                 (A) (A) (A) (A) (A) (A) (A) (A) (A) (A) (A) (A)
                 (A) (A) (A) (A) (A) (A) (A) (A) (A) (A) (A) (A)
                 (A) (A) (A) (A) (A) (A) (A) (A) (A) (A) (A) (A)
                 (A) (A) (A) (A) (A) (A) (A) (A) (A) (A) (A) (A)
                 (A) (A) (A) (A) (A) (A) (A) (A) (A) (A) (A) (A)
                 (A) (A) (A) (A) (A) (A) (A) (A) (A) (A) (A) (A)
                 (A) (A) (A) (A) (A) (A) (A) (A) (A) (A) (A) (A)
                 (A) (A) (A) (A) (A) (A) (A) (A) (A) (A) (A) (A)
                 (A) (A) (A) (A) (A) (A) (A) (A) (A) (A) (A) (A)
                 (A) (A) (A) (A) (A) (A) (A) (A) (A) (A) (A) (A)
                 (A) (A) (A) (A) (A) (A) (A) (A) (A) (A) (A) (A)
                 (A) (A) (A) (A)
 The electronic state is 1-A.
 Alpha  occ. eigenvalues --  -19.37442 -19.35689 -14.75812 -14.63354 -10.51365
 Alpha  occ. eigenvalues --  -10.49703 -10.47391 -10.44513 -10.40977  -1.43694
 Alpha  occ. eigenvalues --   -1.26645  -1.26187  -1.08602  -1.01473  -0.96748
 Alpha  occ. eigenvalues --   -0.90043  -0.81988  -0.79403  -0.76928  -0.74361
 Alpha  occ. eigenvalues --   -0.72389  -0.71067  -0.69909  -0.67413  -0.66167
 Alpha  occ. eigenvalues --   -0.60792  -0.60699  -0.52107  -0.51241  -0.50142
 Alpha  occ. eigenvalues --   -0.49634  -0.48619
 Alpha virt. eigenvalues --   -0.44431  -0.29228  -0.22016  -0.16018  -0.15319
 Alpha virt. eigenvalues --   -0.13011  -0.11910  -0.11164  -0.10242  -0.09772
 Alpha virt. eigenvalues --   -0.08207  -0.07563  -0.06454  -0.06435  -0.05717
 Alpha virt. eigenvalues --   -0.04200  -0.03176  -0.02354  -0.01946  -0.01726
 Alpha virt. eigenvalues --   -0.01272   0.00221   0.01270   0.01807   0.03085
 Alpha virt. eigenvalues --    0.03421   0.03795   0.04211   0.04280   0.05242
 Alpha virt. eigenvalues --    0.05273   0.06499   0.07186   0.07684   0.07924
 Alpha virt. eigenvalues --    0.08406   0.09722   0.10560   0.11493   0.12261
 Alpha virt. eigenvalues --    0.12403   0.12934   0.14348   0.15350   0.16439
 Alpha virt. eigenvalues --    0.18162   0.18971   0.20184   0.21825   0.23751
 Alpha virt. eigenvalues --    0.24423   0.26377   0.29112   0.29987   0.30557
 Alpha virt. eigenvalues --    0.32603   0.33461   0.35006   0.35475   0.36248
 Alpha virt. eigenvalues --    0.39466   0.40548   0.41976   0.42660   0.43504
 Alpha virt. eigenvalues --    0.45542   0.46551   0.47442   0.49767   0.52168
 Alpha virt. eigenvalues --    0.53969   0.58545   0.60120   0.60640   0.64285
 Alpha virt. eigenvalues --    0.64632   0.65408   0.69103   0.71845   0.73834
 Alpha virt. eigenvalues --    0.75270   0.76828   0.77995   0.79173   0.80655
 Alpha virt. eigenvalues --    0.86130   0.87068   0.89417   0.90528   0.92714
 Alpha virt. eigenvalues --    0.95791   0.96456   0.99620   1.02424   1.02609
 Alpha virt. eigenvalues --    1.07084   1.09387   1.11984   1.18924   1.21630
 Alpha virt. eigenvalues --    1.24326   1.26539   1.32809   1.34633   1.35161
 Alpha virt. eigenvalues --    1.35848   1.38995   1.40086   1.44208   1.45015
 Alpha virt. eigenvalues --    1.47346   1.50124   1.53115   1.54082   1.57370
 Alpha virt. eigenvalues --    1.57948   1.62092   1.62223   1.66377   1.68112
 Alpha virt. eigenvalues --    1.73807   1.74778   1.75731   1.77779   1.81575
 Alpha virt. eigenvalues --    1.87960   1.92077   1.95476   2.01126   2.03080
 Alpha virt. eigenvalues --    2.06239   2.13962   2.15691   2.16654   2.21785
 Alpha virt. eigenvalues --    2.24813   2.28702   2.29803   2.33651   2.34504
 Alpha virt. eigenvalues --    2.35978   2.38107   2.41051   2.43361   2.46064
 Alpha virt. eigenvalues --    2.52260   2.54346   2.56612   2.59408   2.59598
 Alpha virt. eigenvalues --    2.62786   2.66751   2.67372   2.70191   2.71711
 Alpha virt. eigenvalues --    2.75643   2.77827   2.86404   2.91411   2.99229
 Alpha virt. eigenvalues --    3.01280   3.14994   3.17468   3.17876   3.21613
 Alpha virt. eigenvalues --    3.33086   3.38709   3.43305   3.51386   3.52969
 Alpha virt. eigenvalues --    3.55531   3.60724   3.62520   3.63496   3.68878
 Alpha virt. eigenvalues --    3.71527   3.99070   4.31926   4.54108   4.71264
 Alpha virt. eigenvalues --    4.78647   4.81735   4.83609   4.88995   4.95599
 Alpha virt. eigenvalues --    5.55316   6.04903  23.36108  23.56255  23.71568
 Alpha virt. eigenvalues --   23.81933  23.87788  35.21707  35.26853  49.69000
 Alpha virt. eigenvalues --   49.79214
          Condensed to atoms (all electrons):
               1          2          3          4          5          6
     1  C    5.038977   0.286691  -0.120450   0.065895   0.035410  -0.260494
     2  N    0.286691   6.643979   0.134556   0.101466  -0.250678   0.081259
     3  C   -0.120450   0.134556   6.122895  -0.358168   0.156436  -0.044354
     4  C    0.065895   0.101466  -0.358168   6.441604   0.013632  -1.082527
     5  C    0.035410  -0.250678   0.156436   0.013632   8.580650  -0.984808
     6  C   -0.260494   0.081259  -0.044354  -1.082527  -0.984808   7.432121
     7  N   -0.006320  -0.006036   0.034755  -0.067253  -0.432747   0.072328
     8  O   -0.003285  -0.006649   0.099130  -0.048627  -0.260310   0.107476
     9  O    0.005362   0.017852   0.039768   0.064111  -0.245640   0.023631
    10  H    0.426041  -0.022494   0.000523  -0.011267  -0.001713  -0.014156
    11  H    0.392152  -0.027463  -0.009896   0.010650  -0.008034   0.016542
    12  H    0.380498  -0.046218   0.005633  -0.002698   0.026807   0.005189
    13  H    0.000865   0.010339  -0.018100   0.406446   0.001410  -0.029099
    14  H   -0.001552  -0.033799   0.005992  -0.004941   0.041445   0.364955
               7          8          9         10         11         12
     1  C   -0.006320  -0.003285   0.005362   0.426041   0.392152   0.380498
     2  N   -0.006036  -0.006649   0.017852  -0.022494  -0.027463  -0.046218
     3  C    0.034755   0.099130   0.039768   0.000523  -0.009896   0.005633
     4  C   -0.067253  -0.048627   0.064111  -0.011267   0.010650  -0.002698
     5  C   -0.432747  -0.260310  -0.245640  -0.001713  -0.008034   0.026807
     6  C    0.072328   0.107476   0.023631  -0.014156   0.016542   0.005189
     7  N    7.337945   0.168473   0.112009  -0.000028  -0.000032   0.000103
     8  O    0.168473   7.855160   0.011357   0.000000   0.000006   0.000011
     9  O    0.112009   0.011357   7.875278  -0.000027  -0.000012  -0.000017
    10  H   -0.000028   0.000000  -0.000027   0.431040  -0.022666  -0.018503
    11  H   -0.000032   0.000006  -0.000012  -0.022666   0.465431  -0.016773
    12  H    0.000103   0.000011  -0.000017  -0.018503  -0.016773   0.485550
    13  H   -0.013564   0.002967  -0.000100  -0.000003   0.000022  -0.000009
    14  H   -0.013592  -0.000754   0.004176  -0.000034   0.000348  -0.000211
              13         14
     1  C    0.000865  -0.001552
     2  N    0.010339  -0.033799
     3  C   -0.018100   0.005992
     4  C    0.406446  -0.004941
     5  C    0.001410   0.041445
     6  C   -0.029099   0.364955
     7  N   -0.013564  -0.013592
     8  O    0.002967  -0.000754
     9  O   -0.000100   0.004176
    10  H   -0.000003  -0.000034
    11  H    0.000022   0.000348
    12  H   -0.000009  -0.000211
    13  H    0.409143   0.000060
    14  H    0.000060   0.402880
 Mulliken charges:
               1
     1  C   -0.239792
     2  N    0.117196
     3  C   -0.048719
     4  C    0.471677
     5  C   -0.671858
     6  C    0.311937
     7  N   -0.186041
     8  O    0.075046
     9  O    0.092255
    10  H    0.233287
    11  H    0.199725
    12  H    0.180638
    13  H    0.229622
    14  H    0.235027
 Sum of Mulliken charges =   1.00000
 Mulliken charges with hydrogens summed into heavy atoms:
               1
     1  C    0.373858
     2  N    0.117196
     3  C   -0.048719
     4  C    0.701299
     5  C   -0.671858
     6  C    0.546964
     7  N   -0.186041
     8  O    0.075046
     9  O    0.092255
 Electronic spatial extent (au):  <R**2>=           1193.9999
 Charge=              1.0000 electrons
 Dipole moment (field-independent basis, Debye):
    X=             -7.1565    Y=              0.1706    Z=             -0.6241  Tot=              7.1857
 Quadrupole moment (field-independent basis, Debye-Ang):
   XX=            -34.6019   YY=            -40.2984   ZZ=            -48.0717
   XY=              4.3127   XZ=              1.5315   YZ=             -1.5294
 Traceless Quadrupole moment (field-independent basis, Debye-Ang):
   XX=              6.3888   YY=              0.6922   ZZ=             -7.0810
   XY=              4.3127   XZ=              1.5315   YZ=             -1.5294
 Octapole moment (field-independent basis, Debye-Ang**2):
  XXX=            -60.9182  YYY=              1.3725  ZZZ=              0.1109  XYY=             -4.6600
  XXY=            -11.3792  XXZ=             -2.5245  XZZ=              3.6352  YZZ=             -2.4416
  YYZ=             -3.4742  XYZ=              3.5080
 Hexadecapole moment (field-independent basis, Debye-Ang**3):
 XXXX=           -958.7408 YYYY=           -267.5011 ZZZZ=            -50.6936 XXXY=             29.9242
 XXXZ=              7.2270 YYYX=             25.5262 YYYZ=             -3.7724 ZZZX=             -1.1140
 ZZZY=             -2.3322 XXYY=           -234.1076 XXZZ=           -180.1419 YYZZ=            -62.5049
 XXYZ=             -8.8916 YYXZ=              7.7624 ZZXY=              0.3054
 N-N= 4.228196143155D+02 E-N=-1.891150264926D+03  KE= 4.515195377862D+02
 No NMR shielding tensors so no spin-rotation constants.
 Leave Link  601 at Tue May  2 17:53:01 2023, MaxMem=  8053063680 cpu:               2.8 elap:               0.1
 (Enter /public3/home/scg5914/software-scg5914/g16/l701.exe)
 ... and contract with generalized density number  0.
 Compute integral first derivatives.
 R6Disp: Adding Grimme-D3(BJ) dispersion energy 1st derivatives to the gradient.
 Leave Link  701 at Tue May  2 17:53:02 2023, MaxMem=  8053063680 cpu:               2.9 elap:               0.1
 (Enter /public3/home/scg5914/software-scg5914/g16/l702.exe)
 L702 exits ... SP integral derivatives will be done elsewhere.
 Leave Link  702 at Tue May  2 17:53:02 2023, MaxMem=  8053063680 cpu:               0.2 elap:               0.0
 (Enter /public3/home/scg5914/software-scg5914/g16/l703.exe)
 Integral derivatives from FoFJK, PRISM(SPDF).
 Compute integral first derivatives, UseDBF=F ICtDFT=           0.
 Calling FoFJK, ICntrl=      2127 FMM=F ISym2X=0 I1Cent= 0 IOpClX= 0 NMat=1 NMatS=1 NMatT=0.
 FoFJK:  IHMeth= 1 ICntrl=    2127 DoSepK=F KAlg= 0 I1Cent=           0 FoldK=F
 IRaf=         0 NMat=       1 IRICut=       1 DoRegI=T DoRafI=F ISym2E= 0 IDoP0=0 IntGTp=1.
 FoFCou: FMM=F IPFlag=           0 FMFlag=      100000 FMFlg1=         800
         NFxFlg=           0 DoJE=F BraDBF=F KetDBF=F FulRan=T
         wScrn=  0.000000 ICntrl=      2127 IOpCl=  0 I1Cent=           0 NGrid=           0
         NMat0=    1 NMatS0=      1 NMatT0=    0 NMatD0=    1 NMtDS0=    0 NMtDT0=    0
 Symmetry not used in FoFCou.
 Leave Link  703 at Tue May  2 17:53:03 2023, MaxMem=  8053063680 cpu:              42.8 elap:               1.4
 (Enter /public3/home/scg5914/software-scg5914/g16/l716.exe)
 Dipole        =-2.81560324D+00 6.71001425D-02-2.45549013D-01
 ***** Axes restored to original set *****
 -------------------------------------------------------------------
 Center     Atomic                   Forces (Hartrees/Bohr)
 Number     Number              X              Y              Z
 -------------------------------------------------------------------
      1        6          -0.000132412    0.021625504    0.000086442
      2        7          -0.043100197    0.011460392   -0.022257312
      3        6           0.057088366    0.034544307    0.040030185
      4        6          -0.033605211   -0.053607068    0.009135757
      5        6           0.017004671   -0.017439219   -0.028613587
      6        6          -0.004263627    0.019926204    0.000081872
      7        7           0.011778579   -0.035227003    0.000194193
      8        8          -0.000339075    0.016953274    0.004420550
      9        8          -0.006840416    0.009789028   -0.007334252
     10        1          -0.001589915   -0.003779686   -0.000129181
     11        1           0.001194900   -0.002005513    0.001618700
     12        1          -0.000255594   -0.001581202   -0.001157990
     13        1          -0.007636030   -0.003024578   -0.000263512
     14        1           0.010695960    0.002365560    0.004188134
 -------------------------------------------------------------------
 Cartesian Forces:  Max     0.057088366 RMS     0.020140971
 Leave Link  716 at Tue May  2 17:53:03 2023, MaxMem=  8053063680 cpu:               0.3 elap:               0.0
 (Enter /public3/home/scg5914/software-scg5914/g16/l103.exe)

 GradGradGradGradGradGradGradGradGradGradGradGradGradGradGradGradGradGrad
 Berny optimization.
 FormGI is forming the generalized inverse of G from B-inverse, IUseBI=4.
 Internal  Forces:  Max     0.040462217 RMS     0.012064813
 Search for a local minimum.
 Step number   1 out of a maximum of   72
 All quantities printed in internal units (Hartrees-Bohrs-Radians)
 RMS Force = .12065D-01 SwitMx=.10000D-02 MixMth= 1
 Mixed Optimization -- RFO/linear search
 Second derivative matrix not updated -- first step.
 ITU=  0
     Eigenvalues ---    0.01003   0.01289   0.01289   0.01551   0.01818
     Eigenvalues ---    0.02038   0.02091   0.02211   0.02295   0.07436
     Eigenvalues ---    0.07650   0.15999   0.16000   0.16000   0.16000
     Eigenvalues ---    0.16000   0.23390   0.24054   0.24959   0.24999
     Eigenvalues ---    0.25000   0.25000   0.34267   0.34506   0.34700
     Eigenvalues ---    0.36413   0.36450   0.37978   0.40002   0.40924
     Eigenvalues ---    0.44478   0.47477   0.49456   0.52027   0.90935
     Eigenvalues ---    0.91841
 RFO step:  Lambda=-4.64824027D-02 EMin= 1.00325028D-02
 Linear search not attempted -- first point.
 Iteration  1 RMS(Cart)=  0.06950155 RMS(Int)=  0.01576457
 Iteration  2 RMS(Cart)=  0.01476493 RMS(Int)=  0.00467796
 Iteration  3 RMS(Cart)=  0.00037155 RMS(Int)=  0.00466724
 Iteration  4 RMS(Cart)=  0.00000210 RMS(Int)=  0.00466724
 Iteration  5 RMS(Cart)=  0.00000002 RMS(Int)=  0.00466724
 ITry= 1 IFail=0 DXMaxC= 3.18D-01 DCOld= 1.00D+10 DXMaxT= 3.00D-01 DXLimC= 3.00D+00 Rises=F
 Variable       Old X    -DE/DX   Delta X   Delta X   Delta X     New X
                                 (Linear)    (Quad)   (Total)
    R1        2.74398   0.01425   0.00000   0.03343   0.03343   2.77741
    R2        2.06881  -0.00276   0.00000  -0.00708  -0.00708   2.06173
    R3        2.06485  -0.00257   0.00000  -0.00656  -0.00656   2.05829
    R4        2.06164  -0.00150   0.00000  -0.00381  -0.00381   2.05783
    R5        2.61238  -0.01700   0.00000  -0.03364  -0.03326   2.57913
    R6        2.56759   0.00549   0.00000   0.00819   0.00855   2.57614
    R7        2.58980   0.03730   0.00000   0.06741   0.06608   2.65588
    R8        2.68060  -0.02120   0.00000  -0.04261  -0.04242   2.63818
    R9        2.03441   0.00252   0.00000   0.00613   0.00613   2.04054
   R10        2.60968   0.04046   0.00000   0.07641   0.07684   2.68652
   R11        2.70317   0.00523   0.00000   0.01147   0.01147   2.71464
   R12        2.03384   0.00473   0.00000   0.01151   0.01151   2.04534
   R13        2.32096  -0.01721   0.00000  -0.01784  -0.01784   2.30312
   R14        2.32505  -0.00562   0.00000  -0.00588  -0.00588   2.31917
    A1        1.94069  -0.00388   0.00000  -0.01907  -0.01912   1.92157
    A2        1.91778  -0.00089   0.00000  -0.00461  -0.00465   1.91313
    A3        1.90704  -0.00060   0.00000  -0.00235  -0.00237   1.90468
    A4        1.90105   0.00208   0.00000   0.00899   0.00891   1.90996
    A5        1.90058   0.00248   0.00000   0.01254   0.01250   1.91308
    A6        1.89608   0.00095   0.00000   0.00520   0.00519   1.90127
    A7        2.18087   0.01046   0.00000   0.03558   0.03688   2.21774
    A8        2.18894   0.01026   0.00000   0.03485   0.03539   2.22433
    A9        1.91203  -0.02113   0.00000  -0.07713  -0.08675   1.82529
   A10        1.89879   0.03034   0.00000   0.10060   0.08271   1.98150
   A11        1.84568  -0.02040   0.00000  -0.07079  -0.08394   1.76175
   A12        2.23306   0.01164   0.00000   0.04300   0.04330   2.27636
   A13        2.20439   0.00888   0.00000   0.02968   0.02745   2.23184
   A14        1.90173   0.00310   0.00000   0.01606   0.00967   1.91140
   A15        2.20838  -0.00248   0.00000  -0.01133  -0.00916   2.19922
   A16        2.17304  -0.00064   0.00000  -0.00514  -0.00211   2.17093
   A17        1.86653   0.00804   0.00000   0.03050   0.02353   1.89006
   A18        2.14307  -0.00432   0.00000  -0.01670  -0.01378   2.12929
   A19        2.27358  -0.00372   0.00000  -0.01377  -0.01088   2.26271
   A20        2.05056   0.00344   0.00000   0.01164   0.00955   2.06011
   A21        2.05315  -0.01453   0.00000  -0.04899  -0.05109   2.00205
   A22        2.17948   0.01110   0.00000   0.03746   0.03534   2.21482
    D1       -1.32734   0.00532   0.00000   0.08071   0.08198  -1.24535
    D2        1.75274  -0.00475   0.00000  -0.07533  -0.07664   1.67610
    D3        0.77872   0.00482   0.00000   0.07652   0.07784   0.85655
    D4       -2.42440  -0.00526   0.00000  -0.07952  -0.08078  -2.50518
    D5        2.85746   0.00508   0.00000   0.07867   0.07995   2.93740
    D6       -0.34566  -0.00500   0.00000  -0.07737  -0.07867  -0.42433
    D7        3.09185   0.01132   0.00000   0.15895   0.16392  -3.02742
    D8        0.00345   0.01924   0.00000   0.29106   0.29083   0.29429
    D9       -3.09178  -0.00114   0.00000  -0.00707  -0.00413  -3.09591
   D10        0.05061  -0.00402   0.00000  -0.04886  -0.05137  -0.00076
   D11       -0.00369  -0.00911   0.00000  -0.13993  -0.13166  -0.13534
   D12        3.13870  -0.01198   0.00000  -0.18172  -0.17890   2.95981
   D13       -0.00175  -0.02079   0.00000  -0.31263  -0.31835  -0.32010
   D14        3.12878  -0.00889   0.00000  -0.13096  -0.14028   2.98850
   D15       -0.00051   0.01535   0.00000   0.22956   0.21722   0.21672
   D16        3.13310   0.01164   0.00000   0.17498   0.16569  -2.98440
   D17       -3.13127   0.00368   0.00000   0.05167   0.04539  -3.08588
   D18        0.00233  -0.00003   0.00000  -0.00292  -0.00615  -0.00381
   D19        0.00258  -0.00392   0.00000  -0.05666  -0.06109  -0.05851
   D20       -3.13989  -0.00075   0.00000  -0.01062  -0.00906   3.13423
   D21       -3.13123  -0.00029   0.00000  -0.00340  -0.01053   3.14143
   D22        0.00949   0.00288   0.00000   0.04265   0.04150   0.05099
   D23        0.00655   0.00222   0.00000   0.03289   0.03114   0.03770
   D24       -3.13608   0.00889   0.00000   0.14533   0.14335  -2.99273
   D25        3.13898  -0.00202   0.00000  -0.02967  -0.02768   3.11129
   D26       -0.00366   0.00465   0.00000   0.08277   0.08452   0.08086
         Item               Value     Threshold  Converged?
 Maximum Force            0.040462     0.000450     NO 
 RMS     Force            0.012065     0.000300     NO 
 Maximum Displacement     0.317657     0.001800     NO 
 RMS     Displacement     0.077057     0.001200     NO 
 Predicted change in Energy=-3.427118D-02
 Lowest energy point so far.  Saving SCF results.
 GradGradGradGradGradGradGradGradGradGradGradGradGradGradGradGradGradGrad

 Leave Link  103 at Tue May  2 17:53:03 2023, MaxMem=  8053063680 cpu:               0.8 elap:               0.0
 (Enter /public3/home/scg5914/software-scg5914/g16/l202.exe)
                          Input orientation:                          
 ---------------------------------------------------------------------
 Center     Atomic      Atomic             Coordinates (Angstroms)
 Number     Number       Type             X           Y           Z
 ---------------------------------------------------------------------
      1          6           0       -0.032898    1.480710    0.015890
      2          7           0       -0.029676    0.011083    0.033871
      3          6           0        0.161802   -0.824205   -1.028368
      4          6           0       -0.036186   -2.180648   -0.718379
      5          6           0        0.064451   -2.151724    0.673753
      6          6           0        0.020910   -0.804355    1.125160
      7          7           0        0.123825   -3.296062    1.540111
      8          8           0        0.124432   -4.402326    1.028686
      9          8           0        0.045242   -3.037767    2.737298
     10          1           0        0.979300    1.855926   -0.142210
     11          1           0       -0.680025    1.835146   -0.785333
     12          1           0       -0.414578    1.848406    0.967180
     13          1           0       -0.081834   -3.046550   -1.361894
     14          1           0        0.066439   -0.411858    2.132807
 ---------------------------------------------------------------------
                    Distance matrix (angstroms):
                    1          2          3          4          5
     1  C    0.000000
     2  N    1.469741   0.000000
     3  C    2.537916   1.364816   0.000000
     4  C    3.734261   2.317241   1.405429   0.000000
     5  C    3.692809   2.257442   2.160787   1.396064   0.000000
     6  C    2.540649   1.363234   2.158223   2.301321   1.421643
     7  N    5.016509   3.637242   3.564913   2.523991   1.436527
     8  O    5.971652   4.526763   4.127447   2.830881   2.279207
     9  O    5.275301   4.075489   4.369632   3.561318   2.245809
    10  H    1.091021   2.110091   2.938823   4.202037   4.190943
    11  H    1.089200   2.102678   2.799980   4.067630   4.310256
    12  H    1.088959   2.096419   3.384860   4.383785   4.039383
    13  H    4.732522   3.361547   2.260401   1.079806   2.228446
    14  H    2.841306   2.143280   3.189381   3.356845   2.270678
                    6          7          8          9         10
     6  C    0.000000
     7  N    2.528118   0.000000
     8  O    3.600753   1.218760   0.000000
     9  O    2.754580   1.227252   2.188069   0.000000
    10  H    3.098682   5.486805   6.423980   5.754326   0.000000
    11  H    3.332905   5.690620   6.545523   6.056420   1.779718
    12  H    2.692907   5.204199   6.274231   5.217225   1.781487
    13  H    3.350139   2.919963   2.756002   4.101171   5.162161
    14  H    1.082349   2.945032   4.140806   2.694671   3.339441
                   11         12         13         14
    11  H    0.000000
    12  H    1.772551   0.000000
    13  H    4.951889   5.431013   0.000000
    14  H    3.757895   2.588216   4.379100   0.000000
 Stoichiometry    C5H5N2O2(1+)
 Framework group  C1[X(C5H5N2O2)]
 Deg. of freedom    36
 Full point group                 C1      NOp   1
 RotChk:  IX=0 Diff= 3.32D-02
 Largest Abelian subgroup         C1      NOp   1
 Largest concise Abelian subgroup C1      NOp   1
                         Standard orientation:                         
 ---------------------------------------------------------------------
 Center     Atomic      Atomic             Coordinates (Angstroms)
 Number     Number       Type             X           Y           Z
 ---------------------------------------------------------------------
      1          6           0       -3.149216   -0.548223   -0.007344
      2          7           0       -1.774151   -0.030178   -0.038398
      3          6           0       -1.379142    1.265345    0.129858
      4          6           0       -0.007292    1.467880   -0.098700
      5          6           0        0.474635    0.161937    0.007374
      6          6           0       -0.616538   -0.749271   -0.003123
      7          7           0        1.856802   -0.227882    0.042975
      8          8           0        2.700738    0.650991    0.015977
      9          8           0        2.050504   -1.437820   -0.025433
     10          1           0       -3.535397   -0.525651    1.012794
     11          1           0       -3.784203    0.061471   -0.648766
     12          1           0       -3.153116   -1.572494   -0.377054
     13          1           0        0.563794    2.381777   -0.166780
     14          1           0       -0.614253   -1.830055    0.055030
 ---------------------------------------------------------------------
 Rotational constants (GHZ):           4.5967702           1.0880044           0.8859775
 Leave Link  202 at Tue May  2 17:53:03 2023, MaxMem=  8053063680 cpu:               0.1 elap:               0.0
 (Enter /public3/home/scg5914/software-scg5914/g16/l301.exe)
 Standard basis: 6-311+G(d,p) (5D, 7F)
 Ernie: Thresh=  0.10000D-02 Tol=  0.10000D-05 Strict=F.
 There are   237 symmetry adapted cartesian basis functions of A   symmetry.
 There are   228 symmetry adapted basis functions of A   symmetry.
   228 basis functions,   364 primitive gaussians,   237 cartesian basis functions
    32 alpha electrons       32 beta electrons
       nuclear repulsion energy       421.6846847365 Hartrees.
 IExCor=  402 DFT=T Ex+Corr=B3LYP ExCW=0 ScaHFX=  0.200000
 ScaDFX=  0.800000  0.720000  1.000000  0.810000 ScalE2=  1.000000  1.000000
 IRadAn=      5 IRanWt=     -1 IRanGd=            0 ICorTp=0 IEmpDi=141
 NAtoms=   14 NActive=   14 NUniq=   14 SFac= 1.00D+00 NAtFMM=   60 NAOKFM=F Big=F
 Integral buffers will be    131072 words long.
 Raffenetti 2 integral format.
 Two-electron integral symmetry is turned on.
 R6Disp:  Grimme-D3(BJ) Dispersion energy=       -0.0220669159 Hartrees.
 Nuclear repulsion after empirical dispersion term =      421.6626178206 Hartrees.
 Leave Link  301 at Tue May  2 17:53:03 2023, MaxMem=  8053063680 cpu:               0.7 elap:               0.0
 (Enter /public3/home/scg5914/software-scg5914/g16/l302.exe)
 NPDir=0 NMtPBC=     1 NCelOv=     1 NCel=       1 NClECP=     1 NCelD=      1
         NCelK=      1 NCelE2=     1 NClLst=     1 CellRange=     0.0.
 One-electron integrals computed using PRISM.
 One-electron integral symmetry used in STVInt
 NBasis=   228 RedAO= T EigKep=  9.70D-06  NBF=   228
 NBsUse=   228 1.00D-06 EigRej= -1.00D+00 NBFU=   228
 Precomputing XC quadrature grid using
 IXCGrd= 4 IRadAn=           5 IRanWt=          -1 IRanGd=           0 AccXCQ= 0.00D+00.
 Generated NRdTot=       0 NPtTot=           0 NUsed=           0 NTot=          32
 NSgBfM=   237   237   237   237   237 MxSgAt=    14 MxSgA2=    14.
 Leave Link  302 at Tue May  2 17:53:03 2023, MaxMem=  8053063680 cpu:               3.6 elap:               0.1
 (Enter /public3/home/scg5914/software-scg5914/g16/l303.exe)
 DipDrv:  MaxL=1.
 Leave Link  303 at Tue May  2 17:53:03 2023, MaxMem=  8053063680 cpu:               0.5 elap:               0.0
 (Enter /public3/home/scg5914/software-scg5914/g16/l401.exe)
 Initial guess from the checkpoint file:  "dsgdb9nsd_131941-4.chk"
 B after Tr=    -0.000000   -0.000000    0.000000
         Rot=    0.999955   -0.001756   -0.000200    0.009325 Ang=  -1.09 deg.
 Guess basis will be translated and rotated to current coordinates.
 JPrj=2 DoOrth=T DoCkMO=T.
[...]
                                                    119(v),224(g)
    11. BD (   2) C   4 - C   5          1.68852    -0.51546  28(v),227(v),9(v),219(v)
                                                    217(v),140(v),121(v),73(v)
                                                    226(v),33(r),228(v),220(g)
                                                    224(g),215(v)
    12. BD (   1) C   4 - H  13          1.97538    -0.77672  223(v),215(v),220(g),103(v)
                                                    68(v),221(g),218(g),111(v)
    13. BD (   1) C   5 - C   6          1.97389    -0.94925  211(v),222(v),220(g),28(v)
                                                    226(v),219(g),225(g),85(v)
                                                    135(v),9(g),51(v)
    14. BD (   1) C   5 - N   7          1.98131    -1.02967  33(v),152(v),169(v),220(g)
                                                    216(v),218(v)
    15. BD (   1) C   6 - H  14          1.92237    -0.75640  219(g),217(g),9(g),216(g)
                                                    215(v),220(v),121(g),225(g)
                                                    59(v),120(g),129(g),127(g)
                                                    132(g),58(v),119(g),57(v)
    16. BD (   1) N   7 - O   8          1.99498    -1.31284  102(v),224(g),135(g)
    17. BD (   2) N   7 - O   8          1.97756    -0.66471  33(v),227(g),221(v),228(g)
                                                    170(v)
    18. BD (   1) N   7 - O   9          1.99052    -1.26685  33(g),102(v),220(v),135(g)
                                                    224(g),227(g)
    19. CR (   1) C   1                  1.99930   -10.28547  216(v),215(v),211(g),191(v)
                                                    186(v)
    20. CR (   1) N   2                  1.99919   -14.47225  217(g),119(v),219(v),69(v)
                                                    36(v),70(v)
    21. CR (   1) C   3                  1.99901   -10.39215  9(g),219(g),85(v),211(v)
                                                    222(v),215(g),216(v)
    22. CR (   1) C   4                  1.99888   -10.29847  9(v),102(v),68(v),221(g)
                                                    224(v),201(v),28(v)
    23. CR (   1) C   5                  1.99884   -10.36048  87(v),224(g),220(g),120(v)
                                                    136(v),222(v)
    24. CR (   1) C   6                  1.99908   -10.36118  219(g),102(v),211(v),215(v)
                                                    206(v),54(v),224(v),103(v)
    25. CR (   1) N   7                  1.99940   -14.60839  33(v),103(v),104(v)
    26. CR (   1) O   8                  1.99979   -19.13593  135(v),224(v),228(v),136(v)
                                                    139(v)
    27. CR (   1) O   9                  1.99980   -19.14585  135(v),33(g),226(v),224(v)
                                                    139(v)
    28. LP*(   1) C   3                  0.34713    -0.33421  221(v),218(g),215(g),220(v)
                                                    222(v),69(g),224(r),73(g)
    29. LP (   1) O   8                  1.97979    -0.99461  135(v),224(v),228(v),139(v)
                                                    136(v)
    30. LP (   2) O   8                  1.87622    -0.48561  33(r),228(v),224(v),136(v)
                                                    135(v),138(v),223(r),139(v)
                                                    227(g)
    31. LP (   1) O   9                  1.98052    -1.00764  33(g),135(v),226(v),224(v)
                                                    139(v),138(v)
    32. LP (   2) O   9                  1.81452    -0.48973  226(v),224(v),227(v),136(v)
                                                    221(r),135(v),138(v),139(v)
                                                    220(r)
    33. LP (   3) O   9                  1.42135    -0.47848  227(v),228(g),137(v),226(v)
                                                    170(g),144(v)
    34. RY*(   1) C   1                  0.00301     0.52162   
    35. RY*(   2) C   1                  0.00180     0.52064   
    36. RY*(   3) C   1                  0.00080     0.83336   
    37. RY*(   4) C   1                  0.00041     0.57043   
    38. RY*(   5) C   1                  0.00021     1.68336   
    39. RY*(   6) C   1                  0.00008     0.75130   
    40. RY*(   7) C   1                  0.00006     1.47629   
    41. RY*(   8) C   1                  0.00001     0.37009   
    42. RY*(   9) C   1                  0.00000     2.61651   
    43. RY*(  10) C   1                  0.00001     0.86965   
    44. RY*(  11) C   1                  0.00001     0.75158   
    45. RY*(  12) C   1                  0.00000     2.82457   
    46. RY*(  13) C   1                  0.00000     1.51519   
    47. RY*(  14) C   1                  0.00000     1.80224   
    48. RY*(  15) C   1                  0.00000     1.72074   
    49. RY*(  16) C   1                  0.00000    22.48955   
    50. RY*(  17) C   1                  0.00000     1.83376   
    51. RY*(   1) N   2                  0.00440     0.94535   
    52. RY*(   2) N   2                  0.00212     0.89722   
    53. RY*(   3) N   2                  0.00154     1.10757   
    54. RY*(   4) N   2                  0.00090     1.29172   
    55. RY*(   5) N   2                  0.00074     1.62057   
    56. RY*(   6) N   2                  0.00044     1.66709   
    57. RY*(   7) N   2                  0.00035     1.62427   
    58. RY*(   8) N   2                  0.00013     2.01916   
    59. RY*(   9) N   2                  0.00007     1.91528   
    60. RY*(  10) N   2                  0.00004     1.03622   
    61. RY*(  11) N   2                  0.00003     1.97762   
    62. RY*(  12) N   2                  0.00001     2.34765   
    63. RY*(  13) N   2                  0.00000     2.61196   
    64. RY*(  14) N   2                  0.00000     3.61941   
    65. RY*(  15) N   2                  0.00000    34.64486   
    66. RY*(  16) N   2                  0.00000     0.80152   
    67. RY*(  17) N   2                  0.00000     3.45314   
    68. RY*(   1) C   3                  0.00359     0.65556   
    69. RY*(   2) C   3                  0.00197     0.84172   
    70. RY*(   3) C   3                  0.00158     0.93138   
    71. RY*(   4) C   3                  0.00062     1.02205   
    72. RY*(   5) C   3                  0.00053     0.88185   
    73. RY*(   6) C   3                  0.00033     0.76762   
    74. RY*(   7) C   3                  0.00018     1.15324   
    75. RY*(   8) C   3                  0.00011     1.07502   
    76. RY*(   9) C   3                  0.00010     1.45705   
    77. RY*(  10) C   3                  0.00004     1.52206   
    78. RY*(  11) C   3                  0.00004     2.13496   
    79. RY*(  12) C   3                  0.00005     0.45369   
    80. RY*(  13) C   3                  0.00001     2.10032   
    81. RY*(  14) C   3                  0.00000     2.06487   
    82. RY*(  15) C   3                  0.00000     2.19193   
    83. RY*(  16) C   3                  0.00000    22.03004   
    84. RY*(  17) C   3                  0.00001     1.12849   
    85. RY*(   1) C   4                  0.00699     0.73564   
    86. RY*(   2) C   4                  0.00273     0.57953   
    87. RY*(   3) C   4                  0.00193     0.63244   
    88. RY*(   4) C   4                  0.00082     0.92149   
    89. RY*(   5) C   4                  0.00032     0.61813   
    90. RY*(   6) C   4                  0.00027     2.31330   
    91. RY*(   7) C   4                  0.00017     0.61610   
    92. RY*(   8) C   4                  0.00010     1.03085   
    93. RY*(   9) C   4                  0.00007     1.07489   
    94. RY*(  10) C   4                  0.00006     1.83623   
    95. RY*(  11) C   4                  0.00005     1.17696   
    96. RY*(  12) C   4                  0.00003     1.08014   
    97. RY*(  13) C   4                  0.00003     0.67426   
    98. RY*(  14) C   4                  0.00001     0.90625   
    99. RY*(  15) C   4                  0.00000    22.28161   
   100. RY*(  16) C   4                  0.00000     2.45285   
   101. RY*(  17) C   4                  0.00001     2.60303   
   102. RY*(   1) C   5                  0.00829     0.80458   
   103. RY*(   2) C   5                  0.00472     0.91087   
   104. RY*(   3) C   5                  0.00256     0.78556   
   105. RY*(   4) C   5                  0.00123     0.67849   
   106. RY*(   5) C   5                  0.00100     1.04036   
   107. RY*(   6) C   5                  0.00076     1.41921   
   108. RY*(   7) C   5                  0.00055     1.10243   
   109. RY*(   8) C   5                  0.00052     1.51652   
   110. RY*(   9) C   5                  0.00021     1.87873   
   111. RY*(  10) C   5                  0.00018     2.39832   
   112. RY*(  11) C   5                  0.00015     2.08937   
   113. RY*(  12) C   5                  0.00009     1.76888   
   114. RY*(  13) C   5                  0.00003     1.48671   
   115. RY*(  14) C   5                  0.00002     2.00027   
   116. RY*(  15) C   5                  0.00000    20.33429   
   117. RY*(  16) C   5                  0.00000     2.47619   
   118. RY*(  17) C   5                  0.00001     1.45081   
   119. RY*(   1) C   6                  0.00430     0.60182   
   120. RY*(   2) C   6                  0.00369     0.72535   
   121. RY*(   3) C   6                  0.00148     1.09444   
   122. RY*(   4) C   6                  0.00072     0.54105   
   123. RY*(   5) C   6                  0.00048     0.64539   
   124. RY*(   6) C   6                  0.00025     1.31010   
   125. RY*(   7) C   6                  0.00024     1.26236   
   126. RY*(   8) C   6                  0.00017     1.73336   
   127. RY*(   9) C   6                  0.00011     2.13546   
   128. RY*(  10) C   6                  0.00009     2.45413   
   129. RY*(  11) C   6                  0.00006     1.13801   
   130. RY*(  12) C   6                  0.00004     1.57641   
   131. RY*(  13) C   6                  0.00002     1.61922   
   132. RY*(  14) C   6                  0.00000    20.96748   
   133. RY*(  15) C   6                  0.00000     2.54688   
   134. RY*(  16) C   6                  0.00001     1.76957   
   135. RY*(   1) N   7                  0.01844     0.86366   
   136. RY*(   2) N   7                  0.01169     1.23290   
   137. RY*(   3) N   7                  0.00892     1.92266   
   138. RY*(   4) N   7                  0.00301     2.68975   
   139. RY*(   5) N   7                  0.00264     1.70586   
   140. RY*(   6) N   7                  0.00176     0.86831   
   141. RY*(   7) N   7                  0.00094     1.21608   
   142. RY*(   8) N   7                  0.00018     1.91386   
   143. RY*(   9) N   7                  0.00007     1.47464   
   144. RY*(  10) N   7                  0.00005     1.55630   
   145. RY*(  11) N   7                  0.00004     1.57411   
   146. RY*(  12) N   7                  0.00000     3.34127   
   147. RY*(  13) N   7                  0.00000     3.70366   
   148. RY*(  14) N   7                  0.00001     3.23713   
   149. RY*(  15) N   7                  0.00000    33.34616   
   150. RY*(  16) N   7                  0.00000     0.44960   
   151. RY*(  17) N   7                  0.00001     1.41932   
   152. RY*(   1) O   8                  0.00275     0.68709   
   153. RY*(   2) O   8                  0.00225     0.71611   
   154. RY*(   3) O   8                  0.00144     1.50096   
   155. RY*(   4) O   8                  0.00024     0.83863   
   156. RY*(   5) O   8                  0.00007     0.93138   
   157. RY*(   6) O   8                  0.00006     1.27612   
   158. RY*(   7) O   8                  0.00003     1.24736   
   159. RY*(   8) O   8                  0.00001     1.27485   
   160. RY*(   9) O   8                  0.00000     4.58668   
   161. RY*(  10) O   8                  0.00001     4.19775   
   162. RY*(  11) O   8                  0.00001     2.61991   
   163. RY*(  12) O   8                  0.00000     4.73728   
   164. RY*(  13) O   8                  0.00000     2.72838   
   165. RY*(  14) O   8                  0.00000     2.36014   
   166. RY*(  15) O   8                  0.00000     2.71339   
   167. RY*(  16) O   8                  0.00000    49.46437   
   168. RY*(  17) O   8                  0.00000     2.70633   
   169. RY*(   1) O   9                  0.00281     0.71344   
   170. RY*(   2) O   9                  0.00179     0.82188   
   171. RY*(   3) O   9                  0.00160     1.27213   
   172. RY*(   4) O   9                  0.00024     0.93665   
   173. RY*(   5) O   9                  0.00009     0.72061   
   174. RY*(   6) O   9                  0.00005     1.27738   
   175. RY*(   7) O   9                  0.00004     1.73861   
   176. RY*(   8) O   9                  0.00001     4.96238   
   177. RY*(   9) O   9                  0.00001     1.02296   
   178. RY*(  10) O   9                  0.00000    49.16001   
   179. RY*(  11) O   9                  0.00000     4.57196   
   180. RY*(  12) O   9                  0.00000     4.71988   
   181. RY*(  13) O   9                  0.00001     2.06914   
   182. RY*(  14) O   9                  0.00000     2.40416   
   183. RY*(  15) O   9                  0.00000     2.79729   
   184. RY*(  16) O   9                  0.00000     2.55679   
   185. RY*(  17) O   9                  0.00000     2.72131   
   186. RY*(   1) H  10                  0.00037     0.72434   
   187. RY*(   2) H  10                  0.00015     1.73154   
   188. RY*(   3) H  10                  0.00010     1.59059   
   189. RY*(   4) H  10                  0.00004     1.71431   
   190. RY*(   5) H  10                  0.00004     2.22474   
   191. RY*(   1) H  11                  0.00037     0.75067   
   192. RY*(   2) H  11                  0.00014     1.76750   
   193. RY*(   3) H  11                  0.00009     1.57709   
   194. RY*(   4) H  11                  0.00005     1.73079   
   195. RY*(   5) H  11                  0.00002     2.13049   
   196. RY*(   1) H  12                  0.00041     0.58040   
   197. RY*(   2) H  12                  0.00013     1.91582   
   198. RY*(   3) H  12                  0.00008     1.59987   
   199. RY*(   4) H  12                  0.00004     2.22121   
   200. RY*(   5) H  12                  0.00002     1.59200   
   201. RY*(   1) H  13                  0.00065     0.85236   
   202. RY*(   2) H  13                  0.00031     1.55230   
   203. RY*(   3) H  13                  0.00028     1.54973   
   204. RY*(   4) H  13                  0.00016     1.74908   
   205. RY*(   5) H  13                  0.00002     2.59493   
   206. RY*(   1) H  14                  0.00090     0.69142   
   207. RY*(   2) H  14                  0.00019     1.83577   
   208. RY*(   3) H  14                  0.00011     1.44675   
   209. RY*(   4) H  14                  0.00009     1.77408   
   210. RY*(   5) H  14                  0.00003     2.05931   
   211. BD*(   1) C   1 - N   2          0.01779     0.07576   
   212. BD*(   1) C   1 - H  10          0.00652     0.19445   
   213. BD*(   1) C   1 - H  11          0.00486     0.19391   
   214. BD*(   1) C   1 - H  12          0.00282     0.19168   
   215. BD*(   1) N   2 - C   3          0.05139     0.15454   
   216. BD*(   1) N   2 - C   6          0.04603     0.29295   
   217. BD*(   2) N   2 - C   6          0.24104     0.12306  219(g),225(g),119(g),9(g)
                                                    216(g),121(g),120(g),129(g)
                                                    122(g),59(g),131(g),221(v)
                                                    55(g),213(v),57(g),51(g)
                                                    127(g),212(v),116(v),103(v)
                                                    124(g),53(g),125(g),114(v)
                                                    106(v),210(v)
   218. BD*(   1) C   3 - C   4          0.02947     0.25889   
   219. BD (   1) C   3 - C   6          0.31961     0.11284  217(g),216(g),225(g),9(g)
                                                    120(g),121(g),59(v),129(g)
                                                    127(g),119(g),114(v),107(v)
                                                    124(g),125(g),131(g),116(v)
                                                    51(v),103(v),210(v),58(v)
                                                    53(v),106(v),135(r),221(v)
                                                    56(v),66(v),130(g),218(g)
                                                    63(v),111(v),132(g),57(v)
                                                    113(v)
   220. BD*(   1) C   4 - C   5          0.02717     0.29965   
   221. BD*(   2) C   4 - C   5          0.29808    -0.22744  9(v),227(v),28(v),217(v)
                                                    220(g),219(v),86(g)
   222. BD*(   1) C   4 - H  13          0.01471     0.20221   
   223. BD*(   1) C   5 - C   6          0.01761     0.21605   
   224. BD*(   1) C   5 - N   7          0.12430     0.04191  104(g),222(v),225(v),216(v)
                                                    211(r),218(v),136(g),143(g)
                                                    220(g),141(g),109(g)
   225. BD*(   1) C   6 - H  14          0.01172     0.19857   
   226. BD*(   1) N   7 - O   8          0.05515     0.26087   
   227. BD*(   2) N   7 - O   8          0.57830    -0.31853  33(v),221(v),137(g),153(g)
                                                    226(g),170(v)
   228. BD*(   1) N   7 - O   9          0.09143     0.20564   
       -------------------------------
              Total Lewis   60.35800  ( 94.3094%)
        Valence non-Lewis    3.50397  (  5.4749%)
        Rydberg non-Lewis    0.13803  (  0.2157%)
       -------------------------------
            Total unit  1   64.00000  (100.0000%)
           Charge unit  1    1.00000
 Leave Link  607 at Tue May  2 17:56:17 2023, MaxMem=  8053063680 cpu:              57.2 elap:               1.8
 (Enter /public3/home/scg5914/software-scg5914/g16/l9999.exe)
 Unable to Open any file for archive entry.
 1\1\GINC-E0501\SP\RB3LYP\Gen\C5H5N2O2(1+)\SCG5914\02-May-2023\0\\#p b3
 lyp/chkbas pop=nbo geom=allcheck guess=tcheck em=gd3bj\\dsgdb9nsd_1319
 41-4\\1,1\C,0,-0.0230762176,1.4867559831,0.0219599332\N,0,-0.095457066
 3,0.01068176,0.055456816\C,0,0.2342914251,-0.8566806791,-0.9710690641\
 C,0,-0.1377933212,-2.1839726859,-0.7432837854\C,0,-0.0390788655,-2.152
 9959471,0.6348215538\C,0,-0.0263578324,-0.7967804878,1.1228162904\N,0,
 0.1201941823,-3.2890835714,1.5535926199\O,0,0.5301180525,-4.3329763435
 ,1.1091131471\O,0,-0.2455876103,-3.0263746495,2.6904080572\H,0,1.00617
 46582,1.7965423999,-0.1549717198\H,0,-0.6693626445,1.8415788751,-0.778
 9624988\H,0,-0.3817752893,1.8572455834,0.9796772552\H,0,-0.1925236261,
 -3.0228955271,-1.4195305953\H,0,0.2314396051,-0.4552669172,2.118543118
 4\\Version=ES64L-G16RevC.01\State=1-A\HF=-453.092643\RMSD=2.783e-09\Di
 pole=-0.2366977,2.6494444,-1.2444653\Quadrupole=-6.2782872,7.9500184,-
 1.6717313,0.4810082,2.2932363,0.9619051\PG=C01 [X(C5H5N2O2)]\\@
 The archive entry for this job was punched.


 IF IT'S NOT TRUE, IT'S WELL INVENTED -- DANTE
 Job cpu time:       0 days  0 hours  1 minutes 32.9 seconds.
 Elapsed time:       0 days  0 hours  0 minutes  3.0 seconds.
 File lengths (MBytes):  RWF=     33 Int=      0 D2E=      0 Chk=      5 Scr=      1
 Normal termination of Gaussian 16 at Tue May  2 17:56:17 2023.
