 Entering Gaussian System, Link 0=g16
 Initial command:
 /public/software/apps/Gaussian/g16/l1.exe "/public/home/CTY_HG/tmp/Gau-59856.inp" -scrdir="/public/home/CTY_HG/tmp/"
 Entering Link 1 = /public/software/apps/Gaussian/g16/l1.exe PID=     59857.
  
 Copyright (c) 1988-2019, Gaussian, Inc.  All Rights Reserved.
  
 This is part of the Gaussian(R) 16 program.  It is based on
 the Gaussian(R) 09 system (copyright 2009, Gaussian, Inc.),
 the Gaussian(R) 03 system (copyright 2003, Gaussian, Inc.),
 the Gaussian(R) 98 system (copyright 1998, Gaussian, Inc.),
 the Gaussian(R) 94 system (copyright 1995, Gaussian, Inc.),
 the Gaussian 92(TM) system (copyright 1992, Gaussian, Inc.),
 the Gaussian 90(TM) system (copyright 1990, Gaussian, Inc.),
 the Gaussian 88(TM) system (copyright 1988, Gaussian, Inc.),
 the Gaussian 86(TM) system (copyright 1986, Carnegie Mellon
 University), and the Gaussian 82(TM) system (copyright 1983,
 Carnegie Mellon University). Gaussian is a federally registered
 trademark of Gaussian, Inc.
  
 This software contains proprietary and confidential information,
 including trade secrets, belonging to Gaussian, Inc.
  
 This software is provided under written license and may be
 used, copied, transmitted, or stored only in accord with that
 written license.
  
 The following legend is applicable only to US Government
 contracts under FAR:
  
                    RESTRICTED RIGHTS LEGEND
  
 Use, reproduction and disclosure by the US Government is
 subject to restrictions as set forth in subparagraphs (a)
 and (c) of the Commercial Computer Software - Restricted
 Rights clause in FAR 52.227-19.
  
 Gaussian, Inc.
 340 Quinnipiac St., Bldg. 40, Wallingford CT 06492
  
  
 ---------------------------------------------------------------
 Warning -- This program may not be used in any manner that
 competes with the business of Gaussian, Inc. or will provide
 assistance to any competitor of Gaussian, Inc.  The licensee
 of this program is prohibited from giving any competitor of
 Gaussian, Inc. access to this program.  By using this program,
 the user acknowledges that Gaussian, Inc. is engaged in the
 business of creating and licensing software in the field of
 computational chemistry and represents and warrants to the
 licensee that it is not a competitor of Gaussian, Inc. and that
 it will not use this program in any manner prohibited above.
 ---------------------------------------------------------------
  

 Cite this work as:
 Gaussian 16, Revision C.01,
 M. J. Frisch, G. W. Trucks, H. B. Schlegel, G. E. Scuseria, 
 M. A. Robb, J. R. Cheeseman, G. Scalmani, V. Barone, 
 G. A. Petersson, H. Nakatsuji, X. Li, M. Caricato, A. V. Marenich, 
 J. Bloino, B. G. Janesko, R. Gomperts, B. Mennucci, H. P. Hratchian, 
 J. V. Ortiz, A. F. Izmaylov, J. L. Sonnenberg, D. Williams-Young, 
 F. Ding, F. Lipparini, F. Egidi, J. Goings, B. Peng, A. Petrone, 
 T. Henderson, D. Ranasinghe, V. G. Zakrzewski, J. Gao, N. Rega, 
 G. Zheng, W. Liang, M. Hada, M. Ehara, K. Toyota, R. Fukuda, 
 J. Hasegawa, M. Ishida, T. Nakajima, Y. Honda, O. Kitao, H. Nakai, 
 T. Vreven, K. Throssell, J. A. Montgomery, Jr., J. E. Peralta, 
 F. Ogliaro, M. J. Bearpark, J. J. Heyd, E. N. Brothers, K. N. Kudin, 
 V. N. Staroverov, T. A. Keith, R. Kobayashi, J. Normand, 
 K. Raghavachari, A. P. Rendell, J. C. Burant, S. S. Iyengar, 
 J. Tomasi, M. Cossi, J. M. Millam, M. Klene, C. Adamo, R. Cammi, 
 J. W. Ochterski, R. L. Martin, K. Morokuma, O. Farkas, 
 J. B. Foresman, and D. J. Fox, Gaussian, Inc., Wallingford CT, 2019.
 
 ******************************************
 Gaussian 16:  ES64L-G16RevC.01  3-Jul-2019
                 2-Nov-2023 
 ******************************************
 %nprocshared=32
 Will use up to   32 processors via shared memory.
 %mem=100GB
 ------------------------------------
 # opt=maxcycle=150 freq def2svp m06l
 ------------------------------------
 1/6=150,18=20,19=15,26=3,38=1/1,3;
 2/9=110,12=2,17=6,18=5,40=1/2;
 3/5=43,7=101,11=2,25=1,30=1,71=1,74=-53/1,2,3;
 4//1;
 5/5=2,38=5/2;
 6/7=2,8=2,9=2,10=2,28=1/1;
 7//1,2,3,16;
 1/6=150,18=20,19=15,26=3/3(2);
 2/9=110/2;
 99//99;
 2/9=110/2;
 3/5=43,7=101,11=2,25=1,30=1,71=1,74=-53/1,2,3;
 4/5=5,16=3,69=1/1;
 5/5=2,38=5/2;
 7//1,2,3,16;
 1/6=150,18=20,19=15,26=3/3(-5);
 2/9=110/2;
 6/7=2,8=2,9=2,10=2,19=2,28=1/1;
 99/9=1/99;
 -------------------
 Title Card Required
 -------------------
 Symbolic Z-matrix:
 Charge =  0 Multiplicity = 1
 C                    -1.09427  -1.08201   0.91848 
 O                    -1.99309  -1.05417  -0.20263 
 C                    -2.68129   0.18986  -0.09476 
 C                    -1.59898   1.23878   0.2465 
 H                    -3.18842   0.3731   -1.04557 
 H                    -3.43808   0.12148   0.70244 
 H                    -2.0205    1.97697   0.93812 
 C                    -0.54663   0.37827   1.03134 
 C                     0.9573    0.24416   0.58998 
 H                     1.49702   0.03976   1.52515 
 C                     1.01997  -1.0765   -0.234 
 O                     0.49215  -0.88839  -1.55271 
 H                    -0.47883  -0.93788  -1.47054 
 C                     1.65586   1.39579  -0.07093 
 H                     1.53635   1.46912  -1.14811 
 C                    -1.14191   1.9917   -1.00719 
 H                    -2.00442   2.48839  -1.46789 
 H                    -0.7012    1.3141   -1.74327 
 H                    -1.65219  -1.39653   1.81173 
 C                     2.43511  -1.60811  -0.40228 
 H                     2.41752  -2.56418  -0.93474 
 H                     3.03512  -0.90259  -0.98552 
 H                     2.91967  -1.75112   0.56964 
 C                     0.08611  -1.98673   0.58152 
 H                     0.58293  -2.30956   1.5038 
 H                    -0.22243  -2.8783    0.02692 
 H                    -0.4028    2.75868  -0.76684 
 C                     2.43377   2.27068   0.56893 
 H                     2.59135   2.21804   1.64485 
 H                     2.9408    3.07596   0.04412 
 H                    -0.55456   0.70973   2.07286 
 

 GradGradGradGradGradGradGradGradGradGradGradGradGradGradGradGradGradGrad
 Berny optimization.
 Initialization pass.
                           ----------------------------
                           !    Initial Parameters    !
                           ! (Angstroms and Degrees)  !
 --------------------------                            --------------------------
 ! Name  Definition              Value          Derivative Info.                !
 --------------------------------------------------------------------------------
 ! R1    R(1,2)                  1.4372         estimate D2E/DX2                !
 ! R2    R(1,8)                  1.5637         estimate D2E/DX2                !
 ! R3    R(1,19)                 1.0991         estimate D2E/DX2                !
 ! R4    R(1,24)                 1.5249         estimate D2E/DX2                !
 ! R5    R(2,3)                  1.4258         estimate D2E/DX2                !
 ! R6    R(3,4)                  1.5453         estimate D2E/DX2                !
 ! R7    R(3,5)                  1.0931         estimate D2E/DX2                !
 ! R8    R(3,6)                  1.1013         estimate D2E/DX2                !
 ! R9    R(4,7)                  1.0959         estimate D2E/DX2                !
 ! R10   R(4,8)                  1.5697         estimate D2E/DX2                !
 ! R11   R(4,16)                 1.5322         estimate D2E/DX2                !
 ! R12   R(8,9)                  1.5731         estimate D2E/DX2                !
 ! R13   R(8,31)                 1.093          estimate D2E/DX2                !
 ! R14   R(9,10)                 1.0989         estimate D2E/DX2                !
 ! R15   R(9,11)                 1.5579         estimate D2E/DX2                !
 ! R16   R(9,14)                 1.5003         estimate D2E/DX2                !
 ! R17   R(11,12)                1.4328         estimate D2E/DX2                !
 ! R18   R(11,20)                1.521          estimate D2E/DX2                !
 ! R19   R(11,24)                1.5381         estimate D2E/DX2                !
 ! R20   R(12,13)                0.9757         estimate D2E/DX2                !
 ! R21   R(14,15)                1.0863         estimate D2E/DX2                !
 ! R22   R(14,28)                1.3342         estimate D2E/DX2                !
 ! R23   R(16,17)                1.0968         estimate D2E/DX2                !
 ! R24   R(16,18)                1.0932         estimate D2E/DX2                !
 ! R25   R(16,27)                1.0919         estimate D2E/DX2                !
 ! R26   R(20,21)                1.0945         estimate D2E/DX2                !
 ! R27   R(20,22)                1.0945         estimate D2E/DX2                !
 ! R28   R(20,23)                1.0954         estimate D2E/DX2                !
 ! R29   R(24,25)                1.0962         estimate D2E/DX2                !
 ! R30   R(24,26)                1.0944         estimate D2E/DX2                !
 ! R31   R(28,29)                1.0887         estimate D2E/DX2                !
 ! R32   R(28,30)                1.0867         estimate D2E/DX2                !
 ! A1    A(2,1,8)              104.9068         estimate D2E/DX2                !
 ! A2    A(2,1,19)             108.7868         estimate D2E/DX2                !
 ! A3    A(2,1,24)             108.8578         estimate D2E/DX2                !
 ! A4    A(8,1,19)             112.7274         estimate D2E/DX2                !
 ! A5    A(8,1,24)             107.3925         estimate D2E/DX2                !
 ! A6    A(19,1,24)            113.7479         estimate D2E/DX2                !
 ! A7    A(1,2,3)              105.0551         estimate D2E/DX2                !
 ! A8    A(2,3,4)              105.7173         estimate D2E/DX2                !
 ! A9    A(2,3,5)              107.722          estimate D2E/DX2                !
 ! A10   A(2,3,6)              109.4065         estimate D2E/DX2                !
 ! A11   A(4,3,5)              113.7812         estimate D2E/DX2                !
 ! A12   A(4,3,6)              111.319          estimate D2E/DX2                !
 ! A13   A(5,3,6)              108.7376         estimate D2E/DX2                !
 ! A14   A(3,4,7)              109.0991         estimate D2E/DX2                !
 ! A15   A(3,4,8)              101.997          estimate D2E/DX2                !
 ! A16   A(3,4,16)             111.2097         estimate D2E/DX2                !
 ! A17   A(7,4,8)              108.155          estimate D2E/DX2                !
 ! A18   A(7,4,16)             107.4656         estimate D2E/DX2                !
 ! A19   A(8,4,16)             118.5887         estimate D2E/DX2                !
 ! A20   A(1,8,4)              103.9495         estimate D2E/DX2                !
 ! A21   A(1,8,9)              103.5892         estimate D2E/DX2                !
 ! A22   A(1,8,31)             110.4532         estimate D2E/DX2                !
 ! A23   A(4,8,9)              123.1889         estimate D2E/DX2                !
 ! A24   A(4,8,31)             107.7784         estimate D2E/DX2                !
 ! A25   A(9,8,31)             107.4661         estimate D2E/DX2                !
 ! A26   A(8,9,10)             104.2782         estimate D2E/DX2                !
 ! A27   A(8,9,11)             105.0182         estimate D2E/DX2                !
 ! A28   A(8,9,14)             120.2173         estimate D2E/DX2                !
 ! A29   A(10,9,11)            105.823          estimate D2E/DX2                !
 ! A30   A(10,9,14)            106.796          estimate D2E/DX2                !
 ! A31   A(11,9,14)            113.5147         estimate D2E/DX2                !
 ! A32   A(9,11,12)            111.1417         estimate D2E/DX2                !
 ! A33   A(9,11,20)            113.093          estimate D2E/DX2                !
 ! A34   A(9,11,24)            101.3513         estimate D2E/DX2                !
 ! A35   A(12,11,20)           106.6659         estimate D2E/DX2                !
 ! A36   A(12,11,24)           110.0003         estimate D2E/DX2                !
 ! A37   A(20,11,24)           114.6271         estimate D2E/DX2                !
 ! A38   A(11,12,13)           106.4051         estimate D2E/DX2                !
 ! A39   A(9,14,15)            115.9389         estimate D2E/DX2                !
 ! A40   A(9,14,28)            124.3024         estimate D2E/DX2                !
 ! A41   A(15,14,28)           119.7            estimate D2E/DX2                !
 ! A42   A(4,16,17)            109.3693         estimate D2E/DX2                !
 ! A43   A(4,16,18)            111.5065         estimate D2E/DX2                !
 ! A44   A(4,16,27)            111.5296         estimate D2E/DX2                !
 ! A45   A(17,16,18)           108.3546         estimate D2E/DX2                !
 ! A46   A(17,16,27)           107.8587         estimate D2E/DX2                !
 ! A47   A(18,16,27)           108.1011         estimate D2E/DX2                !
 ! A48   A(11,20,21)           110.1316         estimate D2E/DX2                !
 ! A49   A(11,20,22)           110.1025         estimate D2E/DX2                !
 ! A50   A(11,20,23)           111.0406         estimate D2E/DX2                !
 ! A51   A(21,20,22)           108.219          estimate D2E/DX2                !
 ! A52   A(21,20,23)           108.9491         estimate D2E/DX2                !
 ! A53   A(22,20,23)           108.3281         estimate D2E/DX2                !
 ! A54   A(1,24,11)            103.6523         estimate D2E/DX2                !
 ! A55   A(1,24,25)            109.8548         estimate D2E/DX2                !
 ! A56   A(1,24,26)            112.1535         estimate D2E/DX2                !
 ! A57   A(11,24,25)           110.1945         estimate D2E/DX2                !
 ! A58   A(11,24,26)           112.6186         estimate D2E/DX2                !
 ! A59   A(25,24,26)           108.3142         estimate D2E/DX2                !
 ! A60   A(14,28,29)           121.7802         estimate D2E/DX2                !
 ! A61   A(14,28,30)           121.7593         estimate D2E/DX2                !
 ! A62   A(29,28,30)           116.4601         estimate D2E/DX2                !
 ! D1    D(8,1,2,3)            -39.6924         estimate D2E/DX2                !
 ! D2    D(19,1,2,3)            81.1619         estimate D2E/DX2                !
 ! D3    D(24,1,2,3)          -154.3879         estimate D2E/DX2                !
 ! D4    D(2,1,8,4)             19.8816         estimate D2E/DX2                !
 ! D5    D(2,1,8,9)           -109.9343         estimate D2E/DX2                !
 ! D6    D(2,1,8,31)           135.2491         estimate D2E/DX2                !
 ! D7    D(19,1,8,4)           -98.3361         estimate D2E/DX2                !
 ! D8    D(19,1,8,9)           131.848          estimate D2E/DX2                !
 ! D9    D(19,1,8,31)           17.0314         estimate D2E/DX2                !
 ! D10   D(24,1,8,4)           135.5962         estimate D2E/DX2                !
 ! D11   D(24,1,8,9)             5.7803         estimate D2E/DX2                !
 ! D12   D(24,1,8,31)         -109.0363         estimate D2E/DX2                !
 ! D13   D(2,1,24,11)           82.3983         estimate D2E/DX2                !
 ! D14   D(2,1,24,25)         -159.8652         estimate D2E/DX2                !
 ! D15   D(2,1,24,26)          -39.3518         estimate D2E/DX2                !
 ! D16   D(8,1,24,11)          -30.6714         estimate D2E/DX2                !
 ! D17   D(8,1,24,25)           87.0652         estimate D2E/DX2                !
 ! D18   D(8,1,24,26)         -152.4215         estimate D2E/DX2                !
 ! D19   D(19,1,24,11)        -156.1306         estimate D2E/DX2                !
 ! D20   D(19,1,24,25)         -38.3941         estimate D2E/DX2                !
 ! D21   D(19,1,24,26)          82.1192         estimate D2E/DX2                !
 ! D22   D(1,2,3,4)             44.1054         estimate D2E/DX2                !
 ! D23   D(1,2,3,5)            166.0911         estimate D2E/DX2                !
 ! D24   D(1,2,3,6)            -75.8662         estimate D2E/DX2                !
 ! D25   D(2,3,4,7)           -143.6382         estimate D2E/DX2                !
 ! D26   D(2,3,4,8)            -29.3904         estimate D2E/DX2                !
 ! D27   D(2,3,4,16)            97.998          estimate D2E/DX2                !
 ! D28   D(5,3,4,7)             98.3553         estimate D2E/DX2                !
 ! D29   D(5,3,4,8)           -147.3969         estimate D2E/DX2                !
 ! D30   D(5,3,4,16)           -20.0086         estimate D2E/DX2                !
 ! D31   D(6,3,4,7)            -24.9296         estimate D2E/DX2                !
 ! D32   D(6,3,4,8)             89.3182         estimate D2E/DX2                !
 ! D33   D(6,3,4,16)          -143.2934         estimate D2E/DX2                !
 ! D34   D(3,4,8,1)              5.323          estimate D2E/DX2                !
 ! D35   D(3,4,8,9)            122.18           estimate D2E/DX2                !
 ! D36   D(3,4,8,31)          -111.92           estimate D2E/DX2                !
 ! D37   D(7,4,8,1)            120.266          estimate D2E/DX2                !
 ! D38   D(7,4,8,9)           -122.8769         estimate D2E/DX2                !
 ! D39   D(7,4,8,31)             3.0231         estimate D2E/DX2                !
 ! D40   D(16,4,8,1)          -117.1581         estimate D2E/DX2                !
 ! D41   D(16,4,8,9)            -0.3011         estimate D2E/DX2                !
 ! D42   D(16,4,8,31)          125.5989         estimate D2E/DX2                !
 ! D43   D(3,4,16,17)           58.7595         estimate D2E/DX2                !
 ! D44   D(3,4,16,18)          -61.0616         estimate D2E/DX2                !
 ! D45   D(3,4,16,27)          177.978          estimate D2E/DX2                !
 ! D46   D(7,4,16,17)          -60.5839         estimate D2E/DX2                !
 ! D47   D(7,4,16,18)          179.595          estimate D2E/DX2                !
 ! D48   D(7,4,16,27)           58.6346         estimate D2E/DX2                !
 ! D49   D(8,4,16,17)          176.496          estimate D2E/DX2                !
 ! D50   D(8,4,16,18)           56.6748         estimate D2E/DX2                !
 ! D51   D(8,4,16,27)          -64.2856         estimate D2E/DX2                !
 ! D52   D(1,8,9,10)           -90.1085         estimate D2E/DX2                !
 ! D53   D(1,8,9,11)            20.9663         estimate D2E/DX2                !
 ! D54   D(1,8,9,14)           150.3348         estimate D2E/DX2                !
 ! D55   D(4,8,9,10)           152.8608         estimate D2E/DX2                !
 ! D56   D(4,8,9,11)           -96.0644         estimate D2E/DX2                !
 ! D57   D(4,8,9,14)            33.3042         estimate D2E/DX2                !
 ! D58   D(31,8,9,10)           26.8241         estimate D2E/DX2                !
 ! D59   D(31,8,9,11)          137.8989         estimate D2E/DX2                !
 ! D60   D(31,8,9,14)          -92.7326         estimate D2E/DX2                !
 ! D61   D(8,9,11,12)           77.2633         estimate D2E/DX2                !
 ! D62   D(8,9,11,20)         -162.7923         estimate D2E/DX2                !
 ! D63   D(8,9,11,24)          -39.5866         estimate D2E/DX2                !
 ! D64   D(10,9,11,12)        -172.7718         estimate D2E/DX2                !
 ! D65   D(10,9,11,20)         -52.8274         estimate D2E/DX2                !
 ! D66   D(10,9,11,24)          70.3783         estimate D2E/DX2                !
 ! D67   D(14,9,11,12)         -55.9729         estimate D2E/DX2                !
 ! D68   D(14,9,11,20)          63.9715         estimate D2E/DX2                !
 ! D69   D(14,9,11,24)        -172.8228         estimate D2E/DX2                !
 ! D70   D(8,9,14,15)          -86.1001         estimate D2E/DX2                !
 ! D71   D(8,9,14,28)           96.7048         estimate D2E/DX2                !
 ! D72   D(10,9,14,15)         155.6103         estimate D2E/DX2                !
 ! D73   D(10,9,14,28)         -21.5848         estimate D2E/DX2                !
 ! D74   D(11,9,14,15)          39.382          estimate D2E/DX2                !
 ! D75   D(11,9,14,28)        -137.813          estimate D2E/DX2                !
 ! D76   D(9,11,12,13)         -80.7747         estimate D2E/DX2                !
 ! D77   D(20,11,12,13)        155.5328         estimate D2E/DX2                !
 ! D78   D(24,11,12,13)         30.6526         estimate D2E/DX2                !
 ! D79   D(9,11,20,21)         176.6436         estimate D2E/DX2                !
 ! D80   D(9,11,20,22)         -64.0972         estimate D2E/DX2                !
 ! D81   D(9,11,20,23)          55.8745         estimate D2E/DX2                !
 ! D82   D(12,11,20,21)        -60.8813         estimate D2E/DX2                !
 ! D83   D(12,11,20,22)         58.378          estimate D2E/DX2                !
 ! D84   D(12,11,20,23)        178.3496         estimate D2E/DX2                !
 ! D85   D(24,11,20,21)         61.1227         estimate D2E/DX2                !
 ! D86   D(24,11,20,22)       -179.618          estimate D2E/DX2                !
 ! D87   D(24,11,20,23)        -59.6464         estimate D2E/DX2                !
 ! D88   D(9,11,24,1)           42.9449         estimate D2E/DX2                !
 ! D89   D(9,11,24,25)         -74.555          estimate D2E/DX2                !
 ! D90   D(9,11,24,26)         164.3836         estimate D2E/DX2                !
 ! D91   D(12,11,24,1)         -74.7361         estimate D2E/DX2                !
 ! D92   D(12,11,24,25)        167.764          estimate D2E/DX2                !
 ! D93   D(12,11,24,26)         46.7026         estimate D2E/DX2                !
 ! D94   D(20,11,24,1)         165.0928         estimate D2E/DX2                !
 ! D95   D(20,11,24,25)         47.5928         estimate D2E/DX2                !
 ! D96   D(20,11,24,26)        -73.4686         estimate D2E/DX2                !
 ! D97   D(9,14,28,29)          -1.8169         estimate D2E/DX2                !
 ! D98   D(9,14,28,30)         178.4156         estimate D2E/DX2                !
 ! D99   D(15,14,28,29)       -178.913          estimate D2E/DX2                !
 ! D100  D(15,14,28,30)          1.3195         estimate D2E/DX2                !
 --------------------------------------------------------------------------------
 Trust Radius=3.00D-01 FncErr=1.00D-07 GrdErr=1.00D-06 EigMax=2.50D+02 EigMin=1.00D-04
 Number of steps in this run=    150 maximum allowed number of steps=    186.
 GradGradGradGradGradGradGradGradGradGradGradGradGradGradGradGradGradGrad

                          Input orientation:                          
 ---------------------------------------------------------------------
 Center     Atomic      Atomic             Coordinates (Angstroms)
 Number     Number       Type             X           Y           Z
 ---------------------------------------------------------------------
      1          6           0       -1.094274   -1.082008    0.918477
      2          8           0       -1.993089   -1.054169   -0.202633
      3          6           0       -2.681286    0.189864   -0.094762
      4          6           0       -1.598984    1.238779    0.246501
      5          1           0       -3.188419    0.373104   -1.045567
      6          1           0       -3.438084    0.121482    0.702436
      7          1           0       -2.020498    1.976967    0.938118
      8          6           0       -0.546634    0.378274    1.031345
      9          6           0        0.957304    0.244159    0.589977
     10          1           0        1.497017    0.039761    1.525153
     11          6           0        1.019967   -1.076500   -0.234000
     12          8           0        0.492149   -0.888394   -1.552706
     13          1           0       -0.478830   -0.937881   -1.470537
     14          6           0        1.655858    1.395789   -0.070926
     15          1           0        1.536350    1.469123   -1.148107
     16          6           0       -1.141912    1.991698   -1.007191
     17          1           0       -2.004416    2.488393   -1.467888
     18          1           0       -0.701201    1.314102   -1.743269
     19          1           0       -1.652191   -1.396532    1.811733
     20          6           0        2.435107   -1.608112   -0.402282
     21          1           0        2.417518   -2.564176   -0.934742
     22          1           0        3.035125   -0.902585   -0.985524
     23          1           0        2.919671   -1.751116    0.569640
     24          6           0        0.086112   -1.986733    0.581522
     25          1           0        0.582931   -2.309564    1.503803
     26          1           0       -0.222426   -2.878295    0.026916
     27          1           0       -0.402800    2.758681   -0.766835
     28          6           0        2.433774    2.270677    0.568931
     29          1           0        2.591345    2.218038    1.644853
     30          1           0        2.940795    3.075957    0.044118
     31          1           0       -0.554561    0.709734    2.072858
 ---------------------------------------------------------------------
                    Distance matrix (angstroms):
                    1          2          3          4          5
     1  C    0.000000
     2  O    1.437196   0.000000
     3  C    2.272206   1.425787   0.000000
     4  C    2.468266   2.369525   1.545335   0.000000
     5  H    3.218736   2.043639   1.093065   2.223766   0.000000
     6  H    2.643578   2.071066   1.101337   2.199663   1.783581
     7  H    3.196186   3.238804   2.167307   1.095869   2.805605
     8  C    1.563673   2.380510   2.420817   1.569678   3.360449
     9  C    2.464874   3.319443   3.702857   2.764390   4.458548
    10  H    2.888115   4.045092   4.483846   3.557783   5.354720
    11  C    2.407955   3.013302   3.914376   3.528499   4.524434
    12  O    2.942953   2.833123   3.654987   3.483511   3.923665
    13  H    2.471221   1.978404   2.831144   2.990119   3.039927
    14  C    3.831661   4.397096   4.501738   3.274051   5.046071
    15  H    4.207044   4.440480   4.531500   3.439231   4.851311
    16  C    3.627414   3.263299   2.539450   1.532170   2.609504
    17  H    4.389859   3.761747   2.761678   2.159870   2.460623
    18  H    3.602880   3.106645   2.811089   2.184233   2.749276
    19  H    1.099137   2.071496   2.685221   3.065558   3.695372
    20  C    3.804960   4.467173   5.431829   4.979919   5.996922
    21  H    4.238387   4.719063   5.855605   5.655978   6.329805
    22  H    4.550753   5.091054   5.887636   5.251504   6.353227
    23  H    4.084256   5.021688   5.964860   5.427903   6.665581
    24  C    1.524919   2.409907   3.585168   3.654547   4.351873
    25  H    2.159286   3.335239   4.411084   4.351126   5.283850
    26  H    2.186698   2.552523   3.933751   4.346657   4.529783
    27  H    4.250800   4.169553   3.498857   2.183531   3.678089
    28  C    4.879529   5.589904   5.561844   4.175154   6.149507
    29  H    5.000171   5.927696   5.911039   4.524731   6.636853
    30  H    5.859604   6.439102   6.321125   4.901609   6.786759
    31  H    2.198687   3.218474   3.080877   2.169398   4.095742
                    6          7          8          9         10
     6  H    0.000000
     7  H    2.346896   0.000000
     8  C    2.921405   2.176416   0.000000
     9  C    4.398538   3.462821   1.573093   0.000000
    10  H    5.003875   4.058360   2.129541   1.098919   0.000000
    11  C    4.710233   4.465641   2.484291   1.557885   2.137343
    12  O    4.642440   4.552790   3.059549   2.467820   3.368152
    13  H    3.821158   4.083466   2.827769   2.775863   3.719397
    14  C    5.307560   3.856362   2.664828   1.500341   2.100360
    15  H    5.475914   4.154685   3.206054   2.203807   3.031657
    16  C    3.419494   2.134563   2.667044   3.164103   4.145693
    17  H    3.516814   2.459813   3.581047   4.247726   5.216716
    18  H    3.859319   3.061008   2.932260   3.056052   4.139890
    19  H    2.593129   3.504190   2.231860   3.315723   3.473122
    20  C    6.221436   5.873830   3.858989   2.568927   2.703794
    21  H    6.646893   6.620088   4.616244   3.513366   3.698499
    22  H    6.767596   6.127931   4.305503   2.848608   3.091487
    23  H    6.629126   6.199972   4.094233   2.798646   2.478748
    24  C    4.108424   4.502875   2.489170   2.394979   2.643439
    25  H    4.766627   5.046998   2.953575   2.738016   2.520979
    26  H    4.449207   5.257083   3.423336   3.385044   3.703545
    27  H    4.280949   2.476871   2.986717   3.164434   4.031754
    28  C    6.254245   4.479186   3.560597   2.507425   2.601703
    29  H    6.452729   4.671904   3.688907   2.771110   2.440650
    30  H    7.060623   5.159597   4.518216   3.500183   3.673751
    31  H    3.246352   2.245548   1.093013   2.168279   2.226616
                   11         12         13         14         15
    11  C    0.000000
    12  O    1.432816   0.000000
    13  H    1.947981   0.975705   0.000000
    14  C    2.557961   2.960977   3.458586   0.000000
    15  H    2.753623   2.609970   3.155722   1.086268   0.000000
    16  C    3.832151   3.355990   3.039210   3.009853   2.732404
    17  H    4.835063   4.200324   3.750570   4.067295   3.698404
    18  H    3.309878   2.512247   2.279311   2.891216   2.320535
    19  H    3.380514   4.021921   3.515741   4.720662   5.209551
    20  C    1.521036   2.369927   3.175123   3.120969   3.291412
    21  H    2.158094   2.626246   3.364631   4.124030   4.133943
    22  H    2.157753   2.605499   3.547445   2.832206   2.810295
    23  H    2.170212   3.337889   4.046416   3.451168   3.903098
    24  C    1.538078   2.434367   2.372803   3.785663   4.127681
    25  H    2.175180   3.371975   3.443189   4.166603   4.713821
    26  H    2.204106   2.639229   2.464410   4.669616   4.834668
    27  H    4.125141   3.836624   3.763715   2.565119   2.359795
    28  C    3.721175   4.272117   4.789315   1.334166   2.096683
    29  H    4.105277   4.927568   5.393649   2.120171   3.078070
    30  H    4.583648   4.925626   5.486247   2.118316   2.444541
    31  H    3.315323   4.098088   3.908455   3.154748   3.914485
                   16         17         18         19         20
    16  C    0.000000
    17  H    1.096750   0.000000
    18  H    1.093240   1.775715   0.000000
    19  H    4.436983   5.096334   4.570553   0.000000
    20  C    5.110735   6.134023   4.491549   4.653239   0.000000
    21  H    5.781936   6.735443   5.041941   5.046687   1.094478
    22  H    5.081829   6.093306   4.409990   5.480836   1.094514
    23  H    5.743824   6.809669   5.277862   4.750836   1.095393
    24  C    4.456452   5.347630   4.113396   2.209854   2.574685
    25  H    5.270771   6.208519   5.032239   2.433972   2.748773
    26  H    5.062772   5.849040   4.575912   2.724963   2.976585
    27  H    1.091934   1.769097   1.768976   5.047354   5.220680
    28  C    3.917591   4.888104   4.011156   5.629217   3.998532
    29  H    4.584951   5.557272   4.810128   5.576788   4.342188
    30  H    4.353087   5.204470   4.423010   6.650048   4.732388
    31  H    3.387494   4.219312   3.866470   2.389421   4.520713
                   21         22         23         24         25
    21  H    0.000000
    22  H    1.773387   0.000000
    23  H    1.782243   1.775351   0.000000
    24  C    2.840414   3.511081   2.843363   0.000000
    25  H    3.062195   3.766908   2.577766   1.096199   0.000000
    26  H    2.827147   3.942094   3.381990   1.094379   1.775739
    27  H    6.026209   5.027129   5.758754   4.957424   5.640441
    28  C    5.063309   3.584347   4.051039   4.861812   5.027744
    29  H    5.436368   4.105376   4.125296   5.008689   4.955078
    30  H    5.748312   4.110700   4.855641   5.836853   6.057561
    31  H    5.347654   4.983886   4.515056   3.147297   3.276259
                   26         27         28         29         30
    26  H    0.000000
    27  H    5.695443   0.000000
    28  C    5.819028   3.173101   0.000000
    29  H    6.042155   3.882453   1.088672   0.000000
    30  H    6.742357   3.455132   1.086727   1.849457   0.000000
    31  H    4.143687   3.505007   3.691678   3.514953   4.683195
                   31
    31  H    0.000000
 Stoichiometry    C11H18O2
 Framework group  C1[X(C11H18O2)]
 Deg. of freedom    87
 Full point group                 C1      NOp   1
 Largest Abelian subgroup         C1      NOp   1
 Largest concise Abelian subgroup C1      NOp   1
                         Standard orientation:                         
 ---------------------------------------------------------------------
 Center     Atomic      Atomic             Coordinates (Angstroms)
 Number     Number       Type             X           Y           Z
 ---------------------------------------------------------------------
      1          6           0        1.094274   -1.082008   -0.918477
      2          8           0        1.993089   -1.054169    0.202633
      3          6           0        2.681286    0.189864    0.094762
      4          6           0        1.598984    1.238779   -0.246501
      5          1           0        3.188419    0.373104    1.045567
      6          1           0        3.438084    0.121482   -0.702436
      7          1           0        2.020498    1.976967   -0.938118
      8          6           0        0.546634    0.378274   -1.031345
      9          6           0       -0.957304    0.244159   -0.589977
     10          1           0       -1.497017    0.039761   -1.525153
     11          6           0       -1.019967   -1.076500    0.234000
     12          8           0       -0.492149   -0.888394    1.552706
     13          1           0        0.478830   -0.937881    1.470537
     14          6           0       -1.655858    1.395789    0.070926
     15          1           0       -1.536350    1.469123    1.148107
     16          6           0        1.141912    1.991698    1.007191
     17          1           0        2.004416    2.488393    1.467888
     18          1           0        0.701201    1.314102    1.743269
     19          1           0        1.652191   -1.396532   -1.811733
     20          6           0       -2.435107   -1.608112    0.402282
     21          1           0       -2.417518   -2.564176    0.934742
     22          1           0       -3.035125   -0.902585    0.985524
     23          1           0       -2.919671   -1.751116   -0.569640
     24          6           0       -0.086112   -1.986733   -0.581522
     25          1           0       -0.582931   -2.309564   -1.503803
     26          1           0        0.222426   -2.878295   -0.026916
     27          1           0        0.402800    2.758681    0.766835
     28          6           0       -2.433774    2.270677   -0.568931
     29          1           0       -2.591345    2.218038   -1.644853
     30          1           0       -2.940795    3.075957   -0.044118
     31          1           0        0.554561    0.709734   -2.072858
 ---------------------------------------------------------------------
 Rotational constants (GHZ):           1.0678020           0.8225871           0.5944521
 Standard basis: def2SVP (5D, 7F)
 There are   285 symmetry adapted cartesian basis functions of A   symmetry.
 There are   272 symmetry adapted basis functions of A   symmetry.
   272 basis functions,   451 primitive gaussians,   285 cartesian basis functions
    50 alpha electrons       50 beta electrons
       nuclear repulsion energy       905.1569020086 Hartrees.
 NAtoms=   31 NActive=   31 NUniq=   31 SFac= 1.00D+00 NAtFMM=   60 NAOKFM=F Big=F
 Integral buffers will be    131072 words long.
 Raffenetti 2 integral format.
 Two-electron integral symmetry is turned on.
 One-electron integrals computed using PRISM.
   1 Symmetry operations used in ECPInt.
 ECPInt:  NShTT=    8778 NPrTT=   30604 LenC2=    8663 LenP2D=   23494.
 LDataN:  DoStor=T MaxTD1= 4 Len=   56
 NBasis=   272 RedAO= T EigKep=  3.25D-04  NBF=   272
 NBsUse=   272 1.00D-06 EigRej= -1.00D+00 NBFU=   272
 ExpMin= 1.22D-01 ExpMax= 2.27D+03 ExpMxC= 3.41D+02 IAcc=3 IRadAn=         5 AccDes= 0.00D+00
 Harris functional with IExCor= 1009 and IRadAn=       5 diagonalized for initial guess.
 HarFok:  IExCor= 1009 AccDes= 0.00D+00 IRadAn=         5 IDoV= 1 UseB2=F ITyADJ=14
 ICtDFT=  3500011 ScaDFX=  1.000000  1.000000  1.000000  1.000000
 FoFCou: FMM=F IPFlag=           0 FMFlag=      100000 FMFlg1=           0
         NFxFlg=           0 DoJE=T BraDBF=F KetDBF=T FulRan=T
         wScrn=  0.000000 ICntrl=       500 IOpCl=  0 I1Cent=   200000004 NGrid=           0
         NMat0=    1 NMatS0=      1 NMatT0=    0 NMatD0=    1 NMtDS0=    0 NMtDT0=    0
 Petite list used in FoFCou.
 Requested convergence on RMS density matrix=1.00D-08 within 128 cycles.
 Requested convergence on MAX density matrix=1.00D-06.
 Requested convergence on             energy=1.00D-06.
 No special actions if energy rises.
 Integral accuracy reduced to 1.0D-05 until final iterations.
 Initial convergence to 1.0D-05 achieved.  Increase integral accuracy.
 SCF Done:  E(RM06L) =  -579.924048266     A.U. after   15 cycles
            NFock= 15  Conv=0.56D-08     -V/T= 2.0101

 **********************************************************************

            Population analysis using the SCF Density.

 **********************************************************************

 Orbital symmetries:
       Occupied  (A) (A) (A) (A) (A) (A) (A) (A) (A) (A) (A) (A)
                 (A) (A) (A) (A) (A) (A) (A) (A) (A) (A) (A) (A)
                 (A) (A) (A) (A) (A) (A) (A) (A) (A) (A) (A) (A)
                 (A) (A) (A) (A) (A) (A) (A) (A) (A) (A) (A) (A)
                 (A) (A)
       Virtual   (A) (A) (A) (A) (A) (A) (A) (A) (A) (A) (A) (A)
                 (A) (A) (A) (A) (A) (A) (A) (A) (A) (A) (A) (A)
                 (A) (A) (A) (A) (A) (A) (A) (A) (A) (A) (A) (A)
                 (A) (A) (A) (A) (A) (A) (A) (A) (A) (A) (A) (A)
                 (A) (A) (A) (A) (A) (A) (A) (A) (A) (A) (A) (A)
                 (A) (A) (A) (A) (A) (A) (A) (A) (A) (A) (A) (A)
                 (A) (A) (A) (A) (A) (A) (A) (A) (A) (A) (A) (A)
                 (A) (A) (A) (A) (A) (A) (A) (A) (A) (A) (A) (A)
                 (A) (A) (A) (A) (A) (A) (A) (A) (A) (A) (A) (A)
                 (A) (A) (A) (A) (A) (A) (A) (A) (A) (A) (A) (A)
                 (A) (A) (A) (A) (A) (A) (A) (A) (A) (A) (A) (A)
                 (A) (A) (A) (A) (A) (A) (A) (A) (A) (A) (A) (A)
                 (A) (A) (A) (A) (A) (A) (A) (A) (A) (A) (A) (A)
                 (A) (A) (A) (A) (A) (A) (A) (A) (A) (A) (A) (A)
                 (A) (A) (A) (A) (A) (A) (A) (A) (A) (A) (A) (A)
                 (A) (A) (A) (A) (A) (A) (A) (A) (A) (A) (A) (A)
                 (A) (A) (A) (A) (A) (A) (A) (A) (A) (A) (A) (A)
                 (A) (A) (A) (A) (A) (A) (A) (A) (A) (A) (A) (A)
                 (A) (A) (A) (A) (A) (A)
 The electronic state is 1-A.
 Alpha  occ. eigenvalues --  -18.98270 -18.95055 -10.11403 -10.10959 -10.10800
 Alpha  occ. eigenvalues --  -10.07290 -10.07254 -10.06516 -10.05929 -10.05894
 Alpha  occ. eigenvalues --  -10.05116 -10.05051 -10.04567  -1.01129  -0.96510
 Alpha  occ. eigenvalues --   -0.79478  -0.75191  -0.72791  -0.69592  -0.65992
 Alpha  occ. eigenvalues --   -0.63080  -0.62291  -0.54284  -0.53644  -0.52642
 Alpha  occ. eigenvalues --   -0.49902  -0.48309  -0.44779  -0.43990  -0.43519
 Alpha  occ. eigenvalues --   -0.42001  -0.39848  -0.39098  -0.38278  -0.37206
 Alpha  occ. eigenvalues --   -0.36195  -0.35592  -0.34978  -0.34200  -0.32600
 Alpha  occ. eigenvalues --   -0.32398  -0.31244  -0.30654  -0.29807  -0.29285
 Alpha  occ. eigenvalues --   -0.29217  -0.27604  -0.23593  -0.22935  -0.21801
 Alpha virt. eigenvalues --   -0.01456   0.04050   0.07380   0.08102   0.08576
 Alpha virt. eigenvalues --    0.09283   0.09830   0.10810   0.11097   0.11885
 Alpha virt. eigenvalues --    0.12345   0.13183   0.13680   0.14397   0.14906
 Alpha virt. eigenvalues --    0.15216   0.15951   0.16237   0.17084   0.17700
 Alpha virt. eigenvalues --    0.18447   0.18688   0.19661   0.21405   0.22553
 Alpha virt. eigenvalues --    0.23161   0.23810   0.25442   0.26774   0.28490
 Alpha virt. eigenvalues --    0.31748   0.32625   0.34066   0.39811   0.42089
 Alpha virt. eigenvalues --    0.42368   0.44555   0.45140   0.46289   0.48024
 Alpha virt. eigenvalues --    0.48537   0.48973   0.50310   0.51101   0.51542
 Alpha virt. eigenvalues --    0.53035   0.54658   0.55125   0.55605   0.56539
 Alpha virt. eigenvalues --    0.56960   0.57860   0.58804   0.59545   0.60655
 Alpha virt. eigenvalues --    0.61475   0.61963   0.62776   0.63297   0.63727
 Alpha virt. eigenvalues --    0.64245   0.64838   0.65701   0.65982   0.66222
 Alpha virt. eigenvalues --    0.66670   0.67370   0.68131   0.68504   0.68855
 Alpha virt. eigenvalues --    0.69446   0.70456   0.71105   0.72284   0.73108
 Alpha virt. eigenvalues --    0.75335   0.75400   0.77320   0.80499   0.80913
 Alpha virt. eigenvalues --    0.83400   0.84347   0.85140   0.88173   0.90150
 Alpha virt. eigenvalues --    0.94668   0.96083   0.98348   0.99853   1.00414
 Alpha virt. eigenvalues --    1.04305   1.08854   1.11962   1.12531   1.17273
 Alpha virt. eigenvalues --    1.18274   1.18928   1.20579   1.22308   1.25265
 Alpha virt. eigenvalues --    1.25443   1.27706   1.29132   1.30819   1.33399
 Alpha virt. eigenvalues --    1.38447   1.41424   1.42678   1.43535   1.45721
 Alpha virt. eigenvalues --    1.49494   1.50136   1.51454   1.52009   1.54063
 Alpha virt. eigenvalues --    1.56746   1.57646   1.59650   1.62016   1.63128
 Alpha virt. eigenvalues --    1.63680   1.64565   1.66125   1.67348   1.69873
 Alpha virt. eigenvalues --    1.70697   1.72143   1.72934   1.73920   1.74360
 Alpha virt. eigenvalues --    1.75242   1.77759   1.78404   1.79392   1.79459
 Alpha virt. eigenvalues --    1.81424   1.82670   1.83405   1.84156   1.85151
 Alpha virt. eigenvalues --    1.85427   1.87151   1.87349   1.89855   1.90677
 Alpha virt. eigenvalues --    1.91607   1.92582   1.93610   1.95393   1.96377
 Alpha virt. eigenvalues --    1.97487   1.98933   2.00333   2.00915   2.02442
 Alpha virt. eigenvalues --    2.03676   2.06743   2.09048   2.09699   2.15007
 Alpha virt. eigenvalues --    2.16430   2.18225   2.18426   2.19756   2.20843
 Alpha virt. eigenvalues --    2.21579   2.23558   2.25187   2.27282   2.30169
 Alpha virt. eigenvalues --    2.31331   2.32875   2.34511   2.36795   2.37703
 Alpha virt. eigenvalues --    2.39934   2.43307   2.45035   2.46173   2.48615
 Alpha virt. eigenvalues --    2.49654   2.50721   2.52202   2.55040   2.56632
 Alpha virt. eigenvalues --    2.57880   2.61394   2.62861   2.64558   2.69121
 Alpha virt. eigenvalues --    2.71603   2.73981   2.74681   2.79732   2.82957
 Alpha virt. eigenvalues --    2.83560   2.85932   2.86597   2.87755   2.87973
 Alpha virt. eigenvalues --    2.89264   2.92026   2.92521   2.93064   2.95466
 Alpha virt. eigenvalues --    2.96304   2.97124   3.00613   3.01225   3.03432
 Alpha virt. eigenvalues --    3.06374   3.07469   3.08881   3.11348   3.14137
 Alpha virt. eigenvalues --    3.14538   3.22843   3.26097   3.30033   3.47426
 Alpha virt. eigenvalues --    3.55046   3.88131
          Condensed to atoms (all electrons):
               1          2          3          4          5          6
     1  C    4.833479   0.233416  -0.047900  -0.080990   0.007767   0.004205
     2  O    0.233416   8.176557   0.266855  -0.055956  -0.020172  -0.028689
     3  C   -0.047900   0.266855   4.496366   0.395316   0.398190   0.370375
     4  C   -0.080990  -0.055956   0.395316   5.052095  -0.028128  -0.018734
     5  H    0.007767  -0.020172   0.398190  -0.028128   0.636226  -0.038539
     6  H    0.004205  -0.028689   0.370375  -0.018734  -0.038539   0.696634
     7  H    0.003388   0.003948  -0.011867   0.335764   0.004228  -0.010539
     8  C    0.356296  -0.062040  -0.076835   0.295559   0.007993  -0.017006
     9  C   -0.082677  -0.004202   0.007804  -0.054662  -0.000018  -0.000296
    10  H   -0.006753  -0.000073  -0.000644   0.008115   0.000013   0.000018
    11  C   -0.049992   0.014849   0.001197  -0.003575   0.000026   0.000174
    12  O   -0.004864  -0.011672  -0.000126   0.003969   0.000141  -0.000073
    13  H   -0.016776   0.049056  -0.002994  -0.001146  -0.002246   0.001142
    14  C    0.008492  -0.000239   0.000181  -0.009099   0.000030  -0.000053
    15  H   -0.000084  -0.000054  -0.000207   0.000749   0.000013  -0.000001
    16  C    0.005689   0.001867  -0.060516   0.397731  -0.008075   0.007534
    17  H   -0.000214  -0.000042  -0.008439  -0.024948   0.001178   0.000625
    18  H    0.003371   0.001042  -0.006285  -0.018107   0.000875  -0.000074
    19  H    0.353308  -0.028857   0.008958  -0.009865  -0.000383   0.006232
    20  C    0.011466  -0.000151   0.000001  -0.000223  -0.000002  -0.000001
    21  H    0.000209  -0.000005   0.000001   0.000011   0.000000   0.000000
    22  H   -0.000552   0.000008  -0.000000  -0.000019  -0.000000   0.000000
    23  H   -0.000192   0.000009  -0.000001  -0.000005  -0.000000   0.000000
    24  C    0.348821  -0.051696   0.007911   0.012505  -0.000583   0.000088
    25  H   -0.009541   0.003517  -0.000359  -0.000040   0.000014   0.000041
    26  H   -0.019330  -0.001153   0.000137  -0.000382   0.000018  -0.000093
    27  H   -0.000427  -0.000217   0.006880  -0.013109   0.000444  -0.000435
    28  C   -0.000074   0.000003  -0.000000   0.000754   0.000000   0.000001
    29  H   -0.000059   0.000000   0.000001  -0.000030   0.000000  -0.000000
    30  H    0.000013  -0.000000  -0.000001   0.000020   0.000000  -0.000000
    31  H    0.003901   0.003862   0.001216  -0.001351  -0.000481   0.001930
               7          8          9         10         11         12
     1  C    0.003388   0.356296  -0.082677  -0.006753  -0.049992  -0.004864
     2  O    0.003948  -0.062040  -0.004202  -0.000073   0.014849  -0.011672
     3  C   -0.011867  -0.076835   0.007804  -0.000644   0.001197  -0.000126
     4  C    0.335764   0.295559  -0.054662   0.008115  -0.003575   0.003969
     5  H    0.004228   0.007993  -0.000018   0.000013   0.000026   0.000141
     6  H   -0.010539  -0.017006  -0.000296   0.000018   0.000174  -0.000073
     7  H    0.693691  -0.005570   0.003962  -0.000117   0.000113   0.000003
     8  C   -0.005570   5.227369   0.347299  -0.010320  -0.089447   0.002201
     9  C    0.003962   0.347299   5.242752   0.348872   0.246508  -0.075282
    10  H   -0.000117  -0.010320   0.348872   0.723380  -0.023852   0.004594
    11  C    0.000113  -0.089447   0.246508  -0.023852   5.075568   0.284001
    12  O    0.000003   0.002201  -0.075282   0.004594   0.284001   7.904082
    13  H    0.000039   0.005254   0.004345  -0.000380  -0.018008   0.314569
    14  C   -0.000079  -0.047874   0.308622  -0.039798  -0.043061  -0.000087
    15  H    0.000007  -0.001964  -0.046972   0.008064  -0.009662   0.010429
    16  C   -0.027848  -0.057979  -0.001021  -0.000120  -0.001410  -0.009872
    17  H   -0.006941   0.007667   0.000196   0.000027   0.000023   0.000187
    18  H    0.008090  -0.012665  -0.000752   0.000211  -0.000014   0.023970
    19  H    0.000891  -0.010972   0.002667   0.000396   0.008514  -0.000343
    20  C    0.000013   0.011459  -0.085179  -0.004410   0.397493  -0.059893
    21  H   -0.000000  -0.000678   0.011608  -0.000315  -0.011646   0.003559
    22  H   -0.000000   0.000334  -0.015729   0.000073  -0.009502   0.000047
    23  H   -0.000000   0.000377  -0.001893   0.000810  -0.015754   0.004123
    24  C   -0.000926  -0.095480  -0.077262   0.008708   0.347295  -0.031279
    25  H    0.000005  -0.004515   0.004002  -0.000926  -0.020900   0.003964
    26  H    0.000006   0.008207   0.010312  -0.000241  -0.017179   0.000543
    27  H   -0.009027  -0.004736  -0.003134  -0.000139   0.000308   0.000044
    28  C   -0.000036  -0.003574  -0.066508  -0.010261   0.004905   0.000892
    29  H   -0.000008  -0.000196  -0.020392   0.004673   0.000386  -0.000020
    30  H    0.000003  -0.000196   0.009565   0.000195  -0.000380   0.000009
    31  H   -0.018180   0.310540  -0.012307  -0.020135   0.008604  -0.000130
              13         14         15         16         17         18
     1  C   -0.016776   0.008492  -0.000084   0.005689  -0.000214   0.003371
     2  O    0.049056  -0.000239  -0.000054   0.001867  -0.000042   0.001042
     3  C   -0.002994   0.000181  -0.000207  -0.060516  -0.008439  -0.006285
     4  C   -0.001146  -0.009099   0.000749   0.397731  -0.024948  -0.018107
     5  H   -0.002246   0.000030   0.000013  -0.008075   0.001178   0.000875
     6  H    0.001142  -0.000053  -0.000001   0.007534   0.000625  -0.000074
     7  H    0.000039  -0.000079   0.000007  -0.027848  -0.006941   0.008090
     8  C    0.005254  -0.047874  -0.001964  -0.057979   0.007667  -0.012665
     9  C    0.004345   0.308622  -0.046972  -0.001021   0.000196  -0.000752
    10  H   -0.000380  -0.039798   0.008064  -0.000120   0.000027   0.000211
    11  C   -0.018008  -0.043061  -0.009662  -0.001410   0.000023  -0.000014
    12  O    0.314569  -0.000087   0.010429  -0.009872   0.000187   0.023970
    13  H    0.486231  -0.002083  -0.001052   0.002208   0.000014   0.000417
    14  C   -0.002083   4.818357   0.413301   0.000185   0.000258  -0.003952
    15  H   -0.001052   0.413301   0.634122  -0.000511   0.000586   0.000661
    16  C    0.002208   0.000185  -0.000511   4.617715   0.391055   0.385683
    17  H    0.000014   0.000258   0.000586   0.391055   0.637763  -0.023012
    18  H    0.000417  -0.003952   0.000661   0.385683  -0.023012   0.623890
    19  H    0.001374  -0.000377   0.000012  -0.000161   0.000026   0.000010
    20  C    0.004325  -0.007591  -0.003294   0.000023  -0.000001   0.000491
    21  H    0.000260  -0.000277  -0.000043   0.000005  -0.000000  -0.000036
    22  H   -0.000103   0.009571   0.001145  -0.000015   0.000001   0.000052
    23  H   -0.000313  -0.000817   0.000109   0.000005  -0.000000  -0.000016
    24  C   -0.015947   0.013608   0.001049   0.000434   0.000015  -0.000768
    25  H    0.000922   0.000069  -0.000079   0.000016  -0.000000  -0.000055
    26  H    0.001097  -0.000328   0.000000   0.000017  -0.000003  -0.000070
    27  H   -0.000223   0.011064  -0.004055   0.392636  -0.022109  -0.024209
    28  C   -0.000054   0.651334  -0.044184  -0.003153   0.000042   0.000715
    29  H    0.000001  -0.019643   0.007901   0.000023   0.000006  -0.000045
    30  H   -0.000002  -0.021402  -0.013372  -0.000020  -0.000005   0.000077
    31  H    0.000035   0.001949  -0.000499   0.004380  -0.000261  -0.000239
              19         20         21         22         23         24
     1  C    0.353308   0.011466   0.000209  -0.000552  -0.000192   0.348821
     2  O   -0.028857  -0.000151  -0.000005   0.000008   0.000009  -0.051696
     3  C    0.008958   0.000001   0.000001  -0.000000  -0.000001   0.007911
     4  C   -0.009865  -0.000223   0.000011  -0.000019  -0.000005   0.012505
     5  H   -0.000383  -0.000002   0.000000  -0.000000  -0.000000  -0.000583
     6  H    0.006232  -0.000001   0.000000   0.000000   0.000000   0.000088
     7  H    0.000891   0.000013  -0.000000  -0.000000  -0.000000  -0.000926
     8  C   -0.010972   0.011459  -0.000678   0.000334   0.000377  -0.095480
     9  C    0.002667  -0.085179   0.011608  -0.015729  -0.001893  -0.077262
    10  H    0.000396  -0.004410  -0.000315   0.000073   0.000810   0.008708
    11  C    0.008514   0.397493  -0.011646  -0.009502  -0.015754   0.347295
    12  O   -0.000343  -0.059893   0.003559   0.000047   0.004123  -0.031279
    13  H    0.001374   0.004325   0.000260  -0.000103  -0.000313  -0.015947
    14  C   -0.000377  -0.007591  -0.000277   0.009571  -0.000817   0.013608
    15  H    0.000012  -0.003294  -0.000043   0.001145   0.000109   0.001049
    16  C   -0.000161   0.000023   0.000005  -0.000015   0.000005   0.000434
    17  H    0.000026  -0.000001  -0.000000   0.000001  -0.000000   0.000015
    18  H    0.000010   0.000491  -0.000036   0.000052  -0.000016  -0.000768
    19  H    0.690281  -0.000226  -0.000006   0.000018   0.000007  -0.025710
    20  C   -0.000226   4.620849   0.383400   0.393243   0.384043  -0.058892
    21  H   -0.000006   0.383400   0.615335  -0.021751  -0.022200  -0.010421
    22  H    0.000018   0.393243  -0.021751   0.604820  -0.022221   0.008294
    23  H    0.000007   0.384043  -0.022200  -0.022221   0.646033  -0.006308
    24  C   -0.025710  -0.058892  -0.010421   0.008294  -0.006308   4.820643
    25  H   -0.008038  -0.005593   0.000025  -0.000173   0.002171   0.361675
    26  H   -0.001428  -0.005974   0.002901  -0.000268   0.000295   0.375020
    27  H   -0.000023   0.000005   0.000000  -0.000006  -0.000001   0.000014
    28  C    0.000003   0.000632  -0.000042   0.000108   0.000355  -0.000565
    29  H    0.000001  -0.000148   0.000003   0.000016  -0.000010  -0.000017
    30  H   -0.000000   0.000008  -0.000001   0.000046  -0.000006   0.000015
    31  H   -0.010743  -0.000294   0.000018  -0.000011  -0.000021   0.002847
              25         26         27         28         29         30
     1  C   -0.009541  -0.019330  -0.000427  -0.000074  -0.000059   0.000013
     2  O    0.003517  -0.001153  -0.000217   0.000003   0.000000  -0.000000
     3  C   -0.000359   0.000137   0.006880  -0.000000   0.000001  -0.000001
     4  C   -0.000040  -0.000382  -0.013109   0.000754  -0.000030   0.000020
     5  H    0.000014   0.000018   0.000444   0.000000   0.000000   0.000000
     6  H    0.000041  -0.000093  -0.000435   0.000001  -0.000000  -0.000000
     7  H    0.000005   0.000006  -0.009027  -0.000036  -0.000008   0.000003
     8  C   -0.004515   0.008207  -0.004736  -0.003574  -0.000196  -0.000196
     9  C    0.004002   0.010312  -0.003134  -0.066508  -0.020392   0.009565
    10  H   -0.000926  -0.000241  -0.000139  -0.010261   0.004673   0.000195
    11  C   -0.020900  -0.017179   0.000308   0.004905   0.000386  -0.000380
    12  O    0.003964   0.000543   0.000044   0.000892  -0.000020   0.000009
    13  H    0.000922   0.001097  -0.000223  -0.000054   0.000001  -0.000002
    14  C    0.000069  -0.000328   0.011064   0.651334  -0.019643  -0.021402
    15  H   -0.000079   0.000000  -0.004055  -0.044184   0.007901  -0.013372
    16  C    0.000016   0.000017   0.392636  -0.003153   0.000023  -0.000020
    17  H   -0.000000  -0.000003  -0.022109   0.000042   0.000006  -0.000005
    18  H   -0.000055  -0.000070  -0.024209   0.000715  -0.000045   0.000077
    19  H   -0.008038  -0.001428  -0.000023   0.000003   0.000001  -0.000000
    20  C   -0.005593  -0.005974   0.000005   0.000632  -0.000148   0.000008
    21  H    0.000025   0.002901   0.000000  -0.000042   0.000003  -0.000001
    22  H   -0.000173  -0.000268  -0.000006   0.000108   0.000016   0.000046
    23  H    0.002171   0.000295  -0.000001   0.000355  -0.000010  -0.000006
    24  C    0.361675   0.375020   0.000014  -0.000565  -0.000017   0.000015
    25  H    0.656111  -0.020096   0.000001  -0.000020  -0.000000  -0.000000
    26  H   -0.020096   0.607474   0.000002   0.000001   0.000001  -0.000000
    27  H    0.000001   0.000002   0.608515   0.001978  -0.000103   0.000025
    28  C   -0.000020   0.000001   0.001978   4.793773   0.394143   0.394584
    29  H   -0.000000   0.000001  -0.000103   0.394143   0.632093  -0.046380
    30  H   -0.000000  -0.000000   0.000025   0.394584  -0.046380   0.616110
    31  H    0.000782  -0.000344   0.000648   0.001278   0.000052  -0.000034
              31
     1  C    0.003901
     2  O    0.003862
     3  C    0.001216
     4  C   -0.001351
     5  H   -0.000481
     6  H    0.001930
     7  H   -0.018180
     8  C    0.310540
     9  C   -0.012307
    10  H   -0.020135
    11  C    0.008604
    12  O   -0.000130
    13  H    0.000035
    14  C    0.001949
    15  H   -0.000499
    16  C    0.004380
    17  H   -0.000261
    18  H   -0.000239
    19  H   -0.010743
    20  C   -0.000294
    21  H    0.000018
    22  H   -0.000011
    23  H   -0.000021
    24  C    0.002847
    25  H    0.000782
    26  H   -0.000344
    27  H    0.000648
    28  C    0.001278
    29  H    0.000052
    30  H   -0.000034
    31  H    0.691910
 Mulliken charges:
               1
     1  C    0.146606
     2  O   -0.489771
     3  C    0.254786
     4  C   -0.182218
     5  H    0.041473
     6  H    0.025533
     7  H    0.036989
     8  C   -0.078508
     9  C   -0.000227
    10  H    0.010335
    11  C   -0.075582
    12  O   -0.367686
    13  H    0.190038
    14  C   -0.040263
    15  H    0.047885
    16  C   -0.036502
    17  H    0.046308
    18  H    0.040743
    19  H    0.024434
    20  C    0.024421
    21  H    0.050085
    22  H    0.052575
    23  H    0.031423
    24  C    0.066914
    25  H    0.037022
    26  H    0.060858
    27  H    0.059393
    28  C   -0.117029
    29  H    0.047754
    30  H    0.061133
    31  H    0.031077
 Sum of Mulliken charges =  -0.00000
 Mulliken charges with hydrogens summed into heavy atoms:
               1
     1  C    0.171040
     2  O   -0.489771
     3  C    0.321792
     4  C   -0.145228
     8  C   -0.047431
     9  C    0.010107
    11  C   -0.075582
    12  O   -0.177648
    14  C    0.007623
    16  C    0.109942
    20  C    0.158504
    24  C    0.164794
    28  C   -0.008141
 Electronic spatial extent (au):  <R**2>=           2209.9025
 Charge=             -0.0000 electrons
 Dipole moment (field-independent basis, Debye):
    X=              0.9362    Y=              0.6196    Z=             -2.1619  Tot=              2.4360
 Quadrupole moment (field-independent basis, Debye-Ang):
   XX=            -78.9491   YY=            -79.8599   ZZ=            -80.5357
   XY=              2.8139   XZ=              1.2941   YZ=              2.7886
 Traceless Quadrupole moment (field-independent basis, Debye-Ang):
   XX=              0.8325   YY=             -0.0783   ZZ=             -0.7541
   XY=              2.8139   XZ=              1.2941   YZ=              2.7886
 Octapole moment (field-independent basis, Debye-Ang**2):
  XXX=             17.5699  YYY=            -11.5756  ZZZ=             -1.8543  XYY=             -3.2256
  XXY=              6.4003  XXZ=              1.9642  XZZ=              6.7683  YZZ=             -0.2299
  YYZ=              1.7887  XYZ=             -0.2812
 Hexadecapole moment (field-independent basis, Debye-Ang**3):
 XXXX=          -1450.4921 YYYY=          -1077.0746 ZZZZ=           -416.2237 XXXY=             14.4965
 XXXZ=             -2.1371 YYYX=             -7.5554 YYYZ=             -2.1280 ZZZX=             11.0983
 ZZZY=             -0.3659 XXYY=           -417.1861 XXZZ=           -296.8681 YYZZ=           -248.6924
 XXYZ=              3.8336 YYXZ=             -3.4030 ZZXY=             -6.5201
 N-N= 9.051569020086D+02 E-N=-3.157631248574D+03  KE= 5.741152688860D+02
   1 Symmetry operations used in ECPInt.
 ECPInt:  NShTT=    8778 NPrTT=   30604 LenC2=    8663 LenP2D=   23494.
 LDataN:  DoStor=T MaxTD1= 5 Len=  102
 Calling FoFJK, ICntrl=      2527 FMM=F ISym2X=0 I1Cent= 0 IOpClX= 0 NMat=1 NMatS=1 NMatT=0.
 ***** Axes restored to original set *****
 -------------------------------------------------------------------
 Center     Atomic                   Forces (Hartrees/Bohr)
 Number     Number              X              Y              Z
 -------------------------------------------------------------------
      1        6           0.005502626    0.002421204   -0.009563234
      2        8           0.000685251    0.006800749    0.004644292
      3        6           0.012183576   -0.003488756    0.002516102
      4        6           0.003004667   -0.006704565   -0.007099853
      5        1          -0.002478918    0.000867773   -0.002646572
      6        1          -0.002931977   -0.000027531    0.001999030
      7        1          -0.001449541    0.002274400    0.002469054
      8        6          -0.000553814   -0.003656739   -0.008715146
      9        6          -0.005420693    0.000730181   -0.007193983
     10        1           0.001692529   -0.001052438    0.003290199
     11        6          -0.000367844   -0.001409933   -0.001764897
     12        8          -0.001859928   -0.000236632    0.006786699
     13        1           0.004427918    0.000159923   -0.000434099
     14        6          -0.002239843   -0.004751555    0.008682824
     15        1          -0.000693845    0.000321618   -0.006287473
     16        6          -0.003477480   -0.005120194    0.009850506
     17        1          -0.000856809    0.001161951   -0.001204253
     18        1           0.001764314   -0.001983238   -0.002722248
     19        1          -0.002375127   -0.001108321    0.003943992
     20        6          -0.008927774    0.003230185    0.002101184
     21        1           0.000438067   -0.001783065   -0.001270314
     22        1           0.001707409    0.001274390   -0.001663869
     23        1           0.001486998   -0.000402875    0.001671082
     24        6          -0.002373520    0.011362074   -0.002165976
     25        1           0.001475172   -0.001175516    0.002226681
     26        1          -0.000974202   -0.002949914   -0.001109849
     27        1           0.001742788    0.002756186   -0.000245386
     28        6          -0.001519000   -0.001405906   -0.002443906
     29        1           0.000545236   -0.000296660    0.004358373
     30        1           0.001988767    0.003013486   -0.001962598
     31        1          -0.000145003    0.001179716    0.003953640
 -------------------------------------------------------------------
 Cartesian Forces:  Max     0.012183576 RMS     0.003923696

 GradGradGradGradGradGradGradGradGradGradGradGradGradGradGradGradGradGrad
 Berny optimization.
 FormGI is forming the generalized inverse of G from B-inverse, IUseBI=4.
 Internal  Forces:  Max     0.006973476 RMS     0.001942069
 Search for a local minimum.
 Step number   1 out of a maximum of  150
 All quantities printed in internal units (Hartrees-Bohrs-Radians)
 Mixed Optimization -- RFO/linear search
 Second derivative matrix not updated -- first step.
 ITU=  0
     Eigenvalues ---    0.00308   0.00340   0.00488   0.00498   0.00761
     Eigenvalues ---    0.00811   0.01258   0.01681   0.01814   0.02633
     Eigenvalues ---    0.02953   0.02960   0.02960   0.03564   0.03665
     Eigenvalues ---    0.03949   0.04144   0.04421   0.04704   0.04856
     Eigenvalues ---    0.05331   0.05399   0.05417   0.05494   0.05580
     Eigenvalues ---    0.05645   0.05663   0.05772   0.05827   0.05863
     Eigenvalues ---    0.06370   0.06664   0.06889   0.07925   0.08265
     Eigenvalues ---    0.09084   0.10837   0.11222   0.11295   0.13081
     Eigenvalues ---    0.15075   0.15988   0.16000   0.16000   0.16000
     Eigenvalues ---    0.16000   0.16000   0.16000   0.16000   0.16000
     Eigenvalues ---    0.16000   0.16742   0.18254   0.18947   0.21361
     Eigenvalues ---    0.22003   0.24234   0.24903   0.26004   0.27038
     Eigenvalues ---    0.27611   0.28805   0.29224   0.30267   0.32342
     Eigenvalues ---    0.33535   0.33778   0.33802   0.34044   0.34106
     Eigenvalues ---    0.34143   0.34197   0.34296   0.34300   0.34311
     Eigenvalues ---    0.34441   0.34461   0.34467   0.34590   0.34967
     Eigenvalues ---    0.35194   0.35247   0.37119   0.38514   0.40587
     Eigenvalues ---    0.52228   0.58532
 RFO step:  Lambda=-2.37822960D-03 EMin= 3.08401396D-03
 Linear search not attempted -- first point.
 Iteration  1 RMS(Cart)=  0.01764836 RMS(Int)=  0.00008793
 Iteration  2 RMS(Cart)=  0.00010975 RMS(Int)=  0.00000853
 Iteration  3 RMS(Cart)=  0.00000001 RMS(Int)=  0.00000853
 Variable       Old X    -DE/DX   Delta X   Delta X   Delta X     New X
                                 (Linear)    (Quad)   (Total)
    R1        2.71591  -0.00588   0.00000  -0.01452  -0.01452   2.70139
    R2        2.95491  -0.00598   0.00000  -0.02075  -0.02075   2.93416
    R3        2.07707   0.00473   0.00000   0.01390   0.01390   2.09097
    R4        2.88168  -0.00627   0.00000  -0.02156  -0.02156   2.86012
    R5        2.69435  -0.00697   0.00000  -0.01810  -0.01809   2.67625
    R6        2.92026  -0.00558   0.00000  -0.02061  -0.02062   2.89964
    R7        2.06559   0.00360   0.00000   0.01037   0.01037   2.07596
    R8        2.08123   0.00346   0.00000   0.01026   0.01026   2.09148
    R9        2.07089   0.00365   0.00000   0.01061   0.01061   2.08150
   R10        2.96626  -0.00666   0.00000  -0.02411  -0.02411   2.94215
   R11        2.89538  -0.00646   0.00000  -0.02193  -0.02193   2.87345
   R12        2.97272  -0.00607   0.00000  -0.02238  -0.02238   2.95034
   R13        2.06550   0.00413   0.00000   0.01189   0.01189   2.07738
   R14        2.07666   0.00383   0.00000   0.01124   0.01124   2.08790
   R15        2.94398  -0.00518   0.00000  -0.01845  -0.01845   2.92553
   R16        2.83523  -0.00431   0.00000  -0.01323  -0.01323   2.82200
   R17        2.70763  -0.00681   0.00000  -0.01667  -0.01667   2.69096
   R18        2.87434  -0.00583   0.00000  -0.01910  -0.01910   2.85525
   R19        2.90655  -0.00505   0.00000  -0.01811  -0.01811   2.88844
   R20        1.84382  -0.00445   0.00000  -0.00849  -0.00849   1.83533
   R21        2.05275   0.00633   0.00000   0.01785   0.01785   2.07060
   R22        2.52121   0.00143   0.00000   0.00243   0.00243   2.52364
   R23        2.07256   0.00171   0.00000   0.00498   0.00498   2.07754
   R24        2.06592   0.00378   0.00000   0.01089   0.01089   2.07681
   R25        2.06346   0.00306   0.00000   0.00878   0.00878   2.07223
   R26        2.06826   0.00217   0.00000   0.00627   0.00627   2.07453
   R27        2.06833   0.00265   0.00000   0.00766   0.00766   2.07600
   R28        2.06999   0.00220   0.00000   0.00638   0.00638   2.07637
   R29        2.07151   0.00289   0.00000   0.00842   0.00842   2.07993
   R30        2.06808   0.00324   0.00000   0.00937   0.00937   2.07745
   R31        2.05729   0.00440   0.00000   0.01249   0.01249   2.06978
   R32        2.05362   0.00411   0.00000   0.01160   0.01160   2.06522
    A1        1.83097  -0.00021   0.00000  -0.00124  -0.00125   1.82972
    A2        1.89869   0.00008   0.00000   0.00098   0.00098   1.89967
    A3        1.89993   0.00008   0.00000   0.00079   0.00079   1.90072
    A4        1.96746  -0.00018   0.00000  -0.00199  -0.00199   1.96548
    A5        1.87435   0.00013   0.00000  -0.00005  -0.00004   1.87431
    A6        1.98528   0.00008   0.00000   0.00137   0.00136   1.98664
    A7        1.83356   0.00045   0.00000  -0.00307  -0.00310   1.83046
    A8        1.84512  -0.00020   0.00000  -0.00370  -0.00374   1.84138
    A9        1.88010   0.00006   0.00000   0.00375   0.00376   1.88386
   A10        1.90950   0.00037   0.00000   0.00427   0.00429   1.91379
   A11        1.98586   0.00012   0.00000   0.00040   0.00042   1.98628
   A12        1.94288   0.00032   0.00000   0.00327   0.00327   1.94615
   A13        1.89783  -0.00063   0.00000  -0.00747  -0.00747   1.89035
   A14        1.90414  -0.00037   0.00000  -0.00272  -0.00272   1.90142
   A15        1.78018  -0.00000   0.00000  -0.00039  -0.00041   1.77977
   A16        1.94098   0.00076   0.00000   0.00615   0.00616   1.94714
   A17        1.88766   0.00015   0.00000   0.00014   0.00014   1.88781
   A18        1.87563   0.00025   0.00000   0.00353   0.00352   1.87915
   A19        2.06976  -0.00081   0.00000  -0.00700  -0.00698   2.06279
   A20        1.81426  -0.00007   0.00000   0.00049   0.00046   1.81472
   A21        1.80797   0.00026   0.00000   0.00014   0.00014   1.80812
   A22        1.92777  -0.00013   0.00000   0.00052   0.00052   1.92829
   A23        2.15005  -0.00040   0.00000  -0.00508  -0.00507   2.14499
   A24        1.88109   0.00025   0.00000   0.00193   0.00194   1.88303
   A25        1.87564   0.00008   0.00000   0.00216   0.00216   1.87780
   A26        1.82000  -0.00009   0.00000  -0.00032  -0.00032   1.81968
   A27        1.83291  -0.00020   0.00000  -0.00046  -0.00047   1.83245
   A28        2.09819   0.00015   0.00000  -0.00042  -0.00041   2.09777
   A29        1.84696  -0.00002   0.00000  -0.00112  -0.00112   1.84584
   A30        1.86394   0.00015   0.00000   0.00330   0.00329   1.86724
   A31        1.98120  -0.00001   0.00000  -0.00104  -0.00105   1.98016
   A32        1.93979  -0.00035   0.00000  -0.00500  -0.00500   1.93479
   A33        1.97385   0.00005   0.00000  -0.00102  -0.00102   1.97282
   A34        1.76891  -0.00015   0.00000  -0.00224  -0.00224   1.76667
   A35        1.86167   0.00003   0.00000   0.00110   0.00108   1.86275
   A36        1.91987   0.00020   0.00000   0.00377   0.00375   1.92362
   A37        2.00062   0.00021   0.00000   0.00316   0.00316   2.00378
   A38        1.85712   0.00009   0.00000   0.00053   0.00053   1.85765
   A39        2.02352  -0.00073   0.00000  -0.00346  -0.00346   2.02006
   A40        2.16949   0.00128   0.00000   0.00573   0.00573   2.17522
   A41        2.08916  -0.00055   0.00000  -0.00238  -0.00238   2.08678
   A42        1.90885   0.00076   0.00000   0.00419   0.00418   1.91303
   A43        1.94616   0.00024   0.00000   0.00201   0.00201   1.94816
   A44        1.94656   0.00119   0.00000   0.00733   0.00732   1.95388
   A45        1.89114  -0.00052   0.00000  -0.00315  -0.00316   1.88799
   A46        1.88249  -0.00111   0.00000  -0.00780  -0.00781   1.87468
   A47        1.88672  -0.00068   0.00000  -0.00327  -0.00328   1.88344
   A48        1.92216   0.00039   0.00000   0.00197   0.00196   1.92412
   A49        1.92165   0.00036   0.00000   0.00158   0.00157   1.92323
   A50        1.93802   0.00075   0.00000   0.00565   0.00564   1.94366
   A51        1.88878  -0.00063   0.00000  -0.00594  -0.00594   1.88284
   A52        1.90152  -0.00045   0.00000  -0.00159  -0.00160   1.89992
   A53        1.89068  -0.00047   0.00000  -0.00206  -0.00207   1.88861
   A54        1.80907  -0.00000   0.00000  -0.00032  -0.00033   1.80875
   A55        1.91733   0.00024   0.00000   0.00245   0.00245   1.91978
   A56        1.95745  -0.00014   0.00000  -0.00050  -0.00049   1.95695
   A57        1.92326  -0.00005   0.00000  -0.00129  -0.00129   1.92197
   A58        1.96556   0.00021   0.00000   0.00392   0.00392   1.96948
   A59        1.89044  -0.00024   0.00000  -0.00401  -0.00401   1.88643
   A60        2.12546  -0.00019   0.00000  -0.00115  -0.00116   2.12431
   A61        2.12510   0.00013   0.00000   0.00080   0.00080   2.12590
   A62        2.03261   0.00006   0.00000   0.00036   0.00036   2.03298
    D1       -0.69276  -0.00005   0.00000  -0.00228  -0.00228  -0.69504
    D2        1.41654  -0.00034   0.00000  -0.00480  -0.00480   1.41174
    D3       -2.69458  -0.00013   0.00000  -0.00197  -0.00196  -2.69654
    D4        0.34700  -0.00036   0.00000  -0.00673  -0.00672   0.34028
    D5       -1.91872   0.00001   0.00000  -0.00119  -0.00119  -1.91991
    D6        2.36054  -0.00016   0.00000  -0.00399  -0.00399   2.35655
    D7       -1.71629  -0.00023   0.00000  -0.00609  -0.00609  -1.72238
    D8        2.30118   0.00014   0.00000  -0.00056  -0.00056   2.30062
    D9        0.29725  -0.00003   0.00000  -0.00335  -0.00335   0.29390
   D10        2.36660  -0.00031   0.00000  -0.00644  -0.00643   2.36017
   D11        0.10088   0.00006   0.00000  -0.00090  -0.00090   0.09998
   D12       -1.90304  -0.00011   0.00000  -0.00370  -0.00370  -1.90674
   D13        1.43812  -0.00019   0.00000  -0.00252  -0.00254   1.43559
   D14       -2.79017  -0.00013   0.00000  -0.00306  -0.00307  -2.79324
   D15       -0.68682  -0.00037   0.00000  -0.00678  -0.00679  -0.69361
   D16       -0.53532  -0.00005   0.00000  -0.00145  -0.00144  -0.53676
   D17        1.51957   0.00001   0.00000  -0.00198  -0.00198   1.51760
   D18       -2.66026  -0.00023   0.00000  -0.00571  -0.00570  -2.66596
   D19       -2.72499   0.00003   0.00000   0.00021   0.00021  -2.72478
   D20       -0.67010   0.00009   0.00000  -0.00032  -0.00032  -0.67042
   D21        1.43325  -0.00015   0.00000  -0.00405  -0.00404   1.42921
   D22        0.76978   0.00014   0.00000   0.01062   0.01060   0.78038
   D23        2.89884   0.00020   0.00000   0.01104   0.01102   2.90986
   D24       -1.32411  -0.00032   0.00000   0.00660   0.00660  -1.31752
   D25       -2.50696  -0.00021   0.00000  -0.01408  -0.01408  -2.52104
   D26       -0.51296  -0.00018   0.00000  -0.01516  -0.01517  -0.52813
   D27        1.71039  -0.00074   0.00000  -0.02043  -0.02042   1.68996
   D28        1.71662  -0.00021   0.00000  -0.01649  -0.01649   1.70013
   D29       -2.57256  -0.00019   0.00000  -0.01758  -0.01758  -2.59014
   D30       -0.34922  -0.00074   0.00000  -0.02284  -0.02283  -0.37205
   D31       -0.43510   0.00029   0.00000  -0.00942  -0.00943  -0.44454
   D32        1.55890   0.00031   0.00000  -0.01051  -0.01052   1.54838
   D33       -2.50094  -0.00025   0.00000  -0.01577  -0.01578  -2.51672
   D34        0.09290   0.00019   0.00000   0.01252   0.01253   0.10543
   D35        2.13244   0.00023   0.00000   0.01004   0.01005   2.14249
   D36       -1.95337   0.00027   0.00000   0.01083   0.01084  -1.94253
   D37        2.09904  -0.00016   0.00000   0.00935   0.00934   2.10838
   D38       -2.14461  -0.00012   0.00000   0.00687   0.00686  -2.13775
   D39        0.05276  -0.00008   0.00000   0.00766   0.00766   0.06042
   D40       -2.04480  -0.00030   0.00000   0.00911   0.00911  -2.03569
   D41       -0.00526  -0.00026   0.00000   0.00662   0.00662   0.00137
   D42        2.19211  -0.00022   0.00000   0.00742   0.00742   2.19954
   D43        1.02555  -0.00004   0.00000  -0.01985  -0.01982   1.00572
   D44       -1.06573  -0.00005   0.00000  -0.01993  -0.01991  -1.08563
   D45        3.10630  -0.00018   0.00000  -0.02225  -0.02223   3.08407
   D46       -1.05739  -0.00019   0.00000  -0.02229  -0.02230  -1.07969
   D47        3.13452  -0.00019   0.00000  -0.02238  -0.02239   3.11214
   D48        1.02337  -0.00033   0.00000  -0.02470  -0.02471   0.99866
   D49        3.08044  -0.00000   0.00000  -0.02040  -0.02042   3.06002
   D50        0.98916  -0.00001   0.00000  -0.02049  -0.02050   0.96866
   D51       -1.12199  -0.00014   0.00000  -0.02281  -0.02282  -1.14482
   D52       -1.57269   0.00011   0.00000   0.00449   0.00449  -1.56820
   D53        0.36593  -0.00002   0.00000   0.00296   0.00296   0.36889
   D54        2.62384  -0.00010   0.00000   0.00068   0.00068   2.62452
   D55        2.66792   0.00023   0.00000   0.00679   0.00680   2.67472
   D56       -1.67664   0.00010   0.00000   0.00525   0.00526  -1.67138
   D57        0.58127   0.00002   0.00000   0.00298   0.00299   0.58425
   D58        0.46817   0.00012   0.00000   0.00608   0.00608   0.47425
   D59        2.40679  -0.00001   0.00000   0.00454   0.00455   2.41134
   D60       -1.61849  -0.00010   0.00000   0.00227   0.00227  -1.61622
   D61        1.34850   0.00017   0.00000  -0.00210  -0.00209   1.34640
   D62       -2.84126  -0.00001   0.00000  -0.00497  -0.00497  -2.84623
   D63       -0.69092   0.00017   0.00000  -0.00313  -0.00313  -0.69404
   D64       -3.01544  -0.00001   0.00000  -0.00307  -0.00307  -3.01851
   D65       -0.92201  -0.00020   0.00000  -0.00594  -0.00594  -0.92795
   D66        1.22833  -0.00002   0.00000  -0.00410  -0.00410   1.22423
   D67       -0.97691   0.00015   0.00000  -0.00034  -0.00034  -0.97725
   D68        1.11651  -0.00003   0.00000  -0.00321  -0.00321   1.11331
   D69       -3.01633   0.00014   0.00000  -0.00137  -0.00137  -3.01769
   D70       -1.50273   0.00005   0.00000  -0.00165  -0.00165  -1.50438
   D71        1.68782   0.00010   0.00000   0.00104   0.00104   1.68886
   D72        2.71591  -0.00005   0.00000  -0.00366  -0.00366   2.71225
   D73       -0.37673  -0.00001   0.00000  -0.00098  -0.00098  -0.37770
   D74        0.68735  -0.00012   0.00000  -0.00380  -0.00380   0.68354
   D75       -2.40529  -0.00007   0.00000  -0.00111  -0.00112  -2.40641
   D76       -1.40978  -0.00000   0.00000  -0.00312  -0.00311  -1.41290
   D77        2.71456   0.00013   0.00000   0.00051   0.00051   2.71507
   D78        0.53499  -0.00027   0.00000  -0.00643  -0.00644   0.52855
   D79        3.08301   0.00025   0.00000  -0.00013  -0.00013   3.08289
   D80       -1.11871  -0.00005   0.00000  -0.00525  -0.00525  -1.12396
   D81        0.97519   0.00007   0.00000  -0.00315  -0.00315   0.97204
   D82       -1.06258  -0.00014   0.00000  -0.00628  -0.00628  -1.06886
   D83        1.01889  -0.00044   0.00000  -0.01140  -0.01140   1.00748
   D84        3.11279  -0.00032   0.00000  -0.00930  -0.00931   3.10348
   D85        1.06679   0.00027   0.00000   0.00133   0.00133   1.06812
   D86       -3.13493  -0.00003   0.00000  -0.00379  -0.00379  -3.13872
   D87       -1.04103   0.00009   0.00000  -0.00169  -0.00169  -1.04272
   D88        0.74953  -0.00005   0.00000   0.00256   0.00255   0.75208
   D89       -1.30123  -0.00030   0.00000   0.00049   0.00048  -1.30075
   D90        2.86904  -0.00010   0.00000   0.00387   0.00386   2.87290
   D91       -1.30439   0.00035   0.00000   0.00786   0.00786  -1.29653
   D92        2.92803   0.00010   0.00000   0.00579   0.00579   2.93383
   D93        0.81511   0.00030   0.00000   0.00917   0.00918   0.82429
   D94        2.88141   0.00002   0.00000   0.00147   0.00146   2.88288
   D95        0.83065  -0.00023   0.00000  -0.00060  -0.00061   0.83005
   D96       -1.28227  -0.00003   0.00000   0.00278   0.00278  -1.27949
   D97       -0.03171  -0.00005   0.00000  -0.00220  -0.00220  -0.03391
   D98        3.11394  -0.00008   0.00000  -0.00321  -0.00322   3.11072
   D99       -3.12262   0.00000   0.00000   0.00060   0.00060  -3.12202
   D100       0.02303  -0.00003   0.00000  -0.00042  -0.00042   0.02261
         Item               Value     Threshold  Converged?
 Maximum Force            0.006973     0.000450     NO 
 RMS     Force            0.001942     0.000300     NO 
 Maximum Displacement     0.085854     0.001800     NO 
 RMS     Displacement     0.017631     0.001200     NO 
 Predicted change in Energy=-1.208698D-03
 GradGradGradGradGradGradGradGradGradGradGradGradGradGradGradGradGradGrad

                          Input orientation:                          
 ---------------------------------------------------------------------
 Center     Atomic      Atomic             Coordinates (Angstroms)
 Number     Number       Type             X           Y           Z
 ---------------------------------------------------------------------
      1          6           0       -1.089781   -1.076807    0.911918
      2          8           0       -1.983679   -1.045308   -0.203189
      3          6           0       -2.666835    0.189768   -0.086806
      4          6           0       -1.585309    1.227260    0.242387
      5          1           0       -3.188420    0.378566   -1.035024
      6          1           0       -3.423013    0.122422    0.718544
      7          1           0       -2.005980    1.975674    0.932441
      8          6           0       -0.546657    0.373227    1.027133
      9          6           0        0.946441    0.241723    0.590242
     10          1           0        1.487376    0.030054    1.530092
     11          6           0        1.008588   -1.066928   -0.234534
     12          8           0        0.481546   -0.867474   -1.542281
     13          1           0       -0.484793   -0.919077   -1.459921
[...]
 51,-0.00069215,0.00044641,0.00026435,-0.00011990,0.00022310,-0.0001253
 3,-0.00018235,0.00005701,-0.00000503,0.00000241,-0.00008826,-0.0000150
 5,0.00003609,0.00001674,0.00006274,-0.00011579,0.00006720,-0.00002734,
 0.00045477,0.00102937,-0.00108406,-0.00048261,0.00049501,0.00008801,-0
 .00001833,-0.00017028,-0.00005023,-0.00009532,0.00028579,0.00061816,0.
 00001191,0.00025612,-0.10425641,0.06668058,-0.23549970,0.11013978,-0.0
 7264563,0.25217122,0.00857990,0.02216098,0.01383527,0.00226170,-0.0021
 1299,0.00006326,0.00030102,0.00018074,0.00020874,0.00052054,0.00093394
 ,0.00007006,0.00001408,-0.00012240,-0.00005695,0.00010171,-0.00005510,
 -0.00004813,-0.00017138,0.00012121,-0.00013306,-0.00409243,0.00189827,
 0.00034468,-0.00259218,-0.00249415,0.00284180,0.00002458,0.00027044,0.
 00035751,-0.00510751,-0.01488522,-0.01339377,0.00089066,0.00283546,-0.
 00121929,0.00057076,0.00000190,0.00008236,0.00091621,-0.00087704,-0.00
 095583,-0.00004197,-0.00003844,0.00005625,-0.00026868,0.00009210,0.000
 05105,0.00005021,0.00004857,-0.00010047,0.00003226,-0.00002847,-0.0000
 4279,-0.00011910,-0.00022970,-0.00020706,0.00099069,-0.00038064,-0.000
 56020,-0.00024748,0.00039483,0.00029973,-0.00007381,0.00031570,0.00027
 353,-0.00001631,-0.00008369,0.00004235,-0.06829465,-0.06497794,-0.0391
 3292,-0.00375428,-0.01115357,-0.00488188,0.06973164,-0.00650549,-0.013
 43386,-0.00668445,-0.00189708,0.00223611,-0.00013654,-0.00006074,-0.00
 045051,0.00000201,-0.00036721,-0.00035805,-0.00034604,0.00002059,0.000
 10063,0.00004660,-0.00009720,0.00015441,0.00006603,0.00019687,-0.00004
 691,0.00014454,0.00143907,-0.00121996,-0.00021527,-0.00102422,-0.00260
 783,0.00246451,0.00000275,0.00030795,-0.00009477,-0.00239783,-0.012922
 57,-0.00992003,0.00110362,0.00266785,-0.00094615,0.00016603,-0.0013497
 8,0.00030442,0.00017539,-0.00044476,-0.00115079,-0.00002591,-0.0000732
 0,0.00003907,0.00021228,-0.00003302,-0.00000559,0.00000576,-0.00004238
 ,0.00009487,-0.00002027,-0.00006220,0.00003098,0.00032992,0.00002529,0
 .00004626,0.00059630,0.00023458,0.00021495,-0.00037260,0.00023250,0.00
 004364,-0.00005872,0.00005917,0.00008433,0.00002392,0.00003591,0.00003
 054,-0.06271422,-0.22452734,-0.11274227,0.00355872,0.00871740,0.006713
 12,0.06804342,0.24356445,-0.00484923,-0.00457102,-0.00445896,-0.000187
 89,0.00149997,0.00075785,-0.00021513,0.00012011,0.00009858,-0.00039080
 ,-0.00007983,-0.00002189,0.00002260,-0.00003378,0.00002638,0.00000092,
 0.00002229,-0.00004658,0.00003287,0.00000017,0.00000919,0.00149385,0.0
 0069325,0.00012054,0.00138071,0.00206010,-0.00167927,0.00021522,0.0000
 3215,0.00021511,0.00504106,0.01508358,0.00837255,-0.00020193,-0.001188
 87,0.00229995,-0.00029581,0.00035471,-0.00005611,-0.00013316,0.0007796
 0,0.00088137,-0.00003557,-0.00006463,0.00004302,0.00016448,-0.00003348
 ,0.00003282,-0.00001687,-0.00004265,0.00005726,0.00000023,0.00004011,-
 0.00001062,0.00034471,-0.00004598,0.00000136,-0.00092140,0.00011152,0.
 00020625,-0.00008204,-0.00033482,0.00005101,-0.00000388,-0.00008150,-0
 .00006386,0.00001323,-0.00007451,0.00002337,-0.03861088,-0.11575983,-0
 .11654452,-0.00490738,-0.02031236,-0.01016277,0.04196572,0.12166793,0.
 11999211,-0.00019553,-0.00004126,-0.00024160,0.00038642,-0.00069074,0.
 00014454,-0.00015252,-0.00019272,0.00200317,-0.00590424,-0.00458134,-0
 .00294044,0.00035384,0.00006637,0.00030862,-0.00027149,-0.00051792,0.0
 0011207,0.00014403,0.00013973,-0.00027364,0.00033171,0.00021357,0.0000
 3122,0.00037972,-0.00006401,0.00018801,0.00003030,-0.00014237,0.000002
 34,0.00008089,0.00006588,0.00048452,-0.00029098,0.00029361,-0.00038448
 ,-0.00004360,-0.00032934,0.00017747,-0.00266559,0.00148355,-0.00048936
 ,-0.00078374,0.00088284,-0.00024415,-0.16650615,-0.13532353,-0.0407851
 5,-0.01297068,-0.01727704,-0.00360308,0.00864218,0.01109289,0.00334585
 ,-0.00002188,-0.00000986,0.00003014,-0.00003386,-0.00001324,-0.0000573
 5,0.00001079,-0.00002386,-0.00000971,0.00000239,0.00001000,0.00000370,
 -0.00001802,0.00000783,0.00000011,0.00000624,-0.00001547,-0.00002817,0
 .00003356,0.00000203,-0.00001483,-0.00002118,-0.00002173,-0.00000654,0
 .18029791,-0.00034058,0.00003448,-0.00068757,0.00054998,-0.00022631,0.
 00011430,-0.00104993,0.00080207,0.00359837,-0.00832819,-0.01027544,-0.
 00495996,0.00021729,0.00004667,0.00004308,-0.00056664,-0.00087717,-0.0
 0010813,0.00053233,0.00090792,0.00004878,-0.00045228,0.00064752,-0.000
 62647,-0.00002896,-0.00036782,0.00022114,0.00011299,0.00011466,-0.0000
 5985,-0.00025850,-0.00021350,-0.00073583,0.00074213,-0.00036136,0.0004
 4848,-0.00021516,0.00050441,-0.00001939,-0.00021573,-0.00073820,0.0005
 2868,0.00031244,-0.00023303,-0.00057535,-0.13359406,-0.19093012,-0.044
 44648,0.01097714,0.01061050,0.00352664,-0.01335795,-0.01138833,-0.0015
 2899,0.00006822,0.00008059,0.00006874,0.00003075,0.00004415,0.00009260
 ,-0.00000587,0.00003275,0.00000607,0.00003730,-0.00002563,-0.00004842,
 0.00003635,-0.00002596,0.00001818,0.00002062,0.00007962,0.00015023,0.0
 0003302,-0.00003556,0.00002928,0.00003829,0.00004934,-0.00002497,0.144
 80323,0.20111990,0.00036290,0.00001480,0.00056945,-0.00060898,0.000887
 12,0.00023449,0.00158665,0.00138717,-0.00538171,0.01968641,0.02060007,
 0.00735939,0.00006451,-0.00004534,0.00001893,0.00116543,0.00104273,0.0
 0017943,-0.00031292,-0.00049260,0.00148117,0.00000075,-0.00086548,0.00
 126549,-0.00018482,0.00008239,-0.00014868,-0.00001327,0.00001253,-0.00
 000107,-0.00002454,-0.00001480,-0.00027463,0.00028003,-0.00044457,0.00
 034999,0.00008750,0.00042105,-0.00029709,-0.00107101,0.00058831,0.0004
 0466,0.00018132,-0.00022510,-0.00020229,-0.04173628,-0.04603527,-0.059
 91949,-0.00678931,-0.00967700,-0.00354893,-0.01459250,-0.01192231,-0.0
 0403815,-0.00002571,-0.00007839,-0.00003088,-0.00000850,-0.00003274,0.
 00004971,0.00000181,-0.00000342,-0.00000577,-0.00000762,0.00000226,0.0
 0000033,0.00002334,-0.00000295,0.00001057,0.00000180,-0.00004446,-0.00
 002119,-0.00003724,0.00000616,0.00002326,0.00000732,-0.00001599,-0.000
 00475,0.04235604,0.04505646,0.06238653,-0.00011613,0.00027397,0.000380
 70,-0.00010244,-0.00007265,-0.00015879,0.00006811,0.00004705,0.0000014
 9,-0.00005606,0.00001384,0.00004808,-0.00001183,0.00000095,-0.00002629
 ,-0.00001834,-0.00001765,0.00002420,-0.00001596,0.00002567,-0.00003474
 ,0.00215370,-0.00026894,-0.00067532,-0.00885955,-0.01932804,-0.0068088
 4,0.00023424,0.00019762,-0.00053476,-0.00114995,0.00137390,0.00403620,
 0.00028396,0.00022144,-0.00063042,-0.00002146,0.00010778,0.00007549,-0
 .22146682,-0.20427493,-0.13884897,0.00244464,-0.00413327,0.00002665,0.
 00015621,0.00078451,-0.00002282,-0.00004465,-0.00018364,-0.00003255,0.
 00000659,-0.00005501,-0.00006804,-0.00005806,-0.00016876,-0.00003620,-
 0.00020067,0.00006113,0.00019209,0.00038807,0.00007521,-0.00022162,0.0
 0021336,-0.00010959,-0.00044313,-0.00008328,-0.00018663,0.00002718,0.0
 0020643,-0.00084386,-0.00068231,0.00000183,0.00002044,0.00002634,-0.00
 018767,-0.00019237,0.00013615,-0.00098466,-0.00017438,-0.00050175,0.37
 368572,-0.00038413,0.00009931,0.00090325,-0.00044490,0.00040651,-0.000
 30898,0.00013245,-0.00023626,-0.00024652,-0.00029515,-0.00044315,0.000
 54461,-0.00011838,-0.00003427,-0.00006250,0.00003373,0.00011250,0.0000
 2344,-0.00023032,0.00011674,-0.00007454,0.00297556,-0.00127591,-0.0014
 4836,-0.02188937,-0.02036172,-0.00776503,-0.00017374,0.00071304,-0.002
 34661,-0.00083321,-0.00028769,0.00406558,-0.00035322,0.00076321,-0.001
 05949,0.00012323,-0.00012566,0.00006087,-0.20515740,-0.29042795,-0.149
 24203,-0.00079780,0.00489026,0.00353627,0.00032400,-0.00080319,0.00045
 343,0.00046280,0.00028881,0.00000317,0.00004531,-0.00008233,-0.0000402
 7,-0.00017320,-0.00027617,-0.00008246,-0.00038968,0.00013896,-0.000138
 15,0.00014293,-0.00003957,-0.00008922,0.00014687,-0.00020606,-0.000047
 06,0.00004054,0.00003805,0.00004563,0.00003439,-0.00069648,-0.00072452
 ,0.00001750,0.00001808,0.00001339,-0.00026561,-0.00029192,0.00016299,0
 .00032126,0.00075179,-0.00008901,0.34414381,0.55603089,0.00027265,0.00
 007311,-0.00036514,0.00013240,0.00001041,0.00033273,-0.00009293,0.0000
 1693,0.00002480,-0.00028164,0.00019410,-0.00039725,0.00005420,0.000007
 79,0.00003172,0.00000405,-0.00001369,-0.00000579,-0.00001598,-0.000084
 93,0.00011756,0.00195441,0.00231695,0.00023963,0.00610461,0.00915293,0
 .01146015,0.00181404,0.00099002,0.00137511,0.00143764,0.00243952,-0.00
 359320,-0.00038947,-0.00173365,0.00071098,0.00019318,-0.00003522,-0.00
 007483,-0.13697655,-0.14625458,-0.22030368,-0.01846586,-0.02107852,-0.
 01059626,-0.00019315,-0.00006614,-0.00023492,-0.00013326,0.00004175,0.
 00026559,0.00008985,0.00029320,0.00023405,0.00014985,0.00020384,-0.000
 04250,0.00025886,0.00014727,0.00016312,-0.00008104,0.00012011,0.000001
 34,-0.00022177,-0.00004425,-0.00009271,-0.00004621,-0.00008898,0.00003
 699,0.00027857,0.00081340,0.00067791,-0.00005906,-0.00000245,0.0000305
 5,0.00027089,0.00035312,-0.00015839,-0.00027205,-0.00016545,-0.0003565
 2,0.11484967,0.02893410,0.67483224,-0.00029046,-0.00006717,0.00027010,
 -0.00000740,0.00008905,0.00004176,-0.00000200,-0.00006228,-0.00000272,
 0.00006433,-0.00003559,-0.00003528,0.00000439,0.00000442,0.00000188,0.
 00000069,0.00000947,0.00000016,-0.00004504,0.00001261,0.00002599,-0.00
 029944,-0.00093751,-0.00008191,-0.00488707,0.00493402,0.00110288,0.000
 03017,-0.00007400,-0.00025557,0.00055039,0.00020530,-0.00095457,-0.000
 09393,-0.00018446,0.00045751,0.00002617,-0.00003542,0.00000114,0.00286
 522,0.00085182,-0.01857100,0.00584974,-0.00750402,-0.00243557,0.000140
 48,-0.00018990,0.00003163,0.00008022,0.00004811,-0.00000652,0.00005249
 ,-0.00003357,0.00001254,-0.00002891,-0.00008077,-0.00001394,0.00011849
 ,-0.00000941,-0.00003629,-0.00004983,-0.00000719,0.00002075,-0.0000776
 6,-0.00002617,0.00005752,0.00000937,0.00001286,0.00000175,-0.00006951,
 0.00024028,0.00018262,-0.00000460,-0.00001514,0.00001471,0.00007256,0.
 00005311,-0.00001742,0.00016382,0.00004573,0.00002670,-0.04473891,-0.0
 0830654,-0.03450051,0.03784093,0.00013736,-0.00004607,-0.00021826,0.00
 005255,-0.00003635,0.00008307,-0.00001738,0.00001954,0.00002094,-0.000
 04667,0.00014180,-0.00002879,0.00001814,0.00000708,0.00000971,-0.00000
 384,-0.00001016,-0.00000193,0.00002965,-0.00002803,0.00001618,0.000170
 10,0.00067504,-0.00020119,0.00456061,-0.00091747,-0.00255961,0.0004388
 8,-0.00022907,0.00098924,-0.00041176,-0.00021365,0.00028546,-0.0000915
 3,-0.00030583,0.00000996,0.00004924,-0.00000430,-0.00003213,-0.0037462
 6,0.00434576,-0.02089375,-0.00742911,0.00210479,-0.00061948,-0.0001393
 7,0.00007144,-0.00014032,-0.00012534,-0.00002117,0.00007156,-0.0000102
 2,0.00009448,0.00006824,0.00002433,0.00007324,0.00001483,-0.00006590,0
 .00008270,0.00002507,0.00002737,0.00001627,0.00000865,0.00000251,0.000
 03231,-0.00004251,0.00001964,-0.00004482,0.00003689,0.00006252,-0.0001
 5870,-0.00011031,-0.00000043,-0.00001822,0.00002855,-0.00004077,-0.000
 01579,0.00002256,-0.00010535,-0.00010695,-0.00003682,-0.00797396,-0.04
 777713,0.01819552,0.01142577,0.04066283,0.00001944,-0.00003552,-0.0000
 7540,-0.00004176,0.00000051,0.00005999,0.00002304,-0.00000793,0.000020
 26,0.00003336,0.00002654,-0.00008742,0.00001153,0.00000876,-0.00000043
 ,-0.00002192,-0.00001209,0.00001388,-0.00005212,0.00000146,0.00004087,
 0.00003248,-0.00007996,0.00005723,0.00221299,0.00101836,0.00103905,-0.
 00041156,-0.00088261,0.00052813,-0.00018037,0.00011128,-0.00006497,-0.
 00002179,-0.00024278,0.00019740,0.00008465,0.00001595,0.00001210,0.000
 00664,0.00355874,-0.01261749,-0.00283920,-0.00116545,0.00057046,-0.000
 05449,-0.00002180,-0.00010131,-0.00008481,0.00001517,0.00004283,0.0000
 3174,0.00008851,0.00009297,-0.00001633,-0.00000477,0.00001876,-0.00001
 839,0.00004627,-0.00003303,0.00002920,-0.00001136,0.00001808,-0.000048
 39,0.00004558,-0.00004663,-0.00000185,-0.00007937,0.00004966,-0.000019
 94,-0.00006775,-0.00007039,0.00000015,-0.00000248,0.00002159,-0.000034
 86,-0.00002268,0.00000985,0.00006993,-0.00008211,-0.00005347,-0.036903
 48,0.01499922,-0.32903864,0.04200374,-0.01373855,0.34725254,0.00049233
 ,-0.00018426,-0.00032234,-0.00012342,0.00016592,0.00006462,0.00002109,
 -0.00008384,-0.00006443,-0.00006067,0.00002663,0.00011976,-0.00001526,
 0.00000511,-0.00000627,-0.00000317,0.00002821,0.00001141,-0.00004102,0
 .00001406,0.00000254,0.00061130,0.00148345,-0.00024749,0.00774392,-0.0
 0679596,-0.00536450,0.00015515,0.00005684,0.00048341,-0.00117644,-0.00
 082487,0.00240333,-0.00026239,0.00020419,-0.00054796,0.00015492,-0.000
 04895,-0.00002841,-0.00480446,-0.01276993,0.01039225,-0.00444780,0.004
 30972,0.00108739,-0.00019909,-0.00006435,-0.00007752,-0.00005388,0.000
 02593,0.00000041,0.00004479,0.00001709,0.00005981,-0.00001268,0.000134
 50,0.00003573,-0.00025076,0.00003193,0.00005605,0.00006281,-0.00002100
 ,-0.00003967,0.00006461,0.00007287,-0.00001157,0.00002027,-0.00000246,
 0.00000665,0.00007387,-0.00067159,-0.00059074,0.00000868,0.00001227,0.
 00001181,-0.00023667,-0.00016673,0.00013966,-0.00006875,-0.00001191,-0
 .00000815,-0.10166640,-0.10865126,0.06408385,0.00287650,0.00312200,-0.
 00368055,0.10111928,-0.00034421,0.00004450,0.00038284,-0.00014149,-0.0
 0003369,-0.00014921,0.00009346,-0.00001151,-0.00002312,0.00011100,-0.0
 0011223,0.00004473,-0.00002460,-0.00000854,-0.00002292,-0.00000919,0.0
 0000487,0.00001365,-0.00002235,0.00002882,-0.00000584,-0.00014588,-0.0
 0176236,0.00010135,-0.00697910,0.00391274,-0.00093745,0.00005305,0.000
 32352,-0.00046637,-0.00006952,0.00071493,-0.00014826,0.00001967,-0.000
 10453,-0.00007942,-0.00000297,0.00002086,0.00006618,-0.00753317,-0.009
 79468,0.01252765,0.00430849,-0.00204532,-0.00053738,0.00001192,-0.0000
 5629,0.00002876,0.00001892,0.00003612,-0.00003452,0.00003164,-0.000037
 01,-0.00000442,-0.00007379,-0.00018567,-0.00001946,0.00007204,-0.00009
 220,-0.00005388,0.00003374,-0.00004691,-0.00001039,-0.00001349,-0.0000
 5632,-0.00003575,-0.00000878,-0.00000240,0.00001795,-0.00013590,0.0000
 3565,0.00012611,-0.00000811,-0.00000255,0.00001267,0.00004538,-0.00003
 208,-0.00002301,0.00000533,-0.00001014,0.00003293,-0.10944965,-0.20092
 365,0.10542739,-0.00031338,0.00155022,-0.00338059,0.12055213,0.2086607
 3,-0.00016689,-0.00005619,0.00012055,0.00000656,-0.00000169,-0.0000254
 3,0.00000378,0.00000008,0.00000374,0.00003823,0.00001138,-0.00000985,-
 0.00000064,0.00000099,0.00000217,0.00000183,-0.00000071,-0.00000337,-0
 .00000115,0.00000788,-0.00001256,0.00000113,-0.00055396,0.00006605,-0.
 00280292,0.00004521,-0.00061184,0.00011207,-0.00026641,0.00018467,0.00
 011203,-0.00028466,0.00016776,0.00009852,0.00013983,0.00015345,-0.0000
 4005,0.00000931,0.00001721,-0.00932462,-0.01378315,0.00958600,0.000913
 31,-0.00068150,0.00105024,0.00003330,0.00002247,0.00000282,0.00001640,
 -0.00000172,-0.00000343,-0.00001563,-0.00003002,-0.00001305,-0.0000229
 8,-0.00005609,-0.00000731,-0.00000906,-0.00000421,-0.00003921,0.000013
 05,-0.00000678,0.00000815,0.00001372,-0.00001192,0.00000553,0.00000765
 ,-0.00001329,0.00000027,-0.00009334,-0.00003821,-0.00004051,0.00001357
 ,0.00000311,-0.00000259,-0.00001094,-0.00002972,0.00001319,0.00001222,
 0.00003537,0.00003321,0.06668245,0.10972368,-0.12521865,0.01250197,0.0
 1874535,-0.00787127,-0.06798531,-0.11288730,0.12238826,0.00001551,-0.0
 0196795,-0.01055805,-0.00303392,-0.00219357,-0.00218371,-0.00000446,-0
 .00075328,-0.00074321,-0.00126187,-0.00170514,-0.01782148,-0.00037296,
 -0.00019834,-0.00005103,-0.00034776,-0.00009290,0.00020104,0.00063087,
 0.00003937,-0.00116905,-0.03941615,-0.00173135,0.00353428,-0.00797069,
 0.01093188,0.02827236,0.00067516,-0.00004395,0.00129759,-0.00563341,-0
 .00069343,0.00089402,0.00078212,-0.00018180,-0.00002082,-0.00034980,0.
 00001217,0.00016276,0.00056533,0.00235661,-0.00012987,0.00020284,-0.00
 020038,0.00009856,-0.00181083,0.00000931,-0.00043231,0.00013892,0.0003
 3753,-0.00047529,-0.00001733,-0.00002313,-0.00011255,0.00020961,0.0003
 4912,-0.00042560,0.00042145,0.00122672,0.00053569,-0.00046767,0.000298
 50,0.00002846,0.00009172,-0.00004554,-0.00000386,-0.00003339,0.0000019
 4,-0.00006582,-0.00040055,-0.00058515,0.00013711,0.00007481,0.00001268
 ,-0.00005341,0.00016676,-0.00000544,-0.00007551,0.00006906,0.00004235,
 0.00009009,-0.00006002,-0.00048047,-0.00021922,-0.00015120,0.00006724,
 -0.00012709,-0.00002669,-0.00008120,-0.00010826,0.05731453,0.00147408,
 -0.00429439,-0.02726076,-0.00453724,-0.00465913,-0.00241041,0.00191001
 ,-0.00214401,0.00073731,0.00302646,0.00289297,0.02010660,0.00014237,0.
 00035083,0.00004962,-0.00008367,0.00022551,0.00010640,-0.00047379,0.00
 082206,0.00101998,-0.00171039,-0.06823628,-0.07672745,0.00077151,0.000
 67535,0.00175198,0.00086452,0.00057650,-0.00077995,-0.00011347,-0.0009
 0926,-0.00035732,0.00013526,0.00017516,0.00010641,-0.00025403,-0.00011
 317,0.00029660,0.00030013,0.00032360,-0.00003600,0.00009468,0.00001730
 ,-0.00006756,0.00263260,-0.00073221,0.00123946,-0.00005166,-0.00070134
 ,0.00067276,0.00001754,0.00009241,-0.00012710,-0.00001483,0.00166107,0
 .00018416,0.00003681,-0.00001452,-0.00014427,0.00004520,0.00002578,-0.
 00000165,0.00003655,0.00001619,-0.00000157,0.00001495,-0.00000556,0.00
 001731,-0.00030767,-0.00130799,-0.00012220,0.00035012,-0.00036795,0.00
 002710,0.00036447,-0.00047343,0.00002018,-0.00003834,-0.00001086,-0.00
 010771,0.00008601,-0.00007899,-0.00016361,-0.00005002,0.00005623,-0.00
 009855,0.00003427,-0.00001487,-0.00003712,-0.00470242,0.07615300,0.001
 06827,0.00360212,0.00023241,-0.00098427,0.00008922,0.00083808,0.000110
 32,-0.00033058,-0.00086624,0.00079697,-0.00388418,-0.01319101,-0.00032
 917,-0.00027167,-0.00010720,-0.00022476,-0.00003428,0.00000297,0.00048
 264,-0.00003917,0.00172896,0.00151140,-0.07968141,-0.29436742,-0.00076
 585,-0.00310327,-0.00768511,-0.00071130,0.00051982,0.00238261,0.001639
 74,0.00042965,0.00034481,0.00010838,0.00011908,0.00044105,-0.00005096,
 0.00019076,0.00017865,-0.00001276,-0.00075239,0.00029753,-0.00006998,-
 0.00002940,0.00005471,-0.00236822,0.00071473,-0.00018119,0.00013037,0.
 00056104,-0.00056841,-0.00007234,-0.00013845,0.00031775,-0.00012967,0.
 00003481,0.00119406,-0.00021524,-0.00052986,-0.00029161,0.00021140,-0.
 00007503,-0.00001285,-0.00001383,0.00002679,-0.00000444,0.00003376,-0.
 00001216,0.00003948,-0.00013147,0.00023180,-0.00004279,0.00007860,-0.0
 0011535,-0.00000999,0.00000764,-0.00003664,-0.00000405,0.00008061,0.00
 008256,-0.00008200,0.00012335,0.00029515,-0.00005600,0.00015596,-0.000
 00812,0.00001480,0.00001621,0.00003707,0.00005579,-0.00047581,0.082107
 36,0.30934663\\0.00000211,-0.00000462,0.00000346,0.00000457,-0.0000068
 1,-0.00000259,-0.00000540,-0.00000279,-0.00000133,-0.00000062,-0.00000
 224,0.00000198,0.00000224,-0.00000654,-0.00000191,0.00000334,-0.000004
 25,0.00000166,-0.00000361,-0.00000118,-0.00000199,0.00000726,-0.000000
 89,-0.00000533,-0.00000443,0.00000343,0.00000633,0.00000067,0.00000325
 ,-0.00000129,-0.00000422,-0.00000050,-0.00000117,0.00000112,-0.0000015
 0,0.00000501,0.00000063,-0.00000004,0.00000035,-0.00000111,0.00000499,
 -0.00000448,-0.00000292,-0.00000014,-0.00000264,-0.00000294,0.00000134
 ,-0.00000641,-0.00000542,-0.00000695,-0.00000152,0.00000076,-0.0000063
 5,-0.00000159,0.00000251,0.00000007,0.00000213,0.00001016,0.00000225,0
 .00000020,0.00000346,0.00000239,0.00000435,-0.00000005,0.00000465,0.00
 000122,0.00000190,0.00000576,0.00000367,0.00000429,-0.00000020,0.00000
 329,0.00000265,0.00000433,0.00000588,0.00000497,0.00000068,0.00000126,
 -0.00000694,-0.00000323,-0.00000185,-0.00000522,0.00000112,0.00000058,
 -0.00000316,0.00000615,-0.00000277,-0.00000366,0.00000587,-0.00000557,
 -0.00000295,0.00000195,0.00000107\\\@
 The archive entry for this job was punched.


 COLLEGE PROFESSOR: SOMEONE WHO TALKS IN OTHER PEOPLE'S SLEEP.
 Job cpu time:       0 days  1 hours 11 minutes 13.1 seconds.
 Elapsed time:       0 days  0 hours  2 minutes 14.5 seconds.
 File lengths (MBytes):  RWF=    311 Int=      0 D2E=      0 Chk=      9 Scr=      2
 Normal termination of Gaussian 16 at Thu Nov  2 04:25:07 2023.
