Title                                                                   
SP        RB3LYP                                                      def2SVP             
Number of atoms                            I               21
Info1-9                                    I   N=           9
          31          30           0           0           0         110
           1          18        -502
Full Title                                 C   N=           1
Title       
Route                                      C   N=           2
# b3lyp def2svp         
Charge                                     I                0
Multiplicity                               I                1
Number of electrons                        I               90
Number of alpha electrons                  I               45
Number of beta electrons                   I               45
Number of basis functions                  I              213
Number of independent functions            I              213
Number of point charges in /Mol/           I                0
Number of translation vectors              I                0
Atomic numbers                             I   N=          21
           6           8           6           7           8           6
           6           8           6           6           8           6
           1           1           1           1           1           1
           1           1           1
Nuclear charges                            R   N=          21
  6.00000000E+00  8.00000000E+00  6.00000000E+00  7.00000000E+00  8.00000000E+00
  6.00000000E+00  6.00000000E+00  8.00000000E+00  6.00000000E+00  6.00000000E+00
  8.00000000E+00  6.00000000E+00  1.00000000E+00  1.00000000E+00  1.00000000E+00
  1.00000000E+00  1.00000000E+00  1.00000000E+00  1.00000000E+00  1.00000000E+00
  1.00000000E+00
Current cartesian coordinates              R   N=          63
  8.32517873E+00 -1.10720289E+00 -1.18491251E-06  5.90901045E+00 -2.26824785E+00
  5.21597194E-07  3.96364833E+00 -6.86324280E-01  6.93805892E-07  4.17325797E+00
  1.78887511E+00 -7.27898525E-07  1.81229160E+00  2.75551274E+00 -1.34028572E-06
  1.30805285E-01  8.57885893E-01  1.17656668E-06 -2.59837635E+00  1.46135184E+00
  1.08541531E-06 -3.96380444E+00 -6.57167848E-01  1.21510677E-07 -6.65157164E+00
 -3.26295942E-01 -7.35471419E-07 -7.88181308E+00 -2.91405390E+00 -1.06745424E-06
 -3.46863332E+00  3.55909667E+00  7.07928204E-07  1.37499126E+00 -1.41113722E+00
  1.96128651E-06  9.69136569E+00 -2.64300823E+00 -7.34240327E-06  8.56098394E+00
  7.21529912E-02  1.67629602E+00  8.56097769E+00  7.21611593E-02 -1.67629342E+00
 -7.18407493E+00  7.67023207E-01 -1.67534294E+00 -7.18407614E+00  7.67023120E-01
  1.67534113E+00 -9.92306421E+00 -2.70261568E+00 -3.60982834E-06 -7.31531688E+00
 -3.96841354E+00  1.66821085E+00 -7.31531278E+00 -3.96841493E+00 -1.66821067E+00
  6.07622269E-01 -3.27692459E+00  3.41682493E-06
Number of symbols in /Mol/                 I                0
Int Atom Types                             I   N=          21
           0           0           0           0           0           0
           0           0           0           0           0           0
           0           0           0           0           0           0
           0           0           0
Force Field                                I                0
Atom Types                                 C   N=          21
                                                            
                                                            
                                                            
                                                            
            
MM charges                                 R   N=          21
  0.00000000E+00  0.00000000E+00  0.00000000E+00  0.00000000E+00  0.00000000E+00
  0.00000000E+00  0.00000000E+00  0.00000000E+00  0.00000000E+00  0.00000000E+00
  0.00000000E+00  0.00000000E+00  0.00000000E+00  0.00000000E+00  0.00000000E+00
  0.00000000E+00  0.00000000E+00  0.00000000E+00  0.00000000E+00  0.00000000E+00
  0.00000000E+00
Integer atomic weights                     I   N=          21
          12          16          12          14          16          12
          12          16          12          12          16          12
           1           1           1           1           1           1
           1           1           1
Real atomic weights                        R   N=          21
  1.20000000E+01  1.59949146E+01  1.20000000E+01  1.40030740E+01  1.59949146E+01
  1.20000000E+01  1.20000000E+01  1.59949146E+01  1.20000000E+01  1.20000000E+01
  1.59949146E+01  1.20000000E+01  1.00782504E+00  1.00782504E+00  1.00782504E+00
  1.00782504E+00  1.00782504E+00  1.00782504E+00  1.00782504E+00  1.00782504E+00
  1.00782504E+00
Atom fragment info                         I   N=          21
           0           0           0           0           0           0
           0           0           0           0           0           0
           0           0           0           0           0           0
           0           0           0
Atom residue num                           I   N=          21
           0           0           0           0           0           0
           0           0           0           0           0           0
           0           0           0           0           0           0
           0           0           0
Nuclear spins                              I   N=          21
           0           0           0           2           0           0
           0           0           0           0           0           0
           1           1           1           1           1           1
           1           1           1
Nuclear ZEff                               R   N=          21
 -3.60000000E+00 -5.60000000E+00 -3.60000000E+00 -4.55000000E+00 -5.60000000E+00
 -3.60000000E+00 -3.60000000E+00 -5.60000000E+00 -3.60000000E+00 -3.60000000E+00
 -5.60000000E+00 -3.60000000E+00 -1.00000000E+00 -1.00000000E+00 -1.00000000E+00
 -1.00000000E+00 -1.00000000E+00 -1.00000000E+00 -1.00000000E+00 -1.00000000E+00
 -1.00000000E+00
Nuclear ZNuc                               R   N=          21
  6.00000000E+00  8.00000000E+00  6.00000000E+00  7.00000000E+00  8.00000000E+00
  6.00000000E+00  6.00000000E+00  8.00000000E+00  6.00000000E+00  6.00000000E+00
  8.00000000E+00  6.00000000E+00  1.00000000E+00  1.00000000E+00  1.00000000E+00
  1.00000000E+00  1.00000000E+00  1.00000000E+00  1.00000000E+00  1.00000000E+00
  1.00000000E+00
Nuclear QMom                               R   N=          21
  0.00000000E+00  0.00000000E+00  0.00000000E+00  2.04400000E+00  0.00000000E+00
  0.00000000E+00  0.00000000E+00  0.00000000E+00  0.00000000E+00  0.00000000E+00
  0.00000000E+00  0.00000000E+00  0.00000000E+00  0.00000000E+00  0.00000000E+00
  0.00000000E+00  0.00000000E+00  0.00000000E+00  0.00000000E+00  0.00000000E+00
  0.00000000E+00
Nuclear GFac                               R   N=          21
  0.00000000E+00  0.00000000E+00  0.00000000E+00  4.03761000E-01  0.00000000E+00
  0.00000000E+00  0.00000000E+00  0.00000000E+00  0.00000000E+00  0.00000000E+00
  0.00000000E+00  0.00000000E+00  2.79284600E+00  2.79284600E+00  2.79284600E+00
  2.79284600E+00  2.79284600E+00  2.79284600E+00  2.79284600E+00  2.79284600E+00
  2.79284600E+00
MicOpt                                     I   N=          21
          -1          -1          -1          -1          -1          -1
          -1          -1          -1          -1          -1          -1
          -1          -1          -1          -1          -1          -1
          -1          -1          -1
Number of residues                         I                0
Number of secondary structures             I                0
SymInf integers                            I   N=          26
           1           1           1           1           1           0
           0           0           0           0           0           0
           0           0           0           0           0           0
           0           0           0           0           0           0
           0           0
RotTr to input orientation                 R   N=          12
 -5.81847795E-07 -7.52988223E-01  6.58033993E-01  7.76345758E-07 -6.58033993E-01
 -7.52988223E-01  1.00000000E+00  7.27373622E-08  9.67454840E-07  1.82400565E-06
  1.06777854E-01  2.09538916E-02
Number of contracted shells                I               99
Number of primitive shells                 I              189
Pure/Cartesian d shells                    I                0
Pure/Cartesian f shells                    I                0
Highest angular momentum                   I                2
Largest degree of contraction              I                5
Shell types                                I   N=          99
           0           0           0           1           1          -2
           0           0           0           1           1          -2
           0           0           0           1           1          -2
           0           0           0           1           1          -2
           0           0           0           1           1          -2
           0           0           0           1           1          -2
           0           0           0           1           1          -2
           0           0           0           1           1          -2
           0           0           0           1           1          -2
           0           0           0           1           1          -2
           0           0           0           1           1          -2
           0           0           0           1           1          -2
           0           0           1           0           0           1
           0           0           1           0           0           1
           0           0           1           0           0           1
           0           0           1           0           0           1
           0           0           1
Number of primitives per shell             I   N=          99
           5           1           1           3           1           1
           5           1           1           3           1           1
           5           1           1           3           1           1
           5           1           1           3           1           1
           5           1           1           3           1           1
           5           1           1           3           1           1
           5           1           1           3           1           1
           5           1           1           3           1           1
           5           1           1           3           1           1
           5           1           1           3           1           1
           5           1           1           3           1           1
           5           1           1           3           1           1
           3           1           1           3           1           1
           3           1           1           3           1           1
           3           1           1           3           1           1
           3           1           1           3           1           1
           3           1           1
Shell to atom map                          I   N=          99
           1           1           1           1           1           1
           2           2           2           2           2           2
           3           3           3           3           3           3
           4           4           4           4           4           4
           5           5           5           5           5           5
           6           6           6           6           6           6
           7           7           7           7           7           7
           8           8           8           8           8           8
           9           9           9           9           9           9
          10          10          10          10          10          10
          11          11          11          11          11          11
          12          12          12          12          12          12
          13          13          13          14          14          14
          15          15          15          16          16          16
          17          17          17          18          18          18
          19          19          19          20          20          20
          21          21          21
Primitive exponents                        R   N=         189
  1.23840169E+03  1.86290050E+02  4.22511763E+01  1.16765579E+01  3.59305065E+00
  4.02451474E-01  1.30901827E-01  9.46809706E+00  2.01035451E+00  5.47710047E-01
  1.52686138E-01  8.00000000E-01  2.26617678E+03  3.40870102E+02  7.73631352E+01
  2.14796449E+01  6.65894331E+00  8.09759757E-01  2.55307722E-01  1.77215043E+01
  3.86355054E+00  1.04809209E+00  2.76415444E-01  1.20000000E+00  1.23840169E+03
  1.86290050E+02  4.22511763E+01  1.16765579E+01  3.59305065E+00  4.02451474E-01
  1.30901827E-01  9.46809706E+00  2.01035451E+00  5.47710047E-01  1.52686138E-01
  8.00000000E-01  1.71284159E+03  2.57648127E+02  5.84582459E+01  1.61983679E+01
  5.00526008E+00  5.87318566E-01  1.87645923E-01  1.35714702E+01  2.92573729E+00
  7.99277508E-01  2.19543480E-01  1.00000000E+00  2.26617678E+03  3.40870102E+02
  7.73631352E+01  2.14796449E+01  6.65894331E+00  8.09759757E-01  2.55307722E-01
  1.77215043E+01  3.86355054E+00  1.04809209E+00  2.76415444E-01  1.20000000E+00
  1.23840169E+03  1.86290050E+02  4.22511763E+01  1.16765579E+01  3.59305065E+00
  4.02451474E-01  1.30901827E-01  9.46809706E+00  2.01035451E+00  5.47710047E-01
  1.52686138E-01  8.00000000E-01  1.23840169E+03  1.86290050E+02  4.22511763E+01
  1.16765579E+01  3.59305065E+00  4.02451474E-01  1.30901827E-01  9.46809706E+00
  2.01035451E+00  5.47710047E-01  1.52686138E-01  8.00000000E-01  2.26617678E+03
  3.40870102E+02  7.73631352E+01  2.14796449E+01  6.65894331E+00  8.09759757E-01
  2.55307722E-01  1.77215043E+01  3.86355054E+00  1.04809209E+00  2.76415444E-01
  1.20000000E+00  1.23840169E+03  1.86290050E+02  4.22511763E+01  1.16765579E+01
  3.59305065E+00  4.02451474E-01  1.30901827E-01  9.46809706E+00  2.01035451E+00
  5.47710047E-01  1.52686138E-01  8.00000000E-01  1.23840169E+03  1.86290050E+02
  4.22511763E+01  1.16765579E+01  3.59305065E+00  4.02451474E-01  1.30901827E-01
  9.46809706E+00  2.01035451E+00  5.47710047E-01  1.52686138E-01  8.00000000E-01
  2.26617678E+03  3.40870102E+02  7.73631352E+01  2.14796449E+01  6.65894331E+00
  8.09759757E-01  2.55307722E-01  1.77215043E+01  3.86355054E+00  1.04809209E+00
  2.76415444E-01  1.20000000E+00  1.23840169E+03  1.86290050E+02  4.22511763E+01
  1.16765579E+01  3.59305065E+00  4.02451474E-01  1.30901827E-01  9.46809706E+00
  2.01035451E+00  5.47710047E-01  1.52686138E-01  8.00000000E-01  1.30107010E+01
  1.96225720E+00  4.44537960E-01  1.21949620E-01  8.00000000E-01  1.30107010E+01
  1.96225720E+00  4.44537960E-01  1.21949620E-01  8.00000000E-01  1.30107010E+01
  1.96225720E+00  4.44537960E-01  1.21949620E-01  8.00000000E-01  1.30107010E+01
  1.96225720E+00  4.44537960E-01  1.21949620E-01  8.00000000E-01  1.30107010E+01
  1.96225720E+00  4.44537960E-01  1.21949620E-01  8.00000000E-01  1.30107010E+01
  1.96225720E+00  4.44537960E-01  1.21949620E-01  8.00000000E-01  1.30107010E+01
  1.96225720E+00  4.44537960E-01  1.21949620E-01  8.00000000E-01  1.30107010E+01
  1.96225720E+00  4.44537960E-01  1.21949620E-01  8.00000000E-01  1.30107010E+01
  1.96225720E+00  4.44537960E-01  1.21949620E-01  8.00000000E-01
Contraction coefficients                   R   N=         189
  5.51736505E-03  4.10888286E-02  1.82253821E-01  4.68284594E-01  4.45758173E-01
  1.00000000E+00  1.00000000E+00  5.68883320E-02  3.12940593E-01  7.60650165E-01
  1.00000000E+00  1.00000000E+00 -5.38935039E-03 -4.02347214E-02 -1.80081842E-01
 -4.68288577E-01 -4.46926172E-01  1.00000000E+00  1.00000000E+00  6.26302488E-02
  3.33311385E-01  7.41486383E-01  1.00000000E+00  1.00000000E+00  5.51736505E-03
  4.10888286E-02  1.82253821E-01  4.68284594E-01  4.45758173E-01  1.00000000E+00
  1.00000000E+00  5.68883320E-02  3.12940593E-01  7.60650165E-01  1.00000000E+00
  1.00000000E+00 -5.44779958E-03 -4.06271746E-02 -1.81119623E-01 -4.68439756E-01
 -4.46168463E-01  1.00000000E+00  1.00000000E+00 -5.88481170E-02 -3.20246248E-01
 -7.53282265E-01  1.00000000E+00  1.00000000E+00 -5.38935039E-03 -4.02347214E-02
 -1.80081842E-01 -4.68288577E-01 -4.46926172E-01  1.00000000E+00  1.00000000E+00
  6.26302488E-02  3.33311385E-01  7.41486383E-01  1.00000000E+00  1.00000000E+00
  5.51736505E-03  4.10888286E-02  1.82253821E-01  4.68284594E-01  4.45758173E-01
  1.00000000E+00  1.00000000E+00  5.68883320E-02  3.12940593E-01  7.60650165E-01
  1.00000000E+00  1.00000000E+00  5.51736505E-03  4.10888286E-02  1.82253821E-01
  4.68284594E-01  4.45758173E-01  1.00000000E+00  1.00000000E+00  5.68883320E-02
  3.12940593E-01  7.60650165E-01  1.00000000E+00  1.00000000E+00 -5.38935039E-03
 -4.02347214E-02 -1.80081842E-01 -4.68288577E-01 -4.46926172E-01  1.00000000E+00
  1.00000000E+00  6.26302488E-02  3.33311385E-01  7.41486383E-01  1.00000000E+00
  1.00000000E+00  5.51736505E-03  4.10888286E-02  1.82253821E-01  4.68284594E-01
  4.45758173E-01  1.00000000E+00  1.00000000E+00  5.68883320E-02  3.12940593E-01
  7.60650165E-01  1.00000000E+00  1.00000000E+00  5.51736505E-03  4.10888286E-02
  1.82253821E-01  4.68284594E-01  4.45758173E-01  1.00000000E+00  1.00000000E+00
  5.68883320E-02  3.12940593E-01  7.60650165E-01  1.00000000E+00  1.00000000E+00
 -5.38935039E-03 -4.02347214E-02 -1.80081842E-01 -4.68288577E-01 -4.46926172E-01
  1.00000000E+00  1.00000000E+00  6.26302488E-02  3.33311385E-01  7.41486383E-01
  1.00000000E+00  1.00000000E+00  5.51736505E-03  4.10888286E-02  1.82253821E-01
  4.68284594E-01  4.45758173E-01  1.00000000E+00  1.00000000E+00  5.68883320E-02
  3.12940593E-01  7.60650165E-01  1.00000000E+00  1.00000000E+00  3.34854848E-02
  2.34721871E-01  8.13770285E-01  1.00000000E+00  1.00000000E+00  3.34854848E-02
  2.34721871E-01  8.13770285E-01  1.00000000E+00  1.00000000E+00  3.34854848E-02
  2.34721871E-01  8.13770285E-01  1.00000000E+00  1.00000000E+00  3.34854848E-02
  2.34721871E-01  8.13770285E-01  1.00000000E+00  1.00000000E+00  3.34854848E-02
  2.34721871E-01  8.13770285E-01  1.00000000E+00  1.00000000E+00  3.34854848E-02
  2.34721871E-01  8.13770285E-01  1.00000000E+00  1.00000000E+00  3.34854848E-02
  2.34721871E-01  8.13770285E-01  1.00000000E+00  1.00000000E+00  3.34854848E-02
  2.34721871E-01  8.13770285E-01  1.00000000E+00  1.00000000E+00  3.34854848E-02
  2.34721871E-01  8.13770285E-01  1.00000000E+00  1.00000000E+00
Coordinates of each shell                  R   N=         297
  8.32517873E+00 -1.10720289E+00 -1.18491251E-06  8.32517873E+00 -1.10720289E+00
 -1.18491251E-06  8.32517873E+00 -1.10720289E+00 -1.18491251E-06  8.32517873E+00
 -1.10720289E+00 -1.18491251E-06  8.32517873E+00 -1.10720289E+00 -1.18491251E-06
  8.32517873E+00 -1.10720289E+00 -1.18491251E-06  5.90901045E+00 -2.26824785E+00
  5.21597194E-07  5.90901045E+00 -2.26824785E+00  5.21597194E-07  5.90901045E+00
 -2.26824785E+00  5.21597194E-07  5.90901045E+00 -2.26824785E+00  5.21597194E-07
  5.90901045E+00 -2.26824785E+00  5.21597194E-07  5.90901045E+00 -2.26824785E+00
  5.21597194E-07  3.96364833E+00 -6.86324280E-01  6.93805892E-07  3.96364833E+00
 -6.86324280E-01  6.93805892E-07  3.96364833E+00 -6.86324280E-01  6.93805892E-07
  3.96364833E+00 -6.86324280E-01  6.93805892E-07  3.96364833E+00 -6.86324280E-01
  6.93805892E-07  3.96364833E+00 -6.86324280E-01  6.93805892E-07  4.17325797E+00
  1.78887511E+00 -7.27898525E-07  4.17325797E+00  1.78887511E+00 -7.27898525E-07
  4.17325797E+00  1.78887511E+00 -7.27898525E-07  4.17325797E+00  1.78887511E+00
 -7.27898525E-07  4.17325797E+00  1.78887511E+00 -7.27898525E-07  4.17325797E+00
  1.78887511E+00 -7.27898525E-07  1.81229160E+00  2.75551274E+00 -1.34028572E-06
  1.81229160E+00  2.75551274E+00 -1.34028572E-06  1.81229160E+00  2.75551274E+00
 -1.34028572E-06  1.81229160E+00  2.75551274E+00 -1.34028572E-06  1.81229160E+00
  2.75551274E+00 -1.34028572E-06  1.81229160E+00  2.75551274E+00 -1.34028572E-06
  1.30805285E-01  8.57885893E-01  1.17656668E-06  1.30805285E-01  8.57885893E-01
  1.17656668E-06  1.30805285E-01  8.57885893E-01  1.17656668E-06  1.30805285E-01
  8.57885893E-01  1.17656668E-06  1.30805285E-01  8.57885893E-01  1.17656668E-06
  1.30805285E-01  8.57885893E-01  1.17656668E-06 -2.59837635E+00  1.46135184E+00
  1.08541531E-06 -2.59837635E+00  1.46135184E+00  1.08541531E-06 -2.59837635E+00
  1.46135184E+00  1.08541531E-06 -2.59837635E+00  1.46135184E+00  1.08541531E-06
 -2.59837635E+00  1.46135184E+00  1.08541531E-06 -2.59837635E+00  1.46135184E+00
  1.08541531E-06 -3.96380444E+00 -6.57167848E-01  1.21510677E-07 -3.96380444E+00
 -6.57167848E-01  1.21510677E-07 -3.96380444E+00 -6.57167848E-01  1.21510677E-07
 -3.96380444E+00 -6.57167848E-01  1.21510677E-07 -3.96380444E+00 -6.57167848E-01
  1.21510677E-07 -3.96380444E+00 -6.57167848E-01  1.21510677E-07 -6.65157164E+00
 -3.26295942E-01 -7.35471419E-07 -6.65157164E+00 -3.26295942E-01 -7.35471419E-07
 -6.65157164E+00 -3.26295942E-01 -7.35471419E-07 -6.65157164E+00 -3.26295942E-01
 -7.35471419E-07 -6.65157164E+00 -3.26295942E-01 -7.35471419E-07 -6.65157164E+00
 -3.26295942E-01 -7.35471419E-07 -7.88181308E+00 -2.91405390E+00 -1.06745424E-06
 -7.88181308E+00 -2.91405390E+00 -1.06745424E-06 -7.88181308E+00 -2.91405390E+00
 -1.06745424E-06 -7.88181308E+00 -2.91405390E+00 -1.06745424E-06 -7.88181308E+00
 -2.91405390E+00 -1.06745424E-06 -7.88181308E+00 -2.91405390E+00 -1.06745424E-06
 -3.46863332E+00  3.55909667E+00  7.07928204E-07 -3.46863332E+00  3.55909667E+00
  7.07928204E-07 -3.46863332E+00  3.55909667E+00  7.07928204E-07 -3.46863332E+00
  3.55909667E+00  7.07928204E-07 -3.46863332E+00  3.55909667E+00  7.07928204E-07
 -3.46863332E+00  3.55909667E+00  7.07928204E-07  1.37499126E+00 -1.41113722E+00
  1.96128651E-06  1.37499126E+00 -1.41113722E+00  1.96128651E-06  1.37499126E+00
 -1.41113722E+00  1.96128651E-06  1.37499126E+00 -1.41113722E+00  1.96128651E-06
  1.37499126E+00 -1.41113722E+00  1.96128651E-06  1.37499126E+00 -1.41113722E+00
  1.96128651E-06  9.69136569E+00 -2.64300823E+00 -7.34240327E-06  9.69136569E+00
 -2.64300823E+00 -7.34240327E-06  9.69136569E+00 -2.64300823E+00 -7.34240327E-06
  8.56098394E+00  7.21529912E-02  1.67629602E+00  8.56098394E+00  7.21529912E-02
  1.67629602E+00  8.56098394E+00  7.21529912E-02  1.67629602E+00  8.56097769E+00
  7.21611593E-02 -1.67629342E+00  8.56097769E+00  7.21611593E-02 -1.67629342E+00
  8.56097769E+00  7.21611593E-02 -1.67629342E+00 -7.18407493E+00  7.67023207E-01
 -1.67534294E+00 -7.18407493E+00  7.67023207E-01 -1.67534294E+00 -7.18407493E+00
  7.67023207E-01 -1.67534294E+00 -7.18407614E+00  7.67023120E-01  1.67534113E+00
 -7.18407614E+00  7.67023120E-01  1.67534113E+00 -7.18407614E+00  7.67023120E-01
  1.67534113E+00 -9.92306421E+00 -2.70261568E+00 -3.60982834E-06 -9.92306421E+00
 -2.70261568E+00 -3.60982834E-06 -9.92306421E+00 -2.70261568E+00 -3.60982834E-06
 -7.31531688E+00 -3.96841354E+00  1.66821085E+00 -7.31531688E+00 -3.96841354E+00
  1.66821085E+00 -7.31531688E+00 -3.96841354E+00  1.66821085E+00 -7.31531278E+00
 -3.96841493E+00 -1.66821067E+00 -7.31531278E+00 -3.96841493E+00 -1.66821067E+00
 -7.31531278E+00 -3.96841493E+00 -1.66821067E+00  6.07622269E-01 -3.27692459E+00
  3.41682493E-06  6.07622269E-01 -3.27692459E+00  3.41682493E-06  6.07622269E-01
 -3.27692459E+00  3.41682493E-06
Num ILSW                                   I              100
ILSW                                       I   N=         100
           0           0           0           0           2           0
           0           0           0           0         402          -1
           5           0           0           0           0           0
           0           0           1           0           0           0
           1           0           0           0           0           0
           0           0      100000           0          -1           0
           0           0           0           0           0           0
           0           0           0           1           0           0
           0 -2000000000           1           0           0           0
           0           0           4          52           0           0
           0           0           5           0           0           0
           0           0           0           0           0           1
           0           0           0           0           0           0
           0           0           0           0           0           0
           0           0           0           0           0           0
           0           0           0           0           0           0
           0           0           0           0
Num RLSW                                   I               52
RLSW                                       R   N=          52
  8.00000000E-01  7.20000000E-01  1.00000000E+00  8.10000000E-01  2.00000000E-01
  0.00000000E+00  0.00000000E+00  1.00000000E+00  0.00000000E+00  0.00000000E+00
  0.00000000E+00  0.00000000E+00  1.00000000E+00  0.00000000E+00  0.00000000E+00
  0.00000000E+00  0.00000000E+00  1.00000000E+00  0.00000000E+00  0.00000000E+00
  0.00000000E+00  0.00000000E+00  1.00000000E+00  0.00000000E+00  0.00000000E+00
  0.00000000E+00  0.00000000E+00  1.00000000E+00  0.00000000E+00  0.00000000E+00
  0.00000000E+00  0.00000000E+00  1.00000000E+00  0.00000000E+00  0.00000000E+00
  0.00000000E+00  0.00000000E+00  0.00000000E+00  1.00000000E+00  1.00000000E+00
  0.00000000E+00  1.00000000E+00  0.00000000E+00  0.00000000E+00  0.00000000E+00
  0.00000000E+00  0.00000000E+00  0.00000000E+00  0.00000000E+00  0.00000000E+00
  0.00000000E+00  0.00000000E+00
ECP-MxAtEC                                 I           250000
ECP-MaxLECP                                I               10
ECP-MaxAtL                                 I          2250000
ECP-MxTECP                                 I         11250000
ECP-LenNCZ                                 I                0
ECP-KFirst                                 I   N=         210
           0           0           0           0           0           0
           0           0           0           0           0           0
           0           0           0           0           0           0
           0           0           0           0           0           0
           0           0           0           0           0           0
           0           0           0           0           0           0
           0           0           0           0           0           0
           0           0           0           0           0           0
           0           0           0           0           0           0
           0           0           0           0           0           0
           0           0           0           0           0           0
           0           0           0           0           0           0
           0           0           0           0           0           0
           0           0           0           0           0           0
           0           0           0           0           0           0
           0           0           0           0           0           0
           0           0           0           0           0           0
           0           0           0           0           0           0
           0           0           0           0           0           0
           0           0           0           0           0           0
           0           0           0           0           0           0
           0           0           0           0           0           0
           0           0           0           0           0           0
           0           0           0           0           0           0
           0           0           0           0           0           0
           0           0           0           0           0           0
           0           0           0           0           0           0
           0           0           0           0           0           0
           0           0           0           0           0           0
           0           0           0           0           0           0
           0           0           0           0           0           0
           0           0           0           0           0           0
           0           0           0           0           0           0
           0           0           0           0           0           0
           0           0           0           0           0           0
ECP-KLast                                  I   N=         210
           0           0           0           0           0           0
           0           0           0           0           0           0
           0           0           0           0           0           0
           0           0           0           0           0           0
           0           0           0           0           0           0
           0           0           0           0           0           0
           0           0           0           0           0           0
           0           0           0           0           0           0
           0           0           0           0           0           0
           0           0           0           0           0           0
           0           0           0           0           0           0
           0           0           0           0           0           0
           0           0           0           0           0           0