 Entering Gaussian System, Link 0=/public3/home/scg5914/software-scg5914/g16/g16
 Input=dsgdb9nsd_131200-4-.gjf
 Output=dsgdb9nsd_131200-4-.log
 Initial command:
 /public3/home/scg5914/software-scg5914/g16/l1.exe "/public3/home/scg5914/software-scg5914/test/tmp/dsgdb9nsd_131200-4-/Gau-202561.inp" -scrdir="/public3/home/scg5914/software-scg5914/test/tmp/dsgdb9nsd_131200-4-/"
 Entering Link 1 = /public3/home/scg5914/software-scg5914/g16/l1.exe PID=    202562.
  
 Copyright (c) 1988-2019, Gaussian, Inc.  All Rights Reserved.
  
 This is part of the Gaussian(R) 16 program.  It is based on
 the Gaussian(R) 09 system (copyright 2009, Gaussian, Inc.),
 the Gaussian(R) 03 system (copyright 2003, Gaussian, Inc.),
 the Gaussian(R) 98 system (copyright 1998, Gaussian, Inc.),
 the Gaussian(R) 94 system (copyright 1995, Gaussian, Inc.),
 the Gaussian 92(TM) system (copyright 1992, Gaussian, Inc.),
 the Gaussian 90(TM) system (copyright 1990, Gaussian, Inc.),
 the Gaussian 88(TM) system (copyright 1988, Gaussian, Inc.),
 the Gaussian 86(TM) system (copyright 1986, Carnegie Mellon
 University), and the Gaussian 82(TM) system (copyright 1983,
 Carnegie Mellon University). Gaussian is a federally registered
 trademark of Gaussian, Inc.
  
 This software contains proprietary and confidential information,
 including trade secrets, belonging to Gaussian, Inc.
  
 This software is provided under written license and may be
 used, copied, transmitted, or stored only in accord with that
 written license.
  
 The following legend is applicable only to US Government
 contracts under FAR:
  
                    RESTRICTED RIGHTS LEGEND
  
 Use, reproduction and disclosure by the US Government is
 subject to restrictions as set forth in subparagraphs (a)
 and (c) of the Commercial Computer Software - Restricted
 Rights clause in FAR 52.227-19.
  
 Gaussian, Inc.
 340 Quinnipiac St., Bldg. 40, Wallingford CT 06492
  
  
 ---------------------------------------------------------------
 Warning -- This program may not be used in any manner that
 competes with the business of Gaussian, Inc. or will provide
 assistance to any competitor of Gaussian, Inc.  The licensee
 of this program is prohibited from giving any competitor of
 Gaussian, Inc. access to this program.  By using this program,
 the user acknowledges that Gaussian, Inc. is engaged in the
 business of creating and licensing software in the field of
 computational chemistry and represents and warrants to the
 licensee that it is not a competitor of Gaussian, Inc. and that
 it will not use this program in any manner prohibited above.
 ---------------------------------------------------------------
  

 Cite this work as:
 Gaussian 16, Revision C.01,
 M. J. Frisch, G. W. Trucks, H. B. Schlegel, G. E. Scuseria, 
 M. A. Robb, J. R. Cheeseman, G. Scalmani, V. Barone, 
 G. A. Petersson, H. Nakatsuji, X. Li, M. Caricato, A. V. Marenich, 
 J. Bloino, B. G. Janesko, R. Gomperts, B. Mennucci, H. P. Hratchian, 
 J. V. Ortiz, A. F. Izmaylov, J. L. Sonnenberg, D. Williams-Young, 
 F. Ding, F. Lipparini, F. Egidi, J. Goings, B. Peng, A. Petrone, 
 T. Henderson, D. Ranasinghe, V. G. Zakrzewski, J. Gao, N. Rega, 
 G. Zheng, W. Liang, M. Hada, M. Ehara, K. Toyota, R. Fukuda, 
 J. Hasegawa, M. Ishida, T. Nakajima, Y. Honda, O. Kitao, H. Nakai, 
 T. Vreven, K. Throssell, J. A. Montgomery, Jr., J. E. Peralta, 
 F. Ogliaro, M. J. Bearpark, J. J. Heyd, E. N. Brothers, K. N. Kudin, 
 V. N. Staroverov, T. A. Keith, R. Kobayashi, J. Normand, 
 K. Raghavachari, A. P. Rendell, J. C. Burant, S. S. Iyengar, 
 J. Tomasi, M. Cossi, J. M. Millam, M. Klene, C. Adamo, R. Cammi, 
 J. W. Ochterski, R. L. Martin, K. Morokuma, O. Farkas, 
 J. B. Foresman, and D. J. Fox, Gaussian, Inc., Wallingford CT, 2019.
 
 ******************************************
 Gaussian 16:  ES64L-G16RevC.01  3-Jul-2019
                21-Dec-2022 
 ******************************************
 %chk=dsgdb9nsd_131200-4.chk
 %mem=60GB
 %nprocshared=32
 Will use up to   32 processors via shared memory.
 ------------------------------------
 #p opt freq b3lyp/6-311+g** em=gd3bj
 ------------------------------------
 1/18=20,19=15,26=3,38=1/1,3;
 2/9=110,12=2,17=6,18=5,40=1/2;
 3/5=4,6=6,7=111,11=2,25=1,30=1,71=1,74=-5,124=41/1,2,3;
 4//1;
 5/5=2,38=5/2;
 6/7=2,8=2,9=2,10=2,28=1/1;
 7//1,2,3,16;
 1/18=20,19=15,26=3/3(2);
 2/9=110/2;
 99//99;
 2/9=110/2;
 3/5=4,6=6,7=111,11=2,25=1,30=1,71=1,74=-5,124=41/1,2,3;
 4/5=5,16=3,69=1/1;
 5/5=2,38=5/2;
 7//1,2,3,16;
 1/18=20,19=15,26=3/3(-5);
 2/9=110/2;
 6/7=2,8=2,9=2,10=2,19=2,28=1/1;
 99/9=1/99;
 Leave Link    1 at Wed Dec 21 17:57:47 2022, MaxMem=  8053063680 cpu:               2.7 elap:               0.1
 (Enter /public3/home/scg5914/software-scg5914/g16/l101.exe)
 ------------------
 dsgdb9nsd_131200-4
 ------------------
 Symbolic Z-matrix:
 Charge = -1 Multiplicity = 1
 O                     0.08059   0.04148   0.07223 
 C                    -0.06257   1.2446    0.04468 
 C                    -1.16665   2.14025  -0.01962 
 C                    -2.63517   2.16592  -0.02245 
 N                    -2.86741   3.62052   0.50695 
 H                    -3.76793   4.01229   0.22262 
 H                    -2.83752   3.58024   1.52572 
 C                    -1.67892   4.47222   0.0313 
 C                    -0.61518   3.42202   0.00274 
 N                     0.68438   3.48476   0.07468 
 O                     1.06155   2.11707   0.07145 
 H                    -3.14944   2.14778  -0.9985 
 H                    -1.95073   4.86862  -0.95266 
 H                    -1.53284   5.29879   0.72925 
 
 ITRead=  0  0  0  0  0  0  0  0  0  0  0  0  0  0
 MicOpt= -1 -1 -1 -1 -1 -1 -1 -1 -1 -1 -1 -1 -1 -1
 NAtoms=     14 NQM=       14 NQMF=       0 NMMI=      0 NMMIF=      0
                NMic=       0 NMicF=      0.
                    Isotopes and Nuclear Properties:
 (Nuclear quadrupole moments (NQMom) in fm**2, nuclear magnetic moments (NMagM)
  in nuclear magnetons)

  Atom         1           2           3           4           5           6           7           8           9          10
 IAtWgt=          16          12          12          12          14           1           1          12          12          14
 AtmWgt=  15.9949146  12.0000000  12.0000000  12.0000000  14.0030740   1.0078250   1.0078250  12.0000000  12.0000000  14.0030740
 NucSpn=           0           0           0           0           2           1           1           0           0           2
 AtZEff=  -0.0000000  -0.0000000  -0.0000000  -0.0000000  -0.0000000  -0.0000000  -0.0000000  -0.0000000  -0.0000000  -0.0000000
 NQMom=    0.0000000   0.0000000   0.0000000   0.0000000   2.0440000   0.0000000   0.0000000   0.0000000   0.0000000   2.0440000
 NMagM=    0.0000000   0.0000000   0.0000000   0.0000000   0.4037610   2.7928460   2.7928460   0.0000000   0.0000000   0.4037610
 AtZNuc=   8.0000000   6.0000000   6.0000000   6.0000000   7.0000000   1.0000000   1.0000000   6.0000000   6.0000000   7.0000000

  Atom        11          12          13          14
 IAtWgt=          16           1           1           1
 AtmWgt=  15.9949146   1.0078250   1.0078250   1.0078250
 NucSpn=           0           1           1           1
 AtZEff=  -0.0000000  -0.0000000  -0.0000000  -0.0000000
 NQMom=    0.0000000   0.0000000   0.0000000   0.0000000
 NMagM=    0.0000000   2.7928460   2.7928460   2.7928460
 AtZNuc=   8.0000000   1.0000000   1.0000000   1.0000000
 Leave Link  101 at Wed Dec 21 17:57:47 2022, MaxMem=  8053063680 cpu:               4.9 elap:               0.2
 (Enter /public3/home/scg5914/software-scg5914/g16/l103.exe)

 GradGradGradGradGradGradGradGradGradGradGradGradGradGradGradGradGradGrad
 Berny optimization.
 Initialization pass.
                           ----------------------------
                           !    Initial Parameters    !
                           ! (Angstroms and Degrees)  !
 --------------------------                            --------------------------
 ! Name  Definition              Value          Derivative Info.                !
 --------------------------------------------------------------------------------
 ! R1    R(1,2)                  1.2119         estimate D2E/DX2                !
 ! R2    R(2,3)                  1.4231         estimate D2E/DX2                !
 ! R3    R(2,11)                 1.4232         estimate D2E/DX2                !
 ! R4    R(3,4)                  1.4687         estimate D2E/DX2                !
 ! R5    R(3,9)                  1.3955         estimate D2E/DX2                !
 ! R6    R(4,5)                  1.5653         estimate D2E/DX2                !
 ! R7    R(4,12)                 1.1034         estimate D2E/DX2                !
 ! R8    R(5,6)                  1.0224         estimate D2E/DX2                !
 ! R9    R(5,7)                  1.02           estimate D2E/DX2                !
 ! R10   R(5,8)                  1.5376         estimate D2E/DX2                !
 ! R11   R(8,9)                  1.4951         estimate D2E/DX2                !
 ! R12   R(8,13)                 1.0951         estimate D2E/DX2                !
 ! R13   R(8,14)                 1.0916         estimate D2E/DX2                !
 ! R14   R(9,10)                 1.3031         estimate D2E/DX2                !
 ! R15   R(10,11)                1.4187         estimate D2E/DX2                !
 ! A1    A(1,2,3)              135.8436         estimate D2E/DX2                !
 ! A2    A(1,2,11)             120.9874         estimate D2E/DX2                !
 ! A3    A(3,2,11)             103.1684         estimate D2E/DX2                !
 ! A4    A(2,3,4)              141.8854         estimate D2E/DX2                !
 ! A5    A(2,3,9)              105.7085         estimate D2E/DX2                !
 ! A6    A(4,3,9)              112.2765         estimate D2E/DX2                !
 ! A7    A(3,4,5)               99.4356         estimate D2E/DX2                !
 ! A8    A(3,4,12)             117.8676         estimate D2E/DX2                !
 ! A9    A(5,4,12)             104.2            estimate D2E/DX2                !
 ! A10   A(4,5,6)              113.1245         estimate D2E/DX2                !
 ! A11   A(4,5,7)              107.2631         estimate D2E/DX2                !
 ! A12   A(4,5,8)              107.1843         estimate D2E/DX2                !
 ! A13   A(6,5,7)              108.5851         estimate D2E/DX2                !
 ! A14   A(6,5,8)              112.4909         estimate D2E/DX2                !
 ! A15   A(7,5,8)              107.9508         estimate D2E/DX2                !
 ! A16   A(5,8,9)               99.6001         estimate D2E/DX2                !
 ! A17   A(5,8,13)             106.6556         estimate D2E/DX2                !
 ! A18   A(5,8,14)             108.9699         estimate D2E/DX2                !
 ! A19   A(9,8,13)             114.4374         estimate D2E/DX2                !
 ! A20   A(9,8,14)             116.6713         estimate D2E/DX2                !
 ! A21   A(13,8,14)            109.4882         estimate D2E/DX2                !
 ! A22   A(3,9,8)              111.3658         estimate D2E/DX2                !
 ! A23   A(3,9,10)             116.0533         estimate D2E/DX2                !
 ! A24   A(8,9,10)             132.4311         estimate D2E/DX2                !
 ! A25   A(9,10,11)            102.6264         estimate D2E/DX2                !
 ! A26   A(2,11,10)            112.3972         estimate D2E/DX2                !
 ! D1    D(1,2,3,4)              3.923          estimate D2E/DX2                !
 ! D2    D(1,2,3,9)            179.1141         estimate D2E/DX2                !
 ! D3    D(11,2,3,4)          -176.3731         estimate D2E/DX2                !
 ! D4    D(11,2,3,9)            -1.182          estimate D2E/DX2                !
 ! D5    D(1,2,11,10)         -178.1358         estimate D2E/DX2                !
 ! D6    D(3,2,11,10)            2.1047         estimate D2E/DX2                !
 ! D7    D(2,3,4,5)            155.8726         estimate D2E/DX2                !
 ! D8    D(2,3,4,12)           -92.4632         estimate D2E/DX2                !
 ! D9    D(9,3,4,5)            -19.1241         estimate D2E/DX2                !
 ! D10   D(9,3,4,12)            92.54           estimate D2E/DX2                !
 ! D11   D(2,3,9,8)           -176.2344         estimate D2E/DX2                !
 ! D12   D(2,3,9,10)            -0.1253         estimate D2E/DX2                !
 ! D13   D(4,3,9,8)              0.56           estimate D2E/DX2                !
 ! D14   D(4,3,9,10)           176.6692         estimate D2E/DX2                !
 ! D15   D(3,4,5,6)            155.1962         estimate D2E/DX2                !
 ! D16   D(3,4,5,7)            -85.0936         estimate D2E/DX2                !
 ! D17   D(3,4,5,8)             30.6231         estimate D2E/DX2                !
 ! D18   D(12,4,5,6)            33.1349         estimate D2E/DX2                !
 ! D19   D(12,4,5,7)           152.8451         estimate D2E/DX2                !
 ! D20   D(12,4,5,8)           -91.4382         estimate D2E/DX2                !
 ! D21   D(4,5,8,9)            -30.2073         estimate D2E/DX2                !
 ! D22   D(4,5,8,13)            89.0381         estimate D2E/DX2                !
 ! D23   D(4,5,8,14)          -152.859          estimate D2E/DX2                !
 ! D24   D(6,5,8,9)           -155.1642         estimate D2E/DX2                !
 ! D25   D(6,5,8,13)           -35.9188         estimate D2E/DX2                !
 ! D26   D(6,5,8,14)            82.1841         estimate D2E/DX2                !
 ! D27   D(7,5,8,9)             85.0517         estimate D2E/DX2                !
 ! D28   D(7,5,8,13)          -155.703          estimate D2E/DX2                !
 ! D29   D(7,5,8,14)           -37.6            estimate D2E/DX2                !
 ! D30   D(5,8,9,3)             18.651          estimate D2E/DX2                !
 ! D31   D(5,8,9,10)          -156.6114         estimate D2E/DX2                !
 ! D32   D(13,8,9,3)           -94.6869         estimate D2E/DX2                !
 ! D33   D(13,8,9,10)           90.0508         estimate D2E/DX2                !
 ! D34   D(14,8,9,3)           135.6456         estimate D2E/DX2                !
 ! D35   D(14,8,9,10)          -39.6167         estimate D2E/DX2                !
 ! D36   D(3,9,10,11)            1.3693         estimate D2E/DX2                !
 ! D37   D(8,9,10,11)          176.4578         estimate D2E/DX2                !
 ! D38   D(9,10,11,2)           -2.161          estimate D2E/DX2                !
 --------------------------------------------------------------------------------
 Trust Radius=3.00D-01 FncErr=1.00D-07 GrdErr=1.00D-06 EigMax=2.50D+02 EigMin=1.00D-04
 Number of steps in this run=     89 maximum allowed number of steps=    100.
 GradGradGradGradGradGradGradGradGradGradGradGradGradGradGradGradGradGrad

 Leave Link  103 at Wed Dec 21 17:57:48 2022, MaxMem=  8053063680 cpu:               2.4 elap:               0.1
 (Enter /public3/home/scg5914/software-scg5914/g16/l202.exe)
                          Input orientation:                          
 ---------------------------------------------------------------------
 Center     Atomic      Atomic             Coordinates (Angstroms)
 Number     Number       Type             X           Y           Z
 ---------------------------------------------------------------------
      1          8           0        0.080585    0.041485    0.072233
      2          6           0       -0.062565    1.244604    0.044685
      3          6           0       -1.166650    2.140248   -0.019618
      4          6           0       -2.635169    2.165919   -0.022453
      5          7           0       -2.867411    3.620520    0.506950
      6          1           0       -3.767927    4.012291    0.222624
      7          1           0       -2.837518    3.580236    1.525721
      8          6           0       -1.678923    4.472219    0.031299
      9          6           0       -0.615185    3.422019    0.002735
     10          7           0        0.684379    3.484761    0.074679
     11          8           0        1.061552    2.117071    0.071450
     12          1           0       -3.149440    2.147780   -0.998502
     13          1           0       -1.950729    4.868617   -0.952664
     14          1           0       -1.532838    5.298788    0.729248
 ---------------------------------------------------------------------
                    Distance matrix (angstroms):
                    1          2          3          4          5
     1  O    0.000000
     2  C    1.211919   0.000000
     3  C    2.443120   1.423135   0.000000
     4  C    3.449276   2.733426   1.468747   0.000000
     5  N    4.657161   3.704837   2.315398   1.565269   0.000000
     6  H    5.531814   4.628332   3.214011   2.179976   1.022377
     7  H    4.811519   3.917781   2.693222   2.106676   1.020006
     8  C    4.767489   3.609749   2.388118   2.497262   1.537575
     9  C    3.452091   2.246838   1.395547   2.378815   2.316497
    10  N    3.495815   2.361594   2.289741   3.573259   3.580572
    11  O    2.295725   1.423220   2.230183   3.698237   4.229275
    12  H    4.002001   3.381236   2.211273   1.103392   2.124826
    13  H    5.336465   4.206344   2.988202   2.939103   2.128033
    14  H    5.538415   4.366547   3.266691   3.405152   2.155710
                    6          7          8          9         10
     6  H    0.000000
     7  H    1.658431   0.000000
     8  C    2.147574   2.090759   0.000000
     9  C    3.215051   2.698756   1.495084   0.000000
    10  N    4.485889   3.810301   2.561670   1.303065   0.000000
    11  O    5.190239   4.411180   3.613660   2.125808   1.418748
    12  H    2.313023   2.919063   2.936992   3.008091   4.199691
    13  H    2.327403   2.930651   1.095077   2.188404   3.148696
    14  H    2.628186   2.299996   1.091646   2.211825   2.938573
                   11         12         13         14
    11  O    0.000000
    12  H    4.344905   0.000000
    13  H    4.206382   2.973544   0.000000
    14  H    4.157750   3.940479   1.785639   0.000000
 Stoichiometry    C5H5N2O2(1-)
 Framework group  C1[X(C5H5N2O2)]
 Deg. of freedom    36
 Full point group                 C1      NOp   1
 Largest Abelian subgroup         C1      NOp   1
 Largest concise Abelian subgroup C1      NOp   1
                         Standard orientation:                         
 ---------------------------------------------------------------------
 Center     Atomic      Atomic             Coordinates (Angstroms)
 Number     Number       Type             X           Y           Z
 ---------------------------------------------------------------------
      1          8           0       -2.419072   -1.214337   -0.078030
      2          6           0       -1.497381   -0.430059   -0.013668
      3          6           0       -0.082700   -0.524914    0.108782
      4          6           0        1.009819   -1.505339    0.157616
      5          7           0        2.190527   -0.598092   -0.324981
      6          1           0        3.104570   -0.923394   -0.002552
      7          1           0        2.182967   -0.608544   -1.344905
      8          6           0        1.879974    0.835324    0.136552
      9          6           0        0.385945    0.789582    0.103971
     10          7           0       -0.519930    1.719745   -0.006318
     11          8           0       -1.726115    0.974148   -0.051584
     12          1           0        1.334047   -1.867343    1.148223
     13          1           0        2.308202    0.942087    1.138757
     14          1           0        2.363586    1.539566   -0.543045
 ---------------------------------------------------------------------
 Rotational constants (GHZ):           3.3929527           1.5354758           1.0897366
 Leave Link  202 at Wed Dec 21 17:57:48 2022, MaxMem=  8053063680 cpu:               0.1 elap:               0.0
 (Enter /public3/home/scg5914/software-scg5914/g16/l301.exe)
 Standard basis: 6-311+G(d,p) (5D, 7F)
 Ernie: Thresh=  0.10000D-02 Tol=  0.10000D-05 Strict=F.
 There are   237 symmetry adapted cartesian basis functions of A   symmetry.
 There are   228 symmetry adapted basis functions of A   symmetry.
   228 basis functions,   364 primitive gaussians,   237 cartesian basis functions
    33 alpha electrons       33 beta electrons
       nuclear repulsion energy       435.4087198223 Hartrees.
 IExCor=  402 DFT=T Ex+Corr=B3LYP ExCW=0 ScaHFX=  0.200000
 ScaDFX=  0.800000  0.720000  1.000000  0.810000 ScalE2=  1.000000  1.000000
 IRadAn=      5 IRanWt=     -1 IRanGd=            0 ICorTp=0 IEmpDi=141
 NAtoms=   14 NActive=   14 NUniq=   14 SFac= 1.00D+00 NAtFMM=   60 NAOKFM=F Big=F
 Integral buffers will be    131072 words long.
 Raffenetti 2 integral format.
 Two-electron integral symmetry is turned on.
 R6Disp:  Grimme-D3(BJ) Dispersion energy=       -0.0242974210 Hartrees.
 Nuclear repulsion after empirical dispersion term =      435.3844224013 Hartrees.
 Leave Link  301 at Wed Dec 21 17:57:48 2022, MaxMem=  8053063680 cpu:               0.9 elap:               0.0
 (Enter /public3/home/scg5914/software-scg5914/g16/l302.exe)
 NPDir=0 NMtPBC=     1 NCelOv=     1 NCel=       1 NClECP=     1 NCelD=      1
         NCelK=      1 NCelE2=     1 NClLst=     1 CellRange=     0.0.
 One-electron integrals computed using PRISM.
 One-electron integral symmetry used in STVInt
 NBasis=   228 RedAO= T EigKep=  6.50D-06  NBF=   228
 NBsUse=   228 1.00D-06 EigRej= -1.00D+00 NBFU=   228
 Precomputing XC quadrature grid using
 IXCGrd= 4 IRadAn=           5 IRanWt=          -1 IRanGd=           0 AccXCQ= 0.00D+00.
 Generated NRdTot=       0 NPtTot=           0 NUsed=           0 NTot=          32
 NSgBfM=   237   237   237   237   237 MxSgAt=    14 MxSgA2=    14.
 Leave Link  302 at Wed Dec 21 17:57:48 2022, MaxMem=  8053063680 cpu:               4.4 elap:               0.2
 (Enter /public3/home/scg5914/software-scg5914/g16/l303.exe)
 DipDrv:  MaxL=1.
 Leave Link  303 at Wed Dec 21 17:57:48 2022, MaxMem=  8053063680 cpu:               2.9 elap:               0.1
 (Enter /public3/home/scg5914/software-scg5914/g16/l401.exe)
 ExpMin= 4.38D-02 ExpMax= 8.59D+03 ExpMxC= 1.30D+03 IAcc=3 IRadAn=         5 AccDes= 0.00D+00
 Harris functional with IExCor=  402 and IRadAn=       5 diagonalized for initial guess.
 HarFok:  IExCor=  402 AccDes= 0.00D+00 IRadAn=         5 IDoV= 1 UseB2=F ITyADJ=14
 ICtDFT=  3500011 ScaDFX=  1.000000  1.000000  1.000000  1.000000
 FoFCou: FMM=F IPFlag=           0 FMFlag=      100000 FMFlg1=           0
         NFxFlg=           0 DoJE=T BraDBF=F KetDBF=T FulRan=T
         wScrn=  0.000000 ICntrl=       500 IOpCl=  0 I1Cent=   200000004 NGrid=           0
         NMat0=    1 NMatS0=      1 NMatT0=    0 NMatD0=    1 NMtDS0=    0 NMtDT0=    0
 Petite list used in FoFCou.
 Harris En= -453.710269839385    
 JPrj=0 DoOrth=F DoCkMO=F.
 Leave Link  401 at Wed Dec 21 17:57:48 2022, MaxMem=  8053063680 cpu:              14.7 elap:               0.5
 (Enter /public3/home/scg5914/software-scg5914/g16/l502.exe)
 Integral symmetry usage will be decided dynamically.
 Closed shell SCF:
 Using DIIS extrapolation, IDIIS=  1040.
 NGot=  8053063680 LenX=  8052941112 LenY=  8052884502
 Requested convergence on RMS density matrix=1.00D-08 within 128 cycles.
 Requested convergence on MAX density matrix=1.00D-06.
 Requested convergence on             energy=1.00D-06.
 No special actions if energy rises.
 Fock matrices will be formed incrementally for  20 cycles.

 Cycle   1  Pass 1  IDiag  1:
 FoFJK:  IHMeth= 1 ICntrl=       0 DoSepK=F KAlg= 0 I1Cent=           0 FoldK=F
 IRaf= 950000000 NMat=       1 IRICut=       1 DoRegI=T DoRafI=F ISym2E= 0 IDoP0=0 IntGTp=1.
 FoFCou: FMM=F IPFlag=           0 FMFlag=      100000 FMFlg1=           0
         NFxFlg=           0 DoJE=F BraDBF=F KetDBF=F FulRan=T
         wScrn=  0.000000 ICntrl=         0 IOpCl=  0 I1Cent=           0 NGrid=           0
         NMat0=    1 NMatS0=      1 NMatT0=    0 NMatD0=    1 NMtDS0=    0 NMtDT0=    0
 Symmetry not used in FoFCou.
 E= -453.210366230502    
 DIIS: error= 2.20D-02 at cycle   1 NSaved=   1.
 NSaved= 1 IEnMin= 1 EnMin= -453.210366230502     IErMin= 1 ErrMin= 2.20D-02
 ErrMax= 2.20D-02  0.00D+00 EMaxC= 1.00D-01 BMatC= 3.43D-01 BMatP= 3.43D-01
 IDIUse=3 WtCom= 7.80D-01 WtEn= 2.20D-01
 Coeff-Com:  0.100D+01
 Coeff-En:   0.100D+01
 Coeff:      0.100D+01
 Gap=     0.072 Goal=   None    Shift=    0.000
 GapD=    0.072 DampG=0.500 DampE=0.500 DampFc=0.2500 IDamp=-1.
 Damping current iteration by 2.50D-01
 RMSDP=4.31D+00 MaxDP=3.98D+02              OVMax= 9.78D-01

 Cycle   2  Pass 1  IDiag  1:
 RMSU=  1.05D+00    CP:  3.00D+00
 E= -453.114823604864     Delta-E=        0.095542625638 Rises=F Damp=T
 DIIS: error= 8.59D-03 at cycle   2 NSaved=   2.
 NSaved= 2 IEnMin= 1 EnMin= -453.210366230502     IErMin= 2 ErrMin= 8.59D-03
 ErrMax= 8.59D-03  0.00D+00 EMaxC= 1.00D-01 BMatC= 5.92D-02 BMatP= 3.43D-01
 IDIUse=3 WtCom= 9.14D-01 WtEn= 8.59D-02
 Coeff-Com:  0.100D-01 0.990D+00
 Coeff-En:   0.631D+00 0.369D+00
 Coeff:      0.633D-01 0.937D+00
 Gap=    -0.088 Goal=   None    Shift=    0.000
 RMSDP=1.07D+00 MaxDP=9.88D+01 DE= 9.55D-02 OVMax= 9.08D-01

 Cycle   3  Pass 1  IDiag  1:
 RMSU=  1.16D-02    CP:  1.36D+00  4.32D-03
 E= -453.248026758896     Delta-E=       -0.133203154032 Rises=F Damp=F
 DIIS: error= 2.35D-02 at cycle   3 NSaved=   3.
 NSaved= 3 IEnMin= 3 EnMin= -453.248026758896     IErMin= 2 ErrMin= 8.59D-03
 ErrMax= 2.35D-02  0.00D+00 EMaxC= 1.00D-01 BMatC= 2.41D-01 BMatP= 5.92D-02
 IDIUse=2 WtCom= 0.00D+00 WtEn= 1.00D+00
 EnCoef did     2 forward-backward iterations
 Coeff-En:   0.170D+00 0.305D+00 0.525D+00
 Coeff:      0.170D+00 0.305D+00 0.525D+00
 Gap=     0.092 Goal=   None    Shift=    0.000
 RMSDP=2.94D-01 MaxDP=2.11D+01 DE=-1.33D-01 OVMax= 6.62D-01

 Cycle   4  Pass 1  IDiag  1:
 RMSU=  2.10D-01    CP:  3.00D+00  1.61D-01 -2.85D+00
 E= -452.914104739625     Delta-E=        0.333922019271 Rises=F Damp=F
 DIIS: error= 3.91D-02 at cycle   4 NSaved=   4.
 NSaved= 4 IEnMin= 3 EnMin= -453.248026758896     IErMin= 2 ErrMin= 8.59D-03
 ErrMax= 3.91D-02  0.00D+00 EMaxC= 1.00D-01 BMatC= 6.05D-01 BMatP= 5.92D-02
 IDIUse=2 WtCom= 0.00D+00 WtEn= 1.00D+00
 EnCoef did     4 forward-backward iterations
 Coeff-En:   0.670D-01 0.000D+00 0.587D+00 0.346D+00
 Coeff:      0.670D-01 0.000D+00 0.587D+00 0.346D+00
 Gap=     0.061 Goal=   None    Shift=    0.000
 RMSDP=2.72D-01 MaxDP=2.03D+01 DE= 3.34D-01 OVMax= 3.72D-01

 Cycle   5  Pass 1  IDiag  1:
 RMSU=  3.02D-02    CP:  2.22D+00  1.34D-02  2.30D+00  5.38D-02
 E= -453.504566545590     Delta-E=       -0.590461805966 Rises=F Damp=F
 DIIS: error= 8.26D-03 at cycle   5 NSaved=   5.
 NSaved= 5 IEnMin= 5 EnMin= -453.504566545590     IErMin= 5 ErrMin= 8.26D-03
 ErrMax= 8.26D-03  0.00D+00 EMaxC= 1.00D-01 BMatC= 2.09D-02 BMatP= 5.92D-02
 IDIUse=3 WtCom= 9.17D-01 WtEn= 8.26D-02
 Coeff-Com: -0.148D+00 0.310D+00 0.254D+00 0.211D-01 0.564D+00
 Coeff-En:   0.000D+00 0.000D+00 0.000D+00 0.000D+00 0.100D+01
 Coeff:     -0.136D+00 0.284D+00 0.233D+00 0.193D-01 0.600D+00
 Gap=     0.091 Goal=   None    Shift=    0.000
 RMSDP=2.60D-02 MaxDP=2.39D+00 DE=-5.90D-01 OVMax= 9.85D-02

 Cycle   6  Pass 1  IDiag  1:
 RMSU=  5.95D-03    CP:  1.71D+00  5.05D-03  1.46D+00  2.89D-02  5.04D-01
 E= -453.507596047247     Delta-E=       -0.003029501657 Rises=F Damp=F
 DIIS: error= 5.74D-03 at cycle   6 NSaved=   6.
 NSaved= 6 IEnMin= 6 EnMin= -453.507596047247     IErMin= 6 ErrMin= 5.74D-03
 ErrMax= 5.74D-03  0.00D+00 EMaxC= 1.00D-01 BMatC= 1.28D-02 BMatP= 2.09D-02
 IDIUse=3 WtCom= 9.43D-01 WtEn= 5.74D-02
 Coeff-Com: -0.144D+00 0.207D+00 0.842D-01-0.157D-01 0.411D+00 0.458D+00
 Coeff-En:   0.000D+00 0.000D+00 0.000D+00 0.000D+00 0.452D+00 0.548D+00
 Coeff:     -0.136D+00 0.195D+00 0.794D-01-0.148D-01 0.414D+00 0.463D+00
 Gap=     0.069 Goal=   None    Shift=    0.000
 RMSDP=2.10D-02 MaxDP=2.35D+00 DE=-3.03D-03 OVMax= 4.04D-02

 Cycle   7  Pass 1  IDiag  1:
 RMSU=  5.86D-03    CP:  2.09D+00  8.47D-03  2.31D+00  5.13D-02  9.13D-01
                    CP:  1.10D+00
 E= -453.520862197674     Delta-E=       -0.013266150427 Rises=F Damp=F
 DIIS: error= 2.71D-03 at cycle   7 NSaved=   7.
 NSaved= 7 IEnMin= 7 EnMin= -453.520862197674     IErMin= 7 ErrMin= 2.71D-03
 ErrMax= 2.71D-03  0.00D+00 EMaxC= 1.00D-01 BMatC= 2.91D-03 BMatP= 1.28D-02
 IDIUse=3 WtCom= 9.73D-01 WtEn= 2.71D-02
 Coeff-Com: -0.911D-01 0.120D+00-0.308D-02-0.545D-02 0.160D+00 0.209D+00
 Coeff-Com:  0.611D+00
 Coeff-En:   0.000D+00 0.000D+00 0.000D+00 0.000D+00 0.000D+00 0.000D+00
 Coeff-En:   0.100D+01
 Coeff:     -0.886D-01 0.117D+00-0.300D-02-0.530D-02 0.155D+00 0.203D+00
 Coeff:      0.622D+00
 Gap=     0.064 Goal=   None    Shift=    0.000
 RMSDP=9.71D-03 MaxDP=1.08D+00 DE=-1.33D-02 OVMax= 1.70D-02

 Cycle   8  Pass 1  IDiag  1:
 RMSU=  1.10D-03    CP:  2.27D+00  9.64D-03  2.65D+00  6.58D-02  1.10D+00
                    CP:  1.04D+00  1.41D+00
 E= -453.523206715876     Delta-E=       -0.002344518202 Rises=F Damp=F
 DIIS: error= 1.59D-03 at cycle   8 NSaved=   8.
 NSaved= 8 IEnMin= 8 EnMin= -453.523206715876     IErMin= 8 ErrMin= 1.59D-03
 ErrMax= 1.59D-03  0.00D+00 EMaxC= 1.00D-01 BMatC= 1.02D-03 BMatP= 2.91D-03
 IDIUse=3 WtCom= 9.84D-01 WtEn= 1.59D-02
 Coeff-Com: -0.274D-01 0.303D-01-0.421D-01 0.799D-02-0.414D-01-0.591D-01
 Coeff-Com:  0.354D+00 0.777D+00
 Coeff-En:   0.000D+00 0.000D+00 0.000D+00 0.000D+00 0.000D+00 0.000D+00
 Coeff-En:   0.000D+00 0.100D+01
 Coeff:     -0.270D-01 0.298D-01-0.414D-01 0.787D-02-0.407D-01-0.582D-01
 Coeff:      0.349D+00 0.781D+00
 Gap=     0.060 Goal=   None    Shift=    0.000
 RMSDP=1.21D-02 MaxDP=1.35D+00 DE=-2.34D-03 OVMax= 1.94D-02

 Cycle   9  Pass 1  IDiag  1:
 RMSU=  1.05D-03    CP:  2.51D+00  1.15D-02  3.00D+00  8.25D-02  1.33D+00
                    CP:  8.71D-01  1.87D+00  2.27D+00
 E= -453.524396254936     Delta-E=       -0.001189539060 Rises=F Damp=F
 DIIS: error= 5.22D-04 at cycle   9 NSaved=   9.
 NSaved= 9 IEnMin= 9 EnMin= -453.524396254936     IErMin= 9 ErrMin= 5.22D-04
 ErrMax= 5.22D-04  0.00D+00 EMaxC= 1.00D-01 BMatC= 9.26D-05 BMatP= 1.02D-03
 IDIUse=3 WtCom= 9.95D-01 WtEn= 5.22D-03
 Coeff-Com: -0.347D-02 0.610D-02-0.186D-01 0.443D-02-0.370D-01-0.518D-01
 Coeff-Com: -0.316D-02 0.354D+00 0.749D+00
 Coeff-En:   0.000D+00 0.000D+00 0.000D+00 0.000D+00 0.000D+00 0.000D+00
 Coeff-En:   0.000D+00 0.000D+00 0.100D+01
 Coeff:     -0.345D-02 0.607D-02-0.185D-01 0.441D-02-0.368D-01-0.515D-01
 Coeff:     -0.314D-02 0.352D+00 0.750D+00
 Gap=     0.058 Goal=   None    Shift=    0.000
 RMSDP=4.73D-03 MaxDP=4.88D-01 DE=-1.19D-03 OVMax= 8.97D-03

 Cycle  10  Pass 1  IDiag  1:
 RMSU=  7.88D-04    CP:  2.59D+00  1.25D-02  3.00D+00  8.72D-02  1.42D+00
                    CP:  6.87D-01  2.00D+00  2.91D+00  2.77D+00
 E= -453.524500406219     Delta-E=       -0.000104151284 Rises=F Damp=F
 DIIS: error= 1.75D-04 at cycle  10 NSaved=  10.
 NSaved=10 IEnMin=10 EnMin= -453.524500406219     IErMin=10 ErrMin= 1.75D-04
 ErrMax= 1.75D-04  0.00D+00 EMaxC= 1.00D-01 BMatC= 1.59D-05 BMatP= 9.26D-05
 IDIUse=3 WtCom= 9.98D-01 WtEn= 1.75D-03
 Coeff-Com:  0.768D-03 0.128D-03-0.122D-02 0.595D-03-0.202D-02-0.458D-02
 Coeff-Com: -0.838D-01 0.193D-01 0.481D+00 0.590D+00
 Coeff-En:   0.000D+00 0.000D+00 0.000D+00 0.000D+00 0.000D+00 0.000D+00
 Coeff-En:   0.000D+00 0.000D+00 0.000D+00 0.100D+01
 Coeff:      0.766D-03 0.128D-03-0.122D-02 0.594D-03-0.202D-02-0.457D-02
 Coeff:     -0.836D-01 0.193D-01 0.480D+00 0.591D+00
 Gap=     0.058 Goal=   None    Shift=    0.000
 RMSDP=1.36D-03 MaxDP=8.52D-02 DE=-1.04D-04 OVMax= 3.95D-03

 Cycle  11  Pass 1  IDiag  1:
 RMSU=  3.71D-04    CP:  2.61D+00  1.29D-02  3.00D+00  8.72D-02  1.45D+00
                    CP:  5.72D-01  1.97D+00  3.00D+00  3.00D+00  1.20D+00
 E= -453.524516883403     Delta-E=       -0.000016477184 Rises=F Damp=F
 DIIS: error= 3.25D-05 at cycle  11 NSaved=  11.
 NSaved=11 IEnMin=11 EnMin= -453.524516883403     IErMin=11 ErrMin= 3.25D-05
 ErrMax= 3.25D-05  0.00D+00 EMaxC= 1.00D-01 BMatC= 5.33D-07 BMatP= 1.59D-05
 IDIUse=1 WtCom= 1.00D+00 WtEn= 0.00D+00
 Coeff-Com:  0.626D-03-0.599D-03 0.518D-03 0.728D-04 0.157D-02 0.140D-02
 Coeff-Com: -0.271D-01-0.105D-01 0.135D+00 0.220D+00 0.679D+00
 Coeff:      0.626D-03-0.599D-03 0.518D-03 0.728D-04 0.157D-02 0.140D-02
 Coeff:     -0.271D-01-0.105D-01 0.135D+00 0.220D+00 0.679D+00
 Gap=     0.058 Goal=   None    Shift=    0.000
 RMSDP=5.06D-04 MaxDP=3.76D-02 DE=-1.65D-05 OVMax= 1.92D-03

 Cycle  12  Pass 1  IDiag  1:
 RMSU=  1.02D-04    CP:  2.61D+00  1.31D-02  3.00D+00  8.63D-02  1.45D+00
                    CP:  5.19D-01  1.93D+00  3.00D+00  3.00D+00  1.26D+00
                    CP:  1.52D+00
 E= -453.524517699791     Delta-E=       -0.000000816388 Rises=F Damp=F
 DIIS: error= 3.77D-05 at cycle  12 NSaved=  12.
 NSaved=12 IEnMin=12 EnMin= -453.524517699791     IErMin=11 ErrMin= 3.25D-05
 ErrMax= 3.77D-05  0.00D+00 EMaxC= 1.00D-01 BMatC= 4.56D-07 BMatP= 5.33D-07
 IDIUse=1 WtCom= 1.00D+00 WtEn= 0.00D+00
 Coeff-Com:  0.464D-03-0.576D-03 0.433D-03-0.559D-04 0.114D-02 0.133D-02
 Coeff-Com: -0.820D-02-0.695D-02 0.440D-01 0.810D-01 0.432D+00 0.456D+00
 Coeff:      0.464D-03-0.576D-03 0.433D-03-0.559D-04 0.114D-02 0.133D-02
 Coeff:     -0.820D-02-0.695D-02 0.440D-01 0.810D-01 0.432D+00 0.456D+00
 Gap=     0.058 Goal=   None    Shift=    0.000
 RMSDP=2.99D-04 MaxDP=2.24D-02 DE=-8.16D-07 OVMax= 7.52D-04

 Cycle  13  Pass 1  IDiag  1:
 RMSU=  5.57D-05    CP:  2.61D+00  1.32D-02  3.00D+00  8.57D-02  1.45D+00
                    CP:  4.95D-01  1.91D+00  3.00D+00  3.00D+00  1.26D+00
                    CP:  1.70D+00  1.68D+00
 E= -453.524518237919     Delta-E=       -0.000000538128 Rises=F Damp=F
 DIIS: error= 2.04D-05 at cycle  13 NSaved=  13.
 NSaved=13 IEnMin=13 EnMin= -453.524518237919     IErMin=13 ErrMin= 2.04D-05
 ErrMax= 2.04D-05  0.00D+00 EMaxC= 1.00D-01 BMatC= 1.63D-07 BMatP= 4.56D-07
 IDIUse=1 WtCom= 1.00D+00 WtEn= 0.00D+00
 Coeff-Com:  0.144D-03-0.251D-03 0.468D-05-0.260D-04 0.987D-04 0.449D-03
 Coeff-Com:  0.664D-02 0.313D-02-0.145D-01-0.294D-01 0.478D-01 0.249D+00
 Coeff-Com:  0.737D+00
 Coeff:      0.144D-03-0.251D-03 0.468D-05-0.260D-04 0.987D-04 0.449D-03
 Coeff:      0.664D-02 0.313D-02-0.145D-01-0.294D-01 0.478D-01 0.249D+00
 Coeff:      0.737D+00
 Gap=     0.058 Goal=   None    Shift=    0.000
 RMSDP=3.65D-04 MaxDP=3.12D-02 DE=-5.38D-07 OVMax= 8.73D-04

 Cycle  14  Pass 1  IDiag  1:
 RMSU=  1.52D-05    CP:  2.60D+00  1.33D-02  3.00D+00  8.48D-02  1.44D+00
                    CP:  4.70D-01  1.88D+00  3.00D+00  3.00D+00  1.26D+00
                    CP:  1.88D+00  2.68D+00  2.32D+00
 E= -453.524518540614     Delta-E=       -0.000000302695 Rises=F Damp=F
 DIIS: error= 7.37D-06 at cycle  14 NSaved=  14.
 NSaved=14 IEnMin=14 EnMin= -453.524518540614     IErMin=14 ErrMin= 7.37D-06
 ErrMax= 7.37D-06  0.00D+00 EMaxC= 1.00D-01 BMatC= 2.98D-08 BMatP= 1.63D-07
 IDIUse=1 WtCom= 1.00D+00 WtEn= 0.00D+00
 Coeff-Com: -0.266D-04-0.155D-04-0.132D-03-0.647D-05-0.132D-03 0.303D-03
 Coeff-Com:  0.666D-02 0.366D-02-0.196D-01-0.399D-01-0.970D-01-0.293D-01
 Coeff-Com:  0.384D+00 0.792D+00
 Coeff:     -0.266D-04-0.155D-04-0.132D-03-0.647D-05-0.132D-03 0.303D-03
 Coeff:      0.666D-02 0.366D-02-0.196D-01-0.399D-01-0.970D-01-0.293D-01
 Coeff:      0.384D+00 0.792D+00
 Gap=     0.058 Goal=   None    Shift=    0.000
 RMSDP=2.83D-04 MaxDP=2.66D-02 DE=-3.03D-07 OVMax= 6.17D-04

 Cycle  15  Pass 1  IDiag  1:
 RMSU=  5.44D-05    CP:  2.60D+00  1.33D-02  3.00D+00  8.42D-02  1.44D+00
                    CP:  4.52D-01  1.86D+00  3.00D+00  3.00D+00  1.25D+00
                    CP:  1.98D+00  3.00D+00  3.00D+00  1.81D+00
 E= -453.524518628393     Delta-E=       -0.000000087779 Rises=F Damp=F
 DIIS: error= 1.56D-06 at cycle  15 NSaved=  15.
 NSaved=15 IEnMin=15 EnMin= -453.524518628393     IErMin=15 ErrMin= 1.56D-06
 ErrMax= 1.56D-06  0.00D+00 EMaxC= 1.00D-01 BMatC= 1.01D-09 BMatP= 2.98D-08
 IDIUse=1 WtCom= 1.00D+00 WtEn= 0.00D+00
 Coeff-Com: -0.195D-04 0.183D-04-0.735D-04 0.475D-05-0.947D-04 0.113D-03
 Coeff-Com:  0.161D-02 0.723D-03-0.557D-02-0.104D-01-0.459D-01-0.586D-01
 Coeff-Com:  0.210D-01 0.320D+00 0.778D+00
 Coeff:     -0.195D-04 0.183D-04-0.735D-04 0.475D-05-0.947D-04 0.113D-03
 Coeff:      0.161D-02 0.723D-03-0.557D-02-0.104D-01-0.459D-01-0.586D-01
 Coeff:      0.210D-01 0.320D+00 0.778D+00
 Gap=     0.058 Goal=   None    Shift=    0.000
 RMSDP=1.05D-04 MaxDP=1.00D-02 DE=-8.78D-08 OVMax= 2.42D-04

 Cycle  16  Pass 1  IDiag  1:
 RMSU=  6.86D-06    CP:  2.60D+00  1.33D-02  3.00D+00  8.39D-02  1.44D+00
                    CP:  4.46D-01  1.85D+00  3.00D+00  3.00D+00  1.25D+00
                    CP:  2.02D+00  3.00D+00  3.00D+00  2.16D+00  1.71D+00
 E= -453.524518635692     Delta-E=       -0.000000007299 Rises=F Damp=F
 DIIS: error= 7.35D-07 at cycle  16 NSaved=  16.
 NSaved=16 IEnMin=16 EnMin= -453.524518635692     IErMin=16 ErrMin= 7.35D-07
 ErrMax= 7.35D-07  0.00D+00 EMaxC= 1.00D-01 BMatC= 2.97D-10 BMatP= 1.01D-09
 IDIUse=1 WtCom= 1.00D+00 WtEn= 0.00D+00
 Coeff-Com: -0.104D-04 0.167D-04-0.158D-04 0.294D-05-0.289D-04 0.453D-05
 Coeff-Com: -0.101D-03-0.215D-03-0.282D-03 0.337D-03-0.815D-02-0.200D-01
 Coeff-Com: -0.375D-01 0.450D-01 0.331D+00 0.690D+00
 Coeff:     -0.104D-04 0.167D-04-0.158D-04 0.294D-05-0.289D-04 0.453D-05
 Coeff:     -0.101D-03-0.215D-03-0.282D-03 0.337D-03-0.815D-02-0.200D-01
 Coeff:     -0.375D-01 0.450D-01 0.331D+00 0.690D+00
 Gap=     0.058 Goal=   None    Shift=    0.000
 RMSDP=2.27D-05 MaxDP=2.19D-03 DE=-7.30D-09 OVMax= 5.76D-05

 Cycle  17  Pass 1  IDiag  1:
 RMSU=  1.65D-06    CP:  2.60D+00  1.33D-02  3.00D+00  8.39D-02  1.44D+00
                    CP:  4.45D-01  1.85D+00  3.00D+00  3.00D+00  1.25D+00
                    CP:  2.03D+00  3.00D+00  3.00D+00  2.24D+00  1.87D+00
                    CP:  1.27D+00
 E= -453.524518636320     Delta-E=       -0.000000000628 Rises=F Damp=F
 DIIS: error= 3.83D-07 at cycle  17 NSaved=  17.
 NSaved=17 IEnMin=17 EnMin= -453.524518636320     IErMin=17 ErrMin= 3.83D-07
 ErrMax= 3.83D-07  0.00D+00 EMaxC= 1.00D-01 BMatC= 9.25D-11 BMatP= 2.97D-10
 IDIUse=1 WtCom= 1.00D+00 WtEn= 0.00D+00
 Coeff-Com: -0.360D-05 0.409D-05 0.510D-05 0.896D-06-0.168D-05-0.342D-04
 Coeff-Com: -0.270D-03-0.219D-03 0.502D-03 0.148D-02 0.338D-02 0.271D-02
 Coeff-Com: -0.164D-01-0.291D-01 0.165D-02 0.283D+00 0.754D+00
 Coeff:     -0.360D-05 0.409D-05 0.510D-05 0.896D-06-0.168D-05-0.342D-04
 Coeff:     -0.270D-03-0.219D-03 0.502D-03 0.148D-02 0.338D-02 0.271D-02
 Coeff:     -0.164D-01-0.291D-01 0.165D-02 0.283D+00 0.754D+00
 Gap=     0.058 Goal=   None    Shift=    0.000
 RMSDP=6.16D-06 MaxDP=5.80D-04 DE=-6.28D-10 OVMax= 2.03D-05

 Cycle  18  Pass 1  IDiag  1:
 RMSU=  5.85D-07    CP:  2.60D+00  1.33D-02  3.00D+00  8.39D-02  1.44D+00
                    CP:  4.44D-01  1.85D+00  3.00D+00  3.00D+00  1.25D+00
                    CP:  2.03D+00  3.00D+00  3.00D+00  2.27D+00  1.91D+00
                    CP:  1.34D+00  1.46D+00
 E= -453.524518636476     Delta-E=       -0.000000000156 Rises=F Damp=F
 DIIS: error= 1.17D-07 at cycle  18 NSaved=  18.
 NSaved=18 IEnMin=18 EnMin= -453.524518636476     IErMin=18 ErrMin= 1.17D-07
 ErrMax= 1.17D-07  0.00D+00 EMaxC= 1.00D-01 BMatC= 7.31D-12 BMatP= 9.25D-11
 IDIUse=1 WtCom= 1.00D+00 WtEn= 0.00D+00
 Coeff-Com: -0.160D-05 0.169D-05 0.470D-05 0.113D-06 0.307D-05-0.194D-04
 Coeff-Com: -0.132D-03-0.957D-04 0.260D-03 0.697D-03 0.243D-02 0.361D-02
 Coeff-Com: -0.463D-02-0.204D-01-0.359D-01 0.563D-01 0.368D+00 0.629D+00
 Coeff:     -0.160D-05 0.169D-05 0.470D-05 0.113D-06 0.307D-05-0.194D-04
 Coeff:     -0.132D-03-0.957D-04 0.260D-03 0.697D-03 0.243D-02 0.361D-02
 Coeff:     -0.463D-02-0.204D-01-0.359D-01 0.563D-01 0.368D+00 0.629D+00
 Gap=     0.058 Goal=   None    Shift=    0.000
 RMSDP=2.59D-06 MaxDP=2.83D-04 DE=-1.56D-10 OVMax= 6.43D-06

 Cycle  19  Pass 1  IDiag  1:
 RMSU=  7.73D-08    CP:  2.60D+00  1.33D-02  3.00D+00  8.39D-02  1.44D+00
                    CP:  4.44D-01  1.85D+00  3.00D+00  3.00D+00  1.25D+00
                    CP:  2.03D+00  3.00D+00  3.00D+00  2.28D+00  1.93D+00
                    CP:  1.37D+00  1.51D+00  1.41D+00
 E= -453.524518636488     Delta-E=       -0.000000000013 Rises=F Damp=F
 DIIS: error= 4.12D-08 at cycle  19 NSaved=  19.
 NSaved=19 IEnMin=19 EnMin= -453.524518636488     IErMin=19 ErrMin= 4.12D-08
 ErrMax= 4.12D-08  0.00D+00 EMaxC= 1.00D-01 BMatC= 9.34D-13 BMatP= 7.31D-12
 IDIUse=1 WtCom= 1.00D+00 WtEn= 0.00D+00
 Coeff-Com: -0.317D-06 0.258D-06 0.111D-05 0.657D-08 0.251D-05-0.174D-05
 Coeff-Com: -0.147D-04-0.111D-04 0.237D-04 0.657D-04 0.525D-03 0.123D-02
 Coeff-Com:  0.518D-03-0.393D-02-0.126D-01-0.210D-01 0.293D-01 0.245D+00
 Coeff-Com:  0.761D+00
 Coeff:     -0.317D-06 0.258D-06 0.111D-05 0.657D-08 0.251D-05-0.174D-05
 Coeff:     -0.147D-04-0.111D-04 0.237D-04 0.657D-04 0.525D-03 0.123D-02
 Coeff:      0.518D-03-0.393D-02-0.126D-01-0.210D-01 0.293D-01 0.245D+00
 Coeff:      0.761D+00
 Gap=     0.058 Goal=   None    Shift=    0.000
 RMSDP=3.97D-07 MaxDP=3.94D-05 DE=-1.25D-11 OVMax= 1.29D-06

 Cycle  20  Pass 1  IDiag  1:
 RMSU=  4.13D-08    CP:  2.60D+00  1.33D-02  3.00D+00  8.39D-02  1.44D+00
                    CP:  4.44D-01  1.85D+00  3.00D+00  3.00D+00  1.25D+00
                    CP:  2.03D+00  3.00D+00  3.00D+00  2.28D+00  1.94D+00
                    CP:  1.37D+00  1.58D+00  1.47D+00  1.14D+00
 E= -453.524518636486     Delta-E=        0.000000000002 Rises=F Damp=F
 DIIS: error= 1.01D-08 at cycle  20 NSaved=  20.
 NSaved=20 IEnMin=19 EnMin= -453.524518636488     IErMin=20 ErrMin= 1.01D-08
 ErrMax= 1.01D-08  0.00D+00 EMaxC= 1.00D-01 BMatC= 6.19D-14 BMatP= 9.34D-13
 IDIUse=1 WtCom= 1.00D+00 WtEn= 0.00D+00
 Coeff-Com:  0.511D-09-0.525D-07 0.103D-06-0.158D-07 0.123D-05 0.112D-05
 Coeff-Com:  0.485D-05 0.146D-05-0.178D-04-0.386D-04-0.121D-04 0.250D-03
 Coeff-Com:  0.623D-03 0.155D-03-0.178D-02-0.142D-01-0.148D-01 0.683D-01
 Coeff-Com:  0.371D+00 0.591D+00
 Coeff:      0.511D-09-0.525D-07 0.103D-06-0.158D-07 0.123D-05 0.112D-05
 Coeff:      0.485D-05 0.146D-05-0.178D-04-0.386D-04-0.121D-04 0.250D-03
 Coeff:      0.623D-03 0.155D-03-0.178D-02-0.142D-01-0.148D-01 0.683D-01
 Coeff:      0.371D+00 0.591D+00
 Gap=     0.058 Goal=   None    Shift=    0.000
 RMSDP=2.87D-08 MaxDP=1.57D-06 DE= 2.27D-12 OVMax= 1.73D-07

 Cycle  21  Pass 1  IDiag  1:
 Restarting incremental Fock formation.
 E= -453.524518636492     Delta-E=       -0.000000000006 Rises=F Damp=F
 DIIS: error= 3.09D-09 at cycle  21 NSaved=  20.
 NSaved=20 IEnMin=20 EnMin= -453.524518636492     IErMin=20 ErrMin= 3.09D-09
 ErrMax= 3.09D-09  0.00D+00 EMaxC= 1.00D-01 BMatC= 6.62D-15 BMatP= 6.19D-14
 IDIUse=1 WtCom= 1.00D+00 WtEn= 0.00D+00
 Coeff-Com:  0.437D-07-0.309D-07-0.914D-07 0.216D-06 0.536D-06 0.345D-05
 Coeff-Com:  0.210D-05-0.915D-05-0.206D-04-0.529D-04-0.224D-04 0.986D-04
 Coeff-Com:  0.356D-03 0.751D-03-0.345D-02-0.895D-02-0.315D-02 0.478D-01
 Coeff-Com:  0.254D+00 0.713D+00
 Coeff:      0.437D-07-0.309D-07-0.914D-07 0.216D-06 0.536D-06 0.345D-05
 Coeff:      0.210D-05-0.915D-05-0.206D-04-0.529D-04-0.224D-04 0.986D-04
 Coeff:      0.356D-03 0.751D-03-0.345D-02-0.895D-02-0.315D-02 0.478D-01
 Coeff:      0.254D+00 0.713D+00
 Gap=     0.058 Goal=   None    Shift=    0.000
 RMSDP=8.33D-08 MaxDP=7.89D-06 DE=-6.03D-12 OVMax= 2.22D-07

 Cycle  22  Pass 1  IDiag  1:
 RMSU=  5.74D-08    CP:  1.00D+00
 E= -453.524518636488     Delta-E=        0.000000000004 Rises=F Damp=F
 DIIS: error= 6.63D-10 at cycle  22 NSaved=  20.
 NSaved=20 IEnMin=19 EnMin= -453.524518636492     IErMin=20 ErrMin= 6.63D-10
 ErrMax= 6.63D-10  0.00D+00 EMaxC= 1.00D-01 BMatC= 2.34D-16 BMatP= 6.62D-15
 IDIUse=1 WtCom= 1.00D+00 WtEn= 0.00D+00
 Large coefficients: NSaved= 20 BigCof=    0.00 CofMax=   10.00 Det=-1.52D-15
 Inversion failed.  Reducing to 19 matrices.
 Large coefficients: NSaved= 19 BigCof=    0.00 CofMax=   10.00 Det=-1.65D-15
 Inversion failed.  Reducing to 18 matrices.
 Large coefficients: NSaved= 18 BigCof=    0.00 CofMax=   10.00 Det=-1.79D-15
 Inversion failed.  Reducing to 17 matrices.
 Large coefficients: NSaved= 17 BigCof=    0.00 CofMax=   10.00 Det=-2.58D-15
 Inversion failed.  Reducing to 16 matrices.
 Large coefficients: NSaved= 16 BigCof=    0.00 CofMax=   10.00 Det=-2.64D-15
 Inversion failed.  Reducing to 15 matrices.
 Coeff-Com:  0.553D-07 0.230D-06 0.127D-05 0.433D-05 0.657D-06-0.505D-04
 Coeff-Com: -0.369D-04 0.127D-03 0.621D-03 0.650D-03-0.477D-02-0.244D-01
 Coeff-Com: -0.154D-01 0.796D-01 0.964D+00
 Coeff:      0.553D-07 0.230D-06 0.127D-05 0.433D-05 0.657D-06-0.505D-04
 Coeff:     -0.369D-04 0.127D-03 0.621D-03 0.650D-03-0.477D-02-0.244D-01
 Coeff:     -0.154D-01 0.796D-01 0.964D+00
 Gap=     0.058 Goal=   None    Shift=    0.000
 RMSDP=2.02D-08 MaxDP=1.68D-06 DE= 4.21D-12 OVMax= 6.07D-08

 Cycle  23  Pass 1  IDiag  1:
 RMSU=  6.87D-09    CP:  1.00D+00  1.25D+00
 E= -453.524518636483     Delta-E=        0.000000000004 Rises=F Damp=F
 DIIS: error= 9.49D-11 at cycle  23 NSaved=  16.
 NSaved=16 IEnMin=14 EnMin= -453.524518636492     IErMin=16 ErrMin= 9.49D-11
 ErrMax= 9.49D-11  0.00D+00 EMaxC= 1.00D-01 BMatC= 3.98D-18 BMatP= 2.34D-16
 IDIUse=1 WtCom= 1.00D+00 WtEn= 0.00D+00
 Large coefficients: NSaved= 16 BigCof=    0.00 CofMax=   10.00 Det=-3.02D-17
 Inversion failed.  Reducing to 15 matrices.
 Coeff-Com:  0.167D-06 0.317D-06 0.236D-05 0.157D-05 0.323D-06-0.970D-05
 Coeff-Com: -0.227D-04 0.269D-04 0.771D-04-0.245D-03-0.193D-02-0.411D-02
 Coeff-Com: -0.139D-02 0.741D-01 0.933D+00
 Coeff:      0.167D-06 0.317D-06 0.236D-05 0.157D-05 0.323D-06-0.970D-05
 Coeff:     -0.227D-04 0.269D-04 0.771D-04-0.245D-03-0.193D-02-0.411D-02
 Coeff:     -0.139D-02 0.741D-01 0.933D+00
 Gap=     0.058 Goal=   None    Shift=    0.000
 RMSDP=3.87D-09 MaxDP=4.07D-07 DE= 4.43D-12 OVMax= 8.33D-09

 SCF Done:  E(RB3LYP) =  -453.524518636     A.U. after   23 cycles
            NFock= 23  Conv=0.39D-08     -V/T= 2.0033
 KE= 4.520148262276D+02 PE=-1.943755418807D+03 EE= 6.028316515419D+02
 Leave Link  502 at Wed Dec 21 17:58:02 2022, MaxMem=  8053063680 cpu:             442.3 elap:              13.9
 (Enter /public3/home/scg5914/software-scg5914/g16/l601.exe)
 Copying SCF densities to generalized density rwf, IOpCl= 0 IROHF=0.

 **********************************************************************

            Population analysis using the SCF Density.

 **********************************************************************

 Orbital symmetries:
       Occupied  (A) (A) (A) (A) (A) (A) (A) (A) (A) (A) (A) (A)
                 (A) (A) (A) (A) (A) (A) (A) (A) (A) (A) (A) (A)
                 (A) (A) (A) (A) (A) (A) (A) (A) (A)
       Virtual   (A) (A) (A) (A) (A) (A) (A) (A) (A) (A) (A) (A)
                 (A) (A) (A) (A) (A) (A) (A) (A) (A) (A) (A) (A)
                 (A) (A) (A) (A) (A) (A) (A) (A) (A) (A) (A) (A)
                 (A) (A) (A) (A) (A) (A) (A) (A) (A) (A) (A) (A)
                 (A) (A) (A) (A) (A) (A) (A) (A) (A) (A) (A) (A)
                 (A) (A) (A) (A) (A) (A) (A) (A) (A) (A) (A) (A)
                 (A) (A) (A) (A) (A) (A) (A) (A) (A) (A) (A) (A)
                 (A) (A) (A) (A) (A) (A) (A) (A) (A) (A) (A) (A)
                 (A) (A) (A) (A) (A) (A) (A) (A) (A) (A) (A) (A)
                 (A) (A) (A) (A) (A) (A) (A) (A) (A) (A) (A) (A)
                 (A) (A) (A) (A) (A) (A) (A) (A) (A) (A) (A) (A)
                 (A) (A) (A) (A) (A) (A) (A) (A) (A) (A) (A) (A)
                 (A) (A) (A) (A) (A) (A) (A) (A) (A) (A) (A) (A)
                 (A) (A) (A) (A) (A) (A) (A) (A) (A) (A) (A) (A)
                 (A) (A) (A) (A) (A) (A) (A) (A) (A) (A) (A) (A)
                 (A) (A) (A) (A) (A) (A) (A) (A) (A) (A) (A) (A)
                 (A) (A) (A)
 The electronic state is 1-A.
 Alpha  occ. eigenvalues --  -18.99120 -18.90046 -14.28946 -14.16337 -10.10756
 Alpha  occ. eigenvalues --  -10.08784 -10.03275 -10.00158  -9.97945  -0.92622
 Alpha  occ. eigenvalues --   -0.85651  -0.83402  -0.68647  -0.60614  -0.59073
 Alpha  occ. eigenvalues --   -0.49718  -0.45995  -0.40753  -0.38779  -0.34620
 Alpha  occ. eigenvalues --   -0.32178  -0.28981  -0.28562  -0.26889  -0.24432
 Alpha  occ. eigenvalues --   -0.23096  -0.18202  -0.17258  -0.15034  -0.11617
 Alpha  occ. eigenvalues --   -0.07811  -0.04572   0.01667
 Alpha virt. eigenvalues --    0.07470   0.11277   0.11731   0.13993   0.15804
 Alpha virt. eigenvalues --    0.17021   0.17677   0.18112   0.18430   0.19271
 Alpha virt. eigenvalues --    0.20434   0.21174   0.21553   0.22724   0.23276
 Alpha virt. eigenvalues --    0.23866   0.24673   0.25238   0.26130   0.26897
 Alpha virt. eigenvalues --    0.27296   0.28584   0.29615   0.29928   0.30926
 Alpha virt. eigenvalues --    0.32231   0.32386   0.32858   0.33785   0.34219
 Alpha virt. eigenvalues --    0.35651   0.36251   0.37076   0.37949   0.38624
 Alpha virt. eigenvalues --    0.39017   0.40976   0.41115   0.42619   0.43250
 Alpha virt. eigenvalues --    0.44241   0.44851   0.45460   0.46003   0.48026
 Alpha virt. eigenvalues --    0.49833   0.52571   0.53483   0.54883   0.58079
 Alpha virt. eigenvalues --    0.60438   0.61308   0.63790   0.64510   0.66033
 Alpha virt. eigenvalues --    0.66962   0.70263   0.72549   0.73087   0.75500
 Alpha virt. eigenvalues --    0.76321   0.77438   0.79310   0.80909   0.82233
 Alpha virt. eigenvalues --    0.83531   0.85291   0.85823   0.86788   0.88065
 Alpha virt. eigenvalues --    0.90966   0.94462   0.96219   1.00172   1.02339
 Alpha virt. eigenvalues --    1.03154   1.04118   1.07509   1.09521   1.10676
 Alpha virt. eigenvalues --    1.12101   1.15233   1.17315   1.19812   1.22685
 Alpha virt. eigenvalues --    1.25321   1.31822   1.34703   1.35642   1.36445
 Alpha virt. eigenvalues --    1.38123   1.40549   1.40873   1.43251   1.48517
 Alpha virt. eigenvalues --    1.50311   1.51104   1.55124   1.56178   1.60886
 Alpha virt. eigenvalues --    1.61676   1.65752   1.69181   1.70911   1.75388
 Alpha virt. eigenvalues --    1.77880   1.79953   1.82929   1.85858   1.87976
 Alpha virt. eigenvalues --    1.89863   1.91614   1.93551   1.93671   1.98039
 Alpha virt. eigenvalues --    2.00272   2.02125   2.05824   2.07652   2.09982
 Alpha virt. eigenvalues --    2.10905   2.15381   2.18333   2.21491   2.24535
 Alpha virt. eigenvalues --    2.27492   2.30269   2.32373   2.36588   2.40458
 Alpha virt. eigenvalues --    2.50004   2.50983   2.58585   2.60380   2.62574
 Alpha virt. eigenvalues --    2.68254   2.68944   2.72932   2.76994   2.80211
 Alpha virt. eigenvalues --    2.85169   2.86192   2.90566   2.92851   2.94487
 Alpha virt. eigenvalues --    2.99609   3.01590   3.03623   3.04340   3.06520
 Alpha virt. eigenvalues --    3.09423   3.10311   3.12750   3.17664   3.20707
 Alpha virt. eigenvalues --    3.22170   3.28701   3.29156   3.33294   3.34656
 Alpha virt. eigenvalues --    3.47864   3.49366   3.54564   3.58578   3.59165
 Alpha virt. eigenvalues --    3.61755   3.75184   3.80845   3.86483   3.92010
 Alpha virt. eigenvalues --    4.09766   4.11182   4.24882   4.37643   4.44597
 Alpha virt. eigenvalues --    4.52831   4.76155   4.79380   4.82820   4.88373
 Alpha virt. eigenvalues --    5.16536   5.25982   5.35587   5.56743   5.87423
 Alpha virt. eigenvalues --    6.06545  23.87011  23.98349  24.00437  24.17177
 Alpha virt. eigenvalues --   24.30161  35.60265  35.77520  50.07292  50.25664
          Condensed to atoms (all electrons):
               1          2          3          4          5          6
     1  O    8.288422   0.472818  -0.169482  -0.083281  -0.004670  -0.000100
     2  C    0.472818  13.039129  -0.324900  -8.520867   0.128421  -0.015945
     3  C   -0.169482  -0.324900  24.369600 -13.827199   0.578431   0.007939
     4  C   -0.083281  -8.520867 -13.827199  28.452609  -0.621166   0.024437
     5  N   -0.004670   0.128421   0.578431  -0.621166   6.797727   0.258150
     6  H   -0.000100  -0.015945   0.007939   0.024437   0.258150   0.515037
     7  H   -0.000078  -0.089134  -0.439552   0.502340   0.255246  -0.028536
     8  C    0.036556   0.536205   1.684369  -2.525498   0.031396  -0.098989
     9  C    0.020050   0.768970  -5.679669   2.078473  -0.002587   0.100295
    10  N    0.008584  -0.394923   0.898309   0.219918  -0.021124  -0.002298
    11  O   -0.108414   0.627148  -0.751511  -0.092651  -0.004233   0.000168
    12  H    0.000306  -0.062483  -0.320775   0.753966  -0.096151  -0.000868
    13  H    0.000082  -0.021538  -0.012944   0.050506  -0.061707  -0.001871
    14  H    0.000106   0.040656   0.019306  -0.084087  -0.014529  -0.005241
               7          8          9         10         11         12
     1  O   -0.000078   0.036556   0.020050   0.008584  -0.108414   0.000306
     2  C   -0.089134   0.536205   0.768970  -0.394923   0.627148  -0.062483
     3  C   -0.439552   1.684369  -5.679669   0.898309  -0.751511  -0.320775
     4  C    0.502340  -2.525498   2.078473   0.219918  -0.092651   0.753966
     5  N    0.255246   0.031396  -0.002587  -0.021124  -0.004233  -0.096151
     6  H   -0.028536  -0.098989   0.100295  -0.002298   0.000168  -0.000868
     7  H    0.530028  -0.001981   0.006354   0.000379  -0.000939   0.007566
     8  C   -0.001981   9.016231  -3.238743   0.067534   0.006976   0.029098
     9  C    0.006354  -3.238743  12.488089  -0.877984   0.220843   0.014120
    10  N    0.000379   0.067534  -0.877984   7.694054  -0.076845   0.002727
    11  O   -0.000939   0.006976   0.220843  -0.076845   8.150878  -0.001109
    12  H    0.007566   0.029098   0.014120   0.002727  -0.001109   0.587264
    13  H    0.008993   0.559952  -0.195992   0.001082  -0.000376   0.003307
    14  H   -0.018134   0.373124   0.004871   0.005533   0.001412  -0.001924
              13         14
     1  O    0.000082   0.000106
     2  C   -0.021538   0.040656
     3  C   -0.012944   0.019306
     4  C    0.050506  -0.084087
     5  N   -0.061707  -0.014529
     6  H   -0.001871  -0.005241
     7  H    0.008993  -0.018134
     8  C    0.559952   0.373124
     9  C   -0.195992   0.004871
    10  N    0.001082   0.005533
    11  O   -0.000376   0.001412
    12  H    0.003307  -0.001924
    13  H    0.557039  -0.041998
    14  H   -0.041998   0.569908
 Mulliken charges:
               1
     1  O   -0.460900
     2  C   -0.183556
     3  C   -0.031922
     4  C   -0.327498
     5  N   -0.223206
     6  H    0.247822
     7  H    0.267448
     8  C   -0.476230
     9  C    0.292910
    10  N   -0.524945
    11  O    0.028653
    12  H    0.084958
    13  H    0.155467
    14  H    0.151000
 Sum of Mulliken charges =  -1.00000
 Mulliken charges with hydrogens summed into heavy atoms:
               1
     1  O   -0.460900
     2  C   -0.183556
     3  C   -0.031922
     4  C   -0.242540
     5  N    0.292064
     8  C   -0.169763
     9  C    0.292910
    10  N   -0.524945
    11  O    0.028653
 Electronic spatial extent (au):  <R**2>=           1063.2805
 Charge=             -1.0000 electrons
 Dipole moment (field-independent basis, Debye):
    X=              9.6266    Y=              2.5255    Z=             -0.3592  Tot=              9.9589
 Quadrupole moment (field-independent basis, Debye-Ang):
   XX=            -65.0097   YY=            -81.5363   ZZ=            -55.3388
   XY=             -0.0225   XZ=             -3.2282   YZ=             -1.4568
 Traceless Quadrupole moment (field-independent basis, Debye-Ang):
   XX=              2.2853   YY=            -14.2413   ZZ=             11.9561
   XY=             -0.0225   XZ=             -3.2282   YZ=             -1.4568
 Octapole moment (field-independent basis, Debye-Ang**2):
  XXX=             67.0319  YYY=             24.0313  ZZZ=             -7.1241  XYY=              3.7288
  XXY=             13.9638  XXZ=             -5.1648  XZZ=             -0.3609  YZZ=              2.2758
  YYZ=              5.2220  XYZ=              0.1335
 Hexadecapole moment (field-independent basis, Debye-Ang**3):
 XXXX=           -946.3321 YYYY=           -645.0550 ZZZZ=            -97.1928 XXXY=            -57.0891
 XXXZ=            -23.7892 YYYX=             41.0793 YYYZ=            -18.6639 ZZZX=            -15.7537
 ZZZY=              1.5568 XXYY=           -276.2473 XXZZ=           -162.3336 YYZZ=           -105.1863
 XXYZ=             -1.1807 YYXZ=              0.9616 ZZXY=              3.3791
 N-N= 4.353844224013D+02 E-N=-1.943755418802D+03  KE= 4.520148262276D+02
 No NMR shielding tensors so no spin-rotation constants.
 Leave Link  601 at Wed Dec 21 17:58:03 2022, MaxMem=  8053063680 cpu:               2.8 elap:               0.1
 (Enter /public3/home/scg5914/software-scg5914/g16/l701.exe)
 ... and contract with generalized density number  0.
 Compute integral first derivatives.
 R6Disp: Adding Grimme-D3(BJ) dispersion energy 1st derivatives to the gradient.
 Leave Link  701 at Wed Dec 21 17:58:03 2022, MaxMem=  8053063680 cpu:               3.0 elap:               0.1
 (Enter /public3/home/scg5914/software-scg5914/g16/l702.exe)
 L702 exits ... SP integral derivatives will be done elsewhere.
 Leave Link  702 at Wed Dec 21 17:58:03 2022, MaxMem=  8053063680 cpu:               0.2 elap:               0.0
 (Enter /public3/home/scg5914/software-scg5914/g16/l703.exe)
 Integral derivatives from FoFJK, PRISM(SPDF).
 Compute integral first derivatives, UseDBF=F ICtDFT=           0.
 Calling FoFJK, ICntrl=      2127 FMM=F ISym2X=0 I1Cent= 0 IOpClX= 0 NMat=1 NMatS=1 NMatT=0.
 FoFJK:  IHMeth= 1 ICntrl=    2127 DoSepK=F KAlg= 0 I1Cent=           0 FoldK=F
 IRaf=         0 NMat=       1 IRICut=       1 DoRegI=T DoRafI=F ISym2E= 0 IDoP0=0 IntGTp=1.
 FoFCou: FMM=F IPFlag=           0 FMFlag=      100000 FMFlg1=         800
         NFxFlg=           0 DoJE=F BraDBF=F KetDBF=F FulRan=T
         wScrn=  0.000000 ICntrl=      2127 IOpCl=  0 I1Cent=           0 NGrid=           0
         NMat0=    1 NMatS0=      1 NMatT0=    0 NMatD0=    1 NMtDS0=    0 NMtDT0=    0
 Symmetry not used in FoFCou.
 Leave Link  703 at Wed Dec 21 17:58:04 2022, MaxMem=  8053063680 cpu:              48.0 elap:               1.5
 (Enter /public3/home/scg5914/software-scg5914/g16/l716.exe)
 Dipole        = 3.78741087D+00 9.93622476D-01-1.41300600D-01
 ***** Axes restored to original set *****
 -------------------------------------------------------------------
 Center     Atomic                   Forces (Hartrees/Bohr)
 Number     Number              X              Y              Z
 -------------------------------------------------------------------
      1        8           0.008157504   -0.025513394   -0.000541384
      2        6          -0.016551924    0.031308635    0.001589858
      3        6          -0.007436434    0.005644891   -0.004228066
      4        6          -0.023997349   -0.015655546    0.011237889
      5        7           0.011282964   -0.005278232   -0.008976106
      6        1           0.002574235   -0.003324036   -0.000602270
      7        1           0.001118484    0.000163958   -0.000832015
      8        6          -0.003328153    0.006295840    0.006636081
      9        6          -0.006850155   -0.002812942    0.000329793
     10        7           0.014796036    0.010305809    0.002592580
     11        8           0.012096945   -0.006039246   -0.001567935
     12        1           0.003869279    0.003593855   -0.002436770
     13        1           0.000924639   -0.000226249   -0.002843100
     14        1           0.003343928    0.001536659   -0.000358554
 -------------------------------------------------------------------
 Cartesian Forces:  Max     0.031308635 RMS     0.009766129
 Leave Link  716 at Wed Dec 21 17:58:04 2022, MaxMem=  8053063680 cpu:               0.5 elap:               0.0
 (Enter /public3/home/scg5914/software-scg5914/g16/l103.exe)

 GradGradGradGradGradGradGradGradGradGradGradGradGradGradGradGradGradGrad
 Berny optimization.
 FormGI is forming the generalized inverse of G from B-inverse, IUseBI=4.
 Internal  Forces:  Max     0.026279656 RMS     0.005328957
 Search for a local minimum.
 Step number   1 out of a maximum of   89
 All quantities printed in internal units (Hartrees-Bohrs-Radians)
 RMS Force = .53290D-02 SwitMx=.10000D-02 MixMth= 1
 Mixed Optimization -- RFO/linear search
 Second derivative matrix not updated -- first step.
 ITU=  0
     Eigenvalues ---    0.00505   0.01312   0.01380   0.01556   0.01692
     Eigenvalues ---    0.01865   0.03460   0.03751   0.05146   0.05884
     Eigenvalues ---    0.06557   0.06976   0.07150   0.08432   0.08514
     Eigenvalues ---    0.11015   0.21800   0.23421   0.24791   0.24986
     Eigenvalues ---    0.25000   0.25794   0.27761   0.31693   0.33310
     Eigenvalues ---    0.34232   0.34623   0.34715   0.38291   0.39847
     Eigenvalues ---    0.42274   0.43403   0.43961   0.44337   0.63287
     Eigenvalues ---    0.99055
 RFO step:  Lambda=-7.98597062D-03 EMin= 5.05277171D-03
 Linear search not attempted -- first point.
 Iteration  1 RMS(Cart)=  0.02812117 RMS(Int)=  0.00124385
 Iteration  2 RMS(Cart)=  0.00124010 RMS(Int)=  0.00080129
 Iteration  3 RMS(Cart)=  0.00000108 RMS(Int)=  0.00080129
 Iteration  4 RMS(Cart)=  0.00000000 RMS(Int)=  0.00080129
 ITry= 1 IFail=0 DXMaxC= 8.55D-02 DCOld= 1.00D+10 DXMaxT= 3.00D-01 DXLimC= 3.00D+00 Rises=F
 Variable       Old X    -DE/DX   Delta X   Delta X   Delta X     New X
                                 (Linear)    (Quad)   (Total)
    R1        2.29019   0.02628   0.00000   0.02632   0.02632   2.31651
    R2        2.68934  -0.00013   0.00000  -0.00110  -0.00099   2.68834
    R3        2.68950   0.00795   0.00000   0.01674   0.01683   2.70633
    R4        2.77553   0.00696   0.00000   0.02290   0.02312   2.79865
    R5        2.63720   0.00594   0.00000   0.01551   0.01508   2.65228
    R6        2.95793  -0.00271   0.00000  -0.01090  -0.01039   2.94754
    R7        2.08511   0.00029   0.00000   0.00086   0.00086   2.08597
    R8        1.93201  -0.00337   0.00000  -0.00754  -0.00754   1.92448
    R9        1.92753  -0.00080   0.00000  -0.00178  -0.00178   1.92575
   R10        2.90560   0.00184   0.00000   0.00300   0.00315   2.90874
   R11        2.82530  -0.00335   0.00000  -0.01252  -0.01305   2.81225
   R12        2.06940   0.00224   0.00000   0.00640   0.00640   2.07580
   R13        2.06291   0.00138   0.00000   0.00390   0.00390   2.06681
   R14        2.46244   0.01576   0.00000   0.02458   0.02445   2.48688
   R15        2.68104   0.00430   0.00000   0.00955   0.00952   2.69056
    A1        2.37092   0.00114   0.00000   0.00594   0.00563   2.37654
    A2        2.11163  -0.01039   0.00000  -0.03875  -0.03902   2.07261
    A3        1.80063   0.00925   0.00000   0.03263   0.03245   1.83308
    A4        2.47637  -0.00217   0.00000  -0.01552  -0.01547   2.46090
    A5        1.84496  -0.00753   0.00000  -0.03355  -0.03359   1.81137
    A6        1.95960   0.00967   0.00000   0.04885   0.04882   2.00842
    A7        1.73548  -0.01386   0.00000  -0.05862  -0.05986   1.67562
    A8        2.05718  -0.00067   0.00000  -0.05638  -0.05954   1.99764
    A9        1.81863   0.00177   0.00000  -0.03289  -0.03715   1.78149
   A10        1.97440  -0.00680   0.00000  -0.03305  -0.03348   1.94091
   A11        1.87209  -0.00265   0.00000  -0.01163  -0.01188   1.86022
   A12        1.87072   0.01390   0.00000   0.07016   0.07063   1.94135
   A13        1.89517   0.00256   0.00000  -0.00014  -0.00057   1.89460
   A14        1.96334  -0.00294   0.00000  -0.00788  -0.00798   1.95536
   A15        1.88410  -0.00410   0.00000  -0.01747  -0.01740   1.86670
   A16        1.73835  -0.00443   0.00000  -0.02275  -0.02307   1.71528
   A17        1.86149   0.00037   0.00000   0.00621   0.00569   1.86718
   A18        1.90188   0.00521   0.00000   0.03802   0.03813   1.94002
   A19        1.99731   0.00032   0.00000  -0.01739  -0.01743   1.97988
   A20        2.03630  -0.00068   0.00000  -0.00556  -0.00520   2.03109
   A21        1.91093  -0.00052   0.00000   0.00484   0.00431   1.91524
   A22        1.94370  -0.00333   0.00000  -0.01116  -0.01187   1.93183
   A23        2.02551   0.00572   0.00000   0.02642   0.02651   2.05202
   A24        2.31136  -0.00240   0.00000  -0.01404  -0.01357   2.29779
   A25        1.79117  -0.00450   0.00000  -0.01228  -0.01266   1.77851
   A26        1.96170  -0.00298   0.00000  -0.01452  -0.01461   1.94709
    D1        0.06847   0.00120   0.00000   0.03860   0.03888   0.10735
    D2        3.12613   0.00098   0.00000   0.03646   0.03675  -3.12031
    D3       -3.07829   0.00029   0.00000  -0.00565  -0.00581  -3.08410
    D4       -0.02063   0.00007   0.00000  -0.00778  -0.00794  -0.02857
    D5       -3.10906   0.00008   0.00000  -0.00984  -0.00911  -3.11817
    D6        0.03673   0.00079   0.00000   0.02599   0.02606   0.06280
    D7        2.72049   0.00360   0.00000   0.05152   0.05011   2.77060
    D8       -1.61379  -0.00334   0.00000  -0.04697  -0.04539  -1.65917
    D9       -0.33378   0.00437   0.00000   0.05632   0.05509  -0.27869
   D10        1.61513  -0.00257   0.00000  -0.04217  -0.04041   1.57472
   D11       -3.07587  -0.00068   0.00000  -0.02940  -0.02951  -3.10538
   D12       -0.00219  -0.00096   0.00000  -0.01441  -0.01439  -0.01657
   D13        0.00977  -0.00120   0.00000  -0.03305  -0.03333  -0.02355
   D14        3.08346  -0.00148   0.00000  -0.01806  -0.01820   3.06526
   D15        2.70868  -0.00142   0.00000  -0.02752  -0.02675   2.68193
   D16       -1.48516  -0.00410   0.00000  -0.05535  -0.05416  -1.53932
   D17        0.53447  -0.00328   0.00000  -0.04666  -0.04506   0.48941
   D18        0.57831   0.00426   0.00000   0.06924   0.06807   0.64638
   D19        2.66765   0.00158   0.00000   0.04141   0.04067   2.70832
   D20       -1.59590   0.00240   0.00000   0.05010   0.04976  -1.54614
   D21       -0.52722  -0.00095   0.00000   0.01474   0.01488  -0.51234
   D22        1.55401  -0.00240   0.00000  -0.01218  -0.01224   1.54177
   D23       -2.66789  -0.00008   0.00000   0.01681   0.01713  -2.65076
   D24       -2.70813  -0.00037   0.00000   0.01139   0.01133  -2.69680
   D25       -0.62690  -0.00182   0.00000  -0.01553  -0.01578  -0.64269
   D26        1.43438   0.00049   0.00000   0.01346   0.01358   1.44796
   D27        1.48443   0.00096   0.00000   0.02795   0.02798   1.51241
   D28       -2.71753  -0.00049   0.00000   0.00103   0.00087  -2.71666
   D29       -0.65624   0.00182   0.00000   0.03002   0.03023  -0.62601
   D30        0.32552  -0.00255   0.00000  -0.00696  -0.00730   0.31822
   D31       -2.73338  -0.00262   0.00000  -0.02736  -0.02736  -2.76074
   D32       -1.65260  -0.00058   0.00000   0.00535   0.00506  -1.64753
   D33        1.57168  -0.00065   0.00000  -0.01505  -0.01499   1.55669
   D34        2.36746   0.00055   0.00000   0.02157   0.02129   2.38875
   D35       -0.69144   0.00047   0.00000   0.00117   0.00123  -0.69021
   D36        0.02390   0.00132   0.00000   0.02906   0.02913   0.05303
   D37        3.07977   0.00104   0.00000   0.04872   0.04874   3.12851
   D38       -0.03772  -0.00100   0.00000  -0.03284  -0.03208  -0.06980
         Item               Value     Threshold  Converged?
 Maximum Force            0.026280     0.000450     NO 
 RMS     Force            0.005329     0.000300     NO 
 Maximum Displacement     0.085486     0.001800     NO 
 RMS     Displacement     0.028349     0.001200     NO 
 Predicted change in Energy=-4.167733D-03
 Lowest energy point so far.  Saving SCF results.
 GradGradGradGradGradGradGradGradGradGradGradGradGradGradGradGradGradGrad

 Leave Link  103 at Wed Dec 21 17:58:04 2022, MaxMem=  8053063680 cpu:               1.0 elap:               0.1
 (Enter /public3/home/scg5914/software-scg5914/g16/l202.exe)
                          Input orientation:                          
 ---------------------------------------------------------------------
 Center     Atomic      Atomic             Coordinates (Angstroms)
 Number     Number       Type             X           Y           Z
 ---------------------------------------------------------------------
      1          8           0        0.088607    0.052984    0.028585
      2          6           0       -0.082345    1.266765    0.043047
      3          6           0       -1.199695    2.146295    0.000930
      4          6           0       -2.680407    2.127801    0.022198
      5          7           0       -2.855339    3.604806    0.492031
      6          1           0       -3.749388    3.985049    0.186732
      7          1           0       -2.840379    3.589622    1.510870
      8          6           0       -1.671468    4.477857    0.038716
      9          6           0       -0.620379    3.424410    0.027303
     10          7           0        0.691656    3.497138    0.099000
     11          8           0        1.064880    2.123968    0.051353
     12          1           0       -3.152036    2.145573   -0.975663
     13          1           0       -1.918594    4.859367   -0.961286
     14          1           0       -1.512954    5.314922    0.724572
 ---------------------------------------------------------------------
                    Distance matrix (angstroms):
                    1          2          3          4          5
     1  O    0.000000
     2  C    1.225846   0.000000
     3  C    2.458137   1.422609   0.000000
     4  C    3.460107   2.737105   1.480980   0.000000
     5  N    4.636491   3.654794   2.260442   1.559772   0.000000
     6  H    5.496940   4.566938   3.149044   2.149224   1.018388
     7  H    4.825343   3.893189   2.656117   2.092524   1.019063
     8  C    4.762086   3.582798   2.379113   2.557537   1.539241
     9  C    3.445167   2.223771   1.403524   2.434119   2.289883
    10  N    3.497259   2.361518   2.326285   3.640300   3.570327
    11  O    2.289673   1.432128   2.265246   3.745402   4.213692
    12  H    3.986127   3.351579   2.182973   1.103847   2.090818
    13  H    5.301888   4.157798   2.967059   3.001508   2.136245
    14  H    5.544130   4.347262   3.265269   3.466123   2.186451
                    6          7          8          9         10
     6  H    0.000000
     7  H    1.654087   0.000000
     8  C    2.140682   2.079075   0.000000
     9  C    3.182834   2.675195   1.488176   0.000000
    10  N    4.468626   3.804891   2.559257   1.316003   0.000000
    11  O    5.163248   4.419206   3.609509   2.128808   1.423784
    12  H    2.256472   2.892276   2.942889   3.008431   4.213739
    13  H    2.331133   2.928053   1.098465   2.172965   3.129421
    14  H    2.656966   2.314515   1.093710   2.203839   2.925061
                   11         12         13         14
    11  O    0.000000
    12  H    4.340232   0.000000
    13  H    4.172405   2.980984   0.000000
    14  H    4.156998   3.952488   1.792816   0.000000
 Stoichiometry    C5H5N2O2(1-)
 Framework group  C1[X(C5H5N2O2)]
 Deg. of freedom    36
 Full point group                 C1      NOp   1
 RotChk:  IX=0 Diff= 1.61D-02
 Largest Abelian subgroup         C1      NOp   1
 Largest concise Abelian subgroup C1      NOp   1
                         Standard orientation:                         
 ---------------------------------------------------------------------
 Center     Atomic      Atomic             Coordinates (Angstroms)
 Number     Number       Type             X           Y           Z
 ---------------------------------------------------------------------
      1          8           0       -2.413450   -1.217276   -0.054954
      2          6           0       -1.468708   -0.436873   -0.021343
      3          6           0       -0.054172   -0.542037    0.087490
      4          6           0        1.026043   -1.554843    0.113204
      5          7           0        2.172698   -0.580975   -0.298683
      6          1           0        3.073640   -0.904994    0.048347
      7          1           0        2.199716   -0.577822   -1.317383
      8          6           0        1.866782    0.860324    0.146669
      9          6           0        0.381350    0.792205    0.087337
     10          7           0       -0.533549    1.731592   -0.023911
     11          8           0       -1.736411    0.969931   -0.036467
     12          1           0        1.338447   -1.864179    1.125722
     13          1           0        2.258707    0.970904    1.166861
     14          1           0        2.346553    1.587876   -0.514156
 ---------------------------------------------------------------------
 Rotational constants (GHZ):           3.3371274           1.5497892           1.0883165
 Leave Link  202 at Wed Dec 21 17:58:04 2022, MaxMem=  8053063680 cpu:               0.4 elap:               0.0
 (Enter /public3/home/scg5914/software-scg5914/g16/l301.exe)
 Standard basis: 6-311+G(d,p) (5D, 7F)
 Ernie: Thresh=  0.10000D-02 Tol=  0.10000D-05 Strict=F.
 There are   237 symmetry adapted cartesian basis functions of A   symmetry.
 There are   228 symmetry adapted basis functions of A   symmetry.
   228 basis functions,   364 primitive gaussians,   237 cartesian basis functions
    33 alpha electrons       33 beta electrons
       nuclear repulsion energy       434.6368564657 Hartrees.
 IExCor=  402 DFT=T Ex+Corr=B3LYP ExCW=0 ScaHFX=  0.200000
 ScaDFX=  0.800000  0.720000  1.000000  0.810000 ScalE2=  1.000000  1.000000
 IRadAn=      5 IRanWt=     -1 IRanGd=            0 ICorTp=0 IEmpDi=141
 NAtoms=   14 NActive=   14 NUniq=   14 SFac= 1.00D+00 NAtFMM=   60 NAOKFM=F Big=F
 Integral buffers will be    131072 words long.
 Raffenetti 2 integral format.
 Two-electron integral symmetry is turned on.
 R6Disp:  Grimme-D3(BJ) Dispersion energy=       -0.0242930618 Hartrees.
 Nuclear repulsion after empirical dispersion term =      434.6125634039 Hartrees.
 Leave Link  301 at Wed Dec 21 17:58:04 2022, MaxMem=  8053063680 cpu:               0.9 elap:               0.0
 (Enter /public3/home/scg5914/software-scg5914/g16/l302.exe)
 NPDir=0 NMtPBC=     1 NCelOv=     1 NCel=       1 NClECP=     1 NCelD=      1
         NCelK=      1 NCelE2=     1 NClLst=     1 CellRange=     0.0.
 One-electron integrals computed using PRISM.
 One-electron integral symmetry used in STVInt
 NBasis=   228 RedAO= T EigKep=  7.19D-06  NBF=   228
 NBsUse=   228 1.00D-06 EigRej= -1.00D+00 NBFU=   228
 Precomputing XC quadrature grid using
 IXCGrd= 4 IRadAn=           5 IRanWt=          -1 IRanGd=           0 AccXCQ= 0.00D+00.
 Generated NRdTot=       0 NPtTot=           0 NUsed=           0 NTot=          32
 NSgBfM=   237   237   237   237   237 MxSgAt=    14 MxSgA2=    14.
 Leave Link  302 at Wed Dec 21 17:58:05 2022, MaxMem=  8053063680 cpu:               6.3 elap:               0.2
 (Enter /public3/home/scg5914/software-scg5914/g16/l303.exe)
 DipDrv:  MaxL=1.
 Leave Link  303 at Wed Dec 21 17:58:05 2022, MaxMem=  8053063680 cpu:               0.5 elap:               0.0
 (Enter /public3/home/scg5914/software-scg5914/g16/l401.exe)
 Initial guess from the checkpoint file:  "dsgdb9nsd_131200-4.chk"
 B after Tr=     0.000000    0.000000    0.000000
         Rot=    0.999996   -0.001126    0.000066   -0.002775 Ang=  -0.34 deg.
 Guess basis will be translated and rotated to current coordinates.
 JPrj=2 DoOrth=T DoCkMO=T.
 Generating alternative initial guess.
 ExpMin= 4.38D-02 ExpMax= 8.59D+03 ExpMxC= 1.30D+03 IAcc=3 IRadAn=         5 AccDes= 0.00D+00
 Harris functional with IExCor=  402 and IRadAn=       5 diagonalized for initial guess.
 HarFok:  IExCor=  402 AccDes= 0.00D+00 IRadAn=         5 IDoV= 1 UseB2=F ITyADJ=14
 ICtDFT=  3500011 ScaDFX=  1.000000  1.000000  1.000000  1.000000
 FoFCou: FMM=F IPFlag=           0 FMFlag=      100000 FMFlg1=           0
         NFxFlg=           0 DoJE=T BraDBF=F KetDBF=T FulRan=T
         wScrn=  0.000000 ICntrl=       500 IOpCl=  0 I1Cent=   200000004 NGrid=           0
         NMat0=    1 NMatS0=      1 NMatT0=    0 NMatD0=    1 NMtDS0=    0 NMtDT0=    0
 Petite list used in FoFCou.
 Harris En= -453.708270474711    
 Leave Link  401 at Wed Dec 21 17:58:05 2022, MaxMem=  8053063680 cpu:              16.2 elap:               0.5
 (Enter /public3/home/scg5914/software-scg5914/g16/l502.exe)
 Integral symmetry usage will be decided dynamically.
 Closed shell SCF:
 Using DIIS extrapolation, IDIIS=  1040.
 NGot=  8053063680 LenX=  8052941112 LenY=  8052884502
 Requested convergence on RMS density matrix=1.00D-08 within 128 cycles.
 Requested convergence on MAX density matrix=1.00D-06.
 Requested convergence on             energy=1.00D-06.
 No special actions if energy rises.
 Fock matrices will be formed incrementally for  20 cycles.

 Cycle   1  Pass 1  IDiag  1:
 FoFJK:  IHMeth= 1 ICntrl=       0 DoSepK=F KAlg= 0 I1Cent=           0 FoldK=F
 IRaf= 950000000 NMat=       1 IRICut=       1 DoRegI=T DoRafI=F ISym2E= 0 IDoP0=0 IntGTp=1.
 FoFCou: FMM=F IPFlag=           0 FMFlag=      100000 FMFlg1=           0
         NFxFlg=           0 DoJE=F BraDBF=F KetDBF=F FulRan=T
         wScrn=  0.000000 ICntrl=         0 IOpCl=  0 I1Cent=           0 NGrid=           0
         NMat0=    1 NMatS0=      1 NMatT0=    0 NMatD0=    1 NMtDS0=    0 NMtDT0=    0
 Symmetry not used in FoFCou.
 E= -453.522203806370    
 DIIS: error= 4.12D-03 at cycle   1 NSaved=   1.
 NSaved= 1 IEnMin= 1 EnMin= -453.522203806370     IErMin= 1 ErrMin= 4.12D-03
 ErrMax= 4.12D-03  0.00D+00 EMaxC= 1.00D-01 BMatC= 4.34D-03 BMatP= 4.34D-03
 IDIUse=3 WtCom= 9.59D-01 WtEn= 4.12D-02
 Coeff-Com:  0.100D+01
 Coeff-En:   0.100D+01
 Coeff:      0.100D+01
 Gap=     0.343 Goal=   None    Shift=    0.000
 GapD=    0.343 DampG=1.000 DampE=1.000 DampFc=1.0000 IDamp=-1.
 RMSDP=3.10D-02 MaxDP=3.08D+00              OVMax= 4.86D-02

 Cycle   2  Pass 1  IDiag  1:
 RMSU=  1.31D-02    CP:  7.18D-01
 E= -453.527557867652     Delta-E=       -0.005354061282 Rises=F Damp=F
 DIIS: error= 1.42D-03 at cycle   2 NSaved=   2.
 NSaved= 2 IEnMin= 2 EnMin= -453.527557867652     IErMin= 2 ErrMin= 1.42D-03
 ErrMax= 1.42D-03  0.00D+00 EMaxC= 1.00D-01 BMatC= 9.28D-04 BMatP= 4.34D-03
 IDIUse=3 WtCom= 9.86D-01 WtEn= 1.42D-02
 Coeff-Com:  0.212D+00 0.788D+00
 Coeff-En:   0.000D+00 0.100D+01
 Coeff:      0.209D+00 0.791D+00
 Gap=     0.071 Goal=   None    Shift=    0.000
 RMSDP=1.26D-02 MaxDP=1.52D+00 DE=-5.35D-03 OVMax= 2.53D-02

 Cycle   3  Pass 1  IDiag  1:
 RMSU=  3.90D-03    CP:  5.99D-01  1.08D+00
 E= -453.527123590796     Delta-E=        0.000434276855 Rises=F Damp=F
 DIIS: error= 2.11D-03 at cycle   3 NSaved=   3.
 NSaved= 3 IEnMin= 2 EnMin= -453.527557867652     IErMin= 2 ErrMin= 1.42D-03
 ErrMax= 2.11D-03  0.00D+00 EMaxC= 1.00D-01 BMatC= 1.45D-03 BMatP= 9.28D-04
 IDIUse=3 WtCom= 1.79D-01 WtEn= 8.21D-01
 Coeff-Com: -0.112D-01 0.562D+00 0.449D+00
 Coeff-En:   0.000D+00 0.582D+00 0.418D+00
 Coeff:     -0.200D-02 0.578D+00 0.424D+00
 Gap=     0.067 Goal=   None    Shift=    0.000
 RMSDP=3.42D-03 MaxDP=3.87D-01 DE= 4.34D-04 OVMax= 1.57D-02

 Cycle   4  Pass 1  IDiag  1:
 RMSU=  1.32D-03    CP:  6.28D-01  1.13D+00  7.19D-01
 E= -453.528363554275     Delta-E=       -0.001239963478 Rises=F Damp=F
 DIIS: error= 5.75D-04 at cycle   4 NSaved=   4.
 NSaved= 4 IEnMin= 4 EnMin= -453.528363554275     IErMin= 4 ErrMin= 5.75D-04
 ErrMax= 5.75D-04  0.00D+00 EMaxC= 1.00D-01 BMatC= 7.92D-05 BMatP= 9.28D-04
 IDIUse=3 WtCom= 9.94D-01 WtEn= 5.75D-03
 Coeff-Com: -0.176D-01 0.333D+00 0.279D+00 0.405D+00
 Coeff-En:   0.000D+00 0.000D+00 0.000D+00 0.100D+01
 Coeff:     -0.175D-01 0.331D+00 0.278D+00 0.409D+00
 Gap=     0.066 Goal=   None    Shift=    0.000
 RMSDP=9.58D-04 MaxDP=1.11D-01 DE=-1.24D-03 OVMax= 4.39D-03

 Cycle   5  Pass 1  IDiag  1:
 RMSU=  3.72D-04    CP:  6.36D-01  1.12D+00  6.29D-01  1.03D+00
 E= -453.528433049438     Delta-E=       -0.000069495163 Rises=F Damp=F
 DIIS: error= 1.49D-04 at cycle   5 NSaved=   5.
 NSaved= 5 IEnMin= 5 EnMin= -453.528433049438     IErMin= 5 ErrMin= 1.49D-04
 ErrMax= 1.49D-04  0.00D+00 EMaxC= 1.00D-01 BMatC= 5.76D-06 BMatP= 7.92D-05
[...]
 227. BD*(   2) C   9 - N  10        /222. BD*(   1) N   5 - C   8            0.80    0.17    0.020
 227. BD*(   2) C   9 - N  10        /224. BD*(   1) C   8 - H  13            4.09    0.30    0.062
 227. BD*(   2) C   9 - N  10        /225. BD*(   1) C   8 - H  14            2.04    0.31    0.045


 Natural Bond Orbitals (Summary):

                                                            Principal Delocalizations
           NBO                        Occupancy    Energy   (geminal,vicinal,remote)
 ====================================================================================
 Molecular unit  1  (C5H5N2O2)
     1. BD (   1) O   1 - C   2          1.99400    -0.84838  213(g),51(g),228(v)
     2. BD (   1) C   2 - C   3          1.97345    -0.50672  223(v),216(g),217(g),212(g)
                                                    148(v),34(v),146(v)
     3. BD (   2) C   2 - C   3          1.61930    -0.06170  227(v),214(g),219(v),147(v)
                                                    218(v),85(v),35(v)
     4. BD (   1) C   2 - O  11          1.98970    -0.63463  216(v),165(v),223(r)
     5. BD (   1) C   3 - C   4          1.97278    -0.45724  213(g),217(g),226(v),220(v)
                                                    103(v),51(v),60(v),57(v)
                                                    215(v),62(v)
     6. BD (   1) C   3 - C   9          1.95606    -0.50285  212(v),226(g),216(g),223(g)
                                                    213(g),164(v),218(v),228(v)
                                                    225(v),215(v),222(v),54(v)
                                                    86(v),159(g)
     7. BD (   1) C   4 - N   5          1.98280    -0.52093  213(v),225(v),221(g),220(g)
                                                    223(v),119(v)
     8. BD (   1) C   4 - H  12          1.96487    -0.31600  214(v),221(v),218(g),213(v)
                                                    69(v),68(v)
     9. BD (   1) N   5 - H   6          1.99214    -0.56317  223(v),88(v),132(v)
    10. BD (   1) N   5 - H   7          1.98854    -0.54950  224(v),130(v),219(v),85(v)
    11. BD (   1) N   5 - C   8          1.99069    -0.59561  226(v),87(v),227(v),149(v)
                                                    86(v)
    12. BD (   1) C   8 - C   9          1.97857    -0.51507  226(g),220(v),228(v),213(v)
                                                    217(g),70(v),225(g),224(g)
    13. BD (   1) C   8 - H  13          1.97738    -0.41412  227(v),221(v),150(v),226(v)
                                                    223(g)
    14. BD (   1) C   8 - H  14          1.98364    -0.42442  218(v),227(v),217(v),150(v)
    15. BD (   1) C   9 - N  10          1.98908    -0.69514  217(g),216(v),223(g),70(v)
                                                    146(g),185(v),180(v)
    16. BD (   2) C   9 - N  10          1.95613    -0.14739  214(v),224(v),181(v),225(v)
                                                    222(v)
    17. BD (   1) N  10 - O  11          1.97638    -0.59010  223(v),55(v),212(v),149(v)
                                                    151(v),217(v)
    18. CR (   1) O   1                  1.99974   -18.64200  51(v),213(v),52(v)
    19. CR (   1) C   2                  1.99908    -9.96919  216(v),213(g),70(v),215(g)
    20. CR (   1) C   3                  1.99874    -9.83915  149(v),212(v),217(g),51(v)
                                                    55(v),223(v),87(v),226(v)
    21. CR (   1) C   4                  1.99928    -9.88731  213(v),218(g),197(v)
    22. CR (   1) N   5                  1.99953   -14.11410  124(v),86(v),121(v)
    23. CR (   1) C   8                  1.99918    -9.97361  226(v),148(v),152(v),222(g)
    24. CR (   1) C   9                  1.99897    -9.89382  217(g),69(v),165(v),216(v)
                                                    131(v),73(v)
    25. CR (   1) N  10                  1.99930   -13.99111  146(v),228(g),223(v),148(v)
                                                    151(v),217(v)
    26. CR (   1) O  11                  1.99978   -18.80895  52(v),54(v),55(v)
    27. LP (   1) O   1                  1.97881    -0.49685  51(v),213(v),52(v),215(v)
                                                    64(v)
    28. LP (   2) O   1                  1.82953    -0.05757  215(v),213(v),52(v),54(v)
                                                    57(v),49(g)
    29. LP (   3) O   1                  1.61450    -0.05339  214(v),53(v),66(v),35(g)
    30. LP (   1) C   4                  1.87787    -0.06626  222(v),214(v),217(v),221(v)
                                                    102(v),198(v),71(v)
    31. LP (   1) N  10                  1.95950    -0.27255  146(v),217(v),215(v),155(v)
    32. LP (   1) O  11                  1.98077    -0.44387  226(v),213(v),52(v),164(v)
                                                    54(v)
    33. LP (   2) O  11                  1.79477    -0.13328  214(v),227(v),56(v),163(v)
                                                    166(v),58(v)
    34. RY*(   1) O   1                  0.00288     0.85043   
    35. RY*(   2) O   1                  0.00221     0.81412   
    36. RY*(   3) O   1                  0.00066     1.68428   
    37. RY*(   4) O   1                  0.00019     1.28691   
    38. RY*(   5) O   1                  0.00014     1.72564   
    39. RY*(   6) O   1                  0.00004     1.22991   
    40. RY*(   7) O   1                  0.00004     1.34690   
    41. RY*(   8) O   1                  0.00005     4.19564   
    42. RY*(   9) O   1                  0.00000     5.00611   
    43. RY*(  10) O   1                  0.00001     4.86255   
    44. RY*(  11) O   1                  0.00001     1.01744   
    45. RY*(  12) O   1                  0.00000     5.13908   
    46. RY*(  13) O   1                  0.00000    49.74157   
    47. RY*(  14) O   1                  0.00000     3.13710   
    48. RY*(  15) O   1                  0.00000     3.00588   
    49. RY*(  16) O   1                  0.00000     3.25346   
    50. RY*(  17) O   1                  0.00000     3.19228   
    51. RY*(   1) C   2                  0.01551     1.17600   
    52. RY*(   2) C   2                  0.01065     1.59937   
    53. RY*(   3) C   2                  0.00651     1.71042   
    54. RY*(   4) C   2                  0.00503     1.72708   
    55. RY*(   5) C   2                  0.00343     1.34740   
    56. RY*(   6) C   2                  0.00217     1.53614   
    57. RY*(   7) C   2                  0.00114     2.82872   
    58. RY*(   8) C   2                  0.00052     0.76883   
    59. RY*(   9) C   2                  0.00018     2.26738   
    60. RY*(  10) C   2                  0.00012     4.10541   
    61. RY*(  11) C   2                  0.00006     2.02741   
    62. RY*(  12) C   2                  0.00004     5.75986   
    63. RY*(  13) C   2                  0.00001    11.48968   
    64. RY*(  14) C   2                  0.00000     2.65222   
    65. RY*(  15) C   2                  0.00001     3.53961   
    66. RY*(  16) C   2                  0.00000     0.87076   
    67. RY*(  17) C   2                  0.00000     2.71806   
    68. RY*(   1) C   3                  0.00641     0.90542   
    69. RY*(   2) C   3                  0.00402     0.91640   
    70. RY*(   3) C   3                  0.00309     1.60115   
    71. RY*(   4) C   3                  0.00239     1.13363   
    72. RY*(   5) C   3                  0.00219     1.11219   
    73. RY*(   6) C   3                  0.00125     1.07716   
    74. RY*(   7) C   3                  0.00080     1.55971   
    75. RY*(   8) C   3                  0.00063     1.00607   
    76. RY*(   9) C   3                  0.00022     1.89393   
    77. RY*(  10) C   3                  0.00014     1.92949   
    78. RY*(  11) C   3                  0.00011     3.57296   
    79. RY*(  12) C   3                  0.00006     2.86578   
    80. RY*(  13) C   3                  0.00005     2.48804   
    81. RY*(  14) C   3                  0.00002     6.62664   
    82. RY*(  15) C   3                  0.00002     2.29471   
    83. RY*(  16) C   3                  0.00000     3.00025   
    84. RY*(  17) C   3                  0.00000    18.72690   
    85. RY*(   1) C   4                  0.00871     0.49212   
    86. RY*(   2) C   4                  0.00194     1.04286   
    87. RY*(   3) C   4                  0.00161     0.86240   
    88. RY*(   4) C   4                  0.00106     0.98293   
    89. RY*(   5) C   4                  0.00068     1.11679   
    90. RY*(   6) C   4                  0.00035     1.34530   
    91. RY*(   7) C   4                  0.00016     1.74358   
    92. RY*(   8) C   4                  0.00010     1.84432   
    93. RY*(   9) C   4                  0.00007     0.92571   
    94. RY*(  10) C   4                  0.00006     2.52283   
    95. RY*(  11) C   4                  0.00003     2.10113   
    96. RY*(  12) C   4                  0.00002     2.96806   
    97. RY*(  13) C   4                  0.00002     1.94500   
    98. RY*(  14) C   4                  0.00002     1.53991   
    99. RY*(  15) C   4                  0.00000    22.58878   
   100. RY*(  16) C   4                  0.00000     1.86282   
   101. RY*(  17) C   4                  0.00000     2.69665   
   102. RY*(   1) N   5                  0.00938     0.73602   
   103. RY*(   2) N   5                  0.00416     0.86203   
   104. RY*(   3) N   5                  0.00161     1.34451   
   105. RY*(   4) N   5                  0.00119     1.11885   
   106. RY*(   5) N   5                  0.00055     1.56280   
   107. RY*(   6) N   5                  0.00032     1.74221   
   108. RY*(   7) N   5                  0.00021     1.84614   
   109. RY*(   8) N   5                  0.00014     1.30024   
   110. RY*(   9) N   5                  0.00010     2.36730   
   111. RY*(  10) N   5                  0.00003     1.96716   
   112. RY*(  11) N   5                  0.00001     1.57688   
   113. RY*(  12) N   5                  0.00000     4.18252   
   114. RY*(  13) N   5                  0.00000    34.86192   
   115. RY*(  14) N   5                  0.00001     2.35245   
   116. RY*(  15) N   5                  0.00001     3.80455   
   117. RY*(  16) N   5                  0.00001     2.37132   
   118. RY*(  17) N   5                  0.00001     3.29584   
   119. RY*(   1) H   6                  0.00355     0.66279   
   120. RY*(   2) H   6                  0.00039     1.89998   
   121. RY*(   3) H   6                  0.00025     2.34076   
   122. RY*(   4) H   6                  0.00014     1.95884   
   123. RY*(   5) H   6                  0.00003     2.73181   
   124. RY*(   1) H   7                  0.00130     1.52913   
   125. RY*(   2) H   7                  0.00034     1.88846   
   126. RY*(   3) H   7                  0.00020     2.08650   
   127. RY*(   4) H   7                  0.00012     1.67942   
   128. RY*(   5) H   7                  0.00006     2.56080   
   129. RY*(   1) C   8                  0.01068     0.43926   
   130. RY*(   2) C   8                  0.00366     0.95930   
   131. RY*(   3) C   8                  0.00173     0.76769   
   132. RY*(   4) C   8                  0.00103     1.17900   
   133. RY*(   5) C   8                  0.00086     1.18533   
   134. RY*(   6) C   8                  0.00063     1.62351   
   135. RY*(   7) C   8                  0.00044     1.70270   
   136. RY*(   8) C   8                  0.00023     1.53385   
   137. RY*(   9) C   8                  0.00016     2.11033   
   138. RY*(  10) C   8                  0.00010     3.57947   
   139. RY*(  11) C   8                  0.00007     1.72697   
   140. RY*(  12) C   8                  0.00004     1.99860   
   141. RY*(  13) C   8                  0.00002     1.12160   
   142. RY*(  14) C   8                  0.00000     1.69668   
   143. RY*(  15) C   8                  0.00000    21.96896   
   144. RY*(  16) C   8                  0.00000     2.65856   
   145. RY*(  17) C   8                  0.00001     2.56934   
   146. RY*(   1) C   9                  0.01237     1.00617   
   147. RY*(   2) C   9                  0.00507     1.32261   
   148. RY*(   3) C   9                  0.00360     1.24503   
   149. RY*(   4) C   9                  0.00263     1.25057   
   150. RY*(   5) C   9                  0.00215     0.90776   
   151. RY*(   6) C   9                  0.00098     1.42063   
   152. RY*(   7) C   9                  0.00035     2.09161   
   153. RY*(   8) C   9                  0.00027     1.63985   
   154. RY*(   9) C   9                  0.00015     2.89641   
   155. RY*(  10) C   9                  0.00014     2.93462   
   156. RY*(  11) C   9                  0.00009     2.68621   
   157. RY*(  12) C   9                  0.00006     4.14817   
   158. RY*(  13) C   9                  0.00004     5.76178   
   159. RY*(  14) C   9                  0.00001    14.40982   
   160. RY*(  15) C   9                  0.00001     1.81199   
   161. RY*(  16) C   9                  0.00000     2.97927   
   162. RY*(  17) C   9                  0.00001     1.18738   
   163. RY*(   1) N  10                  0.00426     0.68275   
   164. RY*(   2) N  10                  0.00331     1.15920   
   165. RY*(   3) N  10                  0.00168     1.16104   
   166. RY*(   4) N  10                  0.00102     2.07143   
   167. RY*(   5) N  10                  0.00066     1.77508   
   168. RY*(   6) N  10                  0.00023     1.80045   
   169. RY*(   7) N  10                  0.00011     1.66268   
   170. RY*(   8) N  10                  0.00006     1.58626   
   171. RY*(   9) N  10                  0.00003     1.24614   
   172. RY*(  10) N  10                  0.00003     3.30877   
   173. RY*(  11) N  10                  0.00001     0.81625   
   174. RY*(  12) N  10                  0.00002     2.82284   
   175. RY*(  13) N  10                  0.00000    35.33482   
   176. RY*(  14) N  10                  0.00000     3.37696   
   177. RY*(  15) N  10                  0.00000     2.34410   
   178. RY*(  16) N  10                  0.00000     3.73313   
   179. RY*(  17) N  10                  0.00000     3.95925   
   180. RY*(   1) O  11                  0.00424     0.86773   
   181. RY*(   2) O  11                  0.00142     1.37743   
   182. RY*(   3) O  11                  0.00121     1.86132   
   183. RY*(   4) O  11                  0.00101     0.81465   
   184. RY*(   5) O  11                  0.00083     0.87308   
   185. RY*(   6) O  11                  0.00042     1.99412   
   186. RY*(   7) O  11                  0.00020     2.30220   
   187. RY*(   8) O  11                  0.00018     2.73289   
   188. RY*(   9) O  11                  0.00013     1.58891   
   189. RY*(  10) O  11                  0.00006     2.09746   
   190. RY*(  11) O  11                  0.00001     5.06951   
   191. RY*(  12) O  11                  0.00001     3.12880   
   192. RY*(  13) O  11                  0.00000    49.76649   
   193. RY*(  14) O  11                  0.00000     2.83573   
   194. RY*(  15) O  11                  0.00001     4.62282   
   195. RY*(  16) O  11                  0.00000     5.03877   
   196. RY*(  17) O  11                  0.00001     3.36298   
   197. RY*(   1) H  12                  0.00256     1.44053   
   198. RY*(   2) H  12                  0.00074     1.95410   
   199. RY*(   3) H  12                  0.00017     1.90987   
   200. RY*(   4) H  12                  0.00004     1.50850   
   201. RY*(   5) H  12                  0.00003     2.77804   
   202. RY*(   1) H  13                  0.00734     0.49236   
   203. RY*(   2) H  13                  0.00028     2.23272   
   204. RY*(   3) H  13                  0.00015     2.24328   
   205. RY*(   4) H  13                  0.00011     2.01792   
   206. RY*(   5) H  13                  0.00005     2.61143   
   207. RY*(   1) H  14                  0.00288     0.52250   
   208. RY*(   2) H  14                  0.00031     2.34053   
   209. RY*(   3) H  14                  0.00017     1.99884   
   210. RY*(   4) H  14                  0.00010     1.96848   
   211. RY*(   5) H  14                  0.00004     2.70366   
   212. BD*(   1) O   1 - C   2          0.01391     0.79376   
   213. BD*(   1) C   2 - C   3          0.05907     0.71581   
   214. BD*(   2) C   2 - C   3          0.47638     0.20230  227(v),219(v),35(v),58(g)
                                                    53(g),56(g),72(g),218(v)
   215. BD*(   1) C   2 - O  11          0.13283     0.46811  228(g),216(v),217(v),52(g)
                                                    183(g),59(g)
   216. BD*(   1) C   3 - C   4          0.01543     0.61978   
   217. BD*(   1) C   3 - C   9          0.03639     0.74196   
   218. BD*(   1) C   4 - N   5          0.02510     0.36667   
   219. BD*(   1) C   4 - H  12          0.02276     0.57353   
   220. BD*(   1) N   5 - H   6          0.01934     0.46938   
   221. BD*(   1) N   5 - H   7          0.02354     0.48042   
   222. BD*(   1) N   5 - C   8          0.05437     0.34707   
   223. BD*(   1) C   8 - C   9          0.03001     0.55055   
   224. BD*(   1) C   8 - H  13          0.02766     0.48149   
   225. BD*(   1) C   8 - H  14          0.01651     0.48828   
   226. BD*(   1) C   9 - N  10          0.01914     0.73017   
   227. BD*(   2) C   9 - N  10          0.48937     0.17677  214(v),224(v),163(g),225(v)
                                                    147(g),153(g),150(g),222(v)
                                                    166(g)
   228. BD*(   1) N  10 - O  11          0.02761     0.38832   
       -------------------------------
              Total Lewis   64.31484  ( 97.4467%)
        Valence non-Lewis    1.48942  (  2.2567%)
        Rydberg non-Lewis    0.19573  (  0.2966%)
       -------------------------------
            Total unit  1   66.00000  (100.0000%)
           Charge unit  1   -1.00000
 Leave Link  607 at Wed Dec 21 18:00:34 2022, MaxMem=  8053063680 cpu:              54.1 elap:               1.7
 (Enter /public3/home/scg5914/software-scg5914/g16/l9999.exe)
 Unable to Open any file for archive entry.
 1\1\GINC-F0604\SP\RB3LYP\Gen\C5H5N2O2(1-)\SCG5914\21-Dec-2022\0\\#p b3
 lyp/chkbas pop=nbo geom=allcheck guess=tcheck em=gd3bj\\dsgdb9nsd_1312
 00-4\\-1,1\O,0,0.091751545,0.0401028505,0.0295291476\C,0,-0.0821395594
 ,1.2591757079,0.0395089547\C,0,-1.1934247179,2.1400252428,0.0188886316
 \C,0,-2.6910308344,2.1146192201,0.0368361429\N,0,-2.8646332161,3.62163
 88262,0.4995103561\H,0,-3.7642518081,3.9906929121,0.1974297018\H,0,-2.
 8516360124,3.5987890395,1.5162446617\C,0,-1.6819019758,4.4783038353,0.
 0403998371\C,0,-0.6261656875,3.4186604097,0.0332723465\N,0,0.687044245
 9,3.4992324457,0.0710882366\O,0,1.0649054911,2.1164630758,0.0440235023
 \H,0,-3.0904204197,2.1654420696,-0.9986992046\H,0,-1.9160946575,4.8575
 960416,-0.9631707578\H,0,-1.5198404935,5.315815042,0.7235246598\\Versi
 on=ES64L-G16RevC.01\State=1-A\HF=-453.5292157\RMSD=0.000e+00\Dipole=-2
 .1655927,3.4410393,0.2376769\Quadrupole=-4.470247,-4.8783363,9.3485833
 ,-6.044208,-0.0906992,1.9084779\PG=C01 [X(C5H5N2O2)]\\@
 The archive entry for this job was punched.


 IT IS A QUALITY OF REVOLUTIONS NOT TO GO BY OLD LINES OR OLD LAWS,
 BUT TO BREAK UP BOTH, AND MAKE NEW ONES.
                                              -- A. LINCOLN (1848)
 Job cpu time:       0 days  0 hours  1 minutes 39.0 seconds.
 Elapsed time:       0 days  0 hours  0 minutes  3.2 seconds.
 File lengths (MBytes):  RWF=     33 Int=      0 D2E=      0 Chk=      5 Scr=      1
 Normal termination of Gaussian 16 at Wed Dec 21 18:00:34 2022.
