 Entering Gaussian System, Link 0=/public3/home/scg5914/software-scg5914/g16/g16
 Input=dsgdb9nsd_133826.gjf
 Output=dsgdb9nsd_133826.log
 Initial command:
 /public3/home/scg5914/software-scg5914/g16/l1.exe "/public3/home/scg5914/software-scg5914/test/tmp/dsgdb9nsd_133826/Gau-201831.inp" -scrdir="/public3/home/scg5914/software-scg5914/test/tmp/dsgdb9nsd_133826/"
 Entering Link 1 = /public3/home/scg5914/software-scg5914/g16/l1.exe PID=    201832.
  
 Copyright (c) 1988-2019, Gaussian, Inc.  All Rights Reserved.
  
 This is part of the Gaussian(R) 16 program.  It is based on
 the Gaussian(R) 09 system (copyright 2009, Gaussian, Inc.),
 the Gaussian(R) 03 system (copyright 2003, Gaussian, Inc.),
 the Gaussian(R) 98 system (copyright 1998, Gaussian, Inc.),
 the Gaussian(R) 94 system (copyright 1995, Gaussian, Inc.),
 the Gaussian 92(TM) system (copyright 1992, Gaussian, Inc.),
 the Gaussian 90(TM) system (copyright 1990, Gaussian, Inc.),
 the Gaussian 88(TM) system (copyright 1988, Gaussian, Inc.),
 the Gaussian 86(TM) system (copyright 1986, Carnegie Mellon
 University), and the Gaussian 82(TM) system (copyright 1983,
 Carnegie Mellon University). Gaussian is a federally registered
 trademark of Gaussian, Inc.
  
 This software contains proprietary and confidential information,
 including trade secrets, belonging to Gaussian, Inc.
  
 This software is provided under written license and may be
 used, copied, transmitted, or stored only in accord with that
 written license.
  
 The following legend is applicable only to US Government
 contracts under FAR:
  
                    RESTRICTED RIGHTS LEGEND
  
 Use, reproduction and disclosure by the US Government is
 subject to restrictions as set forth in subparagraphs (a)
 and (c) of the Commercial Computer Software - Restricted
 Rights clause in FAR 52.227-19.
  
 Gaussian, Inc.
 340 Quinnipiac St., Bldg. 40, Wallingford CT 06492
  
  
 ---------------------------------------------------------------
 Warning -- This program may not be used in any manner that
 competes with the business of Gaussian, Inc. or will provide
 assistance to any competitor of Gaussian, Inc.  The licensee
 of this program is prohibited from giving any competitor of
 Gaussian, Inc. access to this program.  By using this program,
 the user acknowledges that Gaussian, Inc. is engaged in the
 business of creating and licensing software in the field of
 computational chemistry and represents and warrants to the
 licensee that it is not a competitor of Gaussian, Inc. and that
 it will not use this program in any manner prohibited above.
 ---------------------------------------------------------------
  

 Cite this work as:
 Gaussian 16, Revision C.01,
 M. J. Frisch, G. W. Trucks, H. B. Schlegel, G. E. Scuseria, 
 M. A. Robb, J. R. Cheeseman, G. Scalmani, V. Barone, 
 G. A. Petersson, H. Nakatsuji, X. Li, M. Caricato, A. V. Marenich, 
 J. Bloino, B. G. Janesko, R. Gomperts, B. Mennucci, H. P. Hratchian, 
 J. V. Ortiz, A. F. Izmaylov, J. L. Sonnenberg, D. Williams-Young, 
 F. Ding, F. Lipparini, F. Egidi, J. Goings, B. Peng, A. Petrone, 
 T. Henderson, D. Ranasinghe, V. G. Zakrzewski, J. Gao, N. Rega, 
 G. Zheng, W. Liang, M. Hada, M. Ehara, K. Toyota, R. Fukuda, 
 J. Hasegawa, M. Ishida, T. Nakajima, Y. Honda, O. Kitao, H. Nakai, 
 T. Vreven, K. Throssell, J. A. Montgomery, Jr., J. E. Peralta, 
 F. Ogliaro, M. J. Bearpark, J. J. Heyd, E. N. Brothers, K. N. Kudin, 
 V. N. Staroverov, T. A. Keith, R. Kobayashi, J. Normand, 
 K. Raghavachari, A. P. Rendell, J. C. Burant, S. S. Iyengar, 
 J. Tomasi, M. Cossi, J. M. Millam, M. Klene, C. Adamo, R. Cammi, 
 J. W. Ochterski, R. L. Martin, K. Morokuma, O. Farkas, 
 J. B. Foresman, and D. J. Fox, Gaussian, Inc., Wallingford CT, 2019.
 
 ******************************************
 Gaussian 16:  ES64L-G16RevC.01  3-Jul-2019
                 4-Nov-2022 
 ******************************************
 %chk=dsgdb9nsd_133826.chk
 %mem=60GB
 %nprocshared=32
 Will use up to   32 processors via shared memory.
 ------------------------------------
 #p opt freq b3lyp/6-311+g** em=gd3bj
 ------------------------------------
 1/18=20,19=15,26=3,38=1/1,3;
 2/9=110,12=2,17=6,18=5,40=1/2;
 3/5=4,6=6,7=111,11=2,25=1,30=1,71=1,74=-5,124=41/1,2,3;
 4//1;
 5/5=2,38=5/2;
 6/7=2,8=2,9=2,10=2,28=1/1;
 7//1,2,3,16;
 1/18=20,19=15,26=3/3(2);
 2/9=110/2;
 99//99;
 2/9=110/2;
 3/5=4,6=6,7=111,11=2,25=1,30=1,71=1,74=-5,124=41/1,2,3;
 4/5=5,16=3,69=1/1;
 5/5=2,38=5/2;
 7//1,2,3,16;
 1/18=20,19=15,26=3/3(-5);
 2/9=110/2;
 6/7=2,8=2,9=2,10=2,19=2,28=1/1;
 99/9=1/99;
 Leave Link    1 at Fri Nov  4 16:56:00 2022, MaxMem=  8053063680 cpu:               1.1 elap:               0.0
 (Enter /public3/home/scg5914/software-scg5914/g16/l101.exe)
 ----------------
 dsgdb9nsd_133826
 ----------------
 Symbolic Z-matrix:
 Charge =  0 Multiplicity = 1
 C                     10.3818  -1.35064  -0.1678 
 C                     9.14878  -0.53048   0.14057 
 C                     7.7695   -1.25674   0.11143 
 N                     8.29209  -0.72122   1.35373 
 C                     7.75966   0.51423   1.68264 
 N                     8.56602   1.50299   1.12068 
 C                     9.20188   0.93183   0.12226 
 C                     6.6094   -0.71627  -0.53628 
 C                     5.62858  -0.33523  -1.11651 
 H                     10.24977  -2.38111   0.17082 
 H                     11.26307  -0.94241   0.33416 
 H                     10.57642  -1.36967  -1.24519 
 H                     7.86429  -2.33844   0.0118 
 H                     9.77903   1.51176  -0.59348 
 H                     4.7609    0.02723  -1.61129 
 
 ITRead=  0  0  0  0  0  0  0  0  0  0  0  0  0  0  0
 MicOpt= -1 -1 -1 -1 -1 -1 -1 -1 -1 -1 -1 -1 -1 -1 -1
 NAtoms=     15 NQM=       15 NQMF=       0 NMMI=      0 NMMIF=      0
                NMic=       0 NMicF=      0.
                    Isotopes and Nuclear Properties:
 (Nuclear quadrupole moments (NQMom) in fm**2, nuclear magnetic moments (NMagM)
  in nuclear magnetons)

  Atom         1           2           3           4           5           6           7           8           9          10
 IAtWgt=          12          12          12          14          12          14          12          12          12           1
 AtmWgt=  12.0000000  12.0000000  12.0000000  14.0030740  12.0000000  14.0030740  12.0000000  12.0000000  12.0000000   1.0078250
 NucSpn=           0           0           0           2           0           2           0           0           0           1
 AtZEff=  -0.0000000  -0.0000000  -0.0000000  -0.0000000  -0.0000000  -0.0000000  -0.0000000  -0.0000000  -0.0000000  -0.0000000
 NQMom=    0.0000000   0.0000000   0.0000000   2.0440000   0.0000000   2.0440000   0.0000000   0.0000000   0.0000000   0.0000000
 NMagM=    0.0000000   0.0000000   0.0000000   0.4037610   0.0000000   0.4037610   0.0000000   0.0000000   0.0000000   2.7928460
 AtZNuc=   6.0000000   6.0000000   6.0000000   7.0000000   6.0000000   7.0000000   6.0000000   6.0000000   6.0000000   1.0000000

  Atom        11          12          13          14          15
 IAtWgt=           1           1           1           1           1
 AtmWgt=   1.0078250   1.0078250   1.0078250   1.0078250   1.0078250
 NucSpn=           1           1           1           1           1
 AtZEff=  -0.0000000  -0.0000000  -0.0000000  -0.0000000  -0.0000000
 NQMom=    0.0000000   0.0000000   0.0000000   0.0000000   0.0000000
 NMagM=    2.7928460   2.7928460   2.7928460   2.7928460   2.7928460
 AtZNuc=   1.0000000   1.0000000   1.0000000   1.0000000   1.0000000
 Leave Link  101 at Fri Nov  4 16:56:00 2022, MaxMem=  8053063680 cpu:               4.7 elap:               0.2
 (Enter /public3/home/scg5914/software-scg5914/g16/l103.exe)

 GradGradGradGradGradGradGradGradGradGradGradGradGradGradGradGradGradGrad
 Berny optimization.
 Initialization pass.
                           ----------------------------
                           !    Initial Parameters    !
                           ! (Angstroms and Degrees)  !
 --------------------------                            --------------------------
 ! Name  Definition              Value          Derivative Info.                !
 --------------------------------------------------------------------------------
 ! R1    R(1,2)                  1.5126         estimate D2E/DX2                !
 ! R2    R(1,10)                 1.0927         estimate D2E/DX2                !
 ! R3    R(1,11)                 1.0933         estimate D2E/DX2                !
 ! R4    R(1,12)                 1.095          estimate D2E/DX2                !
 ! R5    R(2,3)                  1.5591         estimate D2E/DX2                !
 ! R6    R(2,4)                  1.4974         estimate D2E/DX2                !
 ! R7    R(2,7)                  1.4634         estimate D2E/DX2                !
 ! R8    R(3,4)                  1.4502         estimate D2E/DX2                !
 ! R9    R(3,8)                  1.4344         estimate D2E/DX2                !
 ! R10   R(3,13)                 1.0904         estimate D2E/DX2                !
 ! R11   R(4,5)                  1.3849         estimate D2E/DX2                !
 ! R12   R(5,6)                  1.3941         estimate D2E/DX2                !
 ! R13   R(6,7)                  1.3143         estimate D2E/DX2                !
 ! R14   R(7,14)                 1.0871         estimate D2E/DX2                !
 ! R15   R(8,9)                  1.2016         estimate D2E/DX2                !
 ! R16   R(9,15)                 1.0626         estimate D2E/DX2                !
 ! A1    A(2,1,10)             110.4668         estimate D2E/DX2                !
 ! A2    A(2,1,11)             111.1619         estimate D2E/DX2                !
 ! A3    A(2,1,12)             110.7864         estimate D2E/DX2                !
 ! A4    A(10,1,11)            107.8941         estimate D2E/DX2                !
 ! A5    A(10,1,12)            108.0599         estimate D2E/DX2                !
 ! A6    A(11,1,12)            108.3588         estimate D2E/DX2                !
 ! A7    A(1,2,3)              117.6941         estimate D2E/DX2                !
 ! A8    A(1,2,4)              124.227          estimate D2E/DX2                !
 ! A9    A(1,2,7)              120.6425         estimate D2E/DX2                !
 ! A10   A(3,2,7)              119.8249         estimate D2E/DX2                !
 ! A11   A(4,2,7)               99.1017         estimate D2E/DX2                !
 ! A12   A(2,3,8)              123.2592         estimate D2E/DX2                !
 ! A13   A(2,3,13)             112.7625         estimate D2E/DX2                !
 ! A14   A(4,3,8)              122.6235         estimate D2E/DX2                !
 ! A15   A(4,3,13)             114.4095         estimate D2E/DX2                !
 ! A16   A(8,3,13)             113.7556         estimate D2E/DX2                !
 ! A17   A(2,4,5)              107.3819         estimate D2E/DX2                !
 ! A18   A(3,4,5)              113.2234         estimate D2E/DX2                !
 ! A19   A(4,5,6)              108.336          estimate D2E/DX2                !
 ! A20   A(5,6,7)              106.1305         estimate D2E/DX2                !
 ! A21   A(2,7,6)              114.0283         estimate D2E/DX2                !
 ! A22   A(2,7,14)             124.0967         estimate D2E/DX2                !
 ! A23   A(6,7,14)             121.682          estimate D2E/DX2                !
 ! A24   L(3,8,9,14,-1)        182.5773         estimate D2E/DX2                !
 ! A25   L(8,9,15,14,-1)       179.1305         estimate D2E/DX2                !
 ! A26   L(3,8,9,14,-2)        176.7261         estimate D2E/DX2                !
 ! A27   L(8,9,15,14,-2)       181.9403         estimate D2E/DX2                !
 ! D1    D(10,1,2,3)           -32.0761         estimate D2E/DX2                !
 ! D2    D(10,1,2,4)            34.678          estimate D2E/DX2                !
 ! D3    D(10,1,2,7)           163.3878         estimate D2E/DX2                !
 ! D4    D(11,1,2,3)          -151.8221         estimate D2E/DX2                !
 ! D5    D(11,1,2,4)           -85.068          estimate D2E/DX2                !
 ! D6    D(11,1,2,7)            43.6418         estimate D2E/DX2                !
 ! D7    D(12,1,2,3)            87.6339         estimate D2E/DX2                !
 ! D8    D(12,1,2,4)           154.388          estimate D2E/DX2                !
 ! D9    D(12,1,2,7)           -76.9022         estimate D2E/DX2                !
 ! D10   D(1,2,3,8)           -134.2481         estimate D2E/DX2                !
 ! D11   D(1,2,3,13)             8.6561         estimate D2E/DX2                !
 ! D12   D(7,2,3,8)             30.4192         estimate D2E/DX2                !
 ! D13   D(7,2,3,13)           173.3234         estimate D2E/DX2                !
 ! D14   D(1,2,4,5)            149.1548         estimate D2E/DX2                !
 ! D15   D(7,2,4,5)             11.9924         estimate D2E/DX2                !
 ! D16   D(1,2,7,6)           -137.2808         estimate D2E/DX2                !
 ! D17   D(1,2,7,14)            37.7324         estimate D2E/DX2                !
 ! D18   D(3,2,7,6)             58.5103         estimate D2E/DX2                !
 ! D19   D(3,2,7,14)          -126.4765         estimate D2E/DX2                !
 ! D20   D(4,2,7,6)              1.92           estimate D2E/DX2                !
 ! D21   D(4,2,7,14)           176.9332         estimate D2E/DX2                !
 ! D22   D(8,3,4,5)            -13.5637         estimate D2E/DX2                !
 ! D23   D(13,3,4,5)          -158.224          estimate D2E/DX2                !
 ! D24   D(2,4,5,6)            -21.6769         estimate D2E/DX2                !
 ! D25   D(3,4,5,6)            -90.064          estimate D2E/DX2                !
 ! D26   D(4,5,6,7)             22.6584         estimate D2E/DX2                !
 ! D27   D(5,6,7,2)            -14.9077         estimate D2E/DX2                !
 ! D28   D(5,6,7,14)           169.9447         estimate D2E/DX2                !
 --------------------------------------------------------------------------------
 Trust Radius=3.00D-01 FncErr=1.00D-07 GrdErr=1.00D-06 EigMax=2.50D+02 EigMin=1.00D-04
 Number of steps in this run=     81 maximum allowed number of steps=    100.
 GradGradGradGradGradGradGradGradGradGradGradGradGradGradGradGradGradGrad

 Leave Link  103 at Fri Nov  4 16:56:01 2022, MaxMem=  8053063680 cpu:               0.2 elap:               0.0
 (Enter /public3/home/scg5914/software-scg5914/g16/l202.exe)
                          Input orientation:                          
 ---------------------------------------------------------------------
 Center     Atomic      Atomic             Coordinates (Angstroms)
 Number     Number       Type             X           Y           Z
 ---------------------------------------------------------------------
      1          6           0       10.381796   -1.350644   -0.167799
      2          6           0        9.148782   -0.530478    0.140570
      3          6           0        7.769501   -1.256738    0.111427
      4          7           0        8.292090   -0.721216    1.353731
      5          6           0        7.759661    0.514234    1.682638
      6          7           0        8.566016    1.502988    1.120685
      7          6           0        9.201881    0.931832    0.122258
      8          6           0        6.609400   -0.716269   -0.536281
      9          6           0        5.628583   -0.335232   -1.116514
     10          1           0       10.249767   -2.381112    0.170824
     11          1           0       11.263067   -0.942405    0.334160
     12          1           0       10.576419   -1.369666   -1.245193
     13          1           0        7.864290   -2.338443    0.011802
     14          1           0        9.779028    1.511756   -0.593480
     15          1           0        4.760901    0.027232   -1.611293
 ---------------------------------------------------------------------
                    Distance matrix (angstroms):
                    1          2          3          4          5
     1  C    0.000000
     2  C    1.512642   0.000000
     3  C    2.628853   1.559076   0.000000
     4  N    2.660471   1.497352   1.450243   0.000000
     5  C    3.711803   2.323587   2.367519   1.384918   0.000000
     6  N    3.619457   2.331358   3.044524   2.253094   1.394143
     7  C    2.585735   1.463389   2.615659   2.253179   2.165450
     8  C    3.843069   2.634598   1.434387   2.530537   2.785829
     9  C    4.952187   3.743018   2.634491   3.653131   3.619163
    10  H    1.092686   2.153585   2.723869   2.826132   4.107218
    11  H    1.093280   2.162721   3.514743   3.148834   4.026666
    12  H    1.094996   2.159333   3.119608   3.520377   4.478325
    13  H    2.710322   2.221540   1.090410   2.144577   3.307629
    14  H    2.955988   2.259814   3.492800   3.314933   3.202125
    15  H    5.964619   4.757475   3.697029   4.671279   4.481040
                    6          7          8          9         10
     6  N    0.000000
     7  C    1.314306   0.000000
     8  C    3.391015   3.141794   0.000000
     9  C    4.124636   3.988542   1.201608   0.000000
    10  H    4.338605   3.475057   4.064969   5.215190   0.000000
    11  H    3.724601   2.793949   4.739770   5.849831   1.767296
    12  H    4.229804   3.009347   4.082489   5.056451   1.770544
    13  H    4.059388   3.534975   2.122873   3.206920   2.391153
    14  H    2.099961   1.087056   3.874778   4.572868   3.995019
    15  H    4.911259   4.852402   2.263934   1.062572   6.253296
                   11         12         13         14         15
    11  H    0.000000
    12  H    1.774371   0.000000
    13  H    3.688431   3.142325   0.000000
    14  H    3.014265   3.059927   4.342421   0.000000
    15  H    6.855884   5.992128   4.226332   5.331168   0.000000
 Stoichiometry    C7H6N2
 Framework group  C1[X(C7H6N2)]
 Deg. of freedom    39
 Full point group                 C1      NOp   1
 Largest Abelian subgroup         C1      NOp   1
 Largest concise Abelian subgroup C1      NOp   1
                         Standard orientation:                         
 ---------------------------------------------------------------------
 Center     Atomic      Atomic             Coordinates (Angstroms)
 Number     Number       Type             X           Y           Z
 ---------------------------------------------------------------------
      1          6           0        1.955586   -1.420714   -0.239851
      2          6           0        0.840912   -0.402262   -0.148500
      3          6           0       -0.503115   -0.855169    0.498944
      4          7           0        0.315288    0.158070    1.136727
      5          6           0       -0.115175    1.449081    0.879840
      6          7           0        0.526585    1.904561   -0.270949
      7          6           0        0.890708    0.830590   -0.935330
      8          6           0       -1.787433   -0.566104   -0.070648
      9          6           0       -2.881603   -0.402956   -0.539729
     10          1           0        1.910553   -2.113178    0.604204
     11          1           0        2.935377   -0.935903   -0.224709
     12          1           0        1.873886   -2.004523   -1.162623
     13          1           0       -0.438532   -1.841757    0.958801
     14          1           0        1.271195    0.889775   -1.951902
     15          1           0       -3.844868   -0.227632   -0.952576
 ---------------------------------------------------------------------
 Rotational constants (GHZ):           2.6330021           1.7003538           1.3242472
 Leave Link  202 at Fri Nov  4 16:56:01 2022, MaxMem=  8053063680 cpu:               0.2 elap:               0.0
 (Enter /public3/home/scg5914/software-scg5914/g16/l301.exe)
 Standard basis: 6-311+G(d,p) (5D, 7F)
 Ernie: Thresh=  0.10000D-02 Tol=  0.10000D-05 Strict=F.
 There are   243 symmetry adapted cartesian basis functions of A   symmetry.
 There are   234 symmetry adapted basis functions of A   symmetry.
   234 basis functions,   372 primitive gaussians,   243 cartesian basis functions
    31 alpha electrons       31 beta electrons
       nuclear repulsion energy       396.8295569337 Hartrees.
 IExCor=  402 DFT=T Ex+Corr=B3LYP ExCW=0 ScaHFX=  0.200000
 ScaDFX=  0.800000  0.720000  1.000000  0.810000 ScalE2=  1.000000  1.000000
 IRadAn=      5 IRanWt=     -1 IRanGd=            0 ICorTp=0 IEmpDi=141
 NAtoms=   15 NActive=   15 NUniq=   15 SFac= 1.00D+00 NAtFMM=   60 NAOKFM=F Big=F
 Integral buffers will be    131072 words long.
 Raffenetti 2 integral format.
 Two-electron integral symmetry is turned on.
 R6Disp:  Grimme-D3(BJ) Dispersion energy=       -0.0262971982 Hartrees.
 Nuclear repulsion after empirical dispersion term =      396.8032597355 Hartrees.
 Leave Link  301 at Fri Nov  4 16:56:01 2022, MaxMem=  8053063680 cpu:               1.1 elap:               0.0
 (Enter /public3/home/scg5914/software-scg5914/g16/l302.exe)
 NPDir=0 NMtPBC=     1 NCelOv=     1 NCel=       1 NClECP=     1 NCelD=      1
         NCelK=      1 NCelE2=     1 NClLst=     1 CellRange=     0.0.
 One-electron integrals computed using PRISM.
 One-electron integral symmetry used in STVInt
 NBasis=   234 RedAO= T EigKep=  1.14D-06  NBF=   234
 NBsUse=   234 1.00D-06 EigRej= -1.00D+00 NBFU=   234
 Precomputing XC quadrature grid using
 IXCGrd= 4 IRadAn=           5 IRanWt=          -1 IRanGd=           0 AccXCQ= 0.00D+00.
 Generated NRdTot=       0 NPtTot=           0 NUsed=           0 NTot=          32
 NSgBfM=   243   243   243   243   243 MxSgAt=    15 MxSgA2=    15.
 Leave Link  302 at Fri Nov  4 16:56:01 2022, MaxMem=  8053063680 cpu:               4.3 elap:               0.1
 (Enter /public3/home/scg5914/software-scg5914/g16/l303.exe)
 DipDrv:  MaxL=1.
 Leave Link  303 at Fri Nov  4 16:56:01 2022, MaxMem=  8053063680 cpu:               0.5 elap:               0.0
 (Enter /public3/home/scg5914/software-scg5914/g16/l401.exe)
 ExpMin= 4.38D-02 ExpMax= 6.29D+03 ExpMxC= 9.49D+02 IAcc=3 IRadAn=         5 AccDes= 0.00D+00
 Harris functional with IExCor=  402 and IRadAn=       5 diagonalized for initial guess.
 HarFok:  IExCor=  402 AccDes= 0.00D+00 IRadAn=         5 IDoV= 1 UseB2=F ITyADJ=14
 ICtDFT=  3500011 ScaDFX=  1.000000  1.000000  1.000000  1.000000
 FoFCou: FMM=F IPFlag=           0 FMFlag=      100000 FMFlg1=           0
         NFxFlg=           0 DoJE=T BraDBF=F KetDBF=T FulRan=T
         wScrn=  0.000000 ICntrl=       500 IOpCl=  0 I1Cent=   200000004 NGrid=           0
         NMat0=    1 NMatS0=      1 NMatT0=    0 NMatD0=    1 NMtDS0=    0 NMtDT0=    0
 Petite list used in FoFCou.
 Harris En= -379.748737284386    
 JPrj=0 DoOrth=F DoCkMO=F.
 Leave Link  401 at Fri Nov  4 16:56:02 2022, MaxMem=  8053063680 cpu:              11.6 elap:               0.4
 (Enter /public3/home/scg5914/software-scg5914/g16/l502.exe)
 Integral symmetry usage will be decided dynamically.
 Closed shell SCF:
 Using DIIS extrapolation, IDIIS=  1040.
 NGot=  8053063680 LenX=  8052935060 LenY=  8052875570
 Requested convergence on RMS density matrix=1.00D-08 within 128 cycles.
 Requested convergence on MAX density matrix=1.00D-06.
 Requested convergence on             energy=1.00D-06.
 No special actions if energy rises.
 Fock matrices will be formed incrementally for  20 cycles.

 Cycle   1  Pass 1  IDiag  1:
 FoFJK:  IHMeth= 1 ICntrl=       0 DoSepK=F KAlg= 0 I1Cent=           0 FoldK=F
 IRaf= 960000000 NMat=       1 IRICut=       1 DoRegI=T DoRafI=F ISym2E= 0 IDoP0=0 IntGTp=1.
 FoFCou: FMM=F IPFlag=           0 FMFlag=      100000 FMFlg1=           0
         NFxFlg=           0 DoJE=F BraDBF=F KetDBF=F FulRan=T
         wScrn=  0.000000 ICntrl=         0 IOpCl=  0 I1Cent=           0 NGrid=           0
         NMat0=    1 NMatS0=      1 NMatT0=    0 NMatD0=    1 NMtDS0=    0 NMtDT0=    0
 Symmetry not used in FoFCou.
 E= -379.563960967698    
 DIIS: error= 1.62D-02 at cycle   1 NSaved=   1.
 NSaved= 1 IEnMin= 1 EnMin= -379.563960967698     IErMin= 1 ErrMin= 1.62D-02
 ErrMax= 1.62D-02  0.00D+00 EMaxC= 1.00D-01 BMatC= 2.02D-01 BMatP= 2.02D-01
 IDIUse=3 WtCom= 8.38D-01 WtEn= 1.62D-01
 Coeff-Com:  0.100D+01
 Coeff-En:   0.100D+01
 Coeff:      0.100D+01
 Gap=     0.119 Goal=   None    Shift=    0.000
 GapD=    0.119 DampG=1.000 DampE=0.500 DampFc=0.5000 IDamp=-1.
 Damping current iteration by 5.00D-01
 RMSDP=1.63D-02 MaxDP=1.00D+00              OVMax= 1.82D-01

 Cycle   2  Pass 1  IDiag  1:
 RMSU=  8.07D-03    CP:  9.85D-01
 E= -379.642489346231     Delta-E=       -0.078528378533 Rises=F Damp=T
 DIIS: error= 4.12D-03 at cycle   2 NSaved=   2.
 NSaved= 2 IEnMin= 2 EnMin= -379.642489346231     IErMin= 2 ErrMin= 4.12D-03
 ErrMax= 4.12D-03  0.00D+00 EMaxC= 1.00D-01 BMatC= 1.58D-02 BMatP= 2.02D-01
 IDIUse=3 WtCom= 9.59D-01 WtEn= 4.12D-02
 Coeff-Com:  0.285D-01 0.972D+00
 Coeff-En:   0.101D+00 0.899D+00
 Coeff:      0.314D-01 0.969D+00
 Gap=     0.142 Goal=   None    Shift=    0.000
 RMSDP=7.13D-03 MaxDP=7.66D-01 DE=-7.85D-02 OVMax= 1.29D-01

 Cycle   3  Pass 1  IDiag  1:
 RMSU=  5.28D-03    CP:  9.28D-01  1.04D+00
 E= -379.718573903344     Delta-E=       -0.076084557114 Rises=F Damp=F
 DIIS: error= 7.64D-03 at cycle   3 NSaved=   3.
 NSaved= 3 IEnMin= 3 EnMin= -379.718573903344     IErMin= 2 ErrMin= 4.12D-03
 ErrMax= 7.64D-03  0.00D+00 EMaxC= 1.00D-01 BMatC= 2.72D-02 BMatP= 1.58D-02
 IDIUse=3 WtCom= 1.03D-01 WtEn= 8.97D-01
 Coeff-Com: -0.585D-01 0.608D+00 0.451D+00
 Coeff-En:   0.000D+00 0.000D+00 0.100D+01
 Coeff:     -0.601D-02 0.624D-01 0.944D+00
 Gap=     0.111 Goal=   None    Shift=    0.000
 RMSDP=7.24D-03 MaxDP=6.10D-01 DE=-7.61D-02 OVMax= 1.62D-01

 Cycle   4  Pass 1  IDiag  1:
 RMSU=  5.35D-03    CP:  9.68D-01  1.42D+00  6.72D-01
 E= -379.618406134089     Delta-E=        0.100167769255 Rises=F Damp=F
 DIIS: error= 1.88D-02 at cycle   4 NSaved=   4.
 NSaved= 4 IEnMin= 3 EnMin= -379.718573903344     IErMin= 2 ErrMin= 4.12D-03
 ErrMax= 1.88D-02  0.00D+00 EMaxC= 1.00D-01 BMatC= 1.31D-01 BMatP= 1.58D-02
 IDIUse=2 WtCom= 0.00D+00 WtEn= 1.00D+00
 Coeff-En:   0.000D+00 0.000D+00 0.771D+00 0.229D+00
 Coeff:      0.000D+00 0.000D+00 0.771D+00 0.229D+00
 Gap=     0.124 Goal=   None    Shift=    0.000
 RMSDP=4.18D-03 MaxDP=3.87D-01 DE= 1.00D-01 OVMax= 6.90D-02

 Cycle   5  Pass 1  IDiag  1:
 RMSU=  5.87D-04    CP:  9.41D-01  1.19D+00  8.03D-01  4.65D-01
 E= -379.734502813568     Delta-E=       -0.116096679479 Rises=F Damp=F
 DIIS: error= 4.79D-03 at cycle   5 NSaved=   5.
 NSaved= 5 IEnMin= 5 EnMin= -379.734502813568     IErMin= 2 ErrMin= 4.12D-03
 ErrMax= 4.79D-03  0.00D+00 EMaxC= 1.00D-01 BMatC= 1.00D-02 BMatP= 1.58D-02
 IDIUse=3 WtCom= 9.52D-01 WtEn= 4.79D-02
 Coeff-Com:  0.660D-02 0.163D-02 0.385D+00 0.140D-01 0.593D+00
 Coeff-En:   0.000D+00 0.000D+00 0.323D+00 0.000D+00 0.677D+00
 Coeff:      0.628D-02 0.155D-02 0.382D+00 0.133D-01 0.597D+00
 Gap=     0.123 Goal=   None    Shift=    0.000
 RMSDP=1.62D-03 MaxDP=1.69D-01 DE=-1.16D-01 OVMax= 3.17D-02

 Cycle   6  Pass 1  IDiag  1:
 RMSU=  3.09D-04    CP:  9.28D-01  1.11D+00  8.59D-01  2.95D-01  7.90D-01
 E= -379.743590795070     Delta-E=       -0.009087981502 Rises=F Damp=F
 DIIS: error= 5.15D-04 at cycle   6 NSaved=   6.
 NSaved= 6 IEnMin= 6 EnMin= -379.743590795070     IErMin= 6 ErrMin= 5.15D-04
 ErrMax= 5.15D-04  0.00D+00 EMaxC= 1.00D-01 BMatC= 7.83D-05 BMatP= 1.00D-02
 IDIUse=3 WtCom= 9.95D-01 WtEn= 5.15D-03
 Coeff-Com:  0.523D-02-0.132D-01 0.147D+00-0.323D-01 0.384D+00 0.509D+00
 Coeff-En:   0.000D+00 0.000D+00 0.000D+00 0.000D+00 0.000D+00 0.100D+01
 Coeff:      0.520D-02-0.131D-01 0.146D+00-0.321D-01 0.382D+00 0.512D+00
 Gap=     0.123 Goal=   None    Shift=    0.000
 RMSDP=2.18D-04 MaxDP=2.08D-02 DE=-9.09D-03 OVMax= 3.16D-03

 Cycle   7  Pass 1  IDiag  1:
 RMSU=  6.66D-05    CP:  9.30D-01  1.12D+00  8.61D-01  2.94D-01  8.19D-01
                    CP:  5.56D-01
 E= -379.743660754563     Delta-E=       -0.000069959493 Rises=F Damp=F
 DIIS: error= 8.96D-05 at cycle   7 NSaved=   7.
 NSaved= 7 IEnMin= 7 EnMin= -379.743660754563     IErMin= 7 ErrMin= 8.96D-05
 ErrMax= 8.96D-05  0.00D+00 EMaxC= 1.00D-01 BMatC= 4.04D-06 BMatP= 7.83D-05
 IDIUse=1 WtCom= 1.00D+00 WtEn= 0.00D+00
 Coeff-Com:  0.260D-02-0.712D-02 0.611D-01-0.203D-01 0.186D+00 0.288D+00
 Coeff-Com:  0.490D+00
 Coeff:      0.260D-02-0.712D-02 0.611D-01-0.203D-01 0.186D+00 0.288D+00
 Coeff:      0.490D+00
 Gap=     0.123 Goal=   None    Shift=    0.000
 RMSDP=4.55D-05 MaxDP=2.47D-03 DE=-7.00D-05 OVMax= 6.42D-04

 Cycle   8  Pass 1  IDiag  1:
 RMSU=  3.25D-05    CP:  9.30D-01  1.12D+00  8.61D-01  2.96D-01  8.11D-01
                    CP:  6.32D-01  8.36D-01
 E= -379.743663898088     Delta-E=       -0.000003143526 Rises=F Damp=F
 DIIS: error= 4.18D-05 at cycle   8 NSaved=   8.
 NSaved= 8 IEnMin= 8 EnMin= -379.743663898088     IErMin= 8 ErrMin= 4.18D-05
 ErrMax= 4.18D-05  0.00D+00 EMaxC= 1.00D-01 BMatC= 5.35D-07 BMatP= 4.04D-06
 IDIUse=1 WtCom= 1.00D+00 WtEn= 0.00D+00
 Coeff-Com:  0.862D-03-0.227D-02 0.159D-01-0.724D-02 0.555D-01 0.963D-01
 Coeff-Com:  0.291D+00 0.550D+00
 Coeff:      0.862D-03-0.227D-02 0.159D-01-0.724D-02 0.555D-01 0.963D-01
 Coeff:      0.291D+00 0.550D+00
 Gap=     0.123 Goal=   None    Shift=    0.000
 RMSDP=1.71D-05 MaxDP=8.14D-04 DE=-3.14D-06 OVMax= 3.01D-04

 Cycle   9  Pass 1  IDiag  1:
 RMSU=  9.04D-06    CP:  9.30D-01  1.12D+00  8.62D-01  2.95D-01  8.18D-01
                    CP:  6.06D-01  8.77D-01  7.36D-01
 E= -379.743664344330     Delta-E=       -0.000000446241 Rises=F Damp=F
 DIIS: error= 1.31D-05 at cycle   9 NSaved=   9.
 NSaved= 9 IEnMin= 9 EnMin= -379.743664344330     IErMin= 9 ErrMin= 1.31D-05
 ErrMax= 1.31D-05  0.00D+00 EMaxC= 1.00D-01 BMatC= 5.96D-08 BMatP= 5.35D-07
 IDIUse=1 WtCom= 1.00D+00 WtEn= 0.00D+00
 Coeff-Com:  0.248D-03-0.628D-03 0.300D-02-0.214D-02 0.132D-01 0.261D-01
 Coeff-Com:  0.106D+00 0.317D+00 0.537D+00
 Coeff:      0.248D-03-0.628D-03 0.300D-02-0.214D-02 0.132D-01 0.261D-01
 Coeff:      0.106D+00 0.317D+00 0.537D+00
 Gap=     0.123 Goal=   None    Shift=    0.000
 RMSDP=5.43D-06 MaxDP=2.25D-04 DE=-4.46D-07 OVMax= 8.00D-05

 Cycle  10  Pass 1  IDiag  1:
 RMSU=  2.51D-06    CP:  9.30D-01  1.12D+00  8.62D-01  2.96D-01  8.18D-01
                    CP:  6.16D-01  8.61D-01  7.35D-01  7.38D-01
 E= -379.743664398547     Delta-E=       -0.000000054217 Rises=F Damp=F
 DIIS: error= 4.50D-06 at cycle  10 NSaved=  10.
 NSaved=10 IEnMin=10 EnMin= -379.743664398547     IErMin=10 ErrMin= 4.50D-06
 ErrMax= 4.50D-06  0.00D+00 EMaxC= 1.00D-01 BMatC= 7.74D-09 BMatP= 5.96D-08
 IDIUse=1 WtCom= 1.00D+00 WtEn= 0.00D+00
 Coeff-Com:  0.629D-04-0.163D-03 0.270D-03-0.542D-03 0.240D-02 0.636D-02
 Coeff-Com:  0.369D-01 0.154D+00 0.333D+00 0.468D+00
 Coeff:      0.629D-04-0.163D-03 0.270D-03-0.542D-03 0.240D-02 0.636D-02
 Coeff:      0.369D-01 0.154D+00 0.333D+00 0.468D+00
 Gap=     0.123 Goal=   None    Shift=    0.000
 RMSDP=1.82D-06 MaxDP=1.40D-04 DE=-5.42D-08 OVMax= 3.67D-05

 Cycle  11  Pass 1  IDiag  1:
 RMSU=  1.07D-06    CP:  9.30D-01  1.12D+00  8.62D-01  2.95D-01  8.17D-01
                    CP:  6.16D-01  8.65D-01  7.60D-01  7.44D-01  7.55D-01
 E= -379.743664405311     Delta-E=       -0.000000006764 Rises=F Damp=F
 DIIS: error= 1.41D-06 at cycle  11 NSaved=  11.
 NSaved=11 IEnMin=11 EnMin= -379.743664405311     IErMin=11 ErrMin= 1.41D-06
 ErrMax= 1.41D-06  0.00D+00 EMaxC= 1.00D-01 BMatC= 1.03D-09 BMatP= 7.74D-09
 IDIUse=1 WtCom= 1.00D+00 WtEn= 0.00D+00
 Coeff-Com: -0.123D-04 0.292D-04-0.498D-03 0.925D-04-0.128D-02-0.131D-02
 Coeff-Com:  0.161D-02 0.396D-01 0.110D+00 0.299D+00 0.552D+00
 Coeff:     -0.123D-04 0.292D-04-0.498D-03 0.925D-04-0.128D-02-0.131D-02
 Coeff:      0.161D-02 0.396D-01 0.110D+00 0.299D+00 0.552D+00
 Gap=     0.123 Goal=   None    Shift=    0.000
 RMSDP=8.19D-07 MaxDP=5.42D-05 DE=-6.76D-09 OVMax= 1.14D-05

 Cycle  12  Pass 1  IDiag  1:
 RMSU=  4.13D-07    CP:  9.30D-01  1.12D+00  8.62D-01  2.95D-01  8.17D-01
                    CP:  6.17D-01  8.66D-01  7.70D-01  7.52D-01  7.99D-01
                    CP:  8.97D-01
 E= -379.743664406344     Delta-E=       -0.000000001033 Rises=F Damp=F
 DIIS: error= 3.17D-07 at cycle  12 NSaved=  12.
 NSaved=12 IEnMin=12 EnMin= -379.743664406344     IErMin=12 ErrMin= 3.17D-07
 ErrMax= 3.17D-07  0.00D+00 EMaxC= 1.00D-01 BMatC= 3.60D-11 BMatP= 1.03D-09
 IDIUse=1 WtCom= 1.00D+00 WtEn= 0.00D+00
 Coeff-Com: -0.123D-04 0.259D-04-0.225D-03 0.947D-04-0.739D-03-0.109D-02
 Coeff-Com: -0.289D-02 0.118D-02 0.948D-02 0.669D-01 0.177D+00 0.750D+00
 Coeff:     -0.123D-04 0.259D-04-0.225D-03 0.947D-04-0.739D-03-0.109D-02
 Coeff:     -0.289D-02 0.118D-02 0.948D-02 0.669D-01 0.177D+00 0.750D+00
 Gap=     0.123 Goal=   None    Shift=    0.000
 RMSDP=2.83D-07 MaxDP=3.15D-05 DE=-1.03D-09 OVMax= 4.85D-06

 Cycle  13  Pass 1  IDiag  1:
 RMSU=  1.39D-07    CP:  9.30D-01  1.12D+00  8.62D-01  2.95D-01  8.17D-01
                    CP:  6.16D-01  8.66D-01  7.68D-01  7.57D-01  8.32D-01
                    CP:  8.65D-01  9.63D-01
 E= -379.743664406399     Delta-E=       -0.000000000055 Rises=F Damp=F
 DIIS: error= 1.13D-07 at cycle  13 NSaved=  13.
 NSaved=13 IEnMin=13 EnMin= -379.743664406399     IErMin=13 ErrMin= 1.13D-07
 ErrMax= 1.13D-07  0.00D+00 EMaxC= 1.00D-01 BMatC= 6.18D-12 BMatP= 3.60D-11
 IDIUse=1 WtCom= 1.00D+00 WtEn= 0.00D+00
 Coeff-Com: -0.393D-05 0.809D-05-0.437D-04 0.300D-04-0.174D-03-0.279D-03
 Coeff-Com: -0.112D-02-0.295D-02-0.737D-02-0.812D-02-0.136D-01 0.269D+00
 Coeff-Com:  0.764D+00
 Coeff:     -0.393D-05 0.809D-05-0.437D-04 0.300D-04-0.174D-03-0.279D-03
 Coeff:     -0.112D-02-0.295D-02-0.737D-02-0.812D-02-0.136D-01 0.269D+00
 Coeff:      0.764D+00
 Gap=     0.123 Goal=   None    Shift=    0.000
 RMSDP=1.08D-07 MaxDP=7.96D-06 DE=-5.49D-11 OVMax= 1.72D-06

 Cycle  14  Pass 1  IDiag  1:
 RMSU=  3.17D-08    CP:  9.30D-01  1.12D+00  8.62D-01  2.95D-01  8.17D-01
                    CP:  6.17D-01  8.66D-01  7.69D-01  7.57D-01  8.38D-01
                    CP:  8.78D-01  1.05D+00  9.79D-01
 E= -379.743664406403     Delta-E=       -0.000000000004 Rises=F Damp=F
 DIIS: error= 6.09D-08 at cycle  14 NSaved=  14.
 NSaved=14 IEnMin=14 EnMin= -379.743664406403     IErMin=14 ErrMin= 6.09D-08
 ErrMax= 6.09D-08  0.00D+00 EMaxC= 1.00D-01 BMatC= 1.35D-12 BMatP= 6.18D-12
 IDIUse=1 WtCom= 1.00D+00 WtEn= 0.00D+00
 Coeff-Com: -0.662D-06 0.101D-05 0.115D-05 0.561D-05-0.996D-05-0.157D-04
 Coeff-Com: -0.220D-03-0.145D-02-0.463D-02-0.108D-01-0.309D-01 0.608D-01
 Coeff-Com:  0.416D+00 0.571D+00
 Coeff:     -0.662D-06 0.101D-05 0.115D-05 0.561D-05-0.996D-05-0.157D-04
 Coeff:     -0.220D-03-0.145D-02-0.463D-02-0.108D-01-0.309D-01 0.608D-01
 Coeff:      0.416D+00 0.571D+00
 Gap=     0.123 Goal=   None    Shift=    0.000
 RMSDP=2.89D-08 MaxDP=1.11D-06 DE=-4.43D-12 OVMax= 5.63D-07

 Cycle  15  Pass 1  IDiag  1:
 RMSU=  1.47D-08    CP:  9.30D-01  1.12D+00  8.62D-01  2.95D-01  8.17D-01
                    CP:  6.17D-01  8.66D-01  7.69D-01  7.57D-01  8.38D-01
                    CP:  8.87D-01  1.06D+00  1.02D+00  9.32D-01
 E= -379.743664406405     Delta-E=       -0.000000000001 Rises=F Damp=F
 DIIS: error= 1.37D-08 at cycle  15 NSaved=  15.
 NSaved=15 IEnMin=15 EnMin= -379.743664406405     IErMin=15 ErrMin= 1.37D-08
 ErrMax= 1.37D-08  0.00D+00 EMaxC= 1.00D-01 BMatC= 8.44D-14 BMatP= 1.35D-12
 IDIUse=1 WtCom= 1.00D+00 WtEn= 0.00D+00
 Coeff-Com:  0.243D-06-0.561D-06 0.558D-05-0.106D-05 0.160D-04 0.293D-04
 Coeff-Com:  0.596D-04-0.256D-03-0.114D-02-0.367D-02-0.139D-01-0.134D-01
 Coeff-Com:  0.675D-01 0.213D+00 0.752D+00
 Coeff:      0.243D-06-0.561D-06 0.558D-05-0.106D-05 0.160D-04 0.293D-04
 Coeff:      0.596D-04-0.256D-03-0.114D-02-0.367D-02-0.139D-01-0.134D-01
 Coeff:      0.675D-01 0.213D+00 0.752D+00
 Gap=     0.123 Goal=   None    Shift=    0.000
 RMSDP=1.25D-08 MaxDP=1.04D-06 DE=-1.14D-12 OVMax= 1.95D-07

 Cycle  16  Pass 1  IDiag  1:
 RMSU=  3.66D-09    CP:  9.30D-01  1.12D+00  8.62D-01  2.95D-01  8.17D-01
                    CP:  6.17D-01  8.66D-01  7.69D-01  7.57D-01  8.39D-01
                    CP:  8.85D-01  1.07D+00  1.05D+00  9.71D-01  8.46D-01
 E= -379.743664406404     Delta-E=        0.000000000000 Rises=F Damp=F
 DIIS: error= 3.82D-09 at cycle  16 NSaved=  16.
 NSaved=16 IEnMin=15 EnMin= -379.743664406405     IErMin=16 ErrMin= 3.82D-09
 ErrMax= 3.82D-09  0.00D+00 EMaxC= 1.00D-01 BMatC= 4.71D-15 BMatP= 8.44D-14
 IDIUse=1 WtCom= 1.00D+00 WtEn= 0.00D+00
 Coeff-Com:  0.923D-07-0.137D-06 0.118D-05-0.445D-06 0.392D-05 0.842D-05
 Coeff-Com:  0.318D-04 0.195D-04-0.460D-04-0.216D-03-0.242D-02-0.613D-02
 Coeff-Com: -0.237D-02 0.232D-01 0.239D+00 0.749D+00
 Coeff:      0.923D-07-0.137D-06 0.118D-05-0.445D-06 0.392D-05 0.842D-05
 Coeff:      0.318D-04 0.195D-04-0.460D-04-0.216D-03-0.242D-02-0.613D-02
 Coeff:     -0.237D-02 0.232D-01 0.239D+00 0.749D+00
 Gap=     0.123 Goal=   None    Shift=    0.000
 RMSDP=2.12D-09 MaxDP=7.96D-08 DE= 3.41D-13 OVMax= 3.74D-08

 SCF Done:  E(RB3LYP) =  -379.743664406     A.U. after   16 cycles
            NFock= 16  Conv=0.21D-08     -V/T= 2.0042
 KE= 3.781463104604D+02 PE=-1.675608277814D+03 EE= 5.209150432117D+02
 Leave Link  502 at Fri Nov  4 16:56:11 2022, MaxMem=  8053063680 cpu:             298.3 elap:               9.4
 (Enter /public3/home/scg5914/software-scg5914/g16/l601.exe)
 Copying SCF densities to generalized density rwf, IOpCl= 0 IROHF=0.

 **********************************************************************

            Population analysis using the SCF Density.

 **********************************************************************

 Orbital symmetries:
       Occupied  (A) (A) (A) (A) (A) (A) (A) (A) (A) (A) (A) (A)
                 (A) (A) (A) (A) (A) (A) (A) (A) (A) (A) (A) (A)
                 (A) (A) (A) (A) (A) (A) (A)
       Virtual   (A) (A) (A) (A) (A) (A) (A) (A) (A) (A) (A) (A)
                 (A) (A) (A) (A) (A) (A) (A) (A) (A) (A) (A) (A)
                 (A) (A) (A) (A) (A) (A) (A) (A) (A) (A) (A) (A)
                 (A) (A) (A) (A) (A) (A) (A) (A) (A) (A) (A) (A)
                 (A) (A) (A) (A) (A) (A) (A) (A) (A) (A) (A) (A)
                 (A) (A) (A) (A) (A) (A) (A) (A) (A) (A) (A) (A)
                 (A) (A) (A) (A) (A) (A) (A) (A) (A) (A) (A) (A)
                 (A) (A) (A) (A) (A) (A) (A) (A) (A) (A) (A) (A)
                 (A) (A) (A) (A) (A) (A) (A) (A) (A) (A) (A) (A)
                 (A) (A) (A) (A) (A) (A) (A) (A) (A) (A) (A) (A)
                 (A) (A) (A) (A) (A) (A) (A) (A) (A) (A) (A) (A)
                 (A) (A) (A) (A) (A) (A) (A) (A) (A) (A) (A) (A)
                 (A) (A) (A) (A) (A) (A) (A) (A) (A) (A) (A) (A)
                 (A) (A) (A) (A) (A) (A) (A) (A) (A) (A) (A) (A)
                 (A) (A) (A) (A) (A) (A) (A) (A) (A) (A) (A) (A)
                 (A) (A) (A) (A) (A) (A) (A) (A) (A) (A) (A) (A)
                 (A) (A) (A) (A) (A) (A) (A) (A) (A) (A) (A)
 The electronic state is 1-A.
 Alpha  occ. eigenvalues --  -14.37018 -14.32884 -10.28561 -10.25657 -10.24986
 Alpha  occ. eigenvalues --  -10.23199 -10.20431 -10.20153 -10.19614  -1.05822
 Alpha  occ. eigenvalues --   -0.92908  -0.80302  -0.79594  -0.72580  -0.69347
 Alpha  occ. eigenvalues --   -0.62792  -0.59877  -0.54748  -0.52761  -0.50078
 Alpha  occ. eigenvalues --   -0.46549  -0.45623  -0.44530  -0.41608  -0.40049
 Alpha  occ. eigenvalues --   -0.34877  -0.34005  -0.31069  -0.30025  -0.27381
 Alpha  occ. eigenvalues --   -0.22867
 Alpha virt. eigenvalues --   -0.10534  -0.02052  -0.00511   0.00096   0.00169
 Alpha virt. eigenvalues --    0.01699   0.01932   0.03035   0.03241   0.04952
 Alpha virt. eigenvalues --    0.05254   0.05997   0.06332   0.06723   0.07625
 Alpha virt. eigenvalues --    0.08294   0.09398   0.10025   0.11044   0.11153
 Alpha virt. eigenvalues --    0.11370   0.12819   0.13734   0.14356   0.14770
 Alpha virt. eigenvalues --    0.15723   0.15987   0.16486   0.16963   0.17811
 Alpha virt. eigenvalues --    0.18253   0.19317   0.19751   0.20282   0.21950
 Alpha virt. eigenvalues --    0.22020   0.22263   0.22685   0.23109   0.23789
 Alpha virt. eigenvalues --    0.24440   0.25101   0.26053   0.27090   0.27554
 Alpha virt. eigenvalues --    0.28928   0.29720   0.30225   0.31505   0.32922
 Alpha virt. eigenvalues --    0.33022   0.35156   0.38118   0.40473   0.41188
 Alpha virt. eigenvalues --    0.42848   0.44053   0.44228   0.50375   0.51814
 Alpha virt. eigenvalues --    0.52865   0.54750   0.55743   0.57376   0.58481
 Alpha virt. eigenvalues --    0.59155   0.59445   0.61565   0.62370   0.63891
 Alpha virt. eigenvalues --    0.65247   0.65475   0.66835   0.67976   0.69696
 Alpha virt. eigenvalues --    0.70227   0.71535   0.71985   0.72928   0.74575
 Alpha virt. eigenvalues --    0.76642   0.80492   0.81485   0.84329   0.86530
 Alpha virt. eigenvalues --    0.87287   0.88126   0.89583   0.92903   0.94532
 Alpha virt. eigenvalues --    0.96968   0.98478   1.01081   1.01810   1.06159
 Alpha virt. eigenvalues --    1.12084   1.13005   1.16354   1.17866   1.19346
 Alpha virt. eigenvalues --    1.21441   1.24269   1.27522   1.30348   1.33304
 Alpha virt. eigenvalues --    1.33796   1.37910   1.41955   1.43864   1.45110
 Alpha virt. eigenvalues --    1.48202   1.49842   1.53046   1.54090   1.55512
 Alpha virt. eigenvalues --    1.57623   1.58823   1.60528   1.63119   1.64057
 Alpha virt. eigenvalues --    1.64920   1.69520   1.70867   1.73441   1.75107
 Alpha virt. eigenvalues --    1.78324   1.80289   1.84747   1.86869   1.89178
 Alpha virt. eigenvalues --    1.89708   1.92368   1.94484   1.96622   1.99661
 Alpha virt. eigenvalues --    2.00775   2.05829   2.11677   2.18042   2.24336
 Alpha virt. eigenvalues --    2.29594   2.29968   2.32982   2.39155   2.40884
 Alpha virt. eigenvalues --    2.43073   2.43800   2.47215   2.48652   2.53408
 Alpha virt. eigenvalues --    2.56676   2.57738   2.58929   2.60284   2.62883
 Alpha virt. eigenvalues --    2.65517   2.65960   2.66664   2.69137   2.71322
 Alpha virt. eigenvalues --    2.73439   2.79795   2.81154   2.84236   2.85411
 Alpha virt. eigenvalues --    2.86784   2.87510   2.89804   2.92674   2.98300
 Alpha virt. eigenvalues --    3.00228   3.04168   3.08790   3.15461   3.19589
 Alpha virt. eigenvalues --    3.23408   3.29971   3.31684   3.40126   3.50903
 Alpha virt. eigenvalues --    3.54828   3.62166   3.66940   3.77060   3.78534
 Alpha virt. eigenvalues --    3.92063   3.98501   4.04926   4.18565   4.35002
 Alpha virt. eigenvalues --    4.43291   4.65778   4.78515   5.08863  23.53133
 Alpha virt. eigenvalues --   23.71141  23.75334  23.85823  23.90888  23.93045
 Alpha virt. eigenvalues --   25.13515  35.47046  35.60399
          Condensed to atoms (all electrons):
               1          2          3          4          5          6
     1  C    6.096218  -0.807844   0.443533  -0.153844  -0.035163  -0.024451
     2  C   -0.807844  10.575785  -2.652852   0.147003  -0.140124   0.017981
     3  C    0.443533  -2.652852  20.324248  -0.252035   0.531924   0.040808
     4  N   -0.153844   0.147003  -0.252035   6.761016   0.056231   0.025513
     5  C   -0.035163  -0.140124   0.531924   0.056231   6.112697   0.152571
     6  N   -0.024451   0.017981   0.040808   0.025513   0.152571   6.748848
     7  C   -0.315654  -1.024981   0.551299  -0.061224   0.010361   0.171317
     8  C   -0.164324   0.900359  -1.200594   0.097363  -0.209231   0.076531
     9  C    0.027514  -0.824015 -11.020276   0.097819  -0.222705  -0.062676
    10  H    0.378661  -0.047385   0.023605  -0.003554  -0.002236   0.000890
    11  H    0.441134  -0.120327   0.050408  -0.010813   0.004200  -0.001337
    12  H    0.388644   0.053687  -0.076814   0.009774  -0.000810  -0.001312
    13  H    0.013029  -0.020949   0.186303  -0.032364  -0.018124  -0.000999
    14  H   -0.001016  -0.056189  -0.008713   0.009231   0.010928  -0.056774
    15  H    0.001033   0.003685  -0.079562  -0.001008   0.000174   0.000078
               7          8          9         10         11         12
     1  C   -0.315654  -0.164324   0.027514   0.378661   0.441134   0.388644
     2  C   -1.024981   0.900359  -0.824015  -0.047385  -0.120327   0.053687
     3  C    0.551299  -1.200594 -11.020276   0.023605   0.050408  -0.076814
     4  N   -0.061224   0.097363   0.097819  -0.003554  -0.010813   0.009774
     5  C    0.010361  -0.209231  -0.222705  -0.002236   0.004200  -0.000810
     6  N    0.171317   0.076531  -0.062676   0.000890  -0.001337  -0.001312
     7  C    6.854727  -0.224749  -0.128306  -0.011113   0.028604  -0.000048
     8  C   -0.224749  12.921086  -7.489249   0.025972  -0.022308   0.003386
     9  C   -0.128306  -7.489249  25.848154   0.003946  -0.000307  -0.010899
    10  H   -0.011113   0.025972   0.003946   0.523693  -0.022809  -0.024700
    11  H    0.028604  -0.022308  -0.000307  -0.022809   0.518104  -0.027854
    12  H   -0.000048   0.003386  -0.010899  -0.024700  -0.027854   0.518794
    13  H    0.030227   0.098554   0.027467   0.002200  -0.000219   0.000329
    14  H    0.435961   0.002343  -0.014322  -0.000281  -0.000712   0.000512
    15  H   -0.003731  -0.275706   0.720620   0.000001  -0.000000   0.000002
              13         14         15
     1  C    0.013029  -0.001016   0.001033
     2  C   -0.020949  -0.056189   0.003685
     3  C    0.186303  -0.008713  -0.079562
     4  N   -0.032364   0.009231  -0.001008
     5  C   -0.018124   0.010928   0.000174
     6  N   -0.000999  -0.056774   0.000078
     7  C    0.030227   0.435961  -0.003731
     8  C    0.098554   0.002343  -0.275706
     9  C    0.027467  -0.014322   0.720620
    10  H    0.002200  -0.000281   0.000001
    11  H   -0.000219  -0.000712  -0.000000
    12  H    0.000329   0.000512   0.000002
    13  H    0.535213  -0.000002   0.000047
    14  H   -0.000002   0.530918   0.000002
    15  H    0.000047   0.000002   0.462157
 Mulliken charges:
               1
     1  C   -0.287471
     2  C   -0.003834
     3  C   -0.861284
     4  N    0.310893
     5  C   -0.250695
     6  N   -0.086988
     7  C   -0.312691
     8  C    1.460567
     9  C   -0.952764
    10  H    0.153111
    11  H    0.164236
    12  H    0.167308
    13  H    0.179287
    14  H    0.148113
    15  H    0.172210
 Sum of Mulliken charges =  -0.00000
 Mulliken charges with hydrogens summed into heavy atoms:
               1
     1  C    0.197185
     2  C   -0.003834
     3  C   -0.681997
     4  N    0.310893
     5  C   -0.250695
     6  N   -0.086988
     7  C   -0.164578
     8  C    1.460567
     9  C   -0.780554
 Electronic spatial extent (au):  <R**2>=            990.5883
 Charge=             -0.0000 electrons
 Dipole moment (field-independent basis, Debye):
    X=              1.0462    Y=             -4.7277    Z=             -2.3327  Tot=              5.3746
 Quadrupole moment (field-independent basis, Debye-Ang):
   XX=            -44.4374   YY=            -60.0429   ZZ=            -53.9124
   XY=             -0.5108   XZ=              1.3216   YZ=             -2.8962
 Traceless Quadrupole moment (field-independent basis, Debye-Ang):
   XX=              8.3602   YY=             -7.2453   ZZ=             -1.1149
   XY=             -0.5108   XZ=              1.3216   YZ=             -2.8962
 Octapole moment (field-independent basis, Debye-Ang**2):
  XXX=            -20.0972  YYY=            -32.3232  ZZZ=            -12.3040  XYY=              7.2622
  XXY=             -3.1470  XXZ=            -15.8217  XZZ=              4.7916  YZZ=             -4.4735
  YYZ=              1.8285  XYZ=              3.1334
 Hexadecapole moment (field-independent basis, Debye-Ang**3):
 XXXX=           -579.6277 YYYY=           -505.0966 ZZZZ=           -216.3715 XXXY=             -6.4073
 XXXZ=             52.5088 YYYX=             -9.8587 YYYZ=             -8.6152 ZZZX=             -5.7832
 ZZZY=            -15.9648 XXYY=           -212.2196 XXZZ=           -151.4033 YYZZ=           -112.9108
 XXYZ=             -4.1067 YYXZ=              4.5426 ZZXY=              4.8988
 N-N= 3.968032597355D+02 E-N=-1.675608278016D+03  KE= 3.781463104604D+02
 No NMR shielding tensors so no spin-rotation constants.
 Leave Link  601 at Fri Nov  4 16:56:11 2022, MaxMem=  8053063680 cpu:               6.3 elap:               0.2
 (Enter /public3/home/scg5914/software-scg5914/g16/l701.exe)
 ... and contract with generalized density number  0.
 Compute integral first derivatives.
 R6Disp: Adding Grimme-D3(BJ) dispersion energy 1st derivatives to the gradient.
 Leave Link  701 at Fri Nov  4 16:56:11 2022, MaxMem=  8053063680 cpu:               3.1 elap:               0.1
 (Enter /public3/home/scg5914/software-scg5914/g16/l702.exe)
 L702 exits ... SP integral derivatives will be done elsewhere.
 Leave Link  702 at Fri Nov  4 16:56:12 2022, MaxMem=  8053063680 cpu:               0.8 elap:               0.0
 (Enter /public3/home/scg5914/software-scg5914/g16/l703.exe)
 Integral derivatives from FoFJK, PRISM(SPDF).
 Compute integral first derivatives, UseDBF=F ICtDFT=           0.
 Calling FoFJK, ICntrl=      2127 FMM=F ISym2X=0 I1Cent= 0 IOpClX= 0 NMat=1 NMatS=1 NMatT=0.
 FoFJK:  IHMeth= 1 ICntrl=    2127 DoSepK=F KAlg= 0 I1Cent=           0 FoldK=F
 IRaf=         0 NMat=       1 IRICut=       1 DoRegI=T DoRafI=F ISym2E= 0 IDoP0=0 IntGTp=1.
 FoFCou: FMM=F IPFlag=           0 FMFlag=      100000 FMFlg1=         800
         NFxFlg=           0 DoJE=F BraDBF=F KetDBF=F FulRan=T
         wScrn=  0.000000 ICntrl=      2127 IOpCl=  0 I1Cent=           0 NGrid=           0
         NMat0=    1 NMatS0=      1 NMatT0=    0 NMatD0=    1 NMtDS0=    0 NMtDT0=    0
 Symmetry not used in FoFCou.
 Leave Link  703 at Fri Nov  4 16:56:13 2022, MaxMem=  8053063680 cpu:              49.4 elap:               1.6
 (Enter /public3/home/scg5914/software-scg5914/g16/l716.exe)
 Dipole        = 4.11620620D-01-1.86000473D+00-9.17736784D-01
 ***** Axes restored to original set *****
 -------------------------------------------------------------------
 Center     Atomic                   Forces (Hartrees/Bohr)
 Number     Number              X              Y              Z
 -------------------------------------------------------------------
      1        6           0.000512663   -0.000078619    0.000158584
      2        6           0.000109579    0.000316626   -0.000428276
      3        6           0.000732019   -0.001942556   -0.000340000
      4        7          -0.001429713    0.000838656    0.001537364
      5        6           0.002140430   -0.000154141   -0.000057622
      6        7          -0.001349924   -0.002099182    0.000394587
      7        6           0.001354081    0.000561698   -0.002512230
      8        6          -0.000369922    0.000155410   -0.000844631
      9        6           0.000987090   -0.000148841    0.000657640
     10        1          -0.000191959    0.001141279   -0.000180214
     11        1          -0.001135889   -0.000152727   -0.000192799
     12        1          -0.000690411    0.000235171    0.000926461
     13        1          -0.000100688    0.001598394    0.000084791
     14        1          -0.000319173   -0.000400909    0.000886411
     15        1          -0.000248184    0.000129743   -0.000090066
 -------------------------------------------------------------------
 Cartesian Forces:  Max     0.002512230 RMS     0.000939296
 Leave Link  716 at Fri Nov  4 16:56:13 2022, MaxMem=  8053063680 cpu:               0.3 elap:               0.0
 (Enter /public3/home/scg5914/software-scg5914/g16/l103.exe)

 GradGradGradGradGradGradGradGradGradGradGradGradGradGradGradGradGradGrad
 Berny optimization.
 FormGI is forming the generalized inverse of G from B-inverse, IUseBI=4.
 Internal  Forces:  Max     0.001993307 RMS     0.000625132
 Search for a local minimum.
 Step number   1 out of a maximum of   81
 All quantities printed in internal units (Hartrees-Bohrs-Radians)
 RMS Force = .62513D-03 SwitMx=.10000D-02 MixMth= 2
 Mixed Optimization -- En-DIIS/RFO-DIIS
 Second derivative matrix not updated -- first step.
 ITU=  0
     Eigenvalues ---    0.00598   0.00598   0.00599   0.01604   0.01983
     Eigenvalues ---    0.02152   0.02485   0.03695   0.04713   0.04713
     Eigenvalues ---    0.05028   0.05673   0.05755   0.08045   0.12759
     Eigenvalues ---    0.13406   0.15939   0.16000   0.16000   0.16000
     Eigenvalues ---    0.18954   0.22086   0.23024   0.24370   0.25667
     Eigenvalues ---    0.31086   0.32954   0.34242   0.34436   0.34504
     Eigenvalues ---    0.34765   0.34793   0.35155   0.38185   0.40365
     Eigenvalues ---    0.44126   0.45791   0.59880   1.04019
 RFO step:  Lambda=-1.37282819D-04 EMin= 5.97652221D-03
 Linear search not attempted -- first point.
 Iteration  1 RMS(Cart)=  0.01164054 RMS(Int)=  0.00007962
 Iteration  2 RMS(Cart)=  0.00010431 RMS(Int)=  0.00001097
 Iteration  3 RMS(Cart)=  0.00000001 RMS(Int)=  0.00001097
 ITry= 1 IFail=0 DXMaxC= 5.20D-02 DCOld= 1.00D+10 DXMaxT= 3.00D-01 DXLimC= 3.00D+00 Rises=F
 Variable       Old X    -DE/DX   Delta X   Delta X   Delta X     New X
                                 (Linear)    (Quad)   (Total)
    R1        2.85848  -0.00199   0.00000  -0.00641  -0.00641   2.85207
    R2        2.06488  -0.00111   0.00000  -0.00321  -0.00321   2.06167
    R3        2.06600  -0.00106   0.00000  -0.00308  -0.00308   2.06292
    R4        2.06924  -0.00104   0.00000  -0.00303  -0.00303   2.06621
    R5        2.94623  -0.00073   0.00000  -0.00418  -0.00418   2.94204
    R6        2.82958   0.00080   0.00000   0.00235   0.00233   2.83192
    R7        2.76540  -0.00076   0.00000  -0.00235  -0.00234   2.76306
    R8        2.74056   0.00044   0.00000   0.00236   0.00237   2.74293
    R9        2.71060  -0.00012   0.00000  -0.00030  -0.00030   2.71030
   R10        2.06058  -0.00160   0.00000  -0.00461  -0.00461   2.05597
   R11        2.61712  -0.00163   0.00000  -0.00327  -0.00328   2.61383
   R12        2.63455  -0.00133   0.00000  -0.00264  -0.00263   2.63192
   R13        2.48368   0.00019   0.00000   0.00020   0.00022   2.48390
   R14        2.05424  -0.00097   0.00000  -0.00275  -0.00275   2.05149
   R15        2.27071  -0.00088   0.00000  -0.00085  -0.00085   2.26986
   R16        2.00797   0.00029   0.00000   0.00076   0.00076   2.00873
    A1        1.92801  -0.00034   0.00000  -0.00243  -0.00244   1.92557
    A2        1.94014  -0.00043   0.00000  -0.00253  -0.00254   1.93760
    A3        1.93359  -0.00058   0.00000  -0.00347  -0.00347   1.93012
    A4        1.88311   0.00037   0.00000   0.00202   0.00201   1.88512
    A5        1.88600   0.00045   0.00000   0.00258   0.00258   1.88858
    A6        1.89122   0.00059   0.00000   0.00423   0.00423   1.89545
    A7        2.05415  -0.00017   0.00000   0.00172   0.00173   2.05587
    A8        2.16817  -0.00042   0.00000  -0.00347  -0.00347   2.16470
    A9        2.10561  -0.00031   0.00000  -0.00139  -0.00138   2.10423
   A10        2.09134   0.00046   0.00000  -0.00135  -0.00137   2.08997
   A11        1.72965   0.00054   0.00000   0.00517   0.00517   1.73482
   A12        2.15128  -0.00092   0.00000  -0.00537  -0.00540   2.14588
   A13        1.96808   0.00033   0.00000   0.00034   0.00035   1.96843
   A14        2.14018  -0.00001   0.00000   0.00091   0.00091   2.14109
   A15        1.99682  -0.00017   0.00000   0.00114   0.00114   1.99797
   A16        1.98541   0.00031   0.00000   0.00122   0.00121   1.98662
   A17        1.87417  -0.00035   0.00000  -0.00185  -0.00188   1.87229
   A18        1.97612   0.00019   0.00000   0.00422   0.00421   1.98033
   A19        1.89082   0.00014   0.00000   0.00195   0.00192   1.89274
   A20        1.85233   0.00108   0.00000   0.00555   0.00555   1.85787
   A21        1.99017  -0.00133   0.00000  -0.00609  -0.00612   1.98405
   A22        2.16590   0.00082   0.00000   0.00363   0.00361   2.16951
   A23        2.12375   0.00049   0.00000   0.00157   0.00155   2.12531
   A24        3.18657  -0.00044   0.00000  -0.00931  -0.00931   3.17727
   A25        3.12642  -0.00002   0.00000  -0.00297  -0.00297   3.12345
   A26        3.08445   0.00056   0.00000   0.01184   0.01184   3.09630
   A27        3.17546   0.00008   0.00000   0.01354   0.01354   3.18900
    D1       -0.55983  -0.00002   0.00000  -0.00260  -0.00260  -0.56243
    D2        0.60525   0.00000   0.00000  -0.00100  -0.00101   0.60424
    D3        2.85166  -0.00001   0.00000   0.00179   0.00179   2.85345
    D4       -2.64980   0.00003   0.00000  -0.00188  -0.00187  -2.65167
    D5       -1.48472   0.00005   0.00000  -0.00028  -0.00028  -1.48500
    D6        0.76169   0.00004   0.00000   0.00251   0.00251   0.76421
    D7        1.52950  -0.00005   0.00000  -0.00319  -0.00319   1.52631
    D8        2.69458  -0.00003   0.00000  -0.00160  -0.00160   2.69298
    D9       -1.34220  -0.00004   0.00000   0.00119   0.00120  -1.34100
   D10       -2.34307   0.00015   0.00000  -0.00087  -0.00087  -2.34395
   D11        0.15108  -0.00013   0.00000  -0.00632  -0.00631   0.14477
   D12        0.53091   0.00001   0.00000  -0.00523  -0.00523   0.52568
   D13        3.02506  -0.00026   0.00000  -0.01068  -0.01067   3.01440
   D14        2.60324  -0.00036   0.00000  -0.00985  -0.00986   2.59338
   D15        0.20931  -0.00010   0.00000  -0.01040  -0.01041   0.19890
   D16       -2.39600   0.00023   0.00000   0.00559   0.00559  -2.39041
   D17        0.65856  -0.00000   0.00000  -0.00583  -0.00583   0.65272
   D18        1.02120   0.00034   0.00000   0.00960   0.00959   1.03079
   D19       -2.20743   0.00011   0.00000  -0.00182  -0.00183  -2.20926
   D20        0.03351  -0.00009   0.00000   0.00476   0.00477   0.03828
   D21        3.08807  -0.00033   0.00000  -0.00665  -0.00665   3.08142
   D22       -0.23673   0.00025   0.00000   0.00136   0.00135  -0.23538
   D23       -2.76153  -0.00008   0.00000  -0.00468  -0.00471  -2.76624
   D24       -0.37833   0.00024   0.00000   0.01311   0.01309  -0.36524
   D25       -1.57191   0.00098   0.00000   0.01614   0.01614  -1.55577
   D26        0.39546   0.00008   0.00000  -0.00799  -0.00801   0.38745
   D27       -0.26019   0.00014   0.00000   0.00207   0.00207  -0.25812
   D28        2.96609   0.00034   0.00000   0.01305   0.01304   2.97913
         Item               Value     Threshold  Converged?
 Maximum Force            0.001993     0.000450     NO 
 RMS     Force            0.000625     0.000300     NO 
 Maximum Displacement     0.051992     0.001800     NO 
 RMS     Displacement     0.011675     0.001200     NO 
 Predicted change in Energy=-6.875109D-05
 Lowest energy point so far.  Saving SCF results.
 GradGradGradGradGradGradGradGradGradGradGradGradGradGradGradGradGradGrad

 Leave Link  103 at Fri Nov  4 16:56:13 2022, MaxMem=  8053063680 cpu:               2.0 elap:               0.1
 (Enter /public3/home/scg5914/software-scg5914/g16/l202.exe)
                          Input orientation:                          
 ---------------------------------------------------------------------
 Center     Atomic      Atomic             Coordinates (Angstroms)
 Number     Number       Type             X           Y           Z
 ---------------------------------------------------------------------
      1          6           0       10.381421   -1.347235   -0.163791
      2          6           0        9.146452   -0.534325    0.139302
      3          6           0        7.771785   -1.264629    0.111622
      4          7           0        8.292675   -0.727913    1.355587
      5          6           0        7.763981    0.506521    1.687010
      6          7           0        8.558389    1.495092    1.111341
      7          6           0        9.192418    0.926807    0.109962
      8          6           0        6.614298   -0.724146   -0.540390
      9          6           0        5.637588   -0.328308   -1.116698
     10          1           0       10.253162   -2.374301    0.181081
     11          1           0       11.257314   -0.930053    0.336679
     12          1           0       10.572404   -1.369603   -1.240141
     13          1           0        7.869802   -2.343409    0.010082
     14          1           0        9.768114    1.506592   -0.604848
     15          1           0        4.771382    0.054745   -1.599263
 ---------------------------------------------------------------------
                    Distance matrix (angstroms):
                    1          2          3          4          5
     1  C    0.000000
     2  C    1.509251   0.000000
     3  C    2.625429   1.556862   0.000000
     4  N    2.656112   1.498586   1.451496   0.000000
     5  C    3.703089   2.321634   2.370418   1.383180   0.000000
     6  N    3.609464   2.325771   3.038790   2.252113   1.392750
     7  C    2.580685   1.462149   2.611627   2.258146   2.168907
     8  C    3.836833   2.628653   1.434230   2.532132   2.792422
     9  C    4.944715   3.732574   2.634438   3.649845   3.616527
    10  H    1.090986   2.147572   2.719086   2.816659   4.094261
    11  H    1.091650   2.156686   3.508775   3.141356   4.011298
    12  H    1.093391   2.152648   3.111551   3.513792   4.469373
    13  H    2.707549   2.217954   1.087973   2.144535   3.308381
    14  H    2.952119   2.259550   3.489746   3.318620   3.204576
    15  H    5.958076   4.744560   3.697335   4.662960   4.467587
                    6          7          8          9         10
     6  N    0.000000
     7  C    1.314421   0.000000
     8  C    3.381231   3.129746   0.000000
     9  C    4.101223   3.964446   1.201159   0.000000
    10  H    4.325488   3.468076   4.060155   5.212854   0.000000
    11  H    3.710206   2.786238   4.729614   5.835728   1.765895
    12  H    4.218081   3.000106   4.070979   5.044993   1.769521
    13  H    4.052285   3.528966   2.121632   3.211393   2.389686
    14  H    2.099732   1.085601   3.863536   4.548637   3.989271
    15  H    4.874771   4.819492   2.263674   1.062972   6.254582
                   11         12         13         14         15
    11  H    0.000000
    12  H    1.774448   0.000000
    13  H    3.685034   3.132956   0.000000
    14  H    3.006897   3.053355   4.336385   0.000000
    15  H    6.839957   5.984112   4.235722   5.297551   0.000000
 Stoichiometry    C7H6N2
 Framework group  C1[X(C7H6N2)]
 Deg. of freedom    39
 Full point group                 C1      NOp   1
 RotChk:  IX=0 Diff= 7.63D-03
 Largest Abelian subgroup         C1      NOp   1
 Largest concise Abelian subgroup C1      NOp   1
                         Standard orientation:                         
 ---------------------------------------------------------------------
 Center     Atomic      Atomic             Coordinates (Angstroms)
 Number     Number       Type             X           Y           Z
 ---------------------------------------------------------------------
      1          6           0        1.962533   -1.402867   -0.245491
      2          6           0        0.840215   -0.398310   -0.150078
      3          6           0       -0.495387   -0.861774    0.501985
      4          7           0        0.318578    0.156227    1.140714
      5          6           0       -0.114147    1.445591    0.888771
      6          7           0        0.507880    1.900396   -0.271396
      7          6           0        0.872885    0.830419   -0.941936
      8          6           0       -1.780866   -0.580154   -0.068323
      9          6           0       -2.871932   -0.407152   -0.539947
     10          1           0        1.927817   -2.091361    0.600099
     11          1           0        2.934512   -0.906002   -0.236485
     12          1           0        1.878151   -1.987386   -1.165667
     13          1           0       -0.422584   -1.847690    0.956246
     14          1           0        1.249598    0.893572   -1.958119
     15          1           0       -3.832510   -0.212016   -0.951189
 ---------------------------------------------------------------------
 Rotational constants (GHZ):           2.6364216           1.7053618           1.3321046
 Leave Link  202 at Fri Nov  4 16:56:14 2022, MaxMem=  8053063680 cpu:               1.8 elap:               0.1
 (Enter /public3/home/scg5914/software-scg5914/g16/l301.exe)
 Standard basis: 6-311+G(d,p) (5D, 7F)
 Ernie: Thresh=  0.10000D-02 Tol=  0.10000D-05 Strict=F.
 There are   243 symmetry adapted cartesian basis functions of A   symmetry.
 There are   234 symmetry adapted basis functions of A   symmetry.
   234 basis functions,   372 primitive gaussians,   243 cartesian basis functions
    31 alpha electrons       31 beta electrons
       nuclear repulsion energy       397.2320377233 Hartrees.
 IExCor=  402 DFT=T Ex+Corr=B3LYP ExCW=0 ScaHFX=  0.200000
 ScaDFX=  0.800000  0.720000  1.000000  0.810000 ScalE2=  1.000000  1.000000
 IRadAn=      5 IRanWt=     -1 IRanGd=            0 ICorTp=0 IEmpDi=141
 NAtoms=   15 NActive=   15 NUniq=   15 SFac= 1.00D+00 NAtFMM=   60 NAOKFM=F Big=F
 Integral buffers will be    131072 words long.
 Raffenetti 2 integral format.
 Two-electron integral symmetry is turned on.
 R6Disp:  Grimme-D3(BJ) Dispersion energy=       -0.0263685301 Hartrees.
 Nuclear repulsion after empirical dispersion term =      397.2056691931 Hartrees.
 Leave Link  301 at Fri Nov  4 16:56:14 2022, MaxMem=  8053063680 cpu:               1.0 elap:               0.0
 (Enter /public3/home/scg5914/software-scg5914/g16/l302.exe)
 NPDir=0 NMtPBC=     1 NCelOv=     1 NCel=       1 NClECP=     1 NCelD=      1
         NCelK=      1 NCelE2=     1 NClLst=     1 CellRange=     0.0.
 One-electron integrals computed using PRISM.
 One-electron integral symmetry used in STVInt
 NBasis=   234 RedAO= T EigKep=  1.16D-06  NBF=   234
 NBsUse=   234 1.00D-06 EigRej= -1.00D+00 NBFU=   234
 Precomputing XC quadrature grid using
 IXCGrd= 4 IRadAn=           5 IRanWt=          -1 IRanGd=           0 AccXCQ= 0.00D+00.
 Generated NRdTot=       0 NPtTot=           0 NUsed=           0 NTot=          32
 NSgBfM=   243   243   243   243   243 MxSgAt=    15 MxSgA2=    15.
 Leave Link  302 at Fri Nov  4 16:56:14 2022, MaxMem=  8053063680 cpu:              26.6 elap:               0.9
 (Enter /public3/home/scg5914/software-scg5914/g16/l303.exe)
 DipDrv:  MaxL=1.
 Leave Link  303 at Fri Nov  4 16:56:15 2022, MaxMem=  8053063680 cpu:               1.9 elap:               0.1
 (Enter /public3/home/scg5914/software-scg5914/g16/l401.exe)
 Initial guess from the checkpoint file:  "dsgdb9nsd_133826.chk"
 B after Tr=     0.000000   -0.000000   -0.000000
         Rot=    0.999995   -0.000898   -0.001183   -0.002645 Ang=  -0.35 deg.
 Guess basis will be translated and rotated to current coordinates.
 JPrj=2 DoOrth=T DoCkMO=T.
 Generating alternative initial guess.
 ExpMin= 4.38D-02 ExpMax= 6.29D+03 ExpMxC= 9.49D+02 IAcc=3 IRadAn=         5 AccDes= 0.00D+00
 Harris functional with IExCor=  402 and IRadAn=       5 diagonalized for initial guess.
 HarFok:  IExCor=  402 AccDes= 0.00D+00 IRadAn=         5 IDoV= 1 UseB2=F ITyADJ=14
 ICtDFT=  3500011 ScaDFX=  1.000000  1.000000  1.000000  1.000000
 FoFCou: FMM=F IPFlag=           0 FMFlag=      100000 FMFlg1=           0
         NFxFlg=           0 DoJE=T BraDBF=F KetDBF=T FulRan=T
         wScrn=  0.000000 ICntrl=       500 IOpCl=  0 I1Cent=   200000004 NGrid=           0
         NMat0=    1 NMatS0=      1 NMatT0=    0 NMatD0=    1 NMtDS0=    0 NMtDT0=    0
 Petite list used in FoFCou.
 Harris En= -379.749848679528    
 Leave Link  401 at Fri Nov  4 16:56:15 2022, MaxMem=  8053063680 cpu:              16.4 elap:               0.5
 (Enter /public3/home/scg5914/software-scg5914/g16/l502.exe)
 Integral symmetry usage will be decided dynamically.
 Closed shell SCF:
 Using DIIS extrapolation, IDIIS=  1040.
 NGot=  8053063680 LenX=  8052935060 LenY=  8052875570
 Requested convergence on RMS density matrix=1.00D-08 within 128 cycles.
 Requested convergence on MAX density matrix=1.00D-06.
 Requested convergence on             energy=1.00D-06.
 No special actions if energy rises.
 Fock matrices will be formed incrementally for  20 cycles.

 Cycle   1  Pass 1  IDiag  1:
 FoFJK:  IHMeth= 1 ICntrl=       0 DoSepK=F KAlg= 0 I1Cent=           0 FoldK=F
 IRaf= 960000000 NMat=       1 IRICut=       1 DoRegI=T DoRafI=F ISym2E= 0 IDoP0=0 IntGTp=1.
 FoFCou: FMM=F IPFlag=           0 FMFlag=      100000 FMFlg1=           0
         NFxFlg=           0 DoJE=F BraDBF=F KetDBF=F FulRan=T
         wScrn=  0.000000 ICntrl=         0 IOpCl=  0 I1Cent=           0 NGrid=           0
         NMat0=    1 NMatS0=      1 NMatT0=    0 NMatD0=    1 NMtDS0=    0 NMtDT0=    0
 Symmetry not used in FoFCou.
 E= -379.742993308959    
 DIIS: error= 1.13D-03 at cycle   1 NSaved=   1.
 NSaved= 1 IEnMin= 1 EnMin= -379.742993308959     IErMin= 1 ErrMin= 1.13D-03
 ErrMax= 1.13D-03  0.00D+00 EMaxC= 1.00D-01 BMatC= 5.57D-04 BMatP= 5.57D-04
 IDIUse=3 WtCom= 9.89D-01 WtEn= 1.13D-02
 Coeff-Com:  0.100D+01
 Coeff-En:   0.100D+01
 Coeff:      0.100D+01
 Gap=     0.441 Goal=   None    Shift=    0.000
 GapD=    0.441 DampG=2.000 DampE=1.000 DampFc=2.0000 IDamp=-1.
 RMSDP=5.48D-03 MaxDP=5.99D-01              OVMax= 9.59D-03

 Cycle   2  Pass 1  IDiag  1:
 RMSU=  2.09D-03    CP:  9.35D-01
 E= -379.743696354562     Delta-E=       -0.000703045603 Rises=F Damp=F
 DIIS: error= 1.80D-04 at cycle   2 NSaved=   2.
 NSaved= 2 IEnMin= 2 EnMin= -379.743696354562     IErMin= 2 ErrMin= 1.80D-04
 ErrMax= 1.80D-04  0.00D+00 EMaxC= 1.00D-01 BMatC= 1.39D-05 BMatP= 5.57D-04
 IDIUse=3 WtCom= 9.98D-01 WtEn= 1.80D-03
 Coeff-Com:  0.543D-03 0.999D+00
 Coeff-En:   0.000D+00 0.100D+01
 Coeff:      0.542D-03 0.999D+00
 Gap=     0.122 Goal=   None    Shift=    0.000
 RMSDP=2.72D-04 MaxDP=2.28D-02 DE=-7.03D-04 OVMax= 3.12D-03

 Cycle   3  Pass 1  IDiag  1:
 RMSU=  1.75D-04    CP:  9.33D-01  1.02D+00
 E= -379.743666108530     Delta-E=        0.000030246033 Rises=F Damp=F
 DIIS: error= 3.09D-04 at cycle   3 NSaved=   3.
 NSaved= 3 IEnMin= 2 EnMin= -379.743696354562     IErMin= 2 ErrMin= 1.80D-04
 ErrMax= 3.09D-04  0.00D+00 EMaxC= 1.00D-01 BMatC= 4.79D-05 BMatP= 1.39D-05
 IDIUse=3 WtCom= 3.63D-01 WtEn= 6.37D-01
 Coeff-Com: -0.216D-01 0.676D+00 0.346D+00
 Coeff-En:   0.000D+00 0.718D+00 0.282D+00
 Coeff:     -0.785D-02 0.703D+00 0.305D+00
 Gap=     0.122 Goal=   None    Shift=    0.000
 RMSDP=1.21D-04 MaxDP=8.43D-03 DE= 3.02D-05 OVMax= 2.14D-03

 Cycle   4  Pass 1  IDiag  1:
 RMSU=  6.97D-05    CP:  9.33D-01  1.03D+00  5.19D-01
 E= -379.743713113812     Delta-E=       -0.000047005282 Rises=F Damp=F
 DIIS: error= 3.87D-05 at cycle   4 NSaved=   4.
 NSaved= 4 IEnMin= 4 EnMin= -379.743713113812     IErMin= 4 ErrMin= 3.87D-05
 ErrMax= 3.87D-05  0.00D+00 EMaxC= 1.00D-01 BMatC= 9.11D-07 BMatP= 1.39D-05
 IDIUse=1 WtCom= 1.00D+00 WtEn= 0.00D+00
 Coeff-Com: -0.118D-01 0.280D+00 0.137D+00 0.595D+00
 Coeff:     -0.118D-01 0.280D+00 0.137D+00 0.595D+00
 Gap=     0.122 Goal=   None    Shift=    0.000
 RMSDP=1.90D-05 MaxDP=7.86D-04 DE=-4.70D-05 OVMax= 4.23D-04

 Cycle   5  Pass 1  IDiag  1:
 RMSU=  1.81D-05    CP:  9.33D-01  1.03D+00  5.07D-01  9.50D-01
 E= -379.743713887272     Delta-E=       -0.000000773461 Rises=F Damp=F
 DIIS: error= 2.49D-05 at cycle   5 NSaved=   5.
 NSaved= 5 IEnMin= 5 EnMin= -379.743713887272     IErMin= 5 ErrMin= 2.49D-05
 ErrMax= 2.49D-05  0.00D+00 EMaxC= 1.00D-01 BMatC= 2.44D-07 BMatP= 9.11D-07
 IDIUse=1 WtCom= 1.00D+00 WtEn= 0.00D+00
 Coeff-Com: -0.275D-02 0.436D-01 0.164D-01 0.339D+00 0.603D+00
 Coeff:     -0.275D-02 0.436D-01 0.164D-01 0.339D+00 0.603D+00
 Gap=     0.122 Goal=   None    Shift=    0.000
 RMSDP=9.20D-06 MaxDP=6.72D-04 DE=-7.73D-07 OVMax= 2.16D-04

 Cycle   6  Pass 1  IDiag  1:
 RMSU=  5.77D-06    CP:  9.33D-01  1.03D+00  5.17D-01  9.75D-01  8.65D-01
 E= -379.743714096447     Delta-E=       -0.000000209175 Rises=F Damp=F
 DIIS: error= 1.46D-05 at cycle   6 NSaved=   6.
 NSaved= 6 IEnMin= 6 EnMin= -379.743714096447     IErMin= 6 ErrMin= 1.46D-05
 ErrMax= 1.46D-05  0.00D+00 EMaxC= 1.00D-01 BMatC= 5.40D-08 BMatP= 2.44D-07
 IDIUse=1 WtCom= 1.00D+00 WtEn= 0.00D+00
 Coeff-Com: -0.210D-03-0.108D-01-0.938D-02 0.146D+00 0.392D+00 0.483D+00
 Coeff:     -0.210D-03-0.108D-01-0.938D-02 0.146D+00 0.392D+00 0.483D+00
 Gap=     0.122 Goal=   None    Shift=    0.000
 RMSDP=3.93D-06 MaxDP=2.59D-04 DE=-2.09D-07 OVMax= 8.86D-05

 Cycle   7  Pass 1  IDiag  1:
 RMSU=  2.50D-06    CP:  9.33D-01  1.03D+00  5.18D-01  1.01D+00  7.91D-01
                    CP:  8.56D-01
 E= -379.743714144454     Delta-E=       -0.000000048006 Rises=F Damp=F
 DIIS: error= 4.62D-06 at cycle   7 NSaved=   7.
 NSaved= 7 IEnMin= 7 EnMin= -379.743714144454     IErMin= 7 ErrMin= 4.62D-06
 ErrMax= 4.62D-06  0.00D+00 EMaxC= 1.00D-01 BMatC= 6.44D-09 BMatP= 5.40D-08
 IDIUse=1 WtCom= 1.00D+00 WtEn= 0.00D+00
 Coeff-Com:  0.317D-03-0.157D-01-0.104D-01 0.418D-01 0.156D+00 0.298D+00
 Coeff-Com:  0.530D+00
 Coeff:      0.317D-03-0.157D-01-0.104D-01 0.418D-01 0.156D+00 0.298D+00
 Coeff:      0.530D+00
 Gap=     0.122 Goal=   None    Shift=    0.000
 RMSDP=1.82D-06 MaxDP=1.14D-04 DE=-4.80D-08 OVMax= 4.09D-05

 Cycle   8  Pass 1  IDiag  1:
 RMSU=  1.09D-06    CP:  9.33D-01  1.03D+00  5.20D-01  1.02D+00  8.28D-01
                    CP:  8.44D-01  8.43D-01
 E= -379.743714150345     Delta-E=       -0.000000005891 Rises=F Damp=F
 DIIS: error= 1.50D-06 at cycle   8 NSaved=   8.
 NSaved= 8 IEnMin= 8 EnMin= -379.743714150345     IErMin= 8 ErrMin= 1.50D-06
 ErrMax= 1.50D-06  0.00D+00 EMaxC= 1.00D-01 BMatC= 8.51D-10 BMatP= 6.44D-09
 IDIUse=1 WtCom= 1.00D+00 WtEn= 0.00D+00
 Coeff-Com:  0.231D-03-0.812D-02-0.547D-02 0.373D-02 0.328D-01 0.102D+00
 Coeff-Com:  0.313D+00 0.561D+00
 Coeff:      0.231D-03-0.812D-02-0.547D-02 0.373D-02 0.328D-01 0.102D+00
 Coeff:      0.313D+00 0.561D+00
 Gap=     0.122 Goal=   None    Shift=    0.000
 RMSDP=9.35D-07 MaxDP=6.90D-05 DE=-5.89D-09 OVMax= 1.10D-05

 Cycle   9  Pass 1  IDiag  1:
 RMSU=  4.61D-07    CP:  9.33D-01  1.03D+00  5.19D-01  1.03D+00  8.20D-01
                    CP:  8.74D-01  9.05D-01  9.61D-01
 E= -379.743714151217     Delta-E=       -0.000000000872 Rises=F Damp=F
 DIIS: error= 4.63D-07 at cycle   9 NSaved=   9.
 NSaved= 9 IEnMin= 9 EnMin= -379.743714151217     IErMin= 9 ErrMin= 4.63D-07
 ErrMax= 4.63D-07  0.00D+00 EMaxC= 1.00D-01 BMatC= 7.57D-11 BMatP= 8.51D-10
 IDIUse=1 WtCom= 1.00D+00 WtEn= 0.00D+00
 Coeff-Com:  0.624D-04-0.156D-02-0.132D-02-0.219D-02-0.503D-02 0.700D-02
 Coeff-Com:  0.715D-01 0.251D+00 0.680D+00
 Coeff:      0.624D-04-0.156D-02-0.132D-02-0.219D-02-0.503D-02 0.700D-02
 Coeff:      0.715D-01 0.251D+00 0.680D+00
 Gap=     0.122 Goal=   None    Shift=    0.000
 RMSDP=2.40D-07 MaxDP=1.22D-05 DE=-8.72D-10 OVMax= 1.03D-05

 Cycle  10  Pass 1  IDiag  1:
 RMSU=  1.73D-07    CP:  9.33D-01  1.03D+00  5.20D-01  1.03D+00  8.23D-01
                    CP:  8.87D-01  9.25D-01  1.01D+00  8.32D-01
 E= -379.743714151273     Delta-E=       -0.000000000056 Rises=F Damp=F
 DIIS: error= 3.90D-07 at cycle  10 NSaved=  10.
 NSaved=10 IEnMin=10 EnMin= -379.743714151273     IErMin=10 ErrMin= 3.90D-07
 ErrMax= 3.90D-07  0.00D+00 EMaxC= 1.00D-01 BMatC= 4.38D-11 BMatP= 7.57D-11
 IDIUse=1 WtCom= 1.00D+00 WtEn= 0.00D+00
 Coeff-Com: -0.146D-05 0.528D-03 0.927D-04-0.183D-02-0.963D-02-0.157D-01
 Coeff-Com: -0.127D-01 0.503D-01 0.486D+00 0.503D+00
 Coeff:     -0.146D-05 0.528D-03 0.927D-04-0.183D-02-0.963D-02-0.157D-01
 Coeff:     -0.127D-01 0.503D-01 0.486D+00 0.503D+00
 Gap=     0.122 Goal=   None    Shift=    0.000
 RMSDP=1.88D-07 MaxDP=1.26D-05 DE=-5.62D-11 OVMax= 2.09D-06

 Cycle  11  Pass 1  IDiag  1:
 RMSU=  5.11D-08    CP:  9.33D-01  1.03D+00  5.20D-01  1.03D+00  8.21D-01
                    CP:  8.92D-01  9.42D-01  1.05D+00  9.47D-01  6.74D-01
 E= -379.743714151316     Delta-E=       -0.000000000043 Rises=F Damp=F
 DIIS: error= 7.02D-08 at cycle  11 NSaved=  11.
 NSaved=11 IEnMin=11 EnMin= -379.743714151316     IErMin=11 ErrMin= 7.02D-08
 ErrMax= 7.02D-08  0.00D+00 EMaxC= 1.00D-01 BMatC= 2.08D-12 BMatP= 4.38D-11
 IDIUse=1 WtCom= 1.00D+00 WtEn= 0.00D+00
 Coeff-Com: -0.749D-05 0.452D-03 0.175D-03-0.662D-03-0.463D-02-0.950D-02
 Coeff-Com: -0.146D-01-0.723D-02 0.196D+00 0.242D+00 0.598D+00
 Coeff:     -0.749D-05 0.452D-03 0.175D-03-0.662D-03-0.463D-02-0.950D-02
 Coeff:     -0.146D-01-0.723D-02 0.196D+00 0.242D+00 0.598D+00
 Gap=     0.122 Goal=   None    Shift=    0.000
 RMSDP=4.13D-08 MaxDP=3.13D-06 DE=-4.26D-11 OVMax= 8.71D-07

 Cycle  12  Pass 1  IDiag  1:
 RMSU=  1.97D-08    CP:  9.33D-01  1.03D+00  5.20D-01  1.03D+00  8.21D-01
                    CP:  8.92D-01  9.50D-01  1.05D+00  9.55D-01  6.88D-01
                    CP:  9.58D-01
 E= -379.743714151321     Delta-E=       -0.000000000005 Rises=F Damp=F
 DIIS: error= 3.76D-08 at cycle  12 NSaved=  12.
 NSaved=12 IEnMin=12 EnMin= -379.743714151321     IErMin=12 ErrMin= 3.76D-08
 ErrMax= 3.76D-08  0.00D+00 EMaxC= 1.00D-01 BMatC= 3.82D-13 BMatP= 2.08D-12
 IDIUse=1 WtCom= 1.00D+00 WtEn= 0.00D+00
 Coeff-Com: -0.416D-05 0.190D-03 0.913D-04-0.151D-03-0.146D-02-0.362D-02
 Coeff-Com: -0.728D-02-0.146D-01 0.461D-01 0.594D-01 0.340D+00 0.582D+00
 Coeff:     -0.416D-05 0.190D-03 0.913D-04-0.151D-03-0.146D-02-0.362D-02
 Coeff:     -0.728D-02-0.146D-01 0.461D-01 0.594D-01 0.340D+00 0.582D+00
 Gap=     0.122 Goal=   None    Shift=    0.000
 RMSDP=2.45D-08 MaxDP=1.67D-06 DE=-5.46D-12 OVMax= 2.94D-07

 Cycle  13  Pass 1  IDiag  1:
 RMSU=  9.24D-09    CP:  9.33D-01  1.03D+00  5.20D-01  1.03D+00  8.20D-01
                    CP:  8.93D-01  9.52D-01  1.06D+00  9.74D-01  6.89D-01
                    CP:  1.02D+00  9.32D-01
 E= -379.743714151321     Delta-E=        0.000000000001 Rises=F Damp=F
 DIIS: error= 8.98D-09 at cycle  13 NSaved=  13.
 NSaved=13 IEnMin=12 EnMin= -379.743714151321     IErMin=13 ErrMin= 8.98D-09
 ErrMax= 8.98D-09  0.00D+00 EMaxC= 1.00D-01 BMatC= 3.78D-14 BMatP= 3.82D-13
 IDIUse=1 WtCom= 1.00D+00 WtEn= 0.00D+00
 Coeff-Com: -0.628D-06 0.654D-05 0.712D-05 0.859D-04 0.165D-03 0.460D-04
 Coeff-Com: -0.693D-03-0.671D-02-0.966D-02-0.143D-01 0.712D-01 0.288D+00
 Coeff-Com:  0.672D+00
 Coeff:     -0.628D-06 0.654D-05 0.712D-05 0.859D-04 0.165D-03 0.460D-04
 Coeff:     -0.693D-03-0.671D-02-0.966D-02-0.143D-01 0.712D-01 0.288D+00
 Coeff:      0.672D+00
 Gap=     0.122 Goal=   None    Shift=    0.000
 RMSDP=6.17D-09 MaxDP=5.45D-07 DE= 7.96D-13 OVMax= 1.09D-07

 SCF Done:  E(RB3LYP) =  -379.743714151     A.U. after   13 cycles
            NFock= 13  Conv=0.62D-08     -V/T= 2.0042
 KE= 3.781715565720D+02 PE=-1.676432057612D+03 EE= 5.213111176955D+02
 Leave Link  502 at Fri Nov  4 16:56:23 2022, MaxMem=  8053063680 cpu:             241.2 elap:               7.6
 (Enter /public3/home/scg5914/software-scg5914/g16/l701.exe)
 ... and contract with generalized density number  0.
 Compute integral first derivatives.
 R6Disp: Adding Grimme-D3(BJ) dispersion energy 1st derivatives to the gradient.
 Leave Link  701 at Fri Nov  4 16:56:23 2022, MaxMem=  8053063680 cpu:               2.9 elap:               0.1
 (Enter /public3/home/scg5914/software-scg5914/g16/l702.exe)
 L702 exits ... SP integral derivatives will be done elsewhere.
 Leave Link  702 at Fri Nov  4 16:56:23 2022, MaxMem=  8053063680 cpu:               1.5 elap:               0.1
 (Enter /public3/home/scg5914/software-scg5914/g16/l703.exe)
 Integral derivatives from FoFJK, PRISM(SPDF).
 Compute integral first derivatives, UseDBF=F ICtDFT=           0.
 Calling FoFJK, ICntrl=      2127 FMM=F ISym2X=0 I1Cent= 0 IOpClX= 0 NMat=1 NMatS=1 NMatT=0.
 FoFJK:  IHMeth= 1 ICntrl=    2127 DoSepK=F KAlg= 0 I1Cent=           0 FoldK=F
 IRaf=         0 NMat=       1 IRICut=       1 DoRegI=T DoRafI=F ISym2E= 0 IDoP0=0 IntGTp=1.
 FoFCou: FMM=F IPFlag=           0 FMFlag=      100000 FMFlg1=         800
         NFxFlg=           0 DoJE=F BraDBF=F KetDBF=F FulRan=T
         wScrn=  0.000000 ICntrl=      2127 IOpCl=  0 I1Cent=           0 NGrid=           0
         NMat0=    1 NMatS0=      1 NMatT0=    0 NMatD0=    1 NMtDS0=    0 NMtDT0=    0
 Symmetry not used in FoFCou.
[...]
     1. BD (   1) C   1 - C   2          1.97593    -0.67665  229(v),222(g),224(v),220(g)
                                                    226(v),228(v)
     2. BD (   1) C   1 - H  10          1.98349    -0.53298  222(v),221(v)
     3. BD (   1) C   1 - H  11          1.98412    -0.53139  220(v)
     4. BD (   1) C   1 - H  12          1.97998    -0.53188  221(v)
     5. BD (   1) C   2 - C   3          1.86412    -0.56699  233(v),221(g),229(v),223(g)
                                                    231(v),226(v),218(v),154(v)
                                                    224(g),85(v),137(v),33(v)
                                                    87(v),31(r)
     6. BD (   1) C   2 - N   4          1.92362    -0.62261  224(v),223(g),220(g),230(v)
                                                    101(v),227(v),229(v),219(v)
                                                    68(v),228(v),216(g),34(v)
                                                    232(r),69(v),225(v)
     7. BD (   1) C   2 - C   7          1.98685    -0.70616  216(g),118(v),220(g),217(v)
                                                    67(v),33(v),225(v),228(g)
     8. BD (   1) C   3 - N   4          1.92706    -0.68383  31(v),221(g),216(v),220(g)
                                                    233(v),231(v),102(v),222(v)
                                                    227(v),103(v),53(v),224(g)
     9. BD (   1) C   3 - C   8          1.98455    -0.75300  231(g),169(v),234(v),220(g)
                                                    51(v),216(v),179(v),225(g)
    10. BD (   1) C   3 - H  13          1.96832    -0.56232  232(v),231(v),222(v),226(v)
                                                    224(g),153(v),86(v),52(v)
                                                    221(v)
    11. BD (   1) N   4 - C   5          1.97713    -0.79901  216(v),67(v),51(v),225(v)
                                                    221(g),223(g),119(v),230(r)
    12. BD (   1) C   5 - N   6          1.97388    -0.76513  230(v),136(v),31(g),223(v)
                                                    85(v),228(g)
    13. BD (   1) N   6 - C   7          1.98619    -0.85938  31(v),216(v),221(v),102(v)
                                                    222(g),51(v),220(v),101(v)
                                                    226(v),230(g)
    14. BD (   2) N   6 - C   7          1.79100    -0.33761  31(v),220(v),216(v),104(v)
                                                    227(g)
    15. BD (   1) C   7 - H  14          1.98252    -0.57162  227(v),220(v),52(v),221(v)
                                                    118(v)
    16. BD (   1) C   8 - C   9          1.98568    -0.88614  224(g),234(g),71(v),69(v)
                                                    152(g),211(v)
    17. BD (   2) C   8 - C   9          1.97171    -0.31196  225(v),223(v),31(r),220(v)
    18. BD (   3) C   8 - C   9          1.94923    -0.31035  220(v),223(v)
    19. BD (   1) C   9 - H  15          1.98750    -0.61231  231(g),224(v),152(v),179(g)
                                                    169(g),158(v)
    20. CR (   1) C   1                  1.99926   -10.05735  52(v),186(v)
    21. CR (   1) C   2                  1.99911   -10.12568  35(v),136(v)
    22. CR (   1) C   3                  1.99898   -10.14739  231(v),155(v),226(v),53(v)
                                                    51(v),87(v)
    23. CR (   1) N   4                  1.99927   -14.19441  102(v),51(v),101(v)
    24. CR (   1) C   5                  1.99934   -10.11119  228(v),223(v),221(v)
    25. CR (   1) N   6                  1.99944   -14.14119  135(v),101(v),106(v)
    26. CR (   1) C   7                  1.99910   -10.11164  51(v),119(v),227(v),220(v)
                                                    216(v),52(v)
    27. CR (   1) C   8                  1.99875   -10.05288  234(v),231(g),169(v),69(v)
                                                    67(v)
    28. CR (   1) C   9                  1.99856   -10.04874  224(v),152(v),231(g),211(v)
                                                    234(g)
    29. LP (   1) N   4                  1.77706    -0.39703  31(v),224(v),225(v),102(v)
                                                    68(v),50(v),216(v),222(v)
                                                    103(v),227(v)
    30. LP (   1) C   5                  1.82201    -0.29660  221(v),228(v),229(v),118(v)
                                                    84(v)
    31. LP*(   2) C   5                  0.43687    -0.08044  229(v),223(v),103(g),232(r)
                                                    227(g),107(g)
    32. LP (   1) N   6                  1.92749    -0.38353  222(v),101(v),135(v),226(v)
                                                    230(v),31(v)
    33. RY*(   1) C   1                  0.00287     0.58082   
    34. RY*(   2) C   1                  0.00240     0.60935   
    35. RY*(   3) C   1                  0.00078     0.79938   
    36. RY*(   4) C   1                  0.00025     1.89222   
    37. RY*(   5) C   1                  0.00012     0.88863   
    38. RY*(   6) C   1                  0.00010     1.45430   
    39. RY*(   7) C   1                  0.00007     1.49741   
    40. RY*(   8) C   1                  0.00004     1.10479   
    41. RY*(   9) C   1                  0.00003     1.50558   
    42. RY*(  10) C   1                  0.00000    22.86507   
    43. RY*(  11) C   1                  0.00000     0.95603   
    44. RY*(  12) C   1                  0.00000     2.83139   
    45. RY*(  13) C   1                  0.00000     2.80124   
    46. RY*(  14) C   1                  0.00001     1.64675   
    47. RY*(  15) C   1                  0.00001     1.60612   
    48. RY*(  16) C   1                  0.00001     1.71673   
    49. RY*(  17) C   1                  0.00001     1.73465   
    50. RY*(   1) C   2                  0.00741     0.86715   
    51. RY*(   2) C   2                  0.00367     0.81836   
    52. RY*(   3) C   2                  0.00279     1.21107   
    53. RY*(   4) C   2                  0.00218     0.88880   
    54. RY*(   5) C   2                  0.00115     1.58274   
    55. RY*(   6) C   2                  0.00088     1.76130   
    56. RY*(   7) C   2                  0.00070     1.59480   
    57. RY*(   8) C   2                  0.00042     1.84005   
    58. RY*(   9) C   2                  0.00032     2.28102   
    59. RY*(  10) C   2                  0.00021     1.39995   
    60. RY*(  11) C   2                  0.00017     1.58786   
    61. RY*(  12) C   2                  0.00011     3.20253   
    62. RY*(  13) C   2                  0.00006     2.26876   
    63. RY*(  14) C   2                  0.00003     3.00009   
    64. RY*(  15) C   2                  0.00003     1.02279   
    65. RY*(  16) C   2                  0.00001     2.19358   
    66. RY*(  17) C   2                  0.00000    21.03385   
    67. RY*(   1) C   3                  0.00591     0.89087   
    68. RY*(   2) C   3                  0.00355     1.22225   
    69. RY*(   3) C   3                  0.00278     1.06005   
    70. RY*(   4) C   3                  0.00152     1.11991   
    71. RY*(   5) C   3                  0.00118     1.44042   
    72. RY*(   6) C   3                  0.00101     1.42020   
    73. RY*(   7) C   3                  0.00041     1.40734   
    74. RY*(   8) C   3                  0.00031     1.34895   
    75. RY*(   9) C   3                  0.00024     2.38313   
    76. RY*(  10) C   3                  0.00018     1.53423   
    77. RY*(  11) C   3                  0.00014     1.86711   
    78. RY*(  12) C   3                  0.00006     1.83389   
    79. RY*(  13) C   3                  0.00006     2.03814   
    80. RY*(  14) C   3                  0.00003     2.02260   
    81. RY*(  15) C   3                  0.00001     2.89653   
    82. RY*(  16) C   3                  0.00000    21.28565   
    83. RY*(  17) C   3                  0.00000     0.89863   
    84. RY*(   1) N   4                  0.00533     0.76975   
    85. RY*(   2) N   4                  0.00347     0.81909   
    86. RY*(   3) N   4                  0.00268     0.61157   
    87. RY*(   4) N   4                  0.00151     1.11930   
    88. RY*(   5) N   4                  0.00082     0.89198   
    89. RY*(   6) N   4                  0.00045     1.01542   
    90. RY*(   7) N   4                  0.00034     1.12328   
    91. RY*(   8) N   4                  0.00021     2.14384   
    92. RY*(   9) N   4                  0.00008     1.97108   
    93. RY*(  10) N   4                  0.00006     2.79767   
    94. RY*(  11) N   4                  0.00003     3.52780   
    95. RY*(  12) N   4                  0.00002     1.31862   
    96. RY*(  13) N   4                  0.00001     2.96481   
    97. RY*(  14) N   4                  0.00001     2.35972   
    98. RY*(  15) N   4                  0.00000     3.45605   
    99. RY*(  16) N   4                  0.00000     4.01976   
   100. RY*(  17) N   4                  0.00000    34.95108   
   101. RY*(   1) C   5                  0.00819     0.87256   
   102. RY*(   2) C   5                  0.00468     0.92862   
   103. RY*(   3) C   5                  0.00198     0.82406   
   104. RY*(   4) C   5                  0.00108     1.56884   
   105. RY*(   5) C   5                  0.00062     0.88731   
   106. RY*(   6) C   5                  0.00035     0.93162   
   107. RY*(   7) C   5                  0.00012     1.57153   
   108. RY*(   8) C   5                  0.00007     1.96343   
   109. RY*(   9) C   5                  0.00005     1.89098   
   110. RY*(  10) C   5                  0.00002     0.88194   
   111. RY*(  11) C   5                  0.00002     2.50469   
   112. RY*(  12) C   5                  0.00002     1.17786   
   113. RY*(  13) C   5                  0.00002     1.21075   
   114. RY*(  14) C   5                  0.00000     2.49333   
   115. RY*(  15) C   5                  0.00000     2.56278   
   116. RY*(  16) C   5                  0.00001     2.22932   
   117. RY*(  17) C   5                  0.00000    21.34071   
   118. RY*(   1) N   6                  0.00586     0.66067   
   119. RY*(   2) N   6                  0.00181     1.02003   
   120. RY*(   3) N   6                  0.00056     1.17951   
   121. RY*(   4) N   6                  0.00043     1.07902   
   122. RY*(   5) N   6                  0.00030     1.75156   
   123. RY*(   6) N   6                  0.00010     1.97352   
   124. RY*(   7) N   6                  0.00005     1.79197   
   125. RY*(   8) N   6                  0.00004     1.27304   
   126. RY*(   9) N   6                  0.00003     1.59902   
   127. RY*(  10) N   6                  0.00002     2.18331   
   128. RY*(  11) N   6                  0.00001     1.44042   
   129. RY*(  12) N   6                  0.00000     3.82273   
   130. RY*(  13) N   6                  0.00000     2.13801   
   131. RY*(  14) N   6                  0.00000     3.36190   
   132. RY*(  15) N   6                  0.00000    35.07809   
   133. RY*(  16) N   6                  0.00001     2.00241   
   134. RY*(  17) N   6                  0.00000     3.76414   
   135. RY*(   1) C   7                  0.00783     0.95587   
   136. RY*(   2) C   7                  0.00409     0.94022   
   137. RY*(   3) C   7                  0.00223     0.75209   
   138. RY*(   4) C   7                  0.00116     1.55701   
   139. RY*(   5) C   7                  0.00075     0.71454   
   140. RY*(   6) C   7                  0.00050     0.91280   
   141. RY*(   7) C   7                  0.00015     1.89095   
   142. RY*(   8) C   7                  0.00010     3.03630   
   143. RY*(   9) C   7                  0.00008     1.13733   
   144. RY*(  10) C   7                  0.00004     1.81552   
   145. RY*(  11) C   7                  0.00004     1.50157   
   146. RY*(  12) C   7                  0.00001     6.33843   
   147. RY*(  13) C   7                  0.00001     0.46286   
   148. RY*(  14) C   7                  0.00000     2.07173   
   149. RY*(  15) C   7                  0.00000     2.70337   
   150. RY*(  16) C   7                  0.00001     1.85122   
   151. RY*(  17) C   7                  0.00000    17.58009   
   152. RY*(   1) C   8                  0.00431     1.45134   
   153. RY*(   2) C   8                  0.00354     0.90613   
   154. RY*(   3) C   8                  0.00196     0.80034   
   155. RY*(   4) C   8                  0.00080     1.02541   
   156. RY*(   5) C   8                  0.00041     1.37706   
   157. RY*(   6) C   8                  0.00021     1.68634   
   158. RY*(   7) C   8                  0.00011     2.11524   
   159. RY*(   8) C   8                  0.00007     2.37189   
   160. RY*(   9) C   8                  0.00004     1.30129   
   161. RY*(  10) C   8                  0.00004     2.75021   
   162. RY*(  11) C   8                  0.00000    20.64236   
   163. RY*(  12) C   8                  0.00000     2.74440   
   164. RY*(  13) C   8                  0.00001     0.60977   
   165. RY*(  14) C   8                  0.00000     2.77150   
   166. RY*(  15) C   8                  0.00001     1.23800   
   167. RY*(  16) C   8                  0.00001     1.92347   
   168. RY*(  17) C   8                  0.00001     1.62294   
   169. RY*(   1) C   9                  0.00212     2.13841   
   170. RY*(   2) C   9                  0.00054     1.14794   
   171. RY*(   3) C   9                  0.00044     0.32167   
   172. RY*(   4) C   9                  0.00020     0.46854   
   173. RY*(   5) C   9                  0.00012     0.90503   
   174. RY*(   6) C   9                  0.00005     0.56377   
   175. RY*(   7) C   9                  0.00002     0.90001   
   176. RY*(   8) C   9                  0.00001     0.47210   
   177. RY*(   9) C   9                  0.00000     2.70202   
   178. RY*(  10) C   9                  0.00001     2.34502   
   179. RY*(  11) C   9                  0.00000    21.35223   
   180. RY*(  12) C   9                  0.00000     2.69382   
   181. RY*(  13) C   9                  0.00000     1.84073   
   182. RY*(  14) C   9                  0.00000     2.40731   
   183. RY*(  15) C   9                  0.00000     1.42994   
   184. RY*(  16) C   9                  0.00000     2.44135   
   185. RY*(  17) C   9                  0.00000     1.64177   
   186. RY*(   1) H  10                  0.00066     1.04632   
   187. RY*(   2) H  10                  0.00021     1.72968   
   188. RY*(   3) H  10                  0.00013     1.78725   
   189. RY*(   4) H  10                  0.00010     1.76516   
   190. RY*(   5) H  10                  0.00002     2.53256   
   191. RY*(   1) H  11                  0.00074     0.82784   
   192. RY*(   2) H  11                  0.00023     1.79254   
   193. RY*(   3) H  11                  0.00012     1.80363   
   194. RY*(   4) H  11                  0.00009     1.79791   
   195. RY*(   5) H  11                  0.00003     2.62399   
   196. RY*(   1) H  12                  0.00067     0.77298   
   197. RY*(   2) H  12                  0.00023     1.68725   
   198. RY*(   3) H  12                  0.00014     2.00667   
   199. RY*(   4) H  12                  0.00010     1.80837   
   200. RY*(   5) H  12                  0.00004     2.61974   
   201. RY*(   1) H  13                  0.00138     1.16128   
   202. RY*(   2) H  13                  0.00020     2.18841   
   203. RY*(   3) H  13                  0.00015     1.74669   
   204. RY*(   4) H  13                  0.00007     1.90698   
   205. RY*(   5) H  13                  0.00005     2.07303   
   206. RY*(   1) H  14                  0.00067     0.63199   
   207. RY*(   2) H  14                  0.00026     2.04428   
   208. RY*(   3) H  14                  0.00012     1.70672   
   209. RY*(   4) H  14                  0.00011     2.49589   
   210. RY*(   5) H  14                  0.00007     1.83845   
   211. RY*(   1) H  15                  0.00081     1.71306   
   212. RY*(   2) H  15                  0.00021     1.55781   
   213. RY*(   3) H  15                  0.00020     1.58961   
   214. RY*(   4) H  15                  0.00008     1.07108   
   215. RY*(   5) H  15                  0.00003     2.64106   
   216. BD*(   1) C   1 - C   2          0.02300     0.36780   
   217. BD*(   1) C   1 - H  10          0.00432     0.37046   
   218. BD*(   1) C   1 - H  11          0.00687     0.37164   
   219. BD*(   1) C   1 - H  12          0.00697     0.36513   
   220. BD*(   1) C   2 - C   3          0.07362     0.24989   
   221. BD*(   1) C   2 - N   4          0.10950     0.22652  220(g),85(g),219(v),228(v)
                                                    227(v),223(g),230(v),222(g)
                                                    217(v)
   222. BD*(   1) C   2 - C   7          0.04402     0.41968   
   223. BD*(   1) C   3 - N   4          0.04554     0.26766   
   224. BD*(   1) C   3 - C   8          0.03055     0.46546   
   225. BD*(   1) C   3 - H  13          0.03042     0.36802   
   226. BD*(   1) N   4 - C   5          0.02537     0.44381   
   227. BD*(   1) C   5 - N   6          0.01831     0.44464   
   228. BD*(   1) N   6 - C   7          0.03071     0.53128   
   229. BD*(   2) N   6 - C   7          0.18153    -0.00604  31(v),220(v),228(g),138(g)
   230. BD*(   1) C   7 - H  14          0.02341     0.38967   
   231. BD*(   1) C   8 - C   9          0.01673     1.00052   
   232. BD*(   2) C   8 - C   9          0.02458     0.09729   
   233. BD*(   3) C   8 - C   9          0.03536     0.09586   
   234. BD*(   1) C   9 - H  15          0.00529     0.43039   
       -------------------------------
              Total Lewis   60.70126  ( 97.9053%)
        Valence non-Lewis    1.17298  (  1.8919%)
        Rydberg non-Lewis    0.12576  (  0.2028%)
       -------------------------------
            Total unit  1   62.00000  (100.0000%)
           Charge unit  1    0.00000
 Leave Link  607 at Fri Nov  4 16:58:25 2022, MaxMem=  8053063680 cpu:              54.2 elap:               1.7
 (Enter /public3/home/scg5914/software-scg5914/g16/l9999.exe)
 Unable to Open any file for archive entry.
 1\1\GINC-F0902\SP\RB3LYP\Gen\C7H6N2\SCG5914\04-Nov-2022\0\\#p b3lyp/ch
 kbas pop=nbo geom=allcheck guess=tcheck em=gd3bj\\dsgdb9nsd_133826\\0,
 1\C,0,10.381364887,-1.347820619,-0.1653441521\C,0,9.1458130335,-0.5341
 613437,0.1368876362\C,0,7.7722228081,-1.2649490264,0.1106598196\N,0,8.
 2928519528,-0.7260450907,1.3546900237\C,0,7.7635659059,0.5076010167,1.
 6842487854\N,0,8.5600146904,1.495485838,1.1140672844\C,0,9.1942687385,
 0.9271506441,0.1120339146\C,0,6.6140539466,-0.722603165,-0.5391832841\
 C,0,5.6364811303,-0.3256339128,-1.1130954005\H,0,10.2524082648,-2.3745
 593127,0.1799261387\H,0,11.2563817368,-0.9307489991,0.3363542082\H,0,1
 0.5735119114,-1.3708700375,-1.241377845\H,0,7.868267057,-2.3439837321,
 0.0128374395\H,0,9.7691683216,1.5087641451,-0.6014696462\H,0,4.7708085
 254,0.0482108351,-1.6036999424\\Version=ES64L-G16RevC.01\State=1-A\HF=
 -379.7437302\RMSD=3.481e-10\Dipole=0.8392691,-1.1033942,-1.5940519\Qua
 drupole=5.2351611,-2.1939826,-3.0411785,-0.0609538,3.0303989,-3.155248
 2\PG=C01 [X(C7H6N2)]\\@
 The archive entry for this job was punched.


 ACHIEVEMENT--  THE MAN WHO ROWS THE BOAT GENERALLY 
                DOESN'T HAVE TIME TO ROCK IT.

                   -- FROM THE BACK OF A SUGAR PACKET
 Job cpu time:       0 days  0 hours  2 minutes 41.0 seconds.
 Elapsed time:       0 days  0 hours  0 minutes  5.3 seconds.
 File lengths (MBytes):  RWF=     34 Int=      0 D2E=      0 Chk=      5 Scr=      1
 Normal termination of Gaussian 16 at Fri Nov  4 16:58:25 2022.
