 Entering Gaussian System, Link 0=g16
 Initial command:
 /public/software/apps/Gaussian/g16/l1.exe "/public/home/ZTC_HG/tmp/Gau-87798.inp" -scrdir="/public/home/ZTC_HG/tmp/"
 Entering Link 1 = /public/software/apps/Gaussian/g16/l1.exe PID=     87799.
  
 Copyright (c) 1988-2019, Gaussian, Inc.  All Rights Reserved.
  
 This is part of the Gaussian(R) 16 program.  It is based on
 the Gaussian(R) 09 system (copyright 2009, Gaussian, Inc.),
 the Gaussian(R) 03 system (copyright 2003, Gaussian, Inc.),
 the Gaussian(R) 98 system (copyright 1998, Gaussian, Inc.),
 the Gaussian(R) 94 system (copyright 1995, Gaussian, Inc.),
 the Gaussian 92(TM) system (copyright 1992, Gaussian, Inc.),
 the Gaussian 90(TM) system (copyright 1990, Gaussian, Inc.),
 the Gaussian 88(TM) system (copyright 1988, Gaussian, Inc.),
 the Gaussian 86(TM) system (copyright 1986, Carnegie Mellon
 University), and the Gaussian 82(TM) system (copyright 1983,
 Carnegie Mellon University). Gaussian is a federally registered
 trademark of Gaussian, Inc.
  
 This software contains proprietary and confidential information,
 including trade secrets, belonging to Gaussian, Inc.
  
 This software is provided under written license and may be
 used, copied, transmitted, or stored only in accord with that
 written license.
  
 The following legend is applicable only to US Government
 contracts under FAR:
  
                    RESTRICTED RIGHTS LEGEND
  
 Use, reproduction and disclosure by the US Government is
 subject to restrictions as set forth in subparagraphs (a)
 and (c) of the Commercial Computer Software - Restricted
 Rights clause in FAR 52.227-19.
  
 Gaussian, Inc.
 340 Quinnipiac St., Bldg. 40, Wallingford CT 06492
  
  
 ---------------------------------------------------------------
 Warning -- This program may not be used in any manner that
 competes with the business of Gaussian, Inc. or will provide
 assistance to any competitor of Gaussian, Inc.  The licensee
 of this program is prohibited from giving any competitor of
 Gaussian, Inc. access to this program.  By using this program,
 the user acknowledges that Gaussian, Inc. is engaged in the
 business of creating and licensing software in the field of
 computational chemistry and represents and warrants to the
 licensee that it is not a competitor of Gaussian, Inc. and that
 it will not use this program in any manner prohibited above.
 ---------------------------------------------------------------
  

 Cite this work as:
 Gaussian 16, Revision C.01,
 M. J. Frisch, G. W. Trucks, H. B. Schlegel, G. E. Scuseria, 
 M. A. Robb, J. R. Cheeseman, G. Scalmani, V. Barone, 
 G. A. Petersson, H. Nakatsuji, X. Li, M. Caricato, A. V. Marenich, 
 J. Bloino, B. G. Janesko, R. Gomperts, B. Mennucci, H. P. Hratchian, 
 J. V. Ortiz, A. F. Izmaylov, J. L. Sonnenberg, D. Williams-Young, 
 F. Ding, F. Lipparini, F. Egidi, J. Goings, B. Peng, A. Petrone, 
 T. Henderson, D. Ranasinghe, V. G. Zakrzewski, J. Gao, N. Rega, 
 G. Zheng, W. Liang, M. Hada, M. Ehara, K. Toyota, R. Fukuda, 
 J. Hasegawa, M. Ishida, T. Nakajima, Y. Honda, O. Kitao, H. Nakai, 
 T. Vreven, K. Throssell, J. A. Montgomery, Jr., J. E. Peralta, 
 F. Ogliaro, M. J. Bearpark, J. J. Heyd, E. N. Brothers, K. N. Kudin, 
 V. N. Staroverov, T. A. Keith, R. Kobayashi, J. Normand, 
 K. Raghavachari, A. P. Rendell, J. C. Burant, S. S. Iyengar, 
 J. Tomasi, M. Cossi, J. M. Millam, M. Klene, C. Adamo, R. Cammi, 
 J. W. Ochterski, R. L. Martin, K. Morokuma, O. Farkas, 
 J. B. Foresman, and D. J. Fox, Gaussian, Inc., Wallingford CT, 2019.
 
 ******************************************
 Gaussian 16:  ES64L-G16RevC.01  3-Jul-2019
                26-Jun-2023 
 ******************************************
 %chk=dsgdb9nsd_000484-1+.chk
 %mem=120GB
 %nprocshared=32
 Will use up to   32 processors via shared memory.
 ------------------------------------
 #p opt freq b3lyp/6-311+g** em=gd3bj
 ------------------------------------
 1/18=20,19=15,26=3,38=1/1,3;
 2/9=110,12=2,17=6,18=5,40=1/2;
 3/5=4,6=6,7=111,11=2,25=1,30=1,71=1,74=-5,124=41/1,2,3;
 4//1;
 5/5=2,38=5/2;
 6/7=2,8=2,9=2,10=2,28=1/1;
 7//1,2,3,16;
 1/18=20,19=15,26=3/3(2);
 2/9=110/2;
 99//99;
 2/9=110/2;
 3/5=4,6=6,7=111,11=2,25=1,30=1,71=1,74=-5,124=41/1,2,3;
 4/5=5,16=3,69=1/1;
 5/5=2,38=5/2;
 7//1,2,3,16;
 1/18=20,19=15,26=3/3(-5);
 2/9=110/2;
 6/7=2,8=2,9=2,10=2,19=2,28=1/1;
 99/9=1/99;
 Leave Link    1 at Mon Jun 26 16:25:11 2023, MaxMem= 16106127360 cpu:               1.6 elap:               0.1
 (Enter /public/software/apps/Gaussian/g16/l101.exe)
 -----------------------
 dsgdb9nsd_000484-1+.gjf
 -----------------------
 Symbolic Z-matrix:
 Charge =  1 Multiplicity = 1
 C                    -3.3494    0.0013   0. 
 C                    -2.02353  -0.00136  -0.00001 
 C                    -0.74188  -0.00024   0.00001 
 C                     0.52633  -0.00024   0.00001 
 C                     1.83357   0.00013   0.00001 
 C                     3.06521   0.00038  -0.00001 
 H                     4.1382    0.00023  -0.00001 
 
 ITRead=  0  0  0  0  0  0  0
 MicOpt= -1 -1 -1 -1 -1 -1 -1
 NAtoms=      7 NQM=        7 NQMF=       0 NMMI=      0 NMMIF=      0
                NMic=       0 NMicF=      0.
                    Isotopes and Nuclear Properties:
 (Nuclear quadrupole moments (NQMom) in fm**2, nuclear magnetic moments (NMagM)
  in nuclear magnetons)

  Atom         1           2           3           4           5           6           7
 IAtWgt=          12          12          12          12          12          12           1
 AtmWgt=  12.0000000  12.0000000  12.0000000  12.0000000  12.0000000  12.0000000   1.0078250
 NucSpn=           0           0           0           0           0           0           1
 AtZEff=  -0.0000000  -0.0000000  -0.0000000  -0.0000000  -0.0000000  -0.0000000  -0.0000000
 NQMom=    0.0000000   0.0000000   0.0000000   0.0000000   0.0000000   0.0000000   0.0000000
 NMagM=    0.0000000   0.0000000   0.0000000   0.0000000   0.0000000   0.0000000   2.7928460
 AtZNuc=   6.0000000   6.0000000   6.0000000   6.0000000   6.0000000   6.0000000   1.0000000
 Leave Link  101 at Mon Jun 26 16:25:11 2023, MaxMem= 16106127360 cpu:               6.0 elap:               0.2
 (Enter /public/software/apps/Gaussian/g16/l103.exe)

 GradGradGradGradGradGradGradGradGradGradGradGradGradGradGradGradGradGrad
 Berny optimization.
 Initialization pass.
                           ----------------------------
                           !    Initial Parameters    !
                           ! (Angstroms and Degrees)  !
 --------------------------                            --------------------------
 ! Name  Definition              Value          Derivative Info.                !
 --------------------------------------------------------------------------------
 ! R1    R(1,2)                  1.3259         estimate D2E/DX2                !
 ! R2    R(2,3)                  1.2817         estimate D2E/DX2                !
 ! R3    R(3,4)                  1.2682         estimate D2E/DX2                !
 ! R4    R(4,5)                  1.3072         estimate D2E/DX2                !
 ! R5    R(5,6)                  1.2316         estimate D2E/DX2                !
 ! R6    R(6,7)                  1.073          estimate D2E/DX2                !
 ! A1    L(1,2,3,-3,-1)        179.8348         estimate D2E/DX2                !
 ! A2    L(2,3,4,-3,-1)        180.0501         estimate D2E/DX2                !
 ! A3    L(3,4,5,-3,-1)        179.9837         estimate D2E/DX2                !
 ! A4    L(4,5,6,-3,-1)        180.0047         estimate D2E/DX2                !
 ! A5    L(5,6,7,-3,-1)        180.0196         estimate D2E/DX2                !
 ! A6    L(1,2,3,-2,-2)        180.0012         estimate D2E/DX2                !
 ! A7    L(2,3,4,-2,-2)        179.9991         estimate D2E/DX2                !
 ! A8    L(3,4,5,-2,-2)        179.9998         estimate D2E/DX2                !
 ! A9    L(4,5,6,-2,-2)        179.9995         estimate D2E/DX2                !
 ! A10   L(5,6,7,-2,-2)        180.0006         estimate D2E/DX2                !
 --------------------------------------------------------------------------------
 Trust Radius=3.00D-01 FncErr=1.00D-07 GrdErr=1.00D-06 EigMax=2.50D+02 EigMin=1.00D-04
 Number of steps in this run=     26 maximum allowed number of steps=    100.
 GradGradGradGradGradGradGradGradGradGradGradGradGradGradGradGradGradGrad

 Leave Link  103 at Mon Jun 26 16:25:11 2023, MaxMem= 16106127360 cpu:               0.2 elap:               0.0
 (Enter /public/software/apps/Gaussian/g16/l202.exe)
                          Input orientation:                          
 ---------------------------------------------------------------------
 Center     Atomic      Atomic             Coordinates (Angstroms)
 Number     Number       Type             X           Y           Z
 ---------------------------------------------------------------------
      1          6           0       -3.349396    0.001302   -0.000004
      2          6           0       -2.023533   -0.001362   -0.000010
      3          6           0       -0.741878   -0.000242    0.000010
      4          6           0        0.526333   -0.000243    0.000010
      5          6           0        1.833568    0.000129    0.000005
      6          6           0        3.065207    0.000378   -0.000010
      7          1           0        4.138199    0.000228   -0.000011
 ---------------------------------------------------------------------
                    Distance matrix (angstroms):
                    1          2          3          4          5
     1  C    0.000000
     2  C    1.325866   0.000000
     3  C    2.607518   1.281655   0.000000
     4  C    3.875729   2.549866   1.268211   0.000000
     5  C    5.182964   3.857101   2.575446   1.307235   0.000000
     6  C    6.414603   5.088740   3.807085   2.538874   1.231639
     7  H    7.487595   6.161732   4.880077   3.611866   2.304631
                    6          7
     6  C    0.000000
     7  H    1.072992   0.000000
 This structure is nearly, but not quite of a higher symmetry.
 Consider Symm=Loose if the higher symmetry is desired.
 Stoichiometry    C6H(1+)
 Framework group  C1[X(C6H)]
 Deg. of freedom    15
 Full point group                 C1      NOp   1
 Largest Abelian subgroup         C1      NOp   1
 Largest concise Abelian subgroup C1      NOp   1
                         Standard orientation:                         
 ---------------------------------------------------------------------
 Center     Atomic      Atomic             Coordinates (Angstroms)
 Number     Number       Type             X           Y           Z
 ---------------------------------------------------------------------
      1          6           0        0.000004    0.001302   -3.349396
      2          6           0        0.000010   -0.001362   -2.023533
      3          6           0       -0.000010   -0.000242   -0.741878
      4          6           0       -0.000010   -0.000243    0.526333
      5          6           0       -0.000005    0.000129    1.833568
      6          6           0        0.000010    0.000378    3.065207
      7          1           0        0.000011    0.000228    4.138199
 ---------------------------------------------------------------------
 Rotational constants (GHZ):    10990515.1094586           1.3891520           1.3891518
 Leave Link  202 at Mon Jun 26 16:25:11 2023, MaxMem= 16106127360 cpu:               1.5 elap:               0.1
 (Enter /public/software/apps/Gaussian/g16/l301.exe)
 Standard basis: 6-311+G(d,p) (5D, 7F)
 Ernie: Thresh=  0.10000D-02 Tol=  0.10000D-05 Strict=F.
 There are   144 symmetry adapted cartesian basis functions of A   symmetry.
 There are   138 symmetry adapted basis functions of A   symmetry.
   138 basis functions,   224 primitive gaussians,   144 cartesian basis functions
    18 alpha electrons       18 beta electrons
       nuclear repulsion energy       136.0247093694 Hartrees.
 IExCor=  402 DFT=T Ex+Corr=B3LYP ExCW=0 ScaHFX=  0.200000
 ScaDFX=  0.800000  0.720000  1.000000  0.810000 ScalE2=  1.000000  1.000000
 IRadAn=      5 IRanWt=     -1 IRanGd=            0 ICorTp=0 IEmpDi=141
 NAtoms=    7 NActive=    7 NUniq=    7 SFac= 1.00D+00 NAtFMM=   60 NAOKFM=F Big=F
 Integral buffers will be    131072 words long.
 Raffenetti 2 integral format.
 Two-electron integral symmetry is turned on.
 R6Disp:  Grimme-D3(BJ) Dispersion energy=       -0.0095425549 Hartrees.
 Nuclear repulsion after empirical dispersion term =      136.0151668146 Hartrees.
 Leave Link  301 at Mon Jun 26 16:25:11 2023, MaxMem= 16106127360 cpu:               0.8 elap:               0.0
 (Enter /public/software/apps/Gaussian/g16/l302.exe)
 NPDir=0 NMtPBC=     1 NCelOv=     1 NCel=       1 NClECP=     1 NCelD=      1
         NCelK=      1 NCelE2=     1 NClLst=     1 CellRange=     0.0.
 One-electron integrals computed using PRISM.
 One-electron integral symmetry used in STVInt
 NBasis=   138 RedAO= T EigKep=  1.48D-06  NBF=   138
 NBsUse=   135 1.00D-06 EigRej=  4.14D-08 NBFU=   135
 Precomputing XC quadrature grid using
 IXCGrd= 4 IRadAn=           5 IRanWt=          -1 IRanGd=           0 AccXCQ= 0.00D+00.
 Generated NRdTot=       0 NPtTot=           0 NUsed=           0 NTot=          32
 NSgBfM=   144   144   144   144   144 MxSgAt=     7 MxSgA2=     7.
 Leave Link  302 at Mon Jun 26 16:25:11 2023, MaxMem= 16106127360 cpu:              11.6 elap:               0.4
 (Enter /public/software/apps/Gaussian/g16/l303.exe)
 DipDrv:  MaxL=1.
 Leave Link  303 at Mon Jun 26 16:25:12 2023, MaxMem= 16106127360 cpu:               2.0 elap:               0.1
 (Enter /public/software/apps/Gaussian/g16/l401.exe)
 ExpMin= 4.38D-02 ExpMax= 4.56D+03 ExpMxC= 6.82D+02 IAcc=3 IRadAn=         5 AccDes= 0.00D+00
 Harris functional with IExCor=  402 and IRadAn=       5 diagonalized for initial guess.
 HarFok:  IExCor=  402 AccDes= 0.00D+00 IRadAn=         5 IDoV= 1 UseB2=F ITyADJ=14
 ICtDFT=  3500011 ScaDFX=  1.000000  1.000000  1.000000  1.000000
 FoFCou: FMM=F IPFlag=           0 FMFlag=      100000 FMFlg1=           0
         NFxFlg=           0 DoJE=T BraDBF=F KetDBF=T FulRan=T
         wScrn=  0.000000 ICntrl=       500 IOpCl=  0 I1Cent=   200000004 NGrid=           0
         NMat0=    1 NMatS0=      1 NMatT0=    0 NMatD0=    1 NMtDS0=    0 NMtDT0=    0
 Petite list used in FoFCou.
 Harris En= -228.728924121003    
 JPrj=0 DoOrth=F DoCkMO=F.
 Leave Link  401 at Mon Jun 26 16:25:12 2023, MaxMem= 16106127360 cpu:              11.2 elap:               0.4
 (Enter /public/software/apps/Gaussian/g16/l502.exe)
 Keep R1 ints in memory in canonical form, NReq=77103754.
 FoFCou: FMM=F IPFlag=           0 FMFlag=           0 FMFlg1=           0
         NFxFlg=           0 DoJE=F BraDBF=F KetDBF=F FulRan=T
         wScrn=  0.000000 ICntrl=       600 IOpCl=  0 I1Cent=           0 NGrid=           0
         NMat0=    1 NMatS0=   9591 NMatT0=    0 NMatD0=    1 NMtDS0=    0 NMtDT0=    0
 Symmetry not used in FoFCou.
 Two-electron integral symmetry not used.
 Closed shell SCF:
 Using DIIS extrapolation, IDIIS=  1040.
 NGot= 16106127360 LenX= 16060081286 LenY= 16060060109
 Requested convergence on RMS density matrix=1.00D-08 within 128 cycles.
 Requested convergence on MAX density matrix=1.00D-06.
 Requested convergence on             energy=1.00D-06.
 No special actions if energy rises.

 Cycle   1  Pass 1  IDiag  1:
 E= -228.602409555575    
 DIIS: error= 1.90D-02 at cycle   1 NSaved=   1.
 NSaved= 1 IEnMin= 1 EnMin= -228.602409555575     IErMin= 1 ErrMin= 1.90D-02
 ErrMax= 1.90D-02  0.00D+00 EMaxC= 1.00D-01 BMatC= 5.55D-02 BMatP= 5.55D-02
 IDIUse=3 WtCom= 8.10D-01 WtEn= 1.90D-01
 Coeff-Com:  0.100D+01
 Coeff-En:   0.100D+01
 Coeff:      0.100D+01
 Gap=     0.042 Goal=   None    Shift=    0.000
 GapD=    0.042 DampG=0.250 DampE=0.500 DampFc=0.2500 IDamp=-1.
 Damping current iteration by 2.50D-01
 RMSDP=2.43D-02 MaxDP=1.08D+00              OVMax= 1.19D-01

 Cycle   2  Pass 1  IDiag  1:
 E= -228.616738472095     Delta-E=       -0.014328916521 Rises=F Damp=T
 DIIS: error= 1.26D-02 at cycle   2 NSaved=   2.
 NSaved= 2 IEnMin= 2 EnMin= -228.616738472095     IErMin= 2 ErrMin= 1.26D-02
 ErrMax= 1.26D-02  0.00D+00 EMaxC= 1.00D-01 BMatC= 2.15D-02 BMatP= 5.55D-02
 IDIUse=3 WtCom= 8.74D-01 WtEn= 1.26D-01
 Coeff-Com: -0.123D+01 0.223D+01
 Coeff-En:   0.000D+00 0.100D+01
 Coeff:     -0.107D+01 0.207D+01
 Gap=     0.043 Goal=   None    Shift=    0.000
 RMSDP=1.32D-02 MaxDP=5.61D-01 DE=-1.43D-02 OVMax= 1.18D-01

 Cycle   3  Pass 1  IDiag  1:
 E= -228.638333900802     Delta-E=       -0.021595428706 Rises=F Damp=F
 DIIS: error= 1.00D-02 at cycle   3 NSaved=   3.
 NSaved= 3 IEnMin= 3 EnMin= -228.638333900802     IErMin= 3 ErrMin= 1.00D-02
 ErrMax= 1.00D-02  0.00D+00 EMaxC= 1.00D-01 BMatC= 8.14D-03 BMatP= 2.15D-02
 IDIUse=3 WtCom= 9.00D-01 WtEn= 1.00D-01
 Coeff-Com: -0.824D+00 0.132D+01 0.506D+00
 Coeff-En:   0.000D+00 0.000D+00 0.100D+01
 Coeff:     -0.741D+00 0.119D+01 0.556D+00
 Gap=     0.043 Goal=   None    Shift=    0.000
 RMSDP=4.49D-03 MaxDP=2.01D-01 DE=-2.16D-02 OVMax= 6.41D-02

 Cycle   4  Pass 1  IDiag  1:
 E= -228.640858585556     Delta-E=       -0.002524684755 Rises=F Damp=F
 DIIS: error= 9.59D-03 at cycle   4 NSaved=   4.
 NSaved= 4 IEnMin= 4 EnMin= -228.640858585556     IErMin= 4 ErrMin= 9.59D-03
 ErrMax= 9.59D-03  0.00D+00 EMaxC= 1.00D-01 BMatC= 4.52D-03 BMatP= 8.14D-03
 IDIUse=3 WtCom= 9.04D-01 WtEn= 9.59D-02
 Coeff-Com: -0.456D+00 0.695D+00 0.434D+00 0.327D+00
 Coeff-En:   0.000D+00 0.000D+00 0.433D+00 0.567D+00
 Coeff:     -0.413D+00 0.628D+00 0.434D+00 0.350D+00
 Gap=     0.043 Goal=   None    Shift=    0.000
 RMSDP=1.03D-03 MaxDP=4.78D-02 DE=-2.52D-03 OVMax= 5.26D-02

 Cycle   5  Pass 1  IDiag  1:
 E= -228.646289980006     Delta-E=       -0.005431394449 Rises=F Damp=F
 DIIS: error= 3.73D-03 at cycle   5 NSaved=   5.
 NSaved= 5 IEnMin= 5 EnMin= -228.646289980006     IErMin= 5 ErrMin= 3.73D-03
 ErrMax= 3.73D-03  0.00D+00 EMaxC= 1.00D-01 BMatC= 4.39D-04 BMatP= 4.52D-03
 IDIUse=3 WtCom= 9.63D-01 WtEn= 3.73D-02
 Coeff-Com: -0.121D+00 0.176D+00 0.205D+00 0.271D+00 0.469D+00
 Coeff-En:   0.000D+00 0.000D+00 0.000D+00 0.143D+00 0.857D+00
 Coeff:     -0.116D+00 0.169D+00 0.197D+00 0.266D+00 0.484D+00
 Gap=     0.043 Goal=   None    Shift=    0.000
 RMSDP=5.52D-04 MaxDP=1.70D-02 DE=-5.43D-03 OVMax= 2.11D-02

 Cycle   6  Pass 1  IDiag  1:
 E= -228.646853130076     Delta-E=       -0.000563150070 Rises=F Damp=F
 DIIS: error= 1.44D-03 at cycle   6 NSaved=   6.
 NSaved= 6 IEnMin= 6 EnMin= -228.646853130076     IErMin= 6 ErrMin= 1.44D-03
 ErrMax= 1.44D-03  0.00D+00 EMaxC= 1.00D-01 BMatC= 9.47D-05 BMatP= 4.39D-04
 IDIUse=3 WtCom= 9.86D-01 WtEn= 1.44D-02
 Coeff-Com: -0.467D-01 0.633D-01 0.117D+00 0.181D+00 0.372D+00 0.315D+00
 Coeff-En:   0.000D+00 0.000D+00 0.000D+00 0.000D+00 0.174D+00 0.826D+00
 Coeff:     -0.460D-01 0.624D-01 0.115D+00 0.178D+00 0.369D+00 0.322D+00
 Gap=     0.043 Goal=   None    Shift=    0.000
 RMSDP=1.25D-04 MaxDP=3.11D-03 DE=-5.63D-04 OVMax= 7.64D-03

 Cycle   7  Pass 1  IDiag  1:
 E= -228.646972189494     Delta-E=       -0.000119059418 Rises=F Damp=F
 DIIS: error= 3.48D-04 at cycle   7 NSaved=   7.
 NSaved= 7 IEnMin= 7 EnMin= -228.646972189494     IErMin= 7 ErrMin= 3.48D-04
 ErrMax= 3.48D-04  0.00D+00 EMaxC= 1.00D-01 BMatC= 5.18D-06 BMatP= 9.47D-05
 IDIUse=3 WtCom= 9.97D-01 WtEn= 3.48D-03
 Coeff-Com: -0.104D-01 0.122D-01 0.430D-01 0.755D-01 0.158D+00 0.205D+00
 Coeff-Com:  0.517D+00
 Coeff-En:   0.000D+00 0.000D+00 0.000D+00 0.000D+00 0.000D+00 0.526D-01
 Coeff-En:   0.947D+00
 Coeff:     -0.103D-01 0.122D-01 0.429D-01 0.752D-01 0.158D+00 0.204D+00
 Coeff:      0.518D+00
 Gap=     0.043 Goal=   None    Shift=    0.000
 RMSDP=4.97D-05 MaxDP=1.19D-03 DE=-1.19D-04 OVMax= 2.03D-03

 Cycle   8  Pass 1  IDiag  1:
 E= -228.646976926472     Delta-E=       -0.000004736978 Rises=F Damp=F
 DIIS: error= 2.11D-04 at cycle   8 NSaved=   8.
 NSaved= 8 IEnMin= 8 EnMin= -228.646976926472     IErMin= 8 ErrMin= 2.11D-04
 ErrMax= 2.11D-04  0.00D+00 EMaxC= 1.00D-01 BMatC= 1.78D-06 BMatP= 5.18D-06
 IDIUse=3 WtCom= 9.98D-01 WtEn= 2.11D-03
 Coeff-Com:  0.297D-02-0.473D-02 0.318D-02 0.112D-01 0.184D-01 0.691D-01
 Coeff-Com:  0.408D+00 0.492D+00
 Coeff-En:   0.000D+00 0.000D+00 0.000D+00 0.000D+00 0.000D+00 0.000D+00
 Coeff-En:   0.280D+00 0.720D+00
 Coeff:      0.296D-02-0.472D-02 0.318D-02 0.112D-01 0.184D-01 0.689D-01
 Coeff:      0.408D+00 0.492D+00
 Gap=     0.043 Goal=   None    Shift=    0.000
 RMSDP=3.12D-05 MaxDP=1.10D-03 DE=-4.74D-06 OVMax= 7.33D-04

 Cycle   9  Pass 1  IDiag  1:
 E= -228.646979075518     Delta-E=       -0.000002149046 Rises=F Damp=F
 DIIS: error= 3.43D-05 at cycle   9 NSaved=   9.
 NSaved= 9 IEnMin= 9 EnMin= -228.646979075518     IErMin= 9 ErrMin= 3.43D-05
 ErrMax= 3.43D-05  0.00D+00 EMaxC= 1.00D-01 BMatC= 6.40D-08 BMatP= 1.78D-06
 IDIUse=1 WtCom= 1.00D+00 WtEn= 0.00D+00
 Coeff-Com:  0.197D-02-0.289D-02-0.827D-03 0.120D-02 0.525D-03 0.255D-01
 Coeff-Com:  0.173D+00 0.265D+00 0.537D+00
 Coeff:      0.197D-02-0.289D-02-0.827D-03 0.120D-02 0.525D-03 0.255D-01
 Coeff:      0.173D+00 0.265D+00 0.537D+00
 Gap=     0.043 Goal=   None    Shift=    0.000
 RMSDP=5.12D-06 MaxDP=1.30D-04 DE=-2.15D-06 OVMax= 1.54D-04

 Cycle  10  Pass 1  IDiag  1:
 E= -228.646979140370     Delta-E=       -0.000000064852 Rises=F Damp=F
 DIIS: error= 1.10D-05 at cycle  10 NSaved=  10.
 NSaved=10 IEnMin=10 EnMin= -228.646979140370     IErMin=10 ErrMin= 1.10D-05
 ErrMax= 1.10D-05  0.00D+00 EMaxC= 1.00D-01 BMatC= 1.08D-08 BMatP= 6.40D-08
 IDIUse=1 WtCom= 1.00D+00 WtEn= 0.00D+00
 Coeff-Com:  0.294D-03-0.365D-03-0.127D-02-0.246D-02-0.377D-02-0.316D-02
 Coeff-Com: -0.141D-01 0.265D-01 0.299D+00 0.700D+00
 Coeff:      0.294D-03-0.365D-03-0.127D-02-0.246D-02-0.377D-02-0.316D-02
 Coeff:     -0.141D-01 0.265D-01 0.299D+00 0.700D+00
 Gap=     0.043 Goal=   None    Shift=    0.000
 RMSDP=2.44D-06 MaxDP=1.13D-04 DE=-6.49D-08 OVMax= 4.28D-05

 Cycle  11  Pass 1  IDiag  1:
 E= -228.646979153066     Delta-E=       -0.000000012696 Rises=F Damp=F
 DIIS: error= 1.66D-06 at cycle  11 NSaved=  11.
 NSaved=11 IEnMin=11 EnMin= -228.646979153066     IErMin=11 ErrMin= 1.66D-06
 ErrMax= 1.66D-06  0.00D+00 EMaxC= 1.00D-01 BMatC= 7.82D-11 BMatP= 1.08D-08
 IDIUse=1 WtCom= 1.00D+00 WtEn= 0.00D+00
 Coeff-Com: -0.542D-05 0.111D-04-0.905D-04-0.189D-03-0.175D-03-0.154D-02
 Coeff-Com: -0.479D-02-0.466D-02-0.321D-02-0.148D-02 0.102D+01
 Coeff:     -0.542D-05 0.111D-04-0.905D-04-0.189D-03-0.175D-03-0.154D-02
 Coeff:     -0.479D-02-0.466D-02-0.321D-02-0.148D-02 0.102D+01
 Gap=     0.043 Goal=   None    Shift=    0.000
 RMSDP=2.47D-07 MaxDP=8.70D-06 DE=-1.27D-08 OVMax= 1.43D-05

 Cycle  12  Pass 1  IDiag  1:
 E= -228.646979153235     Delta-E=       -0.000000000169 Rises=F Damp=F
 DIIS: error= 6.07D-07 at cycle  12 NSaved=  12.
 NSaved=12 IEnMin=12 EnMin= -228.646979153235     IErMin=12 ErrMin= 6.07D-07
 ErrMax= 6.07D-07  0.00D+00 EMaxC= 1.00D-01 BMatC= 7.55D-12 BMatP= 7.82D-11
 IDIUse=1 WtCom= 1.00D+00 WtEn= 0.00D+00
 Coeff-Com: -0.461D-05 0.632D-05 0.191D-04 0.512D-04 0.330D-04 0.174D-04
 Coeff-Com: -0.435D-03-0.793D-03-0.692D-02-0.197D-01 0.107D+00 0.921D+00
 Coeff:     -0.461D-05 0.632D-05 0.191D-04 0.512D-04 0.330D-04 0.174D-04
 Coeff:     -0.435D-03-0.793D-03-0.692D-02-0.197D-01 0.107D+00 0.921D+00
 Gap=     0.043 Goal=   None    Shift=    0.000
 RMSDP=7.57D-08 MaxDP=3.39D-06 DE=-1.69D-10 OVMax= 2.61D-06

 Cycle  13  Pass 1  IDiag  1:
 E= -228.646979153248     Delta-E=       -0.000000000013 Rises=F Damp=F
 DIIS: error= 3.60D-08 at cycle  13 NSaved=  13.
 NSaved=13 IEnMin=13 EnMin= -228.646979153248     IErMin=13 ErrMin= 3.60D-08
 ErrMax= 3.60D-08  0.00D+00 EMaxC= 1.00D-01 BMatC= 1.10D-13 BMatP= 7.55D-12
 IDIUse=1 WtCom= 1.00D+00 WtEn= 0.00D+00
 Coeff-Com:  0.145D-05-0.208D-05 0.466D-05 0.901D-05 0.680D-05 0.512D-04
 Coeff-Com:  0.126D-03 0.199D-03 0.502D-03-0.175D-02-0.277D-01 0.136D-01
 Coeff-Com:  0.101D+01
 Coeff:      0.145D-05-0.208D-05 0.466D-05 0.901D-05 0.680D-05 0.512D-04
 Coeff:      0.126D-03 0.199D-03 0.502D-03-0.175D-02-0.277D-01 0.136D-01
 Coeff:      0.101D+01
 Gap=     0.043 Goal=   None    Shift=    0.000
 RMSDP=1.16D-08 MaxDP=2.51D-07 DE=-1.33D-11 OVMax= 2.57D-07

 Cycle  14  Pass 1  IDiag  1:
 E= -228.646979153248     Delta-E=       -0.000000000000 Rises=F Damp=F
 DIIS: error= 8.79D-09 at cycle  14 NSaved=  14.
 NSaved=14 IEnMin=14 EnMin= -228.646979153248     IErMin=14 ErrMin= 8.79D-09
 ErrMax= 8.79D-09  0.00D+00 EMaxC= 1.00D-01 BMatC= 7.83D-15 BMatP= 1.10D-13
 IDIUse=1 WtCom= 1.00D+00 WtEn= 0.00D+00
 Coeff-Com:  0.709D-06-0.999D-06 0.136D-06-0.509D-06-0.142D-06 0.975D-05
 Coeff-Com:  0.482D-04 0.118D-03 0.643D-03 0.492D-03-0.126D-01-0.490D-01
 Coeff-Com:  0.221D+00 0.839D+00
 Coeff:      0.709D-06-0.999D-06 0.136D-06-0.509D-06-0.142D-06 0.975D-05
 Coeff:      0.482D-04 0.118D-03 0.643D-03 0.492D-03-0.126D-01-0.490D-01
 Coeff:      0.221D+00 0.839D+00
 Gap=     0.043 Goal=   None    Shift=    0.000
 RMSDP=2.39D-09 MaxDP=4.99D-08 DE=-1.14D-13 OVMax= 7.17D-08

 SCF Done:  E(RB3LYP) =  -228.646979153     A.U. after   14 cycles
            NFock= 14  Conv=0.24D-08     -V/T= 2.0039
 KE= 2.277475880933D+02 PE=-7.942570926051D+02 EE= 2.018473585440D+02
 Leave Link  502 at Mon Jun 26 16:25:14 2023, MaxMem= 16106127360 cpu:              56.6 elap:               2.2
 (Enter /public/software/apps/Gaussian/g16/l601.exe)
 Copying SCF densities to generalized density rwf, IOpCl= 0 IROHF=0.

 **********************************************************************

            Population analysis using the SCF Density.

 **********************************************************************

 Orbital symmetries:
       Occupied  (A) (A) (A) (A) (A) (A) (A) (A) (A) (A) (A) (A)
                 (A) (A) (A) (A) (A) (A)
       Virtual   (A) (A) (A) (A) (A) (A) (A) (A) (A) (A) (A) (A)
                 (A) (A) (A) (A) (A) (A) (A) (A) (A) (A) (A) (A)
                 (A) (A) (A) (A) (A) (A) (A) (A) (A) (A) (A) (A)
                 (A) (A) (A) (A) (A) (A) (A) (A) (A) (A) (A) (A)
                 (A) (A) (A) (A) (A) (A) (A) (A) (A) (A) (A) (A)
                 (A) (A) (A) (A) (A) (A) (A) (A) (A) (A) (A) (A)
                 (A) (A) (A) (A) (A) (A) (A) (A) (A) (A) (A) (A)
                 (A) (A) (A) (A) (A) (A) (A) (A) (A) (A) (A) (A)
                 (A) (A) (A) (A) (A) (A) (A) (A) (A) (A) (A) (A)
                 (A) (A) (A) (A) (A) (A) (A) (A) (A)
 The electronic state is 1-A.
 Alpha  occ. eigenvalues --  -10.50389 -10.49025 -10.48796 -10.48258 -10.46353
 Alpha  occ. eigenvalues --  -10.45066  -1.09281  -1.04830  -0.99570  -0.92292
 Alpha  occ. eigenvalues --   -0.86266  -0.77882  -0.63770  -0.63707  -0.56929
 Alpha  occ. eigenvalues --   -0.56504  -0.51693  -0.47935
 Alpha virt. eigenvalues --   -0.43657  -0.31444  -0.31099  -0.17583  -0.17545
 Alpha virt. eigenvalues --   -0.15152  -0.12758  -0.10742  -0.09509  -0.09176
 Alpha virt. eigenvalues --   -0.06910  -0.06728  -0.06260  -0.03390  -0.03123
 Alpha virt. eigenvalues --   -0.02761  -0.02489  -0.01949  -0.01802   0.00505
 Alpha virt. eigenvalues --    0.02314   0.02525   0.04402   0.06665   0.08239
 Alpha virt. eigenvalues --    0.08445   0.12069   0.14896   0.15381   0.15685
 Alpha virt. eigenvalues --    0.23500   0.28173   0.28332   0.29903   0.30005
 Alpha virt. eigenvalues --    0.30574   0.34270   0.34789   0.35694   0.39792
 Alpha virt. eigenvalues --    0.40244   0.46080   0.46660   0.47362   0.48873
 Alpha virt. eigenvalues --    0.49499   0.50840   0.57362   0.58077   0.60501
 Alpha virt. eigenvalues --    0.68065   0.69753   0.74671   0.77278   0.79319
 Alpha virt. eigenvalues --    0.80158   0.80194   0.80204   0.88220   0.88270
 Alpha virt. eigenvalues --    0.90216   0.93411   0.99450   0.99536   1.06010
 Alpha virt. eigenvalues --    1.06865   1.07787   1.15653   1.15733   1.22416
 Alpha virt. eigenvalues --    1.23279   1.33033   1.33045   1.33262   1.47183
 Alpha virt. eigenvalues --    1.47236   1.47846   1.48661   1.50332   1.72580
 Alpha virt. eigenvalues --    1.77374   1.78290   1.84075   2.04745   2.11784
 Alpha virt. eigenvalues --    2.12605   2.27785   2.37676   2.38371   2.41503
 Alpha virt. eigenvalues --    2.42102   2.43978   2.49342   2.65728   2.66684
 Alpha virt. eigenvalues --    2.69708   2.69983   2.70351   2.72951   2.73795
 Alpha virt. eigenvalues --    2.73969   2.74744   2.90231   2.91283   2.97680
 Alpha virt. eigenvalues --    3.08098   3.27546   3.35399   3.39402   3.44530
 Alpha virt. eigenvalues --    3.96224  22.89905  23.21400  23.59250  24.14548
 Alpha virt. eigenvalues --   24.72619  25.27873
          Condensed to atoms (all electrons):
               1          2          3          4          5          6
     1  C   12.069459  -4.788039  -0.582293  -0.805490   0.066552   0.312814
     2  C   -4.788039  10.136361   0.521638   0.096572  -0.660154   0.475836
     3  C   -0.582293   0.521638   6.165821   0.026658   0.986962  -1.461612
     4  C   -0.805490   0.096572   0.026658   6.063505  -0.533099   0.891430
     5  C    0.066552  -0.660154   0.986962  -0.533099  16.100895 -10.652287
     6  C    0.312814   0.475836  -1.461612   0.891430 -10.652287  16.611072
     7  H    0.000251   0.002538  -0.009072   0.018559  -0.264971   0.595270
               7
     1  C    0.000251
     2  C    0.002538
     3  C   -0.009072
     4  C    0.018559
     5  C   -0.264971
     6  C    0.595270
     7  H    0.376757
 Mulliken charges:
               1
     1  C   -0.273255
     2  C    0.215246
     3  C    0.351898
     4  C    0.241864
     5  C    0.956103
     6  C   -0.772523
     7  H    0.280667
 Sum of Mulliken charges =   1.00000
 Mulliken charges with hydrogens summed into heavy atoms:
               1
     1  C   -0.273255
     2  C    0.215246
     3  C    0.351898
     4  C    0.241864
     5  C    0.956103
     6  C   -0.491856
 Electronic spatial extent (au):  <R**2>=            725.0393
 Charge=              1.0000 electrons
 Dipole moment (field-independent basis, Debye):
    X=              0.0000    Y=             -0.0038    Z=              5.1191  Tot=              5.1191
 Quadrupole moment (field-independent basis, Debye-Ang):
   XX=            -32.7174   YY=            -29.2850   ZZ=              1.8716
   XY=             -0.0313   XZ=             -0.0001   YZ=              0.0195
 Traceless Quadrupole moment (field-independent basis, Debye-Ang):
   XX=            -12.6738   YY=             -9.2414   ZZ=             21.9152
   XY=             -0.0313   XZ=             -0.0001   YZ=              0.0195
 Octapole moment (field-independent basis, Debye-Ang**2):
  XXX=              0.0000  YYY=             -0.0036  ZZZ=            128.9924  XYY=              0.0000
  XXY=             -0.0015  XXZ=              2.5290  XZZ=              0.0008  YZZ=             -0.0635
  YYZ=              1.0881  XYZ=              0.0131
 Hexadecapole moment (field-independent basis, Debye-Ang**3):
 XXXX=            -35.4058 YYYY=            -29.4675 ZZZZ=           -601.9540 XXXY=             -0.0271
 XXXZ=             -0.0001 YYYX=             -0.0271 YYYZ=              0.0193 ZZZX=             -0.0006
 ZZZY=              0.3416 XXYY=            -10.8122 XXZZ=           -181.8199 YYZZ=           -158.3328
 XXYZ=              0.0063 YYXZ=             -0.0000 ZZXY=             -0.2142
 N-N= 1.360151668146D+02 E-N=-7.942570925100D+02  KE= 2.277475880933D+02
 No NMR shielding tensors so no spin-rotation constants.
 Leave Link  601 at Mon Jun 26 16:25:14 2023, MaxMem= 16106127360 cpu:               2.0 elap:               0.1
 (Enter /public/software/apps/Gaussian/g16/l701.exe)
 ... and contract with generalized density number  0.
 Compute integral first derivatives.
 R6Disp: Adding Grimme-D3(BJ) dispersion energy 1st derivatives to the gradient.
 Leave Link  701 at Mon Jun 26 16:25:14 2023, MaxMem= 16106127360 cpu:               4.6 elap:               0.2
 (Enter /public/software/apps/Gaussian/g16/l702.exe)
 L702 exits ... SP integral derivatives will be done elsewhere.
 Leave Link  702 at Mon Jun 26 16:25:14 2023, MaxMem= 16106127360 cpu:               0.2 elap:               0.0
 (Enter /public/software/apps/Gaussian/g16/l703.exe)
 Integral derivatives from FoFJK, PRISM(SPDF).
 Compute integral first derivatives, UseDBF=F ICtDFT=           0.
 Calling FoFJK, ICntrl=      2127 FMM=F ISym2X=0 I1Cent= 0 IOpClX= 0 NMat=1 NMatS=1 NMatT=0.
 FoFJK:  IHMeth= 1 ICntrl=    2127 DoSepK=F KAlg= 0 I1Cent=           0 FoldK=F
 IRaf=         0 NMat=       1 IRICut=       1 DoRegI=T DoRafI=F ISym2E= 0 IDoP0=0 IntGTp=1.
 FoFCou: FMM=F IPFlag=           0 FMFlag=      100000 FMFlg1=         800
         NFxFlg=           0 DoJE=F BraDBF=F KetDBF=F FulRan=T
         wScrn=  0.000000 ICntrl=      2127 IOpCl=  0 I1Cent=           0 NGrid=           0
         NMat0=    1 NMatS0=      1 NMatT0=    0 NMatD0=    1 NMtDS0=    0 NMtDT0=    0
 Symmetry not used in FoFCou.
 Leave Link  703 at Mon Jun 26 16:25:15 2023, MaxMem= 16106127360 cpu:              13.3 elap:               0.4
 (Enter /public/software/apps/Gaussian/g16/l716.exe)
 Dipole        = 1.17390002D-05-1.48198389D-03 2.01401086D+00
 ***** Axes restored to original set *****
 -------------------------------------------------------------------
 Center     Atomic                   Forces (Hartrees/Bohr)
 Number     Number              X              Y              Z
 -------------------------------------------------------------------
      1        6          -0.000079017   -0.000013844   -0.000000033
      2        6           0.000240389    0.000053805    0.000000667
      3        6          -0.000795761   -0.000083420   -0.000001166
      4        6           0.000915030    0.000064249    0.000000634
      5        6           0.000550485   -0.000010130   -0.000000373
      6        6          -0.000806105   -0.000026827    0.000000359
      7        1          -0.000025020    0.000016167   -0.000000088
 -------------------------------------------------------------------
 Cartesian Forces:  Max     0.000915030 RMS     0.000345258
 Leave Link  716 at Mon Jun 26 16:25:15 2023, MaxMem= 16106127360 cpu:               0.3 elap:               0.0
 (Enter /public/software/apps/Gaussian/g16/l103.exe)

 GradGradGradGradGradGradGradGradGradGradGradGradGradGradGradGradGradGrad
 Berny optimization.
 FormGI is forming the generalized inverse of G from B-inverse, IUseBI=4.
 Internal  Forces:  Max     0.000831127 RMS     0.000275321
 Search for a local minimum.
 Step number   1 out of a maximum of   26
 All quantities printed in internal units (Hartrees-Bohrs-Radians)
 RMS Force = .27532D-03 SwitMx=.10000D-02 MixMth= 2
 Mixed Optimization -- En-DIIS/RFO-DIIS
 Second derivative matrix not updated -- first step.
 The second derivative matrix:
                          R1        R2        R3        R4        R5
           R1           0.60493
           R2           0.00000   0.72557
           R3           0.00000   0.00000   0.76855
           R4           0.00000   0.00000   0.00000   0.65223
           R5           0.00000   0.00000   0.00000   0.00000   0.90407
           R6           0.00000   0.00000   0.00000   0.00000   0.00000
           A1           0.00000   0.00000   0.00000   0.00000   0.00000
           A2           0.00000   0.00000   0.00000   0.00000   0.00000
           A3           0.00000   0.00000   0.00000   0.00000   0.00000
           A4           0.00000   0.00000   0.00000   0.00000   0.00000
           A5           0.00000   0.00000   0.00000   0.00000   0.00000
           A6           0.00000   0.00000   0.00000   0.00000   0.00000
           A7           0.00000   0.00000   0.00000   0.00000   0.00000
           A8           0.00000   0.00000   0.00000   0.00000   0.00000
           A9           0.00000   0.00000   0.00000   0.00000   0.00000
           A10          0.00000   0.00000   0.00000   0.00000   0.00000
                          R6        A1        A2        A3        A4
           R6           0.36855
           A1           0.00000   0.03654
           A2           0.00000   0.00000   0.03832
           A3           0.00000   0.00000   0.00000   0.03316
           A4           0.00000   0.00000   0.00000   0.00000   0.04316
           A5           0.00000   0.00000   0.00000   0.00000   0.00000
           A6           0.00000   0.00000   0.00000   0.00000   0.00000
           A7           0.00000   0.00000   0.00000   0.00000   0.00000
           A8           0.00000   0.00000   0.00000   0.00000   0.00000
           A9           0.00000   0.00000   0.00000   0.00000   0.00000
           A10          0.00000   0.00000   0.00000   0.00000   0.00000
                          A5        A6        A7        A8        A9
           A5           0.00460
           A6           0.00000   0.03654
           A7           0.00000   0.00000   0.03832
           A8           0.00000   0.00000   0.00000   0.03316
           A9           0.00000   0.00000   0.00000   0.00000   0.04316
           A10          0.00000   0.00000   0.00000   0.00000   0.00000
                          A10
           A10          0.00460
 ITU=  0
     Eigenvalues ---    0.00460   0.00593   0.03316   0.03531   0.03654
     Eigenvalues ---    0.03701   0.03832   0.04160   0.04316   0.36855
     Eigenvalues ---    0.60493   0.65223   0.72557   0.76855   0.90407
 RFO step:  Lambda=-1.82805515D-06 EMin= 4.59813218D-03
 Linear search not attempted -- first point.
 Iteration  1 RMS(Cart)=  0.00162246 RMS(Int)=  0.00001016
 Iteration  2 RMS(Cart)=  0.00002016 RMS(Int)=  0.00000628
 Iteration  3 RMS(Cart)=  0.00000090 RMS(Int)=  0.00000628
 ITry= 1 IFail=0 DXMaxC= 4.61D-03 DCOld= 1.00D+10 DXMaxT= 3.00D-01 DXLimC= 3.00D+00 Rises=F
 Variable       Old X    -DE/DX   Delta X   Delta X   Delta X     New X
                                 (Linear)    (Quad)   (Total)
    R1        2.50552   0.00008   0.00000   0.00013   0.00013   2.50565
    R2        2.42198  -0.00016   0.00000  -0.00022  -0.00022   2.42176
    R3        2.39657   0.00063   0.00000   0.00083   0.00083   2.39740
    R4        2.47032  -0.00028   0.00000  -0.00043  -0.00043   2.46989
    R5        2.32746  -0.00083   0.00000  -0.00092  -0.00092   2.32654
    R6        2.02766  -0.00003   0.00000  -0.00007  -0.00007   2.02759
    A1        3.13871   0.00004   0.00000   0.00124   0.00124   3.13995
    A2        3.14247  -0.00006   0.00000  -0.00108  -0.00108   3.14139
    A3        3.14131   0.00005   0.00000   0.00200   0.00200   3.14331
    A4        3.14168  -0.00000   0.00000   0.00023   0.00023   3.14190
    A5        3.14193  -0.00003   0.00000  -0.00544  -0.00544   3.13649
    A6        3.14161  -0.00000   0.00000   0.00000  -0.00001   3.14161
    A7        3.14158   0.00000   0.00000   0.00005   0.00004   3.14162
    A8        3.14159   0.00000   0.00000   0.00002   0.00001   3.14160
    A9        3.14158   0.00000   0.00000   0.00002   0.00000   3.14159
   A10        3.14160  -0.00000   0.00000  -0.00001  -0.00003   3.14158
         Item               Value     Threshold  Converged?
 Maximum Force            0.000831     0.000450     NO 
 RMS     Force            0.000275     0.000300     YES
 Maximum Displacement     0.004613     0.001800     NO 
 RMS     Displacement     0.001623     0.001200     NO 
 Predicted change in Energy=-9.140546D-07
 Lowest energy point so far.  Saving SCF results.
 GradGradGradGradGradGradGradGradGradGradGradGradGradGradGradGradGradGrad

 Leave Link  103 at Mon Jun 26 16:25:15 2023, MaxMem= 16106127360 cpu:               1.1 elap:               0.1
 (Enter /public/software/apps/Gaussian/g16/l202.exe)
                          Input orientation:                          
 ---------------------------------------------------------------------
 Center     Atomic      Atomic             Coordinates (Angstroms)
 Number     Number       Type             X           Y           Z
 ---------------------------------------------------------------------
      1          6           0       -3.349379    0.000726    0.000032
      2          6           0       -2.023445   -0.000763   -0.000008
      3          6           0       -0.741907   -0.000091   -0.000028
      4          6           0        0.526740    0.000829   -0.000018
      5          6           0        1.833747   -0.000464   -0.000000
      6          6           0        3.064898   -0.002063    0.000010
      7          1           0        4.137847    0.002016    0.000003
 ---------------------------------------------------------------------
                    Distance matrix (angstroms):
                    1          2          3          4          5
     1  C    0.000000
     2  C    1.325935   0.000000
     3  C    2.607472   1.281538   0.000000
     4  C    3.876119   2.550186   1.268648   0.000000
     5  C    5.183126   3.857192   2.575654   1.307007   0.000000
     6  C    6.414278   5.088343   3.806806   2.538160   1.231153
     7  H    7.487226   6.161292   4.879754   3.611107   2.304101
                    6          7
     6  C    0.000000
     7  H    1.072956   0.000000
 Stoichiometry    C6H(1+)
 Framework group  C1[X(C6H)]
 Deg. of freedom    15
 Full point group                 C1      NOp   1
 RotChk:  IX=0 Diff= 2.00D+00
 Largest Abelian subgroup         C1      NOp   1
 Largest concise Abelian subgroup C1      NOp   1
                         Standard orientation:                         
 ---------------------------------------------------------------------
 Center     Atomic      Atomic             Coordinates (Angstroms)
 Number     Number       Type             X           Y           Z
 ---------------------------------------------------------------------
      1          6           0       -3.349427    0.000317    0.000030
      2          6           0       -2.023493   -0.000914   -0.000012
      3          6           0       -0.741955    0.000007   -0.000027
      4          6           0        0.526692    0.001173   -0.000012
      5          6           0        1.833699    0.000133    0.000005
      6          6           0        3.064851   -0.001226    0.000013
      7          1           0        4.137798    0.003062    0.000020
 ---------------------------------------------------------------------
 Rotational constants (GHZ):     9202882.2560001           1.3892181           1.3892179
 Leave Link  202 at Mon Jun 26 16:25:15 2023, MaxMem= 16106127360 cpu:               0.2 elap:               0.0
 (Enter /public/software/apps/Gaussian/g16/l301.exe)
 Standard basis: 6-311+G(d,p) (5D, 7F)
 Ernie: Thresh=  0.10000D-02 Tol=  0.10000D-05 Strict=F.
 There are   144 symmetry adapted cartesian basis functions of A   symmetry.
 There are   138 symmetry adapted basis functions of A   symmetry.
   138 basis functions,   224 primitive gaussians,   144 cartesian basis functions
    18 alpha electrons       18 beta electrons
       nuclear repulsion energy       136.0302994763 Hartrees.
 IExCor=  402 DFT=T Ex+Corr=B3LYP ExCW=0 ScaHFX=  0.200000
 ScaDFX=  0.800000  0.720000  1.000000  0.810000 ScalE2=  1.000000  1.000000
 IRadAn=      5 IRanWt=     -1 IRanGd=            0 ICorTp=0 IEmpDi=141
 NAtoms=    7 NActive=    7 NUniq=    7 SFac= 1.00D+00 NAtFMM=   60 NAOKFM=F Big=F
 Integral buffers will be    131072 words long.
 Raffenetti 2 integral format.
 Two-electron integral symmetry is turned on.
 R6Disp:  Grimme-D3(BJ) Dispersion energy=       -0.0095426934 Hartrees.
 Nuclear repulsion after empirical dispersion term =      136.0207567829 Hartrees.
 Leave Link  301 at Mon Jun 26 16:25:15 2023, MaxMem= 16106127360 cpu:               1.1 elap:               0.0
 (Enter /public/software/apps/Gaussian/g16/l302.exe)
 NPDir=0 NMtPBC=     1 NCelOv=     1 NCel=       1 NClECP=     1 NCelD=      1
         NCelK=      1 NCelE2=     1 NClLst=     1 CellRange=     0.0.
 One-electron integrals computed using PRISM.
 One-electron integral symmetry used in STVInt
 NBasis=   138 RedAO= T EigKep=  1.48D-06  NBF=   138
 NBsUse=   135 1.00D-06 EigRej=  4.13D-08 NBFU=   135
 Precomputing XC quadrature grid using
 IXCGrd= 4 IRadAn=           5 IRanWt=          -1 IRanGd=           0 AccXCQ= 0.00D+00.
 Generated NRdTot=       0 NPtTot=           0 NUsed=           0 NTot=          32
 NSgBfM=   144   144   144   144   144 MxSgAt=     7 MxSgA2=     7.
 Leave Link  302 at Mon Jun 26 16:25:15 2023, MaxMem= 16106127360 cpu:               2.4 elap:               0.1
 (Enter /public/software/apps/Gaussian/g16/l303.exe)
 DipDrv:  MaxL=1.
 Leave Link  303 at Mon Jun 26 16:25:15 2023, MaxMem= 16106127360 cpu:               2.1 elap:               0.1
 (Enter /public/software/apps/Gaussian/g16/l401.exe)
 Initial guess from the checkpoint file:  "dsgdb9nsd_000484-1+.chk"
 B after Tr=    -0.000000    0.000000    0.000000
         Rot=    0.706949   -0.014946   -0.706949   -0.014946 Ang= -90.03 deg.
 Guess basis will be translated and rotated to current coordinates.
 JPrj=2 DoOrth=T DoCkMO=T.
 Leave Link  401 at Mon Jun 26 16:25:15 2023, MaxMem= 16106127360 cpu:               1.4 elap:               0.1
 (Enter /public/software/apps/Gaussian/g16/l502.exe)
 Keep R1 ints in memory in canonical form, NReq=77103754.
 FoFCou: FMM=F IPFlag=           0 FMFlag=           0 FMFlg1=           0
         NFxFlg=           0 DoJE=F BraDBF=F KetDBF=F FulRan=T
         wScrn=  0.000000 ICntrl=       600 IOpCl=  0 I1Cent=           0 NGrid=           0
         NMat0=    1 NMatS0=   9591 NMatT0=    0 NMatD0=    1 NMtDS0=    0 NMtDT0=    0
 Symmetry not used in FoFCou.
 Two-electron integral symmetry not used.
 Closed shell SCF:
 Using DIIS extrapolation, IDIIS=  1040.
 NGot= 16106127360 LenX= 16060081286 LenY= 16060060109
 Requested convergence on RMS density matrix=1.00D-08 within 128 cycles.
 Requested convergence on MAX density matrix=1.00D-06.
 Requested convergence on             energy=1.00D-06.
 No special actions if energy rises.

 Cycle   1  Pass 1  IDiag  1:
 E= -228.646968879549    
 DIIS: error= 4.10D-04 at cycle   1 NSaved=   1.
 NSaved= 1 IEnMin= 1 EnMin= -228.646968879549     IErMin= 1 ErrMin= 4.10D-04
 ErrMax= 4.10D-04  0.00D+00 EMaxC= 1.00D-01 BMatC= 1.75D-05 BMatP= 1.75D-05
 IDIUse=3 WtCom= 9.96D-01 WtEn= 4.10D-03
 Coeff-Com:  0.100D+01
 Coeff-En:   0.100D+01
 Coeff:      0.100D+01
 Gap=     0.387 Goal=   None    Shift=    0.000
 RMSDP=2.77D-04 MaxDP=1.44D-02              OVMax= 1.25D-03

 Cycle   2  Pass 1  IDiag  1:
 E= -228.646978207040     Delta-E=       -0.000009327491 Rises=F Damp=F
 DIIS: error= 6.81D-05 at cycle   2 NSaved=   2.
 NSaved= 2 IEnMin= 2 EnMin= -228.646978207040     IErMin= 2 ErrMin= 6.81D-05
 ErrMax= 6.81D-05  0.00D+00 EMaxC= 1.00D-01 BMatC= 3.38D-07 BMatP= 1.75D-05
 IDIUse=1 WtCom= 1.00D+00 WtEn= 0.00D+00
 Coeff-Com:  0.181D-01 0.982D+00
 Coeff:      0.181D-01 0.982D+00
 Gap=     0.043 Goal=   None    Shift=    0.000
 RMSDP=2.77D-05 MaxDP=6.24D-04 DE=-9.33D-06 OVMax= 7.92D-04

 Cycle   3  Pass 1  IDiag  1:
 E= -228.646976885724     Delta-E=        0.000001321315 Rises=F Damp=F
 DIIS: error= 1.46D-04 at cycle   3 NSaved=   3.
 NSaved= 3 IEnMin= 2 EnMin= -228.646978207040     IErMin= 2 ErrMin= 6.81D-05
 ErrMax= 1.46D-04  0.00D+00 EMaxC= 1.00D-01 BMatC= 1.40D-06 BMatP= 3.38D-07
 IDIUse=3 WtCom= 4.53D-01 WtEn= 5.47D-01
 Coeff-Com: -0.516D-02 0.682D+00 0.323D+00
 Coeff-En:   0.000D+00 0.774D+00 0.226D+00
 Coeff:     -0.234D-02 0.732D+00 0.270D+00
 Gap=     0.043 Goal=   None    Shift=    0.000
 RMSDP=1.71D-05 MaxDP=5.37D-04 DE= 1.32D-06 OVMax= 5.88D-04

 Cycle   4  Pass 1  IDiag  1:
 E= -228.646978529249     Delta-E=       -0.000001643525 Rises=F Damp=F
 DIIS: error= 2.18D-05 at cycle   4 NSaved=   4.
 NSaved= 4 IEnMin= 4 EnMin= -228.646978529249     IErMin= 4 ErrMin= 2.18D-05
 ErrMax= 2.18D-05  0.00D+00 EMaxC= 1.00D-01 BMatC= 5.86D-08 BMatP= 3.38D-07
 IDIUse=1 WtCom= 1.00D+00 WtEn= 0.00D+00
 Coeff-Com: -0.495D-02 0.409D+00 0.168D+00 0.428D+00
 Coeff:     -0.495D-02 0.409D+00 0.168D+00 0.428D+00
 Gap=     0.043 Goal=   None    Shift=    0.000
 RMSDP=3.32D-06 MaxDP=5.50D-05 DE=-1.64D-06 OVMax= 1.19D-04

 Cycle   5  Pass 1  IDiag  1:
 E= -228.646978581868     Delta-E=       -0.000000052619 Rises=F Damp=F
 DIIS: error= 9.31D-06 at cycle   5 NSaved=   5.
 NSaved= 5 IEnMin= 5 EnMin= -228.646978581868     IErMin= 5 ErrMin= 9.31D-06
 ErrMax= 9.31D-06  0.00D+00 EMaxC= 1.00D-01 BMatC= 6.26D-09 BMatP= 5.86D-08
 IDIUse=1 WtCom= 1.00D+00 WtEn= 0.00D+00
 Coeff-Com: -0.185D-02 0.102D+00 0.413D-01 0.253D+00 0.606D+00
 Coeff:     -0.185D-02 0.102D+00 0.413D-01 0.253D+00 0.606D+00
 Gap=     0.043 Goal=   None    Shift=    0.000
 RMSDP=2.06D-06 MaxDP=9.82D-05 DE=-5.26D-08 OVMax= 8.48D-05

 Cycle   6  Pass 1  IDiag  1:
 E= -228.646978583380     Delta-E=       -0.000000001512 Rises=F Damp=F
 DIIS: error= 1.12D-05 at cycle   6 NSaved=   6.
 NSaved= 6 IEnMin= 6 EnMin= -228.646978583380     IErMin= 5 ErrMin= 9.31D-06
 ErrMax= 1.12D-05  0.00D+00 EMaxC= 1.00D-01 BMatC= 3.94D-09 BMatP= 6.26D-09
 IDIUse=1 WtCom= 1.00D+00 WtEn= 0.00D+00
 Coeff-Com: -0.752D-03 0.240D-01 0.937D-02 0.145D+00 0.488D+00 0.334D+00
 Coeff:     -0.752D-03 0.240D-01 0.937D-02 0.145D+00 0.488D+00 0.334D+00
 Gap=     0.043 Goal=   None    Shift=    0.000
 RMSDP=8.67D-07 MaxDP=3.49D-05 DE=-1.51D-09 OVMax= 5.99D-05

 Cycle   7  Pass 1  IDiag  1:
 E= -228.646978589095     Delta-E=       -0.000000005715 Rises=F Damp=F
 DIIS: error= 3.50D-06 at cycle   7 NSaved=   7.
 NSaved= 7 IEnMin= 7 EnMin= -228.646978589095     IErMin= 7 ErrMin= 3.50D-06
 ErrMax= 3.50D-06  0.00D+00 EMaxC= 1.00D-01 BMatC= 3.14D-10 BMatP= 3.94D-09
 IDIUse=1 WtCom= 1.00D+00 WtEn= 0.00D+00
 Coeff-Com:  0.192D-03-0.220D-01-0.973D-02 0.114D-01 0.105D+00 0.237D+00
 Coeff-Com:  0.678D+00
 Coeff:      0.192D-03-0.220D-01-0.973D-02 0.114D-01 0.105D+00 0.237D+00
 Coeff:      0.678D+00
 Gap=     0.043 Goal=   None    Shift=    0.000
 RMSDP=4.04D-07 MaxDP=9.07D-06 DE=-5.71D-09 OVMax= 1.77D-05

 Cycle   8  Pass 1  IDiag  1:
 E= -228.646978589624     Delta-E=       -0.000000000529 Rises=F Damp=F
 DIIS: error= 8.57D-07 at cycle   8 NSaved=   8.
 NSaved= 8 IEnMin= 8 EnMin= -228.646978589624     IErMin= 8 ErrMin= 8.57D-07
 ErrMax= 8.57D-07  0.00D+00 EMaxC= 1.00D-01 BMatC= 4.76D-11 BMatP= 3.14D-10
 IDIUse=1 WtCom= 1.00D+00 WtEn= 0.00D+00
 Coeff-Com:  0.221D-03-0.176D-01-0.785D-02-0.943D-02 0.123D-01 0.115D+00
 Coeff-Com:  0.422D+00 0.486D+00
 Coeff:      0.221D-03-0.176D-01-0.785D-02-0.943D-02 0.123D-01 0.115D+00
 Coeff:      0.422D+00 0.486D+00
 Gap=     0.043 Goal=   None    Shift=    0.000
 RMSDP=1.45D-07 MaxDP=2.64D-06 DE=-5.29D-10 OVMax= 5.91D-06

 Cycle   9  Pass 1  IDiag  1:
 E= -228.646978589677     Delta-E=       -0.000000000053 Rises=F Damp=F
 DIIS: error= 2.48D-07 at cycle   9 NSaved=   9.
 NSaved= 9 IEnMin= 9 EnMin= -228.646978589677     IErMin= 9 ErrMin= 2.48D-07
 ErrMax= 2.48D-07  0.00D+00 EMaxC= 1.00D-01 BMatC= 5.34D-12 BMatP= 4.76D-11
 IDIUse=1 WtCom= 1.00D+00 WtEn= 0.00D+00
 Coeff-Com:  0.616D-04-0.306D-02-0.156D-02-0.903D-02-0.258D-01-0.951D-02
 Coeff-Com:  0.170D-01 0.244D+00 0.788D+00
 Coeff:      0.616D-04-0.306D-02-0.156D-02-0.903D-02-0.258D-01-0.951D-02
 Coeff:      0.170D-01 0.244D+00 0.788D+00
 Gap=     0.043 Goal=   None    Shift=    0.000
 RMSDP=9.96D-08 MaxDP=1.58D-06 DE=-5.28D-11 OVMax= 5.38D-06

 Cycle  10  Pass 1  IDiag  1:
 E= -228.646978589686     Delta-E=       -0.000000000010 Rises=F Damp=F
 DIIS: error= 1.59D-07 at cycle  10 NSaved=  10.
 NSaved=10 IEnMin=10 EnMin= -228.646978589686     IErMin=10 ErrMin= 1.59D-07
 ErrMax= 1.59D-07  0.00D+00 EMaxC= 1.00D-01 BMatC= 2.04D-12 BMatP= 5.34D-12
 IDIUse=1 WtCom= 1.00D+00 WtEn= 0.00D+00
 Coeff-Com:  0.336D-05 0.994D-03 0.330D-03-0.427D-02-0.182D-01-0.241D-01
 Coeff-Com: -0.565D-01 0.749D-01 0.515D+00 0.512D+00
 Coeff:      0.336D-05 0.994D-03 0.330D-03-0.427D-02-0.182D-01-0.241D-01
 Coeff:     -0.565D-01 0.749D-01 0.515D+00 0.512D+00
 Gap=     0.043 Goal=   None    Shift=    0.000
 RMSDP=3.53D-08 MaxDP=5.97D-07 DE=-9.78D-12 OVMax= 1.53D-06

 Cycle  11  Pass 1  IDiag  1:
 E= -228.646978589689     Delta-E=       -0.000000000003 Rises=F Damp=F
 DIIS: error= 4.06D-08 at cycle  11 NSaved=  11.
 NSaved=11 IEnMin=11 EnMin= -228.646978589689     IErMin=11 ErrMin= 4.06D-08
 ErrMax= 4.06D-08  0.00D+00 EMaxC= 1.00D-01 BMatC= 9.21D-14 BMatP= 2.04D-12
 IDIUse=1 WtCom= 1.00D+00 WtEn= 0.00D+00
 Coeff-Com: -0.724D-05 0.881D-03 0.408D-03-0.510D-03-0.347D-02-0.899D-02
 Coeff-Com: -0.242D-01-0.697D-02 0.988D-01 0.208D+00 0.736D+00
 Coeff:     -0.724D-05 0.881D-03 0.408D-03-0.510D-03-0.347D-02-0.899D-02
 Coeff:     -0.242D-01-0.697D-02 0.988D-01 0.208D+00 0.736D+00
 Gap=     0.043 Goal=   None    Shift=    0.000
 RMSDP=9.99D-09 MaxDP=1.36D-07 DE=-2.67D-12 OVMax= 5.11D-07

 SCF Done:  E(RB3LYP) =  -228.646978590     A.U. after   11 cycles
            NFock= 11  Conv=0.10D-07     -V/T= 2.0039
 KE= 2.277489987080D+02 PE=-7.942693664613D+02 EE= 2.018526323808D+02
 Leave Link  502 at Mon Jun 26 16:25:16 2023, MaxMem= 16106127360 cpu:              25.4 elap:               1.1
 (Enter /public/software/apps/Gaussian/g16/l701.exe)
 ... and contract with generalized density number  0.
 Compute integral first derivatives.
 R6Disp: Adding Grimme-D3(BJ) dispersion energy 1st derivatives to the gradient.
 Leave Link  701 at Mon Jun 26 16:25:16 2023, MaxMem= 16106127360 cpu:               2.2 elap:               0.1
 (Enter /public/software/apps/Gaussian/g16/l702.exe)
 L702 exits ... SP integral derivatives will be done elsewhere.
 Leave Link  702 at Mon Jun 26 16:25:17 2023, MaxMem= 16106127360 cpu:               0.9 elap:               0.0
 (Enter /public/software/apps/Gaussian/g16/l703.exe)
 Integral derivatives from FoFJK, PRISM(SPDF).
 Compute integral first derivatives, UseDBF=F ICtDFT=           0.
 Calling FoFJK, ICntrl=      2127 FMM=F ISym2X=0 I1Cent= 0 IOpClX= 0 NMat=1 NMatS=1 NMatT=0.
 FoFJK:  IHMeth= 1 ICntrl=    2127 DoSepK=F KAlg= 0 I1Cent=           0 FoldK=F
 IRaf=         0 NMat=       1 IRICut=       1 DoRegI=T DoRafI=F ISym2E= 0 IDoP0=0 IntGTp=1.
 FoFCou: FMM=F IPFlag=           0 FMFlag=      100000 FMFlg1=         800
         NFxFlg=           0 DoJE=F BraDBF=F KetDBF=F FulRan=T
         wScrn=  0.000000 ICntrl=      2127 IOpCl=  0 I1Cent=           0 NGrid=           0
         NMat0=    1 NMatS0=      1 NMatT0=    0 NMatD0=    1 NMtDS0=    0 NMtDT0=    0
 Symmetry not used in FoFCou.
 Leave Link  703 at Mon Jun 26 16:25:17 2023, MaxMem= 16106127360 cpu:              10.4 elap:               0.3
 (Enter /public/software/apps/Gaussian/g16/l716.exe)
 Dipole        = 2.01301627D+00-3.55439809D-05-9.11861929D-05
 ***** Axes restored to original set *****
 -------------------------------------------------------------------
 Center     Atomic                   Forces (Hartrees/Bohr)
 Number     Number              X              Y              Z
 -------------------------------------------------------------------
      1        6          -0.000013257   -0.000007810    0.000000630
      2        6           0.000084862    0.000001907   -0.000003442
      3        6          -0.000115439    0.000106852    0.000006839
      4        6           0.000038049   -0.000187615   -0.000003908
      5        6          -0.000051385   -0.000110321   -0.000006869
      6        6           0.000066274    0.000426087    0.000012165
      7        1          -0.000009104   -0.000229101   -0.000005415
 -------------------------------------------------------------------
 Cartesian Forces:  Max     0.000426087 RMS     0.000123915
 Leave Link  716 at Mon Jun 26 16:25:17 2023, MaxMem= 16106127360 cpu:               1.1 elap:               0.1
 (Enter /public/software/apps/Gaussian/g16/l103.exe)

 GradGradGradGradGradGradGradGradGradGradGradGradGradGradGradGradGradGrad
 Berny optimization.
 Using GEDIIS/GDIIS optimizer.
 FormGI is forming the generalized inverse of G from B-inverse, IUseBI=4.
 Internal  Forces:  Max     0.000466136 RMS     0.000130217
 Search for a local minimum.
 Step number   2 out of a maximum of   26
 All quantities printed in internal units (Hartrees-Bohrs-Radians)
 RMS Force = .13022D-03 SwitMx=.10000D-02 MixMth= 2
 Mixed Optimization -- En-DIIS/RFO-DIIS
 Swapping is turned off.
 Update second derivatives using D2CorX and points    1    2
 DE=  5.64D-07 DEPred=-9.14D-07 R=-6.17D-01
 Trust test=-6.17D-01 RLast= 6.18D-03 DXMaxT set to 1.50D-01
 The second derivative matrix:
                          R1        R2        R3        R4        R5
           R1           0.60242
           R2           0.00574   0.71300
           R3          -0.01930   0.04493   0.62130
           R4           0.00819  -0.01941   0.06205   0.62628
           R5           0.02371  -0.05672   0.17881  -0.07445   0.69102
           R6           0.00087  -0.00193   0.00683  -0.00294  -0.00858
           A1          -0.00174   0.00370  -0.01380   0.00603   0.01772
           A2           0.00046  -0.00184   0.00247  -0.00059  -0.00095
           A3           0.00057   0.00116   0.00788  -0.00480  -0.01630
           A4          -0.00063   0.00114  -0.00522   0.00239   0.00719
           A5          -0.00576   0.00713  -0.05273   0.02594   0.08097
           A6          -0.00001   0.00001  -0.00013   0.00007   0.00021
           A7           0.00003   0.00000   0.00032  -0.00018  -0.00058
           A8          -0.00007   0.00011  -0.00063   0.00030   0.00093
           A9          -0.00006   0.00009  -0.00056   0.00027   0.00084
           A10          0.00015  -0.00021   0.00138  -0.00067  -0.00207
                          R6        A1        A2        A3        A4
           R6           0.36825
           A1           0.00057   0.03547
           A2          -0.00026   0.00071   0.03931
           A3           0.00012  -0.00084  -0.00352   0.04385
           A4           0.00018  -0.00029   0.00052  -0.00113   0.04315
           A5           0.00122  -0.00096   0.00941  -0.02512   0.00167
           A6           0.00000  -0.00000   0.00003  -0.00008   0.00001
           A7          -0.00000  -0.00002  -0.00010   0.00030  -0.00003
           A8           0.00002  -0.00002   0.00009  -0.00023   0.00001
           A9           0.00001  -0.00002   0.00009  -0.00023   0.00001
           A10         -0.00004   0.00004  -0.00022   0.00057  -0.00003
                          A5        A6        A7        A8        A9
           A5           0.05598
           A6           0.00017   0.03654
           A7          -0.00068  -0.00000   0.03833
           A8           0.00044   0.00000  -0.00001   0.03316
           A9           0.00044   0.00000  -0.00001   0.00000   0.04316
           A10         -0.00113  -0.00000   0.00002  -0.00001  -0.00001
                          A10
           A10          0.00462
 ITU= -1  0
     Eigenvalues ---    0.00460   0.01775   0.03315   0.03461   0.03654
     Eigenvalues ---    0.03832   0.04150   0.04316   0.06105   0.36660
     Eigenvalues ---    0.43285   0.60702   0.66887   0.73096   0.84345
 En-DIIS/RFO-DIIS/Sim-DIIS IScMMF=       -3 using points:     2    1
 RFO step:  Lambda=-6.93055500D-06.
 NNeg= 0 NGDIIS= 2 SimSw=  2.50D-03 Rises=T DC=  5.64D-07 SmlDif=  1.00D-05
 NRisDI= 1 DoIntr=F SqrtH=F CThrHd= 10.0 CDAdj=  3.0
 RMS Error=  0.4155187167D-02 NUsed= 2 OKEnD=T EnDIS=T
 InvSVX:  RCond= 9.53D-06 Info=           0 Equed=N FErr=  1.07D-14 BErr=  1.79D-17
 IWarn =    0
 DidBck=T Rises=T En-DIIS coefs:    0.44109    0.55891
 Iteration  1 RMS(Cart)=  0.00472273 RMS(Int)=  0.00015419
 Iteration  2 RMS(Cart)=  0.00065235 RMS(Int)=  0.00001138
 Iteration  3 RMS(Cart)=  0.00002698 RMS(Int)=  0.00001003
 Iteration  4 RMS(Cart)=  0.00000095 RMS(Int)=  0.00001003
 ITry= 1 IFail=0 DXMaxC= 1.28D-02 DCOld= 1.00D+10 DXMaxT= 1.50D-01 DXLimC= 3.00D+00 Rises=F
 Variable       Old X    -DE/DX   Delta X   Delta X   Delta X     New X
                                 (Linear)    (Quad)   (Total)
    R1        2.50565   0.00001  -0.00007   0.00045   0.00037   2.50603
    R2        2.42176  -0.00007   0.00012  -0.00078  -0.00066   2.42110
    R3        2.39740   0.00004  -0.00046   0.00279   0.00233   2.39972
    R4        2.46989   0.00001   0.00024  -0.00144  -0.00120   2.46869
    R5        2.32654   0.00006   0.00051  -0.00306  -0.00254   2.32400
    R6        2.02759  -0.00001   0.00004  -0.00024  -0.00020   2.02739
    A1        3.13995   0.00002  -0.00069   0.00298   0.00229   3.14223
    A2        3.14139   0.00004   0.00060  -0.00587  -0.00527   3.13612
    A3        3.14331  -0.00020  -0.00112   0.00078  -0.00034   3.14297
    A4        3.14190   0.00001  -0.00013  -0.00127  -0.00140   3.14050
    A5        3.13649   0.00047   0.00304   0.01200   0.01505   3.15154
    A6        3.14161   0.00000   0.00000   0.00001  -0.00001   3.14160
    A7        3.14162  -0.00001  -0.00002   0.00009   0.00004   3.14165
    A8        3.14160   0.00000  -0.00001   0.00010   0.00008   3.14168
    A9        3.14159   0.00000  -0.00000   0.00006   0.00007   3.14166
   A10        3.14158  -0.00001   0.00001  -0.00098  -0.00094   3.14063
         Item               Value     Threshold  Converged?
 Maximum Force            0.000466     0.000450     NO 
 RMS     Force            0.000130     0.000300     YES
 Maximum Displacement     0.012762     0.001800     NO 
 RMS     Displacement     0.004705     0.001200     NO 
 Predicted change in Energy=-3.466361D-06
 GradGradGradGradGradGradGradGradGradGradGradGradGradGradGradGradGradGrad

 Leave Link  103 at Mon Jun 26 16:25:17 2023, MaxMem= 16106127360 cpu:               1.3 elap:               0.1
 (Enter /public/software/apps/Gaussian/g16/l202.exe)
                          Input orientation:                          
 ---------------------------------------------------------------------
 Center     Atomic      Atomic             Coordinates (Angstroms)
 Number     Number       Type             X           Y           Z
 ---------------------------------------------------------------------
      1          6           0       -3.349320    0.002068   -0.000014
      2          6           0       -2.023190   -0.000578   -0.000047
      3          6           0       -0.742006   -0.003952   -0.000070
      4          6           0        0.527868   -0.000347   -0.000014
      5          6           0        1.834240    0.001558    0.000155
      6          6           0        3.064043    0.004690    0.000398
      7          1           0        4.136864   -0.003248   -0.000418
 ---------------------------------------------------------------------
                    Distance matrix (angstroms):
                    1          2          3          4          5
     1  C    0.000000
     2  C    1.326132   0.000000
     3  C    2.607321   1.281189   0.000000
     4  C    3.877189   2.551059   1.269879   0.000000
     5  C    5.183560   3.857431   2.576252   1.306373   0.000000
     6  C    6.413363   5.087236   3.806058   2.536180   1.229807
     7  H    7.486185   6.160054   4.878869   3.608996   2.302628
                    6          7
     6  C    0.000000
     7  H    1.072850   0.000000
 Stoichiometry    C6H(1+)
 Framework group  C1[X(C6H)]
 Deg. of freedom    15
 Full point group                 C1      NOp   1
 RotChk:  IX=1 Diff= 7.11D-02
 Largest Abelian subgroup         C1      NOp   1
 Largest concise Abelian subgroup C1      NOp   1
                         Standard orientation:                         
 ---------------------------------------------------------------------
 Center     Atomic      Atomic             Coordinates (Angstroms)
 Number     Number       Type             X           Y           Z
 ---------------------------------------------------------------------
      1          6           0       -3.349499    0.002863   -0.000057
      2          6           0       -2.023371   -0.000284    0.000001
      3          6           0       -0.742188   -0.004142    0.000104
      4          6           0        0.527688   -0.001020   -0.000044
      5          6           0        1.834060    0.000397    0.000001
      6          6           0        3.063864    0.003070    0.000062
      7          1           0        4.136681   -0.005304   -0.000405
 ---------------------------------------------------------------------
 Rotational constants (GHZ):     1099467.6897927           1.3894061           1.3894043
 Leave Link  202 at Mon Jun 26 16:25:17 2023, MaxMem= 16106127360 cpu:               1.1 elap:               0.0
 (Enter /public/software/apps/Gaussian/g16/l301.exe)
 Standard basis: 6-311+G(d,p) (5D, 7F)
 Ernie: Thresh=  0.10000D-02 Tol=  0.10000D-05 Strict=F.
 There are   144 symmetry adapted cartesian basis functions of A   symmetry.
 There are   138 symmetry adapted basis functions of A   symmetry.
   138 basis functions,   224 primitive gaussians,   144 cartesian basis functions
    18 alpha electrons       18 beta electrons
       nuclear repulsion energy       136.0458837444 Hartrees.
 IExCor=  402 DFT=T Ex+Corr=B3LYP ExCW=0 ScaHFX=  0.200000
 ScaDFX=  0.800000  0.720000  1.000000  0.810000 ScalE2=  1.000000  1.000000
 IRadAn=      5 IRanWt=     -1 IRanGd=            0 ICorTp=0 IEmpDi=141
 NAtoms=    7 NActive=    7 NUniq=    7 SFac= 1.00D+00 NAtFMM=   60 NAOKFM=F Big=F
 Integral buffers will be    131072 words long.
 Raffenetti 2 integral format.
 Two-electron integral symmetry is turned on.
 R6Disp:  Grimme-D3(BJ) Dispersion energy=       -0.0095430820 Hartrees.
 Nuclear repulsion after empirical dispersion term =      136.0363406625 Hartrees.
 Leave Link  301 at Mon Jun 26 16:25:17 2023, MaxMem= 16106127360 cpu:               0.7 elap:               0.0
 (Enter /public/software/apps/Gaussian/g16/l302.exe)
 NPDir=0 NMtPBC=     1 NCelOv=     1 NCel=       1 NClECP=     1 NCelD=      1
         NCelK=      1 NCelE2=     1 NClLst=     1 CellRange=     0.0.
 One-electron integrals computed using PRISM.
 One-electron integral symmetry used in STVInt
 NBasis=   138 RedAO= T EigKep=  1.47D-06  NBF=   138
 NBsUse=   135 1.00D-06 EigRej=  4.12D-08 NBFU=   135
 Precomputing XC quadrature grid using
 IXCGrd= 4 IRadAn=           5 IRanWt=          -1 IRanGd=           0 AccXCQ= 0.00D+00.
 Generated NRdTot=       0 NPtTot=           0 NUsed=           0 NTot=          32
 NSgBfM=   144   144   144   144   144 MxSgAt=     7 MxSgA2=     7.
 Leave Link  302 at Mon Jun 26 16:25:17 2023, MaxMem= 16106127360 cpu:               3.7 elap:               0.1
 (Enter /public/software/apps/Gaussian/g16/l303.exe)
 DipDrv:  MaxL=1.
 Leave Link  303 at Mon Jun 26 16:25:17 2023, MaxMem= 16106127360 cpu:               0.3 elap:               0.0
 (Enter /public/software/apps/Gaussian/g16/l401.exe)
 Initial guess from the checkpoint file:  "dsgdb9nsd_000484-1+.chk"
 B after Tr=     0.000000    0.000000   -0.000000
         Rot=    0.045586    0.998960    0.000000    0.000000 Ang= 174.77 deg.
 Guess basis will be translated and rotated to current coordinates.
 JPrj=2 DoOrth=T DoCkMO=T.
 Leave Link  401 at Mon Jun 26 16:25:18 2023, MaxMem= 16106127360 cpu:               4.3 elap:               0.2
 (Enter /public/software/apps/Gaussian/g16/l502.exe)
 Keep R1 ints in memory in canonical form, NReq=77103754.
 FoFCou: FMM=F IPFlag=           0 FMFlag=           0 FMFlg1=           0
         NFxFlg=           0 DoJE=F BraDBF=F KetDBF=F FulRan=T
         wScrn=  0.000000 ICntrl=       600 IOpCl=  0 I1Cent=           0 NGrid=           0
         NMat0=    1 NMatS0=   9591 NMatT0=    0 NMatD0=    1 NMtDS0=    0 NMtDT0=    0
 Symmetry not used in FoFCou.
 Two-electron integral symmetry not used.
 Closed shell SCF:
 Using DIIS extrapolation, IDIIS=  1040.
 NGot= 16106127360 LenX= 16060081286 LenY= 16060060109
 Requested convergence on RMS density matrix=1.00D-08 within 128 cycles.
 Requested convergence on MAX density matrix=1.00D-06.
 Requested convergence on             energy=1.00D-06.
 No special actions if energy rises.

 Cycle   1  Pass 1  IDiag  1:
 E= -228.646913665652    
 DIIS: error= 1.80D-03 at cycle   1 NSaved=   1.
 NSaved= 1 IEnMin= 1 EnMin= -228.646913665652     IErMin= 1 ErrMin= 1.80D-03
 ErrMax= 1.80D-03  0.00D+00 EMaxC= 1.00D-01 BMatC= 1.26D-04 BMatP= 1.26D-04
 IDIUse=3 WtCom= 9.82D-01 WtEn= 1.80D-02
 Coeff-Com:  0.100D+01
 Coeff-En:   0.100D+01
 Coeff:      0.100D+01
 Gap=     0.387 Goal=   None    Shift=    0.000
 GapD=    0.387 DampG=1.000 DampE=1.000 DampFc=1.0000 IDamp=-1.
 RMSDP=7.35D-04 MaxDP=3.84D-02              OVMax= 2.80D-03

 Cycle   2  Pass 1  IDiag  1:
 E= -228.646965795053     Delta-E=       -0.000052129402 Rises=F Damp=F
 DIIS: error= 1.91D-04 at cycle   2 NSaved=   2.
 NSaved= 2 IEnMin= 2 EnMin= -228.646965795053     IErMin= 2 ErrMin= 1.91D-04
 ErrMax= 1.91D-04  0.00D+00 EMaxC= 1.00D-01 BMatC= 2.55D-06 BMatP= 1.26D-04
 IDIUse=3 WtCom= 9.98D-01 WtEn= 1.91D-03
 Coeff-Com:  0.200D-01 0.980D+00
 Coeff-En:   0.000D+00 0.100D+01
 Coeff:      0.200D-01 0.980D+00
 Gap=     0.043 Goal=   None    Shift=    0.000
 RMSDP=7.61D-05 MaxDP=1.79D-03 DE=-5.21D-05 OVMax= 2.26D-03

 Cycle   3  Pass 1  IDiag  1:
 E= -228.646955607400     Delta-E=        0.000010187653 Rises=F Damp=F
 DIIS: error= 4.04D-04 at cycle   3 NSaved=   3.
 NSaved= 3 IEnMin= 2 EnMin= -228.646965795053     IErMin= 2 ErrMin= 1.91D-04
 ErrMax= 4.04D-04  0.00D+00 EMaxC= 1.00D-01 BMatC= 1.09D-05 BMatP= 2.55D-06
 IDIUse=3 WtCom= 3.32D-01 WtEn= 6.68D-01
 Coeff-Com: -0.474D-02 0.684D+00 0.321D+00
 Coeff-En:   0.000D+00 0.776D+00 0.224D+00
 Coeff:     -0.157D-02 0.745D+00 0.256D+00
 Gap=     0.043 Goal=   None    Shift=    0.000
 RMSDP=4.59D-05 MaxDP=1.44D-03 DE= 1.02D-05 OVMax= 1.42D-03

 Cycle   4  Pass 1  IDiag  1:
 E= -228.646968124630     Delta-E=       -0.000012517230 Rises=F Damp=F
 DIIS: error= 6.86D-05 at cycle   4 NSaved=   4.
 NSaved= 4 IEnMin= 4 EnMin= -228.646968124630     IErMin= 4 ErrMin= 6.86D-05
 ErrMax= 6.86D-05  0.00D+00 EMaxC= 1.00D-01 BMatC= 4.76D-07 BMatP= 2.55D-06
 IDIUse=1 WtCom= 1.00D+00 WtEn= 0.00D+00
 Coeff-Com: -0.457D-02 0.423D+00 0.149D+00 0.432D+00
 Coeff:     -0.457D-02 0.423D+00 0.149D+00 0.432D+00
 Gap=     0.043 Goal=   None    Shift=    0.000
 RMSDP=1.02D-05 MaxDP=2.33D-04 DE=-1.25D-05 OVMax= 2.83D-04

 Cycle   5  Pass 1  IDiag  1:
 E= -228.646968552051     Delta-E=       -0.000000427421 Rises=F Damp=F
 DIIS: error= 1.89D-05 at cycle   5 NSaved=   5.
 NSaved= 5 IEnMin= 5 EnMin= -228.646968552051     IErMin= 5 ErrMin= 1.89D-05
 ErrMax= 1.89D-05  0.00D+00 EMaxC= 1.00D-01 BMatC= 2.86D-08 BMatP= 4.76D-07
 IDIUse=1 WtCom= 1.00D+00 WtEn= 0.00D+00
 Coeff-Com: -0.159D-02 0.109D+00 0.328D-01 0.230D+00 0.630D+00
 Coeff:     -0.159D-02 0.109D+00 0.328D-01 0.230D+00 0.630D+00
 Gap=     0.043 Goal=   None    Shift=    0.000
 RMSDP=4.97D-06 MaxDP=2.44D-04 DE=-4.27D-07 OVMax= 1.94D-04

 Cycle   6  Pass 1  IDiag  1:
 E= -228.646968549527     Delta-E=        0.000000002524 Rises=F Damp=F
 DIIS: error= 2.74D-05 at cycle   6 NSaved=   6.
 NSaved= 6 IEnMin= 5 EnMin= -228.646968552051     IErMin= 5 ErrMin= 1.89D-05
 ErrMax= 2.74D-05  0.00D+00 EMaxC= 1.00D-01 BMatC= 2.23D-08 BMatP= 2.86D-08
 IDIUse=1 WtCom= 1.00D+00 WtEn= 0.00D+00
 Coeff-Com: -0.611D-03 0.273D-01 0.495D-02 0.126D+00 0.510D+00 0.332D+00
 Coeff:     -0.611D-03 0.273D-01 0.495D-02 0.126D+00 0.510D+00 0.332D+00
 Gap=     0.043 Goal=   None    Shift=    0.000
 RMSDP=2.00D-06 MaxDP=8.30D-05 DE= 2.52D-09 OVMax= 1.48D-04

 Cycle   7  Pass 1  IDiag  1:
 E= -228.646968581892     Delta-E=       -0.000000032365 Rises=F Damp=F
 DIIS: error= 8.75D-06 at cycle   7 NSaved=   7.
 NSaved= 7 IEnMin= 7 EnMin= -228.646968581892     IErMin= 7 ErrMin= 8.75D-06
 ErrMax= 8.75D-06  0.00D+00 EMaxC= 1.00D-01 BMatC= 1.75D-09 BMatP= 2.23D-08
 IDIUse=1 WtCom= 1.00D+00 WtEn= 0.00D+00
 Coeff-Com:  0.475D-04-0.140D-01-0.706D-02 0.208D-01 0.148D+00 0.240D+00
 Coeff-Com:  0.612D+00
 Coeff:      0.475D-04-0.140D-01-0.706D-02 0.208D-01 0.148D+00 0.240D+00
 Coeff:      0.612D+00
 Gap=     0.043 Goal=   None    Shift=    0.000
 RMSDP=8.09D-07 MaxDP=2.28D-05 DE=-3.24D-08 OVMax= 3.17D-05

 Cycle   8  Pass 1  IDiag  1:
 E= -228.646968584560     Delta-E=       -0.000000002669 Rises=F Damp=F
 DIIS: error= 1.65D-06 at cycle   8 NSaved=   8.
 NSaved= 8 IEnMin= 8 EnMin= -228.646968584560     IErMin= 8 ErrMin= 1.65D-06
 ErrMax= 1.65D-06  0.00D+00 EMaxC= 1.00D-01 BMatC= 1.85D-10 BMatP= 1.75D-09
 IDIUse=1 WtCom= 1.00D+00 WtEn= 0.00D+00
 Coeff-Com:  0.901D-04-0.122D-01-0.552D-02 0.283D-02 0.532D-01 0.131D+00
 Coeff-Com:  0.389D+00 0.442D+00
 Coeff:      0.901D-04-0.122D-01-0.552D-02 0.283D-02 0.532D-01 0.131D+00
 Coeff:      0.389D+00 0.442D+00
 Gap=     0.043 Goal=   None    Shift=    0.000
 RMSDP=2.59D-07 MaxDP=7.09D-06 DE=-2.67D-09 OVMax= 5.19D-06

 Cycle   9  Pass 1  IDiag  1:
 E= -228.646968584728     Delta-E=       -0.000000000167 Rises=F Damp=F
 DIIS: error= 3.29D-07 at cycle   9 NSaved=   9.
 NSaved= 9 IEnMin= 9 EnMin= -228.646968584728     IErMin= 9 ErrMin= 3.29D-07
 ErrMax= 3.29D-07  0.00D+00 EMaxC= 1.00D-01 BMatC= 1.02D-11 BMatP= 1.85D-10
 IDIUse=1 WtCom= 1.00D+00 WtEn= 0.00D+00
 Coeff-Com:  0.429D-04-0.495D-02-0.223D-02-0.158D-02 0.741D-02 0.390D-01
 Coeff-Com:  0.120D+00 0.217D+00 0.625D+00
 Coeff:      0.429D-04-0.495D-02-0.223D-02-0.158D-02 0.741D-02 0.390D-01
 Coeff:      0.120D+00 0.217D+00 0.625D+00
 Gap=     0.043 Goal=   None    Shift=    0.000
 RMSDP=7.37D-08 MaxDP=1.43D-06 DE=-1.67D-10 OVMax= 2.21D-06

 Cycle  10  Pass 1  IDiag  1:
 E= -228.646968584738     Delta-E=       -0.000000000010 Rises=F Damp=F
 DIIS: error= 1.93D-07 at cycle  10 NSaved=  10.
 NSaved=10 IEnMin=10 EnMin= -228.646968584738     IErMin=10 ErrMin= 1.93D-07
 ErrMax= 1.93D-07  0.00D+00 EMaxC= 1.00D-01 BMatC= 3.12D-12 BMatP= 1.02D-11
 IDIUse=1 WtCom= 1.00D+00 WtEn= 0.00D+00
 Coeff-Com:  0.125D-04-0.115D-02-0.539D-03-0.134D-02-0.332D-02 0.475D-02
 Coeff-Com:  0.129D-01 0.579D-01 0.395D+00 0.535D+00
 Coeff:      0.125D-04-0.115D-02-0.539D-03-0.134D-02-0.332D-02 0.475D-02
 Coeff:      0.129D-01 0.579D-01 0.395D+00 0.535D+00
 Gap=     0.043 Goal=   None    Shift=    0.000
 RMSDP=4.58D-08 MaxDP=9.36D-07 DE=-1.02D-11 OVMax= 2.08D-06

 Cycle  11  Pass 1  IDiag  1:
 E= -228.646968584742     Delta-E=       -0.000000000004 Rises=F Damp=F
 DIIS: error= 5.17D-08 at cycle  11 NSaved=  11.
 NSaved=11 IEnMin=11 EnMin= -228.646968584742     IErMin=11 ErrMin= 5.17D-08
 ErrMax= 5.17D-08  0.00D+00 EMaxC= 1.00D-01 BMatC= 1.73D-13 BMatP= 3.12D-12
 IDIUse=1 WtCom= 1.00D+00 WtEn= 0.00D+00
 Coeff-Com: -0.215D-05 0.304D-03 0.134D-03 0.879D-05-0.646D-03-0.273D-02
 Coeff-Com: -0.971D-02-0.221D-01-0.298D-02 0.174D+00 0.864D+00
 Coeff:     -0.215D-05 0.304D-03 0.134D-03 0.879D-05-0.646D-03-0.273D-02
 Coeff:     -0.971D-02-0.221D-01-0.298D-02 0.174D+00 0.864D+00
 Gap=     0.043 Goal=   None    Shift=    0.000
 RMSDP=1.99D-08 MaxDP=2.05D-07 DE=-4.21D-12 OVMax= 2.65D-06

 Cycle  12  Pass 1  IDiag  1:
 E= -228.646968584743     Delta-E=       -0.000000000001 Rises=F Damp=F
 DIIS: error= 5.17D-08 at cycle  12 NSaved=  12.
 NSaved=12 IEnMin=12 EnMin= -228.646968584743     IErMin=12 ErrMin= 5.17D-08
 ErrMax= 5.17D-08  0.00D+00 EMaxC= 1.00D-01 BMatC= 3.65D-14 BMatP= 1.73D-13
 IDIUse=1 WtCom= 1.00D+00 WtEn= 0.00D+00
 Coeff-Com: -0.126D-05 0.143D-03 0.731D-04 0.431D-04-0.149D-03-0.145D-02
 Coeff-Com: -0.482D-02-0.139D-01-0.403D-01 0.676D-02 0.239D+00 0.815D+00
 Coeff:     -0.126D-05 0.143D-03 0.731D-04 0.431D-04-0.149D-03-0.145D-02
 Coeff:     -0.482D-02-0.139D-01-0.403D-01 0.676D-02 0.239D+00 0.815D+00
 Gap=     0.043 Goal=   None    Shift=    0.000
 RMSDP=1.43D-08 MaxDP=1.25D-07 DE=-1.14D-12 OVMax= 2.50D-06

 Cycle  13  Pass 1  IDiag  1:
 E= -228.646968584745     Delta-E=       -0.000000000002 Rises=F Damp=F
 DIIS: error= 5.17D-08 at cycle  13 NSaved=  13.
 NSaved=13 IEnMin=13 EnMin= -228.646968584745     IErMin=13 ErrMin= 5.17D-08
 ErrMax= 5.17D-08  0.00D+00 EMaxC= 1.00D-01 BMatC= 2.56D-14 BMatP= 3.65D-14
 IDIUse=1 WtCom= 1.00D+00 WtEn= 0.00D+00
 Coeff-Com:  0.699D-07-0.266D-04-0.126D-04 0.537D-04 0.295D-03 0.380D-03
 Coeff-Com:  0.906D-03 0.208D-03-0.119D-01-0.263D-01-0.659D-01 0.143D+00
 Coeff-Com:  0.960D+00
 Coeff:      0.699D-07-0.266D-04-0.126D-04 0.537D-04 0.295D-03 0.380D-03
 Coeff:      0.906D-03 0.208D-03-0.119D-01-0.263D-01-0.659D-01 0.143D+00
 Coeff:      0.960D+00
 Gap=     0.043 Goal=   None    Shift=    0.000
 RMSDP=1.53D-08 MaxDP=1.50D-07 DE=-1.71D-12 OVMax= 2.98D-06

 Cycle  14  Pass 1  IDiag  1:
 E= -228.646968584745     Delta-E=       -0.000000000001 Rises=F Damp=F
 DIIS: error= 5.16D-08 at cycle  14 NSaved=  14.
 NSaved=14 IEnMin=14 EnMin= -228.646968584745     IErMin=14 ErrMin= 5.16D-08
 ErrMax= 5.16D-08  0.00D+00 EMaxC= 1.00D-01 BMatC= 2.50D-14 BMatP= 2.56D-14
 IDIUse=1 WtCom= 1.00D+00 WtEn= 0.00D+00
 Coeff-Com:  0.573D-07-0.871D-05-0.498D-05 0.511D-05 0.463D-04 0.833D-04
 Coeff-Com:  0.224D-03 0.585D-03-0.544D-03-0.449D-02-0.156D-01-0.227D-01
 Coeff-Com:  0.121D+00 0.922D+00
 Coeff:      0.573D-07-0.871D-05-0.498D-05 0.511D-05 0.463D-04 0.833D-04
 Coeff:      0.224D-03 0.585D-03-0.544D-03-0.449D-02-0.156D-01-0.227D-01
 Coeff:      0.121D+00 0.922D+00
 Gap=     0.043 Goal=   None    Shift=    0.000
 RMSDP=1.37D-08 MaxDP=1.35D-07 DE=-5.12D-13 OVMax= 2.67D-06

 Cycle  15  Pass 1  IDiag  1:
 E= -228.646968584748     Delta-E=       -0.000000000002 Rises=F Damp=F
 DIIS: error= 5.16D-08 at cycle  15 NSaved=  15.
 NSaved=15 IEnMin=15 EnMin= -228.646968584748     IErMin=14 ErrMin= 5.16D-08
 ErrMax= 5.16D-08  0.00D+00 EMaxC= 1.00D-01 BMatC= 2.49D-14 BMatP= 2.50D-14
 IDIUse=1 WtCom= 1.00D+00 WtEn= 0.00D+00
 Coeff-Com:  0.105D-07-0.148D-05-0.799D-06 0.214D-06 0.889D-05 0.770D-05
 Coeff-Com:  0.359D-04 0.151D-03 0.191D-04-0.890D-03-0.155D-02-0.685D-02
 Coeff-Com:  0.151D-01 0.206D+00 0.788D+00
 Coeff:      0.105D-07-0.148D-05-0.799D-06 0.214D-06 0.889D-05 0.770D-05
 Coeff:      0.359D-04 0.151D-03 0.191D-04-0.890D-03-0.155D-02-0.685D-02
 Coeff:      0.151D-01 0.206D+00 0.788D+00
 Gap=     0.043 Goal=   None    Shift=    0.000
 RMSDP=1.11D-08 MaxDP=1.10D-07 DE=-2.44D-12 OVMax= 2.19D-06

 Cycle  16  Pass 1  IDiag  1:
 E= -228.646968584750     Delta-E=       -0.000000000002 Rises=F Damp=F
 DIIS: error= 5.16D-08 at cycle  16 NSaved=  16.
 NSaved=16 IEnMin=16 EnMin= -228.646968584750     IErMin=14 ErrMin= 5.16D-08
 ErrMax= 5.16D-08  0.00D+00 EMaxC= 1.00D-01 BMatC= 2.49D-14 BMatP= 2.49D-14
 IDIUse=1 WtCom= 1.00D+00 WtEn= 0.00D+00
 Large coefficients: NSaved= 16 BigCof=    0.00 CofMax=   10.00 Det=-1.86D-19
 Inversion failed.  Reducing to 15 matrices.
 Coeff-Com: -0.189D-05-0.106D-05-0.128D-05 0.131D-04-0.321D-05 0.384D-04
 Coeff-Com:  0.312D-03 0.482D-03-0.999D-03-0.558D-05-0.180D-01 0.232D-02
 Coeff-Com:  0.461D+00 0.325D+01-0.269D+01
 Coeff:     -0.189D-05-0.106D-05-0.128D-05 0.131D-04-0.321D-05 0.384D-04
 Coeff:      0.312D-03 0.482D-03-0.999D-03-0.558D-05-0.180D-01 0.232D-02
 Coeff:      0.461D+00 0.325D+01-0.269D+01
 Gap=     0.043 Goal=   None    Shift=    0.000
 RMSDP=3.26D-08 MaxDP=3.24D-07 DE=-1.99D-12 OVMax= 6.42D-06

 Cycle  17  Pass 1  IDiag  1:
 E= -228.646968584746     Delta-E=        0.000000000004 Rises=F Damp=F
 DIIS: error= 5.16D-08 at cycle  17 NSaved=  16.
 NSaved=16 IEnMin=15 EnMin= -228.646968584750     IErMin=16 ErrMin= 5.16D-08
 ErrMax= 5.16D-08  0.00D+00 EMaxC= 1.00D-01 BMatC= 2.49D-14 BMatP= 2.49D-14
 IDIUse=1 WtCom= 1.00D+00 WtEn= 0.00D+00
 Large coefficients: NSaved= 16 BigCof=    0.00 CofMax=   10.00 Det=-3.66D-20
 Inversion failed.  Reducing to 15 matrices.
 Large coefficients: NSaved= 15 BigCof=   22.07 CofMax=   10.00 Det=-4.20D-20
 Inversion failed.  Reducing to 14 matrices.
 Large coefficients: NSaved= 14 BigCof=   19.12 CofMax=   10.00 Det=-4.74D-20
 Inversion failed.  Reducing to 13 matrices.
 Large coefficients: NSaved= 13 BigCof=   18.20 CofMax=   10.00 Det=-5.04D-20
 Inversion failed.  Reducing to 12 matrices.
 Large coefficients: NSaved= 12 BigCof=   12.71 CofMax=   10.00 Det=-7.09D-20
 Inversion failed.  Reducing to 11 matrices.
 Coeff-Com:  0.908D-04 0.572D-03 0.137D-02-0.149D-02 0.545D-03-0.262D-01
 Coeff-Com: -0.264D-01-0.267D+00 0.262D+01-0.844D+01 0.714D+01
[...]
                                                    122(g),38(g)
     3. BD (   1) C   2 - C   3          1.98336    -1.09190  125(g),126(g),39(g),114(r)
                                                    71(v),89(r),124(g),24(v)
                                                    42(g),41(g),50(g),113(r)
                                                    92(r),104(r),131(r),107(r)
                                                    25(v),129(r),128(r),88(r)
                                                    117(r),120(r),93(r),75(v)
                                                    101(r),121(g),26(v),72(v)
                                                    105(r),37(g),60(g),94(r)
                                                    49(g),106(r),102(r)
     4. BD (   2) C   2 - C   3          1.61811    -0.53305  20(v),19(v),114(r),50(g)
                                                    73(v),49(g),57(g),39(g)
                                                    25(v),131(r),84(v)
     5. BD (   1) C   3 - C   4          1.97667    -1.10318  39(v),123(g),127(g),89(v)
                                                    41(v),121(v),114(r),46(v)
                                                    99(v),128(v)
     6. BD (   2) C   3 - C   4          1.84473    -0.54977  114(r),50(v),122(v),39(v)
                                                    131(r),126(g),129(v),125(g)
                                                    41(v),124(g),89(v),38(v)
                                                    24(r),42(v),107(r),92(v)
                                                    104(r),113(r),101(v),87(v)
                                                    88(v),25(r),128(v),120(r)
                                                    93(v),117(r),127(g),105(r)
                                                    71(g)
     7. BD (   1) C   4 - C   5          1.97789    -1.07009  114(v),117(r),125(g),128(g)
                                                    107(v),39(r),116(r),127(g)
                                                    89(g),104(v),50(r),88(g)
                                                    126(g),101(g),123(v),42(r)
                                                    105(v),71(g),93(g),120(r)
                                                    92(g),24(r),62(v),41(r)
                                                    102(g),61(v),25(r),55(v)
                                                    90(g)
     8. BD (   1) C   5 - C   6          1.98528    -1.11993  114(g),39(r),89(g),71(v)
                                                    117(v),24(r),50(r),42(r)
                                                    126(v),128(g),113(g),104(g)
                                                    107(g),92(g),88(g),25(r)
                                                    41(r),93(g),120(v),101(g)
                                                    129(g),124(r),75(v),131(g)
                                                    127(g),26(r),49(r),106(g)
                                                    102(g),62(r),90(g),94(g)
                                                    105(g),125(v),60(r),72(v)
                                                    67(r),51(r),61(r),37(r)
                                                    109(g),55(r),111(g),116(v)
                                                    43(r),112(g),78(v),68(r)
                                                    85(v),29(r),84(v),76(v)
                                                    86(g),30(r),70(v),47(r)
                                                    52(r),56(r),99(g),77(v)
                                                    91(g),110(g),53(r)
     9. BD (   2) C   5 - C   6          1.92202    -0.54727  131(g),118(v),126(v),111(g)
                                                    122(r),71(v),130(g),121(r)
                                                    112(g),87(g)
    10. BD (   3) C   5 - C   6          1.52938    -0.51890  20(v),111(g),119(v),130(g)
                                                    121(r),90(g),98(g),103(g)
                                                    106(g),131(g),84(v),73(v)
    11. BD (   1) C   6 - H   7          1.99231    -0.36878  50(r),114(g),131(g),125(r)
                                                    41(r),39(r),24(r),71(r)
                                                    89(v),113(g),42(r),92(v)
                                                    124(r),126(r),104(g),101(v)
                                                    129(g),25(r),105(g),88(v)
                                                    93(v),120(g),107(g),128(g)
                                                    116(g),117(g),106(g),94(v)
                                                    26(r),49(r),75(r),102(v)
                                                    62(r),127(v),90(v),67(r)
                                                    37(r),112(g),111(g),86(v)
                                                    70(r),68(r),72(r),60(r)
                                                    115(g),61(r),43(r),55(r)
                                                    30(r),78(r),51(r),76(r)
                                                    77(r),47(r),56(r),110(g)
                                                    85(r),84(r),109(g),29(r)
                                                    52(r),59(r),53(r),123(r)
                                                    66(r),69(r),87(v),21(r)
                                                    48(r),63(r),27(r),20(r)
    12. CR (   1) C   1                  1.99961   -10.31828  123(v),37(v)
    13. CR (   1) C   2                  1.99907   -10.32364  125(v),21(v),55(v),56(v)
                                                    123(g),59(v)
    14. CR (   1) C   3                  1.99842   -10.34607  127(v),121(v),37(v),72(v)
                                                    41(v)
    15. CR (   1) C   4                  1.99844   -10.36201  128(v),88(v),123(v),56(v)
                                                    89(v),117(r),125(g)
    16. CR (   1) C   5                  1.99903   -10.32471  117(r),128(g),92(g),114(v)
                                                    93(g),120(r),88(g),129(g)
                                                    107(v),89(g),42(r),104(v)
                                                    127(g),116(r),25(r),24(r)
                                                    50(r),101(g),71(v),113(v)
                                                    75(v),125(v),39(r),109(v)
                                                    41(r),105(v),62(r),26(r)
                                                    61(r),49(r),102(g),60(r)
                                                    90(g),51(r),106(v),70(v)
                                                    76(v),29(r),99(g),131(v)
    17. CR (   1) C   6                  1.99863   -10.37146  92(v),129(g),120(v),128(g)
                                                    93(v),88(v),117(v),42(r)
                                                    104(g),25(r),113(g),24(r)
                                                    89(v),114(g),71(r),107(g)
                                                    124(r),39(r),41(r),50(r)
                                                    101(v),75(r),105(g),131(g)
                                                    94(v),26(r),125(r),116(v)
                                                    62(r),126(r),49(r),102(v)
                                                    60(r),106(g),61(r),72(r)
                                                    90(v),77(r),67(r),86(v)
                                                    43(r),29(r),109(g),37(r)
                                                    78(r),112(g),55(r),76(r)
                                                    115(g),70(r),51(r),68(r)
                                                    111(g),30(r),85(r),52(r)
                                                    127(v),56(r),110(g),59(r)
                                                    84(r),47(r),53(r),46(r)
                                                    99(v),48(r),66(r),91(v)
                                                    123(r)
    18. LP (   1) C   1                  1.97772    -0.65947  123(v),37(v),125(r),39(v)
                                                    43(v)
    19. LP*(   2) C   1                  0.14553    -0.26884  50(v),124(v),49(v)
    20. LP*(   1) C   4                  0.64127    -0.34463  50(r),130(v),124(v),84(g)
                                                    90(v),57(v),114(r)
    21. RY*(   1) C   1                  0.00033     0.47584   
    22. RY*(   2) C   1                  0.00033     0.47155   
    23. RY*(   3) C   1                  0.00017     1.55500   
    24. RY*(   4) C   1                  0.00008    -2.27229   
    25. RY*(   5) C   1                  0.00003    -3.55165   
    26. RY*(   6) C   1                  0.00002     1.76738   
    27. RY*(   7) C   1                  0.00000     0.50231   
    28. RY*(   8) C   1                  0.00000     2.01104   
    29. RY*(   9) C   1                  0.00000    21.19497   
    30. RY*(  10) C   1                  0.00001     0.59060   
    31. RY*(  11) C   1                  0.00000     1.84699   
    32. RY*(  12) C   1                  0.00000     1.45410   
    33. RY*(  13) C   1                  0.00000     1.46171   
    34. RY*(  14) C   1                  0.00000     1.13325   
    35. RY*(  15) C   1                  0.00000     1.75110   
    36. RY*(  16) C   1                  0.00000     1.26224   
    37. RY*(   1) C   2                  0.00868     0.52784   
    38. RY*(   2) C   2                  0.00255     0.73173   
    39. RY*(   3) C   2                  0.00101    -0.89368   
    40. RY*(   4) C   2                  0.00022     0.63800   
    41. RY*(   5) C   2                  0.00018     0.05121   
    42. RY*(   6) C   2                  0.00007    -3.31629   
    43. RY*(   7) C   2                  0.00004     2.43518   
    44. RY*(   8) C   2                  0.00000     0.12104   
    45. RY*(   9) C   2                  0.00000     2.45565   
    46. RY*(  10) C   2                  0.00001    19.88327   
    47. RY*(  11) C   2                  0.00000     0.11697   
    48. RY*(  12) C   2                  0.00000     2.47010   
    49. RY*(  13) C   2                  0.00000     0.96450   
    50. RY*(  14) C   2                  0.00000    -0.35794   
    51. RY*(  15) C   2                  0.00000     1.03770   
    52. RY*(  16) C   2                  0.00000     2.59215   
    53. RY*(  17) C   2                  0.00000     1.51422   
    54. RY*(   1) C   3                  0.00239     1.05239   
    55. RY*(   2) C   3                  0.00222     1.31156   
    56. RY*(   3) C   3                  0.00162     0.80350   
    57. RY*(   4) C   3                  0.00071     0.79262   
    58. RY*(   5) C   3                  0.00059     1.10222   
    59. RY*(   6) C   3                  0.00028     3.34995   
    60. RY*(   7) C   3                  0.00006     9.77629   
    61. RY*(   8) C   3                  0.00002    11.36225   
    62. RY*(   9) C   3                  0.00002     1.99489   
    63. RY*(  10) C   3                  0.00000     0.37707   
    64. RY*(  11) C   3                  0.00000     2.38591   
    65. RY*(  12) C   3                  0.00000     1.41121   
    66. RY*(  13) C   3                  0.00000     2.36018   
    67. RY*(  14) C   3                  0.00000     0.91173   
    68. RY*(  15) C   3                  0.00000     0.25724   
    69. RY*(  16) C   3                  0.00000     1.10520   
    70. RY*(   1) C   4                  0.00181     0.84483   
    71. RY*(   2) C   4                  0.00181    -1.63969   
    72. RY*(   3) C   4                  0.00096     2.14443   
    73. RY*(   4) C   4                  0.00084     1.59952   
    74. RY*(   5) C   4                  0.00069     1.54540   
    75. RY*(   6) C   4                  0.00040     4.35414   
    76. RY*(   7) C   4                  0.00022     3.21111   
    77. RY*(   8) C   4                  0.00001    14.74065   
    78. RY*(   9) C   4                  0.00001     2.30275   
    79. RY*(  10) C   4                  0.00000     0.17538   
    80. RY*(  11) C   4                  0.00000     2.45987   
    81. RY*(  12) C   4                  0.00000     0.17345   
    82. RY*(  13) C   4                  0.00000     2.51325   
    83. RY*(  14) C   4                  0.00000     1.09811   
    84. RY*(  15) C   4                  0.00000     0.54568   
    85. RY*(  16) C   4                  0.00001     1.71913   
    86. RY*(   1) C   5                  0.00289     0.79361   
    87. RY*(   2) C   5                  0.00210     1.21861   
    88. RY*(   3) C   5                  0.00149    -5.50219   
    89. RY*(   4) C   5                  0.00052    -1.95485   
    90. RY*(   5) C   5                  0.00042     0.55955   
    91. RY*(   6) C   5                  0.00012     0.53465   
    92. RY*(   7) C   5                  0.00010    -8.69577   
    93. RY*(   8) C   5                  0.00006   -33.37368   
    94. RY*(   9) C   5                  0.00000     1.59194   
    95. RY*(  10) C   5                  0.00000     0.31624   
    96. RY*(  11) C   5                  0.00000     0.76462   
    97. RY*(  12) C   5                  0.00000     2.44643   
    98. RY*(  13) C   5                  0.00000     1.57672   
    99. RY*(  14) C   5                  0.00000    19.42367   
   100. RY*(  15) C   5                  0.00000     1.11955   
   101. RY*(  16) C   5                  0.00001     0.91656   
   102. RY*(  17) C   5                  0.00000     1.10377   
   103. RY*(   1) C   6                  0.00085     0.53042   
   104. RY*(   2) C   6                  0.00036    -3.58838   
   105. RY*(   3) C   6                  0.00015     1.16278   
   106. RY*(   4) C   6                  0.00005     0.14623   
   107. RY*(   5) C   6                  0.00004     2.25762   
   108. RY*(   6) C   6                  0.00000     2.03845   
   109. RY*(   7) C   6                  0.00000    17.33482   
   110. RY*(   8) C   6                  0.00000     2.16081   
   111. RY*(   9) C   6                  0.00000     0.16731   
   112. RY*(  10) C   6                  0.00000     1.44478   
   113. RY*(  11) C   6                  0.00000    -2.61193   
   114. RY*(  12) C   6                  0.00000    -0.48583   
   115. RY*(  13) C   6                  0.00000     1.40212   
   116. RY*(   1) H   7                  0.00068    -0.17838   
   117. RY*(   2) H   7                  0.00013    -5.89904   
   118. RY*(   3) H   7                  0.00011     0.04506   
   119. RY*(   4) H   7                  0.00001    -0.01090   
   120. RY*(   5) H   7                  0.00002   -38.55552   
   121. BD*(   1) C   1 - C   2          0.00516     2.13443   
   122. BD*(   2) C   1 - C   2          0.05829    -0.06173   
   123. BD*(   1) C   2 - C   3          0.03097     0.50004   
   124. BD*(   2) C   2 - C   3          0.04989    -1.94991   
   125. BD*(   1) C   3 - C   4          0.02246    -0.19545   
   126. BD*(   2) C   3 - C   4          0.24553    -1.23316  39(v),71(g),89(v),114(r)
                                                    24(r),113(r),124(g),42(v)
                                                    50(v),104(r),25(r),92(v)
                                                    131(r),41(v),88(v),129(v)
                                                    107(r),93(v),120(r),117(r)
                                                    128(v),101(v),125(g),105(r)
                                                    94(v),75(g),26(r),49(v)
                                                    106(r),62(g),102(v),90(v)
                                                    116(r),67(g),60(g),72(g)
                                                    112(r),37(v),61(g),43(v)
                                                    115(r),68(g),70(g),78(g)
                                                    55(g),111(r),127(g),77(g)
                                                    51(v),30(r),76(g),86(v)
                                                    29(r),85(g),110(r),84(g)
                                                    52(v),109(r),56(g),47(v)
                                                    122(v),59(g),53(v),87(v)
                                                    58(g),74(g),48(v),137(r)
   127. BD*(   1) C   4 - C   5          0.02454     1.52395   
   128. BD*(   1) C   5 - C   6          0.01301   -24.89593   
   129. BD*(   2) C   5 - C   6          0.12792   -14.86451  128(g),92(g),93(g),120(v)
                                                    88(g),117(v),42(r),104(g)
                                                    25(r),114(g),113(g),24(r)
                                                    107(g),89(g),71(v),39(r)
                                                    124(r),41(r),50(r),131(g)
                                                    75(v),101(g),126(v),26(r)
                                                    94(g),105(g),62(r),125(v)
                                                    49(r),60(r),61(r),127(g)
                                                    102(g),106(g),77(v),112(g)
                                                    90(g),67(r),72(v),43(r)
                                                    29(r),109(g),37(r),116(v)
                                                    78(v),55(r),76(v),70(v)
                                                    51(r),68(r),111(g),110(g)
                                                    85(v),30(r),52(r),86(g)
                                                    84(v),115(g),59(r),56(r)
                                                    53(r),47(r),99(g),46(r)
                                                    66(r),48(r),138(r)
   130. BD*(   3) C   5 - C   6          0.01336     0.88005   
   131. BD*(   1) C   6 - H   7          0.00162    -0.18575   
       -------------------------------
              Total Lewis   34.58115  ( 96.0587%)
        Valence non-Lewis    1.37955  (  3.8321%)
        Rydberg non-Lewis    0.03930  (  0.1092%)
       -------------------------------
            Total unit  1   36.00000  (100.0000%)
           Charge unit  1    1.00000
 Leave Link  607 at Mon Jun 26 16:25:42 2023, MaxMem= 16106127360 cpu:             134.7 elap:               4.2
 (Enter /public/software/apps/Gaussian/g16/l9999.exe)
 Unable to Open any file for archive entry.
 1\1\GINC-NODE1\SP\RB3LYP\Gen\C6H1(1+)\ZTC_HG\26-Jun-2023\0\\#p b3lyp/c
 hkbas pop=nbo geom=allcheck guess=tcheck em=gd3bj\\dsgdb9nsd_000484-1+
 .gjf\\1,1\C,0,-3.3493753814,0.0006822216,0.0001648555\C,0,-2.023418194
 2,-0.0002598271,-0.0000475944\C,0,-0.7419512439,-0.0000484405,-0.00006
 48511\C,0,0.5267994493,-0.0008112015,-0.0001486215\C,0,1.8337706026,-0
 .0001965369,-0.0000643669\C,0,3.0648697821,0.0001036684,0.0000523223\H
 ,0,4.1378049855,0.0007201161,0.0000982561\\Version=ES64L-G16RevC.01\St
 ate=1-A\HF=-228.6469799\RMSD=2.375e-09\Dipole=2.0128366,-0.000294,-0.0
 003495\Quadrupole=16.2898017,-7.4947005,-8.7951011,0.0052534,0.0016445
 ,1.0981821\PG=C01 [X(C6H1)]\\@
 The archive entry for this job was punched.


 ...THE PHYSICISTS HAVE MADE THEIR UNIVERSE, AND IF YOU DO NOT LIKE
 IT, YOU MUST MAKE YOUR OWN.
                               -- E. R. HARRISON IN "COSMOLOGY" (1980)
 Job cpu time:       0 days  0 hours  2 minutes 46.8 seconds.
 Elapsed time:       0 days  0 hours  0 minutes  5.4 seconds.
 File lengths (MBytes):  RWF=     23 Int=      0 D2E=      0 Chk=     67 Scr=      2
 Normal termination of Gaussian 16 at Mon Jun 26 16:25:43 2023.
