 Entering Gaussian System, Link 0=/public3/home/scg5914/software-scg5914/g16/g16
 Input=dsgdb9nsd_003895.gjf
 Output=dsgdb9nsd_003895.log
 Initial command:
 /public3/home/scg5914/software-scg5914/g16/l1.exe "/public3/home/scg5914/software-scg5914/test/tmp/dsgdb9nsd_003895/Gau-86856.inp" -scrdir="/public3/home/scg5914/software-scg5914/test/tmp/dsgdb9nsd_003895/"
 Entering Link 1 = /public3/home/scg5914/software-scg5914/g16/l1.exe PID=     86857.
  
 Copyright (c) 1988-2019, Gaussian, Inc.  All Rights Reserved.
  
 This is part of the Gaussian(R) 16 program.  It is based on
 the Gaussian(R) 09 system (copyright 2009, Gaussian, Inc.),
 the Gaussian(R) 03 system (copyright 2003, Gaussian, Inc.),
 the Gaussian(R) 98 system (copyright 1998, Gaussian, Inc.),
 the Gaussian(R) 94 system (copyright 1995, Gaussian, Inc.),
 the Gaussian 92(TM) system (copyright 1992, Gaussian, Inc.),
 the Gaussian 90(TM) system (copyright 1990, Gaussian, Inc.),
 the Gaussian 88(TM) system (copyright 1988, Gaussian, Inc.),
 the Gaussian 86(TM) system (copyright 1986, Carnegie Mellon
 University), and the Gaussian 82(TM) system (copyright 1983,
 Carnegie Mellon University). Gaussian is a federally registered
 trademark of Gaussian, Inc.
  
 This software contains proprietary and confidential information,
 including trade secrets, belonging to Gaussian, Inc.
  
 This software is provided under written license and may be
 used, copied, transmitted, or stored only in accord with that
 written license.
  
 The following legend is applicable only to US Government
 contracts under FAR:
  
                    RESTRICTED RIGHTS LEGEND
  
 Use, reproduction and disclosure by the US Government is
 subject to restrictions as set forth in subparagraphs (a)
 and (c) of the Commercial Computer Software - Restricted
 Rights clause in FAR 52.227-19.
  
 Gaussian, Inc.
 340 Quinnipiac St., Bldg. 40, Wallingford CT 06492
  
  
 ---------------------------------------------------------------
 Warning -- This program may not be used in any manner that
 competes with the business of Gaussian, Inc. or will provide
 assistance to any competitor of Gaussian, Inc.  The licensee
 of this program is prohibited from giving any competitor of
 Gaussian, Inc. access to this program.  By using this program,
 the user acknowledges that Gaussian, Inc. is engaged in the
 business of creating and licensing software in the field of
 computational chemistry and represents and warrants to the
 licensee that it is not a competitor of Gaussian, Inc. and that
 it will not use this program in any manner prohibited above.
 ---------------------------------------------------------------
  

 Cite this work as:
 Gaussian 16, Revision C.01,
 M. J. Frisch, G. W. Trucks, H. B. Schlegel, G. E. Scuseria, 
 M. A. Robb, J. R. Cheeseman, G. Scalmani, V. Barone, 
 G. A. Petersson, H. Nakatsuji, X. Li, M. Caricato, A. V. Marenich, 
 J. Bloino, B. G. Janesko, R. Gomperts, B. Mennucci, H. P. Hratchian, 
 J. V. Ortiz, A. F. Izmaylov, J. L. Sonnenberg, D. Williams-Young, 
 F. Ding, F. Lipparini, F. Egidi, J. Goings, B. Peng, A. Petrone, 
 T. Henderson, D. Ranasinghe, V. G. Zakrzewski, J. Gao, N. Rega, 
 G. Zheng, W. Liang, M. Hada, M. Ehara, K. Toyota, R. Fukuda, 
 J. Hasegawa, M. Ishida, T. Nakajima, Y. Honda, O. Kitao, H. Nakai, 
 T. Vreven, K. Throssell, J. A. Montgomery, Jr., J. E. Peralta, 
 F. Ogliaro, M. J. Bearpark, J. J. Heyd, E. N. Brothers, K. N. Kudin, 
 V. N. Staroverov, T. A. Keith, R. Kobayashi, J. Normand, 
 K. Raghavachari, A. P. Rendell, J. C. Burant, S. S. Iyengar, 
 J. Tomasi, M. Cossi, J. M. Millam, M. Klene, C. Adamo, R. Cammi, 
 J. W. Ochterski, R. L. Martin, K. Morokuma, O. Farkas, 
 J. B. Foresman, and D. J. Fox, Gaussian, Inc., Wallingford CT, 2019.
 
 ******************************************
 Gaussian 16:  ES64L-G16RevC.01  3-Jul-2019
                31-Jan-2023 
 ******************************************
 %chk=dsgdb9nsd_003895.chk
 %mem=60GB
 %nprocshared=32
 Will use up to   32 processors via shared memory.
 ------------------------------------
 #p opt freq b3lyp/6-311+g** em=gd3bj
 ------------------------------------
 1/18=20,19=15,26=3,38=1/1,3;
 2/9=110,12=2,17=6,18=5,40=1/2;
 3/5=4,6=6,7=111,11=2,25=1,30=1,71=1,74=-5,124=41/1,2,3;
 4//1;
 5/5=2,38=5/2;
 6/7=2,8=2,9=2,10=2,28=1/1;
 7//1,2,3,16;
 1/18=20,19=15,26=3/3(2);
 2/9=110/2;
 99//99;
 2/9=110/2;
 3/5=4,6=6,7=111,11=2,25=1,30=1,71=1,74=-5,124=41/1,2,3;
 4/5=5,16=3,69=1/1;
 5/5=2,38=5/2;
 7//1,2,3,16;
 1/18=20,19=15,26=3/3(-5);
 2/9=110/2;
 6/7=2,8=2,9=2,10=2,19=2,28=1/1;
 99/9=1/99;
 Leave Link    1 at Tue Jan 31 21:49:11 2023, MaxMem=  8053063680 cpu:               0.9 elap:               0.0
 (Enter /public3/home/scg5914/software-scg5914/g16/l101.exe)
 --------------------
 dsgdb9nsd_003895.gjf
 --------------------
 Symbolic Z-matrix:
 Charge =  0 Multiplicity = 1
 C                    -1.15159   1.01686   0.03181 
 C                    -1.55847  -0.11342   0.59707 
 H                    -2.27593  -0.0488    1.40432 
 C                    -1.0416   -1.40154   0.13735 
 O                    -0.23928  -1.5657   -0.75805 
 N                     2.93181  -0.06872   0.02629 
 N                     1.99773   0.34488   0.42143 
 H                    -1.4581   -2.25993   0.69795 
 O                    -0.79356   1.98624  -0.47116 
 
 Add virtual bond connecting atoms N7         and C1         Dist= 6.13D+00.
 Add virtual bond connecting atoms N7         and O5         Dist= 5.99D+00.
 ITRead=  0  0  0  0  0  0  0  0  0
 MicOpt= -1 -1 -1 -1 -1 -1 -1 -1 -1
 NAtoms=      9 NQM=        9 NQMF=       0 NMMI=      0 NMMIF=      0
                NMic=       0 NMicF=      0.
                    Isotopes and Nuclear Properties:
 (Nuclear quadrupole moments (NQMom) in fm**2, nuclear magnetic moments (NMagM)
  in nuclear magnetons)

  Atom         1           2           3           4           5           6           7           8           9
 IAtWgt=          12          12           1          12          16          14          14           1          16
 AtmWgt=  12.0000000  12.0000000   1.0078250  12.0000000  15.9949146  14.0030740  14.0030740   1.0078250  15.9949146
 NucSpn=           0           0           1           0           0           2           2           1           0
 AtZEff=  -0.0000000  -0.0000000  -0.0000000  -0.0000000  -0.0000000  -0.0000000  -0.0000000  -0.0000000  -0.0000000
 NQMom=    0.0000000   0.0000000   0.0000000   0.0000000   0.0000000   2.0440000   2.0440000   0.0000000   0.0000000
 NMagM=    0.0000000   0.0000000   2.7928460   0.0000000   0.0000000   0.4037610   0.4037610   2.7928460   0.0000000
 AtZNuc=   6.0000000   6.0000000   1.0000000   6.0000000   8.0000000   7.0000000   7.0000000   1.0000000   8.0000000
 Leave Link  101 at Tue Jan 31 21:49:12 2023, MaxMem=  8053063680 cpu:               5.6 elap:               0.2
 (Enter /public3/home/scg5914/software-scg5914/g16/l103.exe)

 GradGradGradGradGradGradGradGradGradGradGradGradGradGradGradGradGradGrad
 Berny optimization.
 Initialization pass.
                           ----------------------------
                           !    Initial Parameters    !
                           ! (Angstroms and Degrees)  !
 --------------------------                            --------------------------
 ! Name  Definition              Value          Derivative Info.                !
 --------------------------------------------------------------------------------
 ! R1    R(1,2)                  1.3276         estimate D2E/DX2                !
 ! R2    R(1,7)                  3.2437         estimate D2E/DX2                !
 ! R3    R(1,9)                  1.1493         estimate D2E/DX2                !
 ! R4    R(2,3)                  1.0819         estimate D2E/DX2                !
 ! R5    R(2,4)                  1.4621         estimate D2E/DX2                !
 ! R6    R(4,5)                  1.2134         estimate D2E/DX2                !
 ! R7    R(4,8)                  1.1066         estimate D2E/DX2                !
 ! R8    R(5,7)                  3.1695         estimate D2E/DX2                !
 ! R9    R(6,7)                  1.0953         estimate D2E/DX2                !
 ! A1    A(2,1,7)               94.0164         estimate D2E/DX2                !
 ! A2    A(7,1,9)               85.6895         estimate D2E/DX2                !
 ! A3    A(1,2,3)              118.0378         estimate D2E/DX2                !
 ! A4    A(1,2,4)              120.5196         estimate D2E/DX2                !
 ! A5    A(3,2,4)              121.4422         estimate D2E/DX2                !
 ! A6    A(2,4,5)              125.7993         estimate D2E/DX2                !
 ! A7    A(2,4,8)              113.0198         estimate D2E/DX2                !
 ! A8    A(5,4,8)              121.1809         estimate D2E/DX2                !
 ! A9    A(4,5,7)               96.3454         estimate D2E/DX2                !
 ! A10   A(1,7,5)               52.7654         estimate D2E/DX2                !
 ! A11   A(1,7,6)              149.6416         estimate D2E/DX2                !
 ! A12   A(5,7,6)              103.8883         estimate D2E/DX2                !
 ! A13   L(2,1,9,7,-1)         179.7059         estimate D2E/DX2                !
 ! A14   L(2,1,9,7,-2)         179.1825         estimate D2E/DX2                !
 ! D1    D(7,1,2,3)            127.3087         estimate D2E/DX2                !
 ! D2    D(7,1,2,4)            -52.4657         estimate D2E/DX2                !
 ! D3    D(2,1,7,5)             48.2665         estimate D2E/DX2                !
 ! D4    D(2,1,7,6)             93.7576         estimate D2E/DX2                !
 ! D5    D(9,1,7,5)           -130.916          estimate D2E/DX2                !
 ! D6    D(9,1,7,6)            -85.4249         estimate D2E/DX2                !
 ! D7    D(1,2,4,5)             -0.2979         estimate D2E/DX2                !
 ! D8    D(1,2,4,8)            179.6159         estimate D2E/DX2                !
 ! D9    D(3,2,4,5)            179.9355         estimate D2E/DX2                !
 ! D10   D(3,2,4,8)             -0.1506         estimate D2E/DX2                !
 ! D11   D(2,4,5,7)             54.9254         estimate D2E/DX2                !
 ! D12   D(8,4,5,7)           -124.9819         estimate D2E/DX2                !
 ! D13   D(4,5,7,1)            -49.4445         estimate D2E/DX2                !
 ! D14   D(4,5,7,6)            152.3502         estimate D2E/DX2                !
 --------------------------------------------------------------------------------
 Trust Radius=3.00D-01 FncErr=1.00D-07 GrdErr=1.00D-06 EigMax=2.50D+02 EigMin=1.00D-04
 Number of steps in this run=     47 maximum allowed number of steps=    100.
 GradGradGradGradGradGradGradGradGradGradGradGradGradGradGradGradGradGrad

 Leave Link  103 at Tue Jan 31 21:49:12 2023, MaxMem=  8053063680 cpu:               0.2 elap:               0.0
 (Enter /public3/home/scg5914/software-scg5914/g16/l202.exe)
                          Input orientation:                          
 ---------------------------------------------------------------------
 Center     Atomic      Atomic             Coordinates (Angstroms)
 Number     Number       Type             X           Y           Z
 ---------------------------------------------------------------------
      1          6           0       -1.151594    1.016858    0.031812
      2          6           0       -1.558472   -0.113421    0.597069
      3          1           0       -2.275927   -0.048804    1.404320
      4          6           0       -1.041601   -1.401542    0.137347
      5          8           0       -0.239284   -1.565702   -0.758047
      6          7           0        2.931809   -0.068719    0.026288
      7          7           0        1.997734    0.344876    0.421429
      8          1           0       -1.458101   -2.259929    0.697951
      9          8           0       -0.793560    1.986235   -0.471160
 ---------------------------------------------------------------------
                    Distance matrix (angstroms):
                    1          2          3          4          5
     1  C    0.000000
     2  C    1.327628   0.000000
     3  H    2.069671   1.081929   0.000000
     4  C    2.423199   1.462107   2.226810   0.000000
     5  O    2.850579   2.384474   3.335375   1.213421   0.000000
     6  N    4.225244   4.526634   5.387011   4.192462   3.593323
     7  N    3.243706   3.589915   4.402867   3.516850   3.169499
     8  H    3.357830   2.151220   2.461071   1.106606   2.021731
     9  O    1.149287   2.476845   3.139462   3.450918   3.606353
                    6          7          8          9
     6  N    0.000000
     7  N    1.095305   0.000000
     8  H    4.952155   4.336389   0.000000
     9  O    4.283534   3.358883   4.454026   0.000000
 Stoichiometry    C3H2N2O2
 Framework group  C1[X(C3H2N2O2)]
 Deg. of freedom    21
 Full point group                 C1      NOp   1
 Largest Abelian subgroup         C1      NOp   1
 Largest concise Abelian subgroup C1      NOp   1
                         Standard orientation:                         
 ---------------------------------------------------------------------
 Center     Atomic      Atomic             Coordinates (Angstroms)
 Number     Number       Type             X           Y           Z
 ---------------------------------------------------------------------
      1          6           0       -1.151594    1.016858    0.031812
      2          6           0       -1.558472   -0.113421    0.597069
      3          1           0       -2.275927   -0.048804    1.404320
      4          6           0       -1.041601   -1.401542    0.137347
      5          8           0       -0.239284   -1.565702   -0.758047
      6          7           0        2.931809   -0.068719    0.026288
      7          7           0        1.997734    0.344876    0.421429
      8          1           0       -1.458101   -2.259929    0.697951
      9          8           0       -0.793560    1.986235   -0.471160
 ---------------------------------------------------------------------
 Rotational constants (GHZ):           3.0212334           1.8389980           1.2700650
 Leave Link  202 at Tue Jan 31 21:49:12 2023, MaxMem=  8053063680 cpu:               2.9 elap:               0.1
 (Enter /public3/home/scg5914/software-scg5914/g16/l301.exe)
 Standard basis: 6-311+G(d,p) (5D, 7F)
 Ernie: Thresh=  0.10000D-02 Tol=  0.10000D-05 Strict=F.
 There are   173 symmetry adapted cartesian basis functions of A   symmetry.
 There are   166 symmetry adapted basis functions of A   symmetry.
   166 basis functions,   268 primitive gaussians,   173 cartesian basis functions
    25 alpha electrons       25 beta electrons
       nuclear repulsion energy       236.8825238027 Hartrees.
 IExCor=  402 DFT=T Ex+Corr=B3LYP ExCW=0 ScaHFX=  0.200000
 ScaDFX=  0.800000  0.720000  1.000000  0.810000 ScalE2=  1.000000  1.000000
 IRadAn=      5 IRanWt=     -1 IRanGd=            0 ICorTp=0 IEmpDi=141
 NAtoms=    9 NActive=    9 NUniq=    9 SFac= 1.00D+00 NAtFMM=   60 NAOKFM=F Big=F
 Integral buffers will be    131072 words long.
 Raffenetti 2 integral format.
 Two-electron integral symmetry is turned on.
 R6Disp:  Grimme-D3(BJ) Dispersion energy=       -0.0109783521 Hartrees.
 Nuclear repulsion after empirical dispersion term =      236.8715454505 Hartrees.
 Leave Link  301 at Tue Jan 31 21:49:12 2023, MaxMem=  8053063680 cpu:               2.4 elap:               0.1
 (Enter /public3/home/scg5914/software-scg5914/g16/l302.exe)
 NPDir=0 NMtPBC=     1 NCelOv=     1 NCel=       1 NClECP=     1 NCelD=      1
         NCelK=      1 NCelE2=     1 NClLst=     1 CellRange=     0.0.
 One-electron integrals computed using PRISM.
 One-electron integral symmetry used in STVInt
 NBasis=   166 RedAO= T EigKep=  3.76D-05  NBF=   166
 NBsUse=   166 1.00D-06 EigRej= -1.00D+00 NBFU=   166
 Precomputing XC quadrature grid using
 IXCGrd= 4 IRadAn=           5 IRanWt=          -1 IRanGd=           0 AccXCQ= 0.00D+00.
 Generated NRdTot=       0 NPtTot=           0 NUsed=           0 NTot=          32
 NSgBfM=   173   173   173   173   173 MxSgAt=     9 MxSgA2=     9.
 Leave Link  302 at Tue Jan 31 21:49:12 2023, MaxMem=  8053063680 cpu:               5.9 elap:               0.2
 (Enter /public3/home/scg5914/software-scg5914/g16/l303.exe)
 DipDrv:  MaxL=1.
 Leave Link  303 at Tue Jan 31 21:49:12 2023, MaxMem=  8053063680 cpu:               2.8 elap:               0.1
 (Enter /public3/home/scg5914/software-scg5914/g16/l401.exe)
 ExpMin= 4.38D-02 ExpMax= 8.59D+03 ExpMxC= 1.30D+03 IAcc=3 IRadAn=         5 AccDes= 0.00D+00
 Harris functional with IExCor=  402 and IRadAn=       5 diagonalized for initial guess.
 HarFok:  IExCor=  402 AccDes= 0.00D+00 IRadAn=         5 IDoV= 1 UseB2=F ITyADJ=14
 ICtDFT=  3500011 ScaDFX=  1.000000  1.000000  1.000000  1.000000
 FoFCou: FMM=F IPFlag=           0 FMFlag=      100000 FMFlg1=           0
         NFxFlg=           0 DoJE=T BraDBF=F KetDBF=T FulRan=T
         wScrn=  0.000000 ICntrl=       500 IOpCl=  0 I1Cent=   200000004 NGrid=           0
         NMat0=    1 NMatS0=      1 NMatT0=    0 NMatD0=    1 NMtDS0=    0 NMtDT0=    0
 Petite list used in FoFCou.
 Harris En= -375.586623901437    
 JPrj=0 DoOrth=F DoCkMO=F.
 Leave Link  401 at Tue Jan 31 21:49:12 2023, MaxMem=  8053063680 cpu:               8.4 elap:               0.3
 (Enter /public3/home/scg5914/software-scg5914/g16/l502.exe)
 Keep R1 ints in memory in canonical form, NReq=128107855.
 FoFCou: FMM=F IPFlag=           0 FMFlag=           0 FMFlg1=           0
         NFxFlg=           0 DoJE=F BraDBF=F KetDBF=F FulRan=T
         wScrn=  0.000000 ICntrl=       600 IOpCl=  0 I1Cent=           0 NGrid=           0
         NMat0=    1 NMatS0=  13861 NMatT0=    0 NMatD0=    1 NMtDS0=    0 NMtDT0=    0
 Symmetry not used in FoFCou.
 Two-electron integral symmetry not used.
 Closed shell SCF:
 Using DIIS extrapolation, IDIIS=  1040.
 NGot=  8053063680 LenX=  7956925807 LenY=  7956895437
 Requested convergence on RMS density matrix=1.00D-08 within 128 cycles.
 Requested convergence on MAX density matrix=1.00D-06.
 Requested convergence on             energy=1.00D-06.
 No special actions if energy rises.

 Cycle   1  Pass 1  IDiag  1:
 E= -375.434452965927    
 DIIS: error= 3.23D-02 at cycle   1 NSaved=   1.
 NSaved= 1 IEnMin= 1 EnMin= -375.434452965927     IErMin= 1 ErrMin= 3.23D-02
 ErrMax= 3.23D-02  0.00D+00 EMaxC= 1.00D-01 BMatC= 2.05D-01 BMatP= 2.05D-01
 IDIUse=3 WtCom= 6.77D-01 WtEn= 3.23D-01
 Coeff-Com:  0.100D+01
 Coeff-En:   0.100D+01
 Coeff:      0.100D+01
 Gap=     0.197 Goal=   None    Shift=    0.000
 GapD=    0.197 DampG=1.000 DampE=0.500 DampFc=0.5000 IDamp=-1.
 Damping current iteration by 5.00D-01
 RMSDP=2.94D-02 MaxDP=2.38D+00              OVMax= 4.00D-01

 Cycle   2  Pass 1  IDiag  1:
 E= -375.433858968903     Delta-E=        0.000593997023 Rises=F Damp=T
 DIIS: error= 1.50D-02 at cycle   2 NSaved=   2.
 NSaved= 2 IEnMin= 1 EnMin= -375.434452965927     IErMin= 2 ErrMin= 1.50D-02
 ErrMax= 1.50D-02  0.00D+00 EMaxC= 1.00D-01 BMatC= 5.41D-02 BMatP= 2.05D-01
 IDIUse=3 WtCom= 8.50D-01 WtEn= 1.50D-01
 Coeff-Com:  0.292D+00 0.708D+00
 Coeff-En:   0.502D+00 0.498D+00
 Coeff:      0.324D+00 0.676D+00
 Gap=     0.222 Goal=   None    Shift=    0.000
 RMSDP=1.36D-02 MaxDP=1.13D+00 DE= 5.94D-04 OVMax= 2.60D-01

 Cycle   3  Pass 1  IDiag  1:
 E= -375.556909849554     Delta-E=       -0.123050880650 Rises=F Damp=F
 DIIS: error= 1.23D-02 at cycle   3 NSaved=   3.
 NSaved= 3 IEnMin= 3 EnMin= -375.556909849554     IErMin= 3 ErrMin= 1.23D-02
 ErrMax= 1.23D-02  0.00D+00 EMaxC= 1.00D-01 BMatC= 2.93D-02 BMatP= 5.41D-02
 IDIUse=3 WtCom= 8.77D-01 WtEn= 1.23D-01
 Coeff-Com:  0.827D-01 0.419D+00 0.499D+00
 Coeff-En:   0.000D+00 0.000D+00 0.100D+01
 Coeff:      0.725D-01 0.367D+00 0.560D+00
 Gap=     0.225 Goal=   None    Shift=    0.000
 RMSDP=1.39D-03 MaxDP=4.26D-02 DE=-1.23D-01 OVMax= 9.68D-02

 Cycle   4  Pass 1  IDiag  1:
 E= -375.577549009409     Delta-E=       -0.020639159855 Rises=F Damp=F
 DIIS: error= 5.05D-03 at cycle   4 NSaved=   4.
 NSaved= 4 IEnMin= 4 EnMin= -375.577549009409     IErMin= 4 ErrMin= 5.05D-03
 ErrMax= 5.05D-03  0.00D+00 EMaxC= 1.00D-01 BMatC= 6.69D-03 BMatP= 2.93D-02
 IDIUse=3 WtCom= 9.50D-01 WtEn= 5.05D-02
 Coeff-Com:  0.592D-02 0.116D+00 0.346D+00 0.532D+00
 Coeff-En:   0.000D+00 0.000D+00 0.186D+00 0.814D+00
 Coeff:      0.562D-02 0.111D+00 0.338D+00 0.546D+00
 Gap=     0.198 Goal=   None    Shift=    0.000
 RMSDP=6.30D-04 MaxDP=2.97D-02 DE=-2.06D-02 OVMax= 2.13D-02

 Cycle   5  Pass 1  IDiag  1:
 E= -375.582207601176     Delta-E=       -0.004658591767 Rises=F Damp=F
 DIIS: error= 1.77D-03 at cycle   5 NSaved=   5.
 NSaved= 5 IEnMin= 5 EnMin= -375.582207601176     IErMin= 5 ErrMin= 1.77D-03
 ErrMax= 1.77D-03  0.00D+00 EMaxC= 1.00D-01 BMatC= 5.48D-04 BMatP= 6.69D-03
 IDIUse=3 WtCom= 9.82D-01 WtEn= 1.77D-02
 Coeff-Com: -0.618D-02 0.196D-01 0.143D+00 0.325D+00 0.519D+00
 Coeff-En:   0.000D+00 0.000D+00 0.000D+00 0.101D-01 0.990D+00
 Coeff:     -0.607D-02 0.193D-01 0.140D+00 0.319D+00 0.527D+00
 Gap=     0.201 Goal=   None    Shift=    0.000
 RMSDP=1.27D-04 MaxDP=4.23D-03 DE=-4.66D-03 OVMax= 6.36D-03

 Cycle   6  Pass 1  IDiag  1:
 E= -375.582626339497     Delta-E=       -0.000418738321 Rises=F Damp=F
 DIIS: error= 8.02D-04 at cycle   6 NSaved=   6.
 NSaved= 6 IEnMin= 6 EnMin= -375.582626339497     IErMin= 6 ErrMin= 8.02D-04
 ErrMax= 8.02D-04  0.00D+00 EMaxC= 1.00D-01 BMatC= 6.60D-05 BMatP= 5.48D-04
 IDIUse=3 WtCom= 9.92D-01 WtEn= 8.02D-03
 Coeff-Com: -0.405D-02 0.307D-02 0.595D-01 0.146D+00 0.329D+00 0.467D+00
 Coeff-En:   0.000D+00 0.000D+00 0.000D+00 0.000D+00 0.421D-01 0.958D+00
 Coeff:     -0.401D-02 0.305D-02 0.590D-01 0.145D+00 0.326D+00 0.471D+00
 Gap=     0.201 Goal=   None    Shift=    0.000
 RMSDP=4.32D-05 MaxDP=1.60D-03 DE=-4.19D-04 OVMax= 2.31D-03

 Cycle   7  Pass 1  IDiag  1:
 E= -375.582668117262     Delta-E=       -0.000041777765 Rises=F Damp=F
 DIIS: error= 3.65D-04 at cycle   7 NSaved=   7.
 NSaved= 7 IEnMin= 7 EnMin= -375.582668117262     IErMin= 7 ErrMin= 3.65D-04
 ErrMax= 3.65D-04  0.00D+00 EMaxC= 1.00D-01 BMatC= 1.19D-05 BMatP= 6.60D-05
 IDIUse=3 WtCom= 9.96D-01 WtEn= 3.65D-03
 Coeff-Com: -0.120D-02-0.178D-02 0.169D-01 0.429D-01 0.140D+00 0.325D+00
 Coeff-Com:  0.478D+00
 Coeff-En:   0.000D+00 0.000D+00 0.000D+00 0.000D+00 0.000D+00 0.150D+00
 Coeff-En:   0.850D+00
 Coeff:     -0.119D-02-0.178D-02 0.168D-01 0.428D-01 0.139D+00 0.325D+00
 Coeff:      0.479D+00
 Gap=     0.201 Goal=   None    Shift=    0.000
 RMSDP=2.58D-05 MaxDP=1.25D-03 DE=-4.18D-05 OVMax= 1.38D-03

 Cycle   8  Pass 1  IDiag  1:
 E= -375.582677625063     Delta-E=       -0.000009507801 Rises=F Damp=F
 DIIS: error= 1.12D-04 at cycle   8 NSaved=   8.
 NSaved= 8 IEnMin= 8 EnMin= -375.582677625063     IErMin= 8 ErrMin= 1.12D-04
 ErrMax= 1.12D-04  0.00D+00 EMaxC= 1.00D-01 BMatC= 9.50D-07 BMatP= 1.19D-05
 IDIUse=3 WtCom= 9.99D-01 WtEn= 1.12D-03
 Coeff-Com:  0.112D-04-0.154D-02 0.257D-02 0.578D-02 0.397D-01 0.123D+00
 Coeff-Com:  0.278D+00 0.553D+00
 Coeff-En:   0.000D+00 0.000D+00 0.000D+00 0.000D+00 0.000D+00 0.000D+00
 Coeff-En:   0.680D-02 0.993D+00
 Coeff:      0.112D-04-0.153D-02 0.257D-02 0.577D-02 0.396D-01 0.122D+00
 Coeff:      0.278D+00 0.553D+00
 Gap=     0.201 Goal=   None    Shift=    0.000
 RMSDP=1.07D-05 MaxDP=5.24D-04 DE=-9.51D-06 OVMax= 3.00D-04

 Cycle   9  Pass 1  IDiag  1:
 E= -375.582678406081     Delta-E=       -0.000000781018 Rises=F Damp=F
 DIIS: error= 3.69D-05 at cycle   9 NSaved=   9.
 NSaved= 9 IEnMin= 9 EnMin= -375.582678406081     IErMin= 9 ErrMin= 3.69D-05
 ErrMax= 3.69D-05  0.00D+00 EMaxC= 1.00D-01 BMatC= 1.30D-07 BMatP= 9.50D-07
 IDIUse=1 WtCom= 1.00D+00 WtEn= 0.00D+00
 Coeff-Com:  0.229D-03-0.712D-03-0.726D-03-0.285D-02 0.359D-02 0.266D-01
 Coeff-Com:  0.100D+00 0.323D+00 0.551D+00
 Coeff:      0.229D-03-0.712D-03-0.726D-03-0.285D-02 0.359D-02 0.266D-01
 Coeff:      0.100D+00 0.323D+00 0.551D+00
 Gap=     0.201 Goal=   None    Shift=    0.000
 RMSDP=3.45D-06 MaxDP=1.44D-04 DE=-7.81D-07 OVMax= 1.36D-04

 Cycle  10  Pass 1  IDiag  1:
 E= -375.582678476538     Delta-E=       -0.000000070457 Rises=F Damp=F
 DIIS: error= 2.25D-05 at cycle  10 NSaved=  10.
 NSaved=10 IEnMin=10 EnMin= -375.582678476538     IErMin=10 ErrMin= 2.25D-05
 ErrMax= 2.25D-05  0.00D+00 EMaxC= 1.00D-01 BMatC= 5.48D-08 BMatP= 1.30D-07
 IDIUse=1 WtCom= 1.00D+00 WtEn= 0.00D+00
 Coeff-Com:  0.160D-03-0.304D-03-0.702D-03-0.229D-02-0.320D-02-0.123D-02
 Coeff-Com:  0.201D-01 0.117D+00 0.416D+00 0.455D+00
 Coeff:      0.160D-03-0.304D-03-0.702D-03-0.229D-02-0.320D-02-0.123D-02
 Coeff:      0.201D-01 0.117D+00 0.416D+00 0.455D+00
 Gap=     0.201 Goal=   None    Shift=    0.000
 RMSDP=1.22D-06 MaxDP=2.76D-05 DE=-7.05D-08 OVMax= 7.92D-05

 Cycle  11  Pass 1  IDiag  1:
 E= -375.582678520868     Delta-E=       -0.000000044330 Rises=F Damp=F
 DIIS: error= 1.75D-06 at cycle  11 NSaved=  11.
 NSaved=11 IEnMin=11 EnMin= -375.582678520868     IErMin=11 ErrMin= 1.75D-06
 ErrMax= 1.75D-06  0.00D+00 EMaxC= 1.00D-01 BMatC= 8.67D-10 BMatP= 5.48D-08
 IDIUse=1 WtCom= 1.00D+00 WtEn= 0.00D+00
 Coeff-Com:  0.375D-04-0.536D-04-0.133D-03-0.474D-03-0.158D-02-0.318D-02
 Coeff-Com: -0.442D-02 0.680D-02 0.904D-01 0.143D+00 0.769D+00
 Coeff:      0.375D-04-0.536D-04-0.133D-03-0.474D-03-0.158D-02-0.318D-02
 Coeff:     -0.442D-02 0.680D-02 0.904D-01 0.143D+00 0.769D+00
 Gap=     0.201 Goal=   None    Shift=    0.000
 RMSDP=6.02D-07 MaxDP=2.98D-05 DE=-4.43D-08 OVMax= 1.87D-05

 Cycle  12  Pass 1  IDiag  1:
 E= -375.582678521814     Delta-E=       -0.000000000946 Rises=F Damp=F
 DIIS: error= 4.31D-07 at cycle  12 NSaved=  12.
 NSaved=12 IEnMin=12 EnMin= -375.582678521814     IErMin=12 ErrMin= 4.31D-07
 ErrMax= 4.31D-07  0.00D+00 EMaxC= 1.00D-01 BMatC= 4.78D-11 BMatP= 8.67D-10
 IDIUse=1 WtCom= 1.00D+00 WtEn= 0.00D+00
 Coeff-Com:  0.227D-05-0.122D-05 0.228D-04 0.318D-04-0.216D-03-0.781D-03
 Coeff-Com: -0.210D-02-0.487D-02-0.481D-02 0.706D-02 0.189D+00 0.816D+00
 Coeff:      0.227D-05-0.122D-05 0.228D-04 0.318D-04-0.216D-03-0.781D-03
 Coeff:     -0.210D-02-0.487D-02-0.481D-02 0.706D-02 0.189D+00 0.816D+00
 Gap=     0.201 Goal=   None    Shift=    0.000
 RMSDP=7.08D-08 MaxDP=2.01D-06 DE=-9.46D-10 OVMax= 3.62D-06

 Cycle  13  Pass 1  IDiag  1:
 E= -375.582678521861     Delta-E=       -0.000000000047 Rises=F Damp=F
 DIIS: error= 1.12D-07 at cycle  13 NSaved=  13.
 NSaved=13 IEnMin=13 EnMin= -375.582678521861     IErMin=13 ErrMin= 1.12D-07
 ErrMax= 1.12D-07  0.00D+00 EMaxC= 1.00D-01 BMatC= 3.03D-12 BMatP= 4.78D-11
 IDIUse=1 WtCom= 1.00D+00 WtEn= 0.00D+00
 Coeff-Com: -0.546D-06 0.722D-06 0.134D-04 0.293D-04 0.841D-05-0.101D-03
 Coeff-Com: -0.266D-03-0.163D-02-0.613D-02-0.259D-02 0.150D-01 0.212D+00
 Coeff-Com:  0.783D+00
 Coeff:     -0.546D-06 0.722D-06 0.134D-04 0.293D-04 0.841D-05-0.101D-03
 Coeff:     -0.266D-03-0.163D-02-0.613D-02-0.259D-02 0.150D-01 0.212D+00
 Coeff:      0.783D+00
 Gap=     0.201 Goal=   None    Shift=    0.000
 RMSDP=1.29D-08 MaxDP=2.55D-07 DE=-4.73D-11 OVMax= 6.63D-07

 Cycle  14  Pass 1  IDiag  1:
 E= -375.582678521864     Delta-E=       -0.000000000003 Rises=F Damp=F
 DIIS: error= 1.85D-08 at cycle  14 NSaved=  14.
 NSaved=14 IEnMin=14 EnMin= -375.582678521864     IErMin=14 ErrMin= 1.85D-08
 ErrMax= 1.85D-08  0.00D+00 EMaxC= 1.00D-01 BMatC= 8.43D-14 BMatP= 3.03D-12
 IDIUse=1 WtCom= 1.00D+00 WtEn= 0.00D+00
 Coeff-Com: -0.115D-07 0.593D-08 0.242D-05 0.540D-05 0.120D-04 0.135D-04
 Coeff-Com:  0.467D-04-0.156D-03-0.122D-02-0.674D-03-0.531D-02 0.112D-01
 Coeff-Com:  0.173D+00 0.823D+00
 Coeff:     -0.115D-07 0.593D-08 0.242D-05 0.540D-05 0.120D-04 0.135D-04
 Coeff:      0.467D-04-0.156D-03-0.122D-02-0.674D-03-0.531D-02 0.112D-01
 Coeff:      0.173D+00 0.823D+00
 Gap=     0.201 Goal=   None    Shift=    0.000
 RMSDP=2.93D-09 MaxDP=4.54D-08 DE=-2.96D-12 OVMax= 1.15D-07

 SCF Done:  E(RB3LYP) =  -375.582678522     A.U. after   14 cycles
            NFock= 14  Conv=0.29D-08     -V/T= 2.0035
 KE= 3.742817572881D+02 PE=-1.353760531974D+03 EE= 3.670245507136D+02
 Leave Link  502 at Tue Jan 31 21:49:17 2023, MaxMem=  8053063680 cpu:              98.5 elap:               4.4
 (Enter /public3/home/scg5914/software-scg5914/g16/l601.exe)
 Copying SCF densities to generalized density rwf, IOpCl= 0 IROHF=0.

 **********************************************************************

            Population analysis using the SCF Density.

 **********************************************************************

 Orbital symmetries:
       Occupied  (A) (A) (A) (A) (A) (A) (A) (A) (A) (A) (A) (A)
                 (A) (A) (A) (A) (A) (A) (A) (A) (A) (A) (A) (A)
                 (A)
       Virtual   (A) (A) (A) (A) (A) (A) (A) (A) (A) (A) (A) (A)
                 (A) (A) (A) (A) (A) (A) (A) (A) (A) (A) (A) (A)
                 (A) (A) (A) (A) (A) (A) (A) (A) (A) (A) (A) (A)
                 (A) (A) (A) (A) (A) (A) (A) (A) (A) (A) (A) (A)
                 (A) (A) (A) (A) (A) (A) (A) (A) (A) (A) (A) (A)
                 (A) (A) (A) (A) (A) (A) (A) (A) (A) (A) (A) (A)
                 (A) (A) (A) (A) (A) (A) (A) (A) (A) (A) (A) (A)
                 (A) (A) (A) (A) (A) (A) (A) (A) (A) (A) (A) (A)
                 (A) (A) (A) (A) (A) (A) (A) (A) (A) (A) (A) (A)
                 (A) (A) (A) (A) (A) (A) (A) (A) (A) (A) (A) (A)
                 (A) (A) (A) (A) (A) (A) (A) (A) (A) (A) (A) (A)
                 (A) (A) (A) (A) (A) (A) (A) (A) (A)
 The electronic state is 1-A.
 Alpha  occ. eigenvalues --  -19.23641 -19.12614 -14.41697 -14.41520 -10.33914
 Alpha  occ. eigenvalues --  -10.28183 -10.21498  -1.17252  -1.13220  -1.05968
 Alpha  occ. eigenvalues --   -0.82972  -0.66050  -0.56490  -0.55514  -0.54183
 Alpha  occ. eigenvalues --   -0.50318  -0.49988  -0.47218  -0.46891  -0.46748
 Alpha  occ. eigenvalues --   -0.43844  -0.43378  -0.41024  -0.28141  -0.27844
 Alpha virt. eigenvalues --   -0.07719  -0.06312  -0.03058  -0.02852  -0.00603
 Alpha virt. eigenvalues --    0.02006   0.03766   0.04536   0.06097   0.06256
 Alpha virt. eigenvalues --    0.06969   0.07916   0.08479   0.08839   0.10972
 Alpha virt. eigenvalues --    0.11588   0.11743   0.13252   0.14068   0.14177
 Alpha virt. eigenvalues --    0.16851   0.18082   0.18496   0.20686   0.21090
 Alpha virt. eigenvalues --    0.21753   0.23277   0.24955   0.26670   0.26910
 Alpha virt. eigenvalues --    0.27719   0.29419   0.30732   0.31476   0.32390
 Alpha virt. eigenvalues --    0.34363   0.35739   0.40281   0.47697   0.48646
 Alpha virt. eigenvalues --    0.50393   0.54326   0.56311   0.57450   0.58915
 Alpha virt. eigenvalues --    0.59327   0.63171   0.70408   0.70973   0.73281
 Alpha virt. eigenvalues --    0.74388   0.74721   0.77008   0.79926   0.83211
 Alpha virt. eigenvalues --    0.84910   0.85507   0.86919   0.90636   0.93442
 Alpha virt. eigenvalues --    0.97565   1.04392   1.05102   1.08874   1.11479
 Alpha virt. eigenvalues --    1.13187   1.15447   1.16656   1.21030   1.21776
 Alpha virt. eigenvalues --    1.24023   1.24988   1.30314   1.36447   1.47276
 Alpha virt. eigenvalues --    1.54386   1.59980   1.60729   1.67547   1.68200
 Alpha virt. eigenvalues --    1.69997   1.70587   1.71354   1.75388   1.75596
 Alpha virt. eigenvalues --    1.77903   1.82065   1.96031   1.98672   2.01833
 Alpha virt. eigenvalues --    2.16560   2.16986   2.21646   2.34145   2.42708
 Alpha virt. eigenvalues --    2.52509   2.57721   2.58939   2.61424   2.64155
 Alpha virt. eigenvalues --    2.70416   2.77634   2.77920   2.78229   2.83095
 Alpha virt. eigenvalues --    2.86577   2.87100   2.90566   2.92292   2.94835
 Alpha virt. eigenvalues --    3.06062   3.17479   3.28330   3.33919   3.44060
 Alpha virt. eigenvalues --    3.47015   3.47311   3.60583   3.68680   3.69985
 Alpha virt. eigenvalues --    3.72041   3.84538   3.88261   3.96594   3.97006
 Alpha virt. eigenvalues --    4.15359   4.24370   4.54823   4.99386   5.02590
 Alpha virt. eigenvalues --    5.03193   5.13266   5.61401   5.71372  23.67909
 Alpha virt. eigenvalues --   23.88115  24.59057  35.07116  36.30070  49.96443
 Alpha virt. eigenvalues --   50.00791
          Condensed to atoms (all electrons):
               1          2          3          4          5          6
     1  C    5.734771  -0.276876  -0.014941   0.123772   0.108172  -0.031680
     2  C   -0.276876   6.447658   0.367285  -0.190982  -0.248682   0.015453
     3  H   -0.014941   0.367285   0.457665   0.002348   0.006043  -0.000090
     4  C    0.123772  -0.190982   0.002348   5.226939   0.399141   0.000493
     5  O    0.108172  -0.248682   0.006043   0.399141   8.083211  -0.004223
     6  N   -0.031680   0.015453  -0.000090   0.000493  -0.004223   6.149406
     7  N    0.011902  -0.005334   0.000113   0.012318  -0.003326   0.778089
     8  H    0.048767  -0.218005  -0.002563   0.465674  -0.046566  -0.001541
     9  O    0.155742   0.056623   0.001786   0.006121   0.003017  -0.002674
               7          8          9
     1  C    0.011902   0.048767   0.155742
     2  C   -0.005334  -0.218005   0.056623
     3  H    0.000113  -0.002563   0.001786
     4  C    0.012318   0.465674   0.006121
     5  O   -0.003326  -0.046566   0.003017
     6  N    0.778089  -0.001541  -0.002674
     7  N    6.296007   0.000633  -0.001553
     8  H    0.000633   0.635177   0.000282
     9  O   -0.001553   0.000282   7.939688
 Mulliken charges:
               1
     1  C    0.140370
     2  C    0.052861
     3  H    0.182353
     4  C   -0.045825
     5  O   -0.296788
     6  N    0.096768
     7  N   -0.088849
     8  H    0.118142
     9  O   -0.159032
 Sum of Mulliken charges =  -0.00000
 Mulliken charges with hydrogens summed into heavy atoms:
               1
     1  C    0.140370
     2  C    0.235214
     4  C    0.072316
     5  O   -0.296788
     6  N    0.096768
     7  N   -0.088849
     9  O   -0.159032
 Electronic spatial extent (au):  <R**2>=            862.9858
 Charge=             -0.0000 electrons
 Dipole moment (field-independent basis, Debye):
    X=             -2.2990    Y=              0.7655    Z=              2.5469  Tot=              3.5154
 Quadrupole moment (field-independent basis, Debye-Ang):
   XX=            -35.5990   YY=            -41.3392   ZZ=            -39.1106
   XY=              1.6450   XZ=             -2.1285   YZ=             -2.3737
 Traceless Quadrupole moment (field-independent basis, Debye-Ang):
   XX=              3.0839   YY=             -2.6563   ZZ=             -0.4277
   XY=              1.6450   XZ=             -2.1285   YZ=             -2.3737
 Octapole moment (field-independent basis, Debye-Ang**2):
  XXX=             -7.5136  YYY=              0.3448  ZZZ=             -1.8447  XYY=             -2.2410
  XXY=              2.7833  XXZ=              6.2660  XZZ=             -0.8573  YZZ=              2.8147
  YYZ=              7.2058  XYZ=             -0.4571
 Hexadecapole moment (field-independent basis, Debye-Ang**3):
 XXXX=           -672.9456 YYYY=           -376.7072 ZZZZ=            -92.2518 XXXY=              3.6105
 XXXZ=             -1.9214 YYYX=              6.3087 YYYZ=             -6.6413 ZZZX=             -0.6216
 ZZZY=             -2.2800 XXYY=           -158.8999 XXZZ=           -112.9828 YYZZ=            -79.1173
 XXYZ=             -0.7597 YYXZ=             -3.8154 ZZXY=             -1.1249
 N-N= 2.368715454505D+02 E-N=-1.353760533531D+03  KE= 3.742817572881D+02
 No NMR shielding tensors so no spin-rotation constants.
 Leave Link  601 at Tue Jan 31 21:49:17 2023, MaxMem=  8053063680 cpu:              14.9 elap:               0.6
 (Enter /public3/home/scg5914/software-scg5914/g16/l701.exe)
 ... and contract with generalized density number  0.
 Compute integral first derivatives.
 R6Disp: Adding Grimme-D3(BJ) dispersion energy 1st derivatives to the gradient.
 Leave Link  701 at Tue Jan 31 21:49:18 2023, MaxMem=  8053063680 cpu:               6.8 elap:               0.2
 (Enter /public3/home/scg5914/software-scg5914/g16/l702.exe)
 L702 exits ... SP integral derivatives will be done elsewhere.
 Leave Link  702 at Tue Jan 31 21:49:18 2023, MaxMem=  8053063680 cpu:               0.7 elap:               0.0
 (Enter /public3/home/scg5914/software-scg5914/g16/l703.exe)
 Integral derivatives from FoFJK, PRISM(SPDF).
 Compute integral first derivatives, UseDBF=F ICtDFT=           0.
 Calling FoFJK, ICntrl=      2127 FMM=F ISym2X=0 I1Cent= 0 IOpClX= 0 NMat=1 NMatS=1 NMatT=0.
 FoFJK:  IHMeth= 1 ICntrl=    2127 DoSepK=F KAlg= 0 I1Cent=           0 FoldK=F
 IRaf=         0 NMat=       1 IRICut=       1 DoRegI=T DoRafI=F ISym2E= 0 IDoP0=0 IntGTp=1.
 FoFCou: FMM=F IPFlag=           0 FMFlag=      100000 FMFlg1=         800
         NFxFlg=           0 DoJE=F BraDBF=F KetDBF=F FulRan=T
         wScrn=  0.000000 ICntrl=      2127 IOpCl=  0 I1Cent=           0 NGrid=           0
         NMat0=    1 NMatS0=      1 NMatT0=    0 NMatD0=    1 NMtDS0=    0 NMtDT0=    0
 Symmetry not used in FoFCou.
 Leave Link  703 at Tue Jan 31 21:49:19 2023, MaxMem=  8053063680 cpu:              37.3 elap:               1.2
 (Enter /public3/home/scg5914/software-scg5914/g16/l716.exe)
 Dipole        =-9.04510224D-01 3.01152259D-01 1.00203653D+00
 ***** Axes restored to original set *****
 -------------------------------------------------------------------
 Center     Atomic                   Forces (Hartrees/Bohr)
 Number     Number              X              Y              Z
 -------------------------------------------------------------------
      1        6           0.000044493   -0.000030997   -0.000060167
      2        6          -0.000153949    0.000166725    0.000138954
      3        1           0.000028442   -0.000037285   -0.000003676
      4        6           0.000219918   -0.000114158   -0.000182941
      5        8          -0.000094445    0.000035468    0.000115988
      6        7          -0.000061958    0.000027338    0.000026489
      7        7           0.000062195   -0.000029437   -0.000030116
      8        1          -0.000039249    0.000002498   -0.000006038
      9        8          -0.000005446   -0.000020153    0.000001507
 -------------------------------------------------------------------
 Cartesian Forces:  Max     0.000219918 RMS     0.000088407
 Leave Link  716 at Tue Jan 31 21:49:19 2023, MaxMem=  8053063680 cpu:               0.3 elap:               0.0
 (Enter /public3/home/scg5914/software-scg5914/g16/l103.exe)

 GradGradGradGradGradGradGradGradGradGradGradGradGradGradGradGradGradGrad
 Berny optimization.
 FormGI is forming the generalized inverse of G from B-inverse, IUseBI=4.
 Internal  Forces:  Max     0.000153593 RMS     0.000042601
 Search for a local minimum.
 Step number   1 out of a maximum of   47
 All quantities printed in internal units (Hartrees-Bohrs-Radians)
 RMS Force = .42601D-04 SwitMx=.10000D-02 MixMth= 2
 Mixed Optimization -- En-DIIS/RFO-DIIS
 Second derivative matrix not updated -- first step.
 ITU=  0
     Eigenvalues ---    0.00690   0.01734   0.01772   0.02012   0.02123
     Eigenvalues ---    0.02525   0.03293   0.05095   0.13609   0.16000
     Eigenvalues ---    0.16000   0.19068   0.22268   0.23343   0.32962
     Eigenvalues ---    0.35699   0.35762   0.56947   0.93085   1.35069
     Eigenvalues ---    1.81539
 RFO step:  Lambda=-2.83017039D-07 EMin= 6.90185150D-03
 Linear search not attempted -- first point.
 Iteration  1 RMS(Cart)=  0.00046466 RMS(Int)=  0.00000015
 Iteration  2 RMS(Cart)=  0.00000017 RMS(Int)=  0.00000004
 ITry= 1 IFail=0 DXMaxC= 1.35D-03 DCOld= 1.00D+10 DXMaxT= 3.00D-01 DXLimC= 3.00D+00 Rises=F
 Variable       Old X    -DE/DX   Delta X   Delta X   Delta X     New X
                                 (Linear)    (Quad)   (Total)
    R1        2.50885   0.00000   0.00000  -0.00001  -0.00001   2.50885
    R2        6.12972   0.00000   0.00000   0.00020   0.00020   6.12992
    R3        2.17184  -0.00002   0.00000  -0.00001  -0.00001   2.17182
    R4        2.04455  -0.00002   0.00000  -0.00007  -0.00007   2.04448
    R5        2.76298   0.00013   0.00000   0.00035   0.00035   2.76333
    R6        2.29303  -0.00015   0.00000  -0.00015  -0.00015   2.29288
    R7        2.09118   0.00001   0.00000   0.00003   0.00003   2.09121
    R8        5.98948  -0.00001   0.00000  -0.00061  -0.00061   5.98888
    R9        2.06983  -0.00007   0.00000  -0.00004  -0.00004   2.06979
    A1        1.64090   0.00003   0.00000  -0.00002  -0.00002   1.64087
    A2        1.49556  -0.00001   0.00000  -0.00000  -0.00000   1.49556
    A3        2.06015   0.00008   0.00000   0.00051   0.00051   2.06066
    A4        2.10346  -0.00009   0.00000  -0.00056  -0.00056   2.10291
    A5        2.11957   0.00000   0.00000   0.00004   0.00004   2.11961
    A6        2.19561   0.00003   0.00000   0.00003   0.00003   2.19564
    A7        1.97257  -0.00004   0.00000  -0.00014  -0.00014   1.97243
    A8        2.11501   0.00001   0.00000   0.00011   0.00011   2.11512
    A9        1.68154   0.00002   0.00000   0.00008   0.00008   1.68162
   A10        0.92093  -0.00001   0.00000  -0.00012  -0.00012   0.92081
   A11        2.61174  -0.00001   0.00000   0.00001   0.00001   2.61175
   A12        1.81319  -0.00000   0.00000  -0.00001  -0.00001   1.81318
   A13        3.13646   0.00001   0.00000  -0.00002  -0.00002   3.13644
   A14        3.12732   0.00000   0.00000  -0.00029  -0.00029   3.12703
    D1        2.22196  -0.00000   0.00000  -0.00033  -0.00033   2.22163
    D2       -0.91570  -0.00000   0.00000  -0.00025  -0.00025  -0.91595
    D3        0.84241   0.00002   0.00000   0.00046   0.00046   0.84287
    D4        1.63638   0.00001   0.00000   0.00002   0.00002   1.63640
    D5       -2.28491   0.00002   0.00000   0.00076   0.00076  -2.28416
    D6       -1.49094   0.00000   0.00000   0.00031   0.00031  -1.49063
    D7       -0.00520   0.00000   0.00000   0.00024   0.00024  -0.00496
    D8        3.13489   0.00002   0.00000   0.00112   0.00112   3.13601
    D9        3.14047   0.00000   0.00000   0.00031   0.00031   3.14078
   D10       -0.00263   0.00002   0.00000   0.00120   0.00120  -0.00143
   D11        0.95863   0.00000   0.00000   0.00017   0.00017   0.95880
   D12       -2.18135  -0.00002   0.00000  -0.00078  -0.00078  -2.18213
   D13       -0.86297  -0.00001   0.00000  -0.00023  -0.00023  -0.86320
   D14        2.65901  -0.00002   0.00000  -0.00041  -0.00041   2.65860
         Item               Value     Threshold  Converged?
 Maximum Force            0.000154     0.000450     YES
 RMS     Force            0.000043     0.000300     YES
 Maximum Displacement     0.001353     0.001800     YES
 RMS     Displacement     0.000465     0.001200     YES
 Predicted change in Energy=-1.415106D-07
 Optimization completed.
    -- Stationary point found.
                           ----------------------------
                           !   Optimized Parameters   !
                           ! (Angstroms and Degrees)  !
 --------------------------                            --------------------------
 ! Name  Definition              Value          Derivative Info.                !
 --------------------------------------------------------------------------------
 ! R1    R(1,2)                  1.3276         -DE/DX =    0.0                 !
 ! R2    R(1,7)                  3.2437         -DE/DX =    0.0                 !
 ! R3    R(1,9)                  1.1493         -DE/DX =    0.0                 !
 ! R4    R(2,3)                  1.0819         -DE/DX =    0.0                 !
 ! R5    R(2,4)                  1.4621         -DE/DX =    0.0001              !
 ! R6    R(4,5)                  1.2134         -DE/DX =   -0.0002              !
 ! R7    R(4,8)                  1.1066         -DE/DX =    0.0                 !
 ! R8    R(5,7)                  3.1695         -DE/DX =    0.0                 !
 ! R9    R(6,7)                  1.0953         -DE/DX =   -0.0001              !
 ! A1    A(2,1,7)               94.0164         -DE/DX =    0.0                 !
 ! A2    A(7,1,9)               85.6895         -DE/DX =    0.0                 !
 ! A3    A(1,2,3)              118.0378         -DE/DX =    0.0001              !
 ! A4    A(1,2,4)              120.5196         -DE/DX =   -0.0001              !
 ! A5    A(3,2,4)              121.4422         -DE/DX =    0.0                 !
 ! A6    A(2,4,5)              125.7993         -DE/DX =    0.0                 !
 ! A7    A(2,4,8)              113.0198         -DE/DX =    0.0                 !
 ! A8    A(5,4,8)              121.1809         -DE/DX =    0.0                 !
 ! A9    A(4,5,7)               96.3454         -DE/DX =    0.0                 !
 ! A10   A(1,7,5)               52.7654         -DE/DX =    0.0                 !
 ! A11   A(1,7,6)              149.6416         -DE/DX =    0.0                 !
 ! A12   A(5,7,6)              103.8883         -DE/DX =    0.0                 !
 ! A13   L(2,1,9,7,-1)         179.7059         -DE/DX =    0.0                 !
 ! A14   L(2,1,9,7,-2)         179.1825         -DE/DX =    0.0                 !
 ! D1    D(7,1,2,3)            127.3087         -DE/DX =    0.0                 !
 ! D2    D(7,1,2,4)            -52.4657         -DE/DX =    0.0                 !
 ! D3    D(2,1,7,5)             48.2665         -DE/DX =    0.0                 !
 ! D4    D(2,1,7,6)             93.7576         -DE/DX =    0.0                 !
 ! D5    D(9,1,7,5)           -130.916          -DE/DX =    0.0                 !
 ! D6    D(9,1,7,6)            -85.4249         -DE/DX =    0.0                 !
 ! D7    D(1,2,4,5)             -0.2979         -DE/DX =    0.0                 !
 ! D8    D(1,2,4,8)            179.6159         -DE/DX =    0.0                 !
 ! D9    D(3,2,4,5)            179.9355         -DE/DX =    0.0                 !
 ! D10   D(3,2,4,8)             -0.1506         -DE/DX =    0.0                 !
 ! D11   D(2,4,5,7)             54.9254         -DE/DX =    0.0                 !
 ! D12   D(8,4,5,7)           -124.9819         -DE/DX =    0.0                 !
 ! D13   D(4,5,7,1)            -49.4445         -DE/DX =    0.0                 !
 ! D14   D(4,5,7,6)            152.3502         -DE/DX =    0.0                 !
 --------------------------------------------------------------------------------
 Lowest energy point so far.  Saving SCF results.
 Largest change from initial coordinates is atom    8       0.000 Angstoms.
 GradGradGradGradGradGradGradGradGradGradGradGradGradGradGradGradGradGrad

 Leave Link  103 at Tue Jan 31 21:49:19 2023, MaxMem=  8053063680 cpu:              13.6 elap:               0.5
 (Enter /public3/home/scg5914/software-scg5914/g16/l202.exe)
                          Input orientation:                          
 ---------------------------------------------------------------------
 Center     Atomic      Atomic             Coordinates (Angstroms)
 Number     Number       Type             X           Y           Z
 ---------------------------------------------------------------------
      1          6           0       -1.151594    1.016858    0.031812
      2          6           0       -1.558472   -0.113421    0.597069
      3          1           0       -2.275927   -0.048804    1.404320
      4          6           0       -1.041601   -1.401542    0.137347
      5          8           0       -0.239284   -1.565702   -0.758047
      6          7           0        2.931809   -0.068719    0.026288
      7          7           0        1.997734    0.344876    0.421429
      8          1           0       -1.458101   -2.259929    0.697951
      9          8           0       -0.793560    1.986235   -0.471160
 ---------------------------------------------------------------------
                    Distance matrix (angstroms):
                    1          2          3          4          5
     1  C    0.000000
     2  C    1.327628   0.000000
     3  H    2.069671   1.081929   0.000000
     4  C    2.423199   1.462107   2.226810   0.000000
     5  O    2.850579   2.384474   3.335375   1.213421   0.000000
     6  N    4.225244   4.526634   5.387011   4.192462   3.593323
     7  N    3.243706   3.589915   4.402867   3.516850   3.169499
     8  H    3.357830   2.151220   2.461071   1.106606   2.021731
     9  O    1.149287   2.476845   3.139462   3.450918   3.606353
                    6          7          8          9
     6  N    0.000000
     7  N    1.095305   0.000000
     8  H    4.952155   4.336389   0.000000
     9  O    4.283534   3.358883   4.454026   0.000000
 Stoichiometry    C3H2N2O2
 Framework group  C1[X(C3H2N2O2)]
 Deg. of freedom    21
 Full point group                 C1      NOp   1
 RotChk:  IX=0 Diff= 1.57D-16
 Largest Abelian subgroup         C1      NOp   1
 Largest concise Abelian subgroup C1      NOp   1
                         Standard orientation:                         
 ---------------------------------------------------------------------
 Center     Atomic      Atomic             Coordinates (Angstroms)
 Number     Number       Type             X           Y           Z
 ---------------------------------------------------------------------
      1          6           0       -1.151594    1.016858    0.031812
      2          6           0       -1.558472   -0.113421    0.597069
      3          1           0       -2.275927   -0.048804    1.404320
      4          6           0       -1.041601   -1.401542    0.137347
      5          8           0       -0.239284   -1.565702   -0.758047
      6          7           0        2.931809   -0.068719    0.026288
      7          7           0        1.997734    0.344876    0.421429
      8          1           0       -1.458101   -2.259929    0.697951
      9          8           0       -0.793560    1.986235   -0.471160
 ---------------------------------------------------------------------
 Rotational constants (GHZ):           3.0212334           1.8389980           1.2700650
 Leave Link  202 at Tue Jan 31 21:49:20 2023, MaxMem=  8053063680 cpu:               3.3 elap:               0.1
 (Enter /public3/home/scg5914/software-scg5914/g16/l9999.exe)
 Unable to Open any file for archive entry.
 1\1\GINC-F0708\FOpt\RB3LYP\6-311+G(d,p)\C3H2N2O2\SCG5914\31-Jan-2023\0
 \\#p opt freq b3lyp/6-311+g** em=gd3bj\\dsgdb9nsd_003895.gjf\\0,1\C,-1
 .151594,1.016858,0.031812\C,-1.558472,-0.113421,0.597069\H,-2.275927,-
 0.048804,1.40432\C,-1.041601,-1.401542,0.137347\O,-0.239284,-1.565702,
 -0.758047\N,2.931809,-0.068719,0.026288\N,1.997734,0.344876,0.421429\H
 ,-1.458101,-2.259929,0.697951\O,-0.79356,1.986235,-0.47116\\Version=ES
 64L-G16RevC.01\State=1-A\HF=-375.5826785\RMSD=2.926e-09\RMSF=8.841e-05
 \Dipole=-0.9045102,0.3011522,1.0020365\Quadrupole=2.2928215,-1.9748705
 ,-0.317951,1.2229868,-1.5825178,-1.7648194\PG=C01 [X(C3H2N2O2)]\\@
 The archive entry for this job was punched.


      HUMANKIND PERIODICALLY GOES THROUGH A SPEEDUP OF ITS AFFAIRS, 
      THEREBY EXPERIENCING THE RACE BETWEEN THE RENEWABLE VITALITY
      OF THE LIVING, AND THE BECKONING VITIATION OF DECADENCE.
      IN THIS PERIODIC RACE, ANY PAUSE BECOMES A LUXURY.
      ONLY THEN CAN ONE REFLECT THAT ALL IS PERMITTED;
      ALL IS POSSIBLE.

                              -- THE APOCRYPHA OF MUAD'DIB
                                 CHILDREN OF DUNE, BY FRANK HERBERT
 Leave Link 9999 at Tue Jan 31 21:49:20 2023, MaxMem=  8053063680 cpu:               2.1 elap:               0.1
 Job cpu time:       0 days  0 hours  3 minutes 26.6 seconds.
 Elapsed time:       0 days  0 hours  0 minutes  8.2 seconds.
 File lengths (MBytes):  RWF=     14 Int=      0 D2E=      0 Chk=      3 Scr=      1
 Normal termination of Gaussian 16 at Tue Jan 31 21:49:20 2023.
 (Enter /public3/home/scg5914/software-scg5914/g16/l1.exe)
 Link1:  Proceeding to internal job step number  2.
 ----------------------------------------------------------------------
 #P Geom=AllCheck Guess=TCheck SCRF=Check GenChk RB3LYP/6-311+G(d,p) Fr
 eq
 ----------------------------------------------------------------------
 1/10=4,29=7,30=1,38=1,40=1/1,3;
 2/12=2,40=1/2;
 3/5=4,6=6,7=111,11=2,14=-4,25=1,30=1,70=2,71=2,74=-5,116=1,124=41,140=1/1,2,3;
 4/5=101/1;
 5/5=2,38=6,98=1/2;
 8/6=4,10=90,11=11/1;
 11/6=1,8=1,9=11,15=111,16=1/1,2,10;
 10/6=1/2;
 6/7=2,8=2,9=2,10=2,28=1/1;
 7/8=1,10=1,25=1/1,2,3,16;
 1/10=4,30=1/3;
 99//99;
 Leave Link    1 at Tue Jan 31 21:49:20 2023, MaxMem=  8053063680 cpu:               0.5 elap:               0.0
 (Enter /public3/home/scg5914/software-scg5914/g16/l101.exe)
 Structure from the checkpoint file:  "dsgdb9nsd_003895.chk"
 --------------------
 dsgdb9nsd_003895.gjf
 --------------------
 Charge =  0 Multiplicity = 1
 Redundant internal coordinates found in file.  (old form).
 C,0,-1.151594,1.016858,0.031812
 C,0,-1.558472,-0.113421,0.597069
 H,0,-2.275927,-0.048804,1.40432
 C,0,-1.041601,-1.401542,0.137347
 O,0,-0.239284,-1.565702,-0.758047
 N,0,2.931809,-0.068719,0.026288
 N,0,1.997734,0.344876,0.421429
 H,0,-1.458101,-2.259929,0.697951
 O,0,-0.79356,1.986235,-0.47116
 Recover connectivity data from disk.
 ITRead=  0  0  0  0  0  0  0  0  0
 MicOpt= -1 -1 -1 -1 -1 -1 -1 -1 -1
 NAtoms=      9 NQM=        9 NQMF=       0 NMMI=      0 NMMIF=      0
                NMic=       0 NMicF=      0.
                    Isotopes and Nuclear Properties:
 (Nuclear quadrupole moments (NQMom) in fm**2, nuclear magnetic moments (NMagM)
  in nuclear magnetons)

  Atom         1           2           3           4           5           6           7           8           9
 IAtWgt=          12          12           1          12          16          14          14           1          16
 AtmWgt=  12.0000000  12.0000000   1.0078250  12.0000000  15.9949146  14.0030740  14.0030740   1.0078250  15.9949146
 NucSpn=           0           0           1           0           0           2           2           1           0
 AtZEff=   3.6000000   3.6000000   1.0000000   3.6000000   5.6000000   4.5500000   4.5500000   1.0000000   5.6000000
 NQMom=    0.0000000   0.0000000   0.0000000   0.0000000   0.0000000   2.0440000   2.0440000   0.0000000   0.0000000
 NMagM=    0.0000000   0.0000000   2.7928460   0.0000000   0.0000000   0.4037610   0.4037610   2.7928460   0.0000000
 AtZNuc=   6.0000000   6.0000000   1.0000000   6.0000000   8.0000000   7.0000000   7.0000000   1.0000000   8.0000000
 Leave Link  101 at Tue Jan 31 21:49:20 2023, MaxMem=  8053063680 cpu:               6.4 elap:               0.3
 (Enter /public3/home/scg5914/software-scg5914/g16/l103.exe)

 GradGradGradGradGradGradGradGradGradGradGradGradGradGradGradGradGradGrad
 Berny optimization.
 Initialization pass.
                           ----------------------------
                           !    Initial Parameters    !
                           ! (Angstroms and Degrees)  !
 --------------------------                            --------------------------
 ! Name  Definition              Value          Derivative Info.                !
 --------------------------------------------------------------------------------
 ! R1    R(1,2)                  1.3276         calculate D2E/DX2 analytically  !
 ! R2    R(1,7)                  3.2437         calculate D2E/DX2 analytically  !
 ! R3    R(1,9)                  1.1493         calculate D2E/DX2 analytically  !
 ! R4    R(2,3)                  1.0819         calculate D2E/DX2 analytically  !
 ! R5    R(2,4)                  1.4621         calculate D2E/DX2 analytically  !
 ! R6    R(4,5)                  1.2134         calculate D2E/DX2 analytically  !
 ! R7    R(4,8)                  1.1066         calculate D2E/DX2 analytically  !
 ! R8    R(5,7)                  3.1695         calculate D2E/DX2 analytically  !
 ! R9    R(6,7)                  1.0953         calculate D2E/DX2 analytically  !
 ! A1    A(2,1,7)               94.0164         calculate D2E/DX2 analytically  !
 ! A2    A(7,1,9)               85.6895         calculate D2E/DX2 analytically  !
 ! A3    A(1,2,3)              118.0378         calculate D2E/DX2 analytically  !
 ! A4    A(1,2,4)              120.5196         calculate D2E/DX2 analytically  !
 ! A5    A(3,2,4)              121.4422         calculate D2E/DX2 analytically  !
 ! A6    A(2,4,5)              125.7993         calculate D2E/DX2 analytically  !
 ! A7    A(2,4,8)              113.0198         calculate D2E/DX2 analytically  !
 ! A8    A(5,4,8)              121.1809         calculate D2E/DX2 analytically  !
 ! A9    A(4,5,7)               96.3454         calculate D2E/DX2 analytically  !
 ! A10   A(1,7,5)               52.7654         calculate D2E/DX2 analytically  !
 ! A11   A(1,7,6)              149.6416         calculate D2E/DX2 analytically  !
 ! A12   A(5,7,6)              103.8883         calculate D2E/DX2 analytically  !
 ! A13   L(2,1,9,7,-1)         179.7059         calculate D2E/DX2 analytically  !
 ! A14   L(2,1,9,7,-2)         179.1825         calculate D2E/DX2 analytically  !
 ! D1    D(7,1,2,3)            127.3087         calculate D2E/DX2 analytically  !
 ! D2    D(7,1,2,4)            -52.4657         calculate D2E/DX2 analytically  !
 ! D3    D(2,1,7,5)             48.2665         calculate D2E/DX2 analytically  !
 ! D4    D(2,1,7,6)             93.7576         calculate D2E/DX2 analytically  !
 ! D5    D(9,1,7,5)           -130.916          calculate D2E/DX2 analytically  !
 ! D6    D(9,1,7,6)            -85.4249         calculate D2E/DX2 analytically  !
 ! D7    D(1,2,4,5)             -0.2979         calculate D2E/DX2 analytically  !
 ! D8    D(1,2,4,8)            179.6159         calculate D2E/DX2 analytically  !
 ! D9    D(3,2,4,5)            179.9355         calculate D2E/DX2 analytically  !
 ! D10   D(3,2,4,8)             -0.1506         calculate D2E/DX2 analytically  !
 ! D11   D(2,4,5,7)             54.9254         calculate D2E/DX2 analytically  !
 ! D12   D(8,4,5,7)           -124.9819         calculate D2E/DX2 analytically  !
 ! D13   D(4,5,7,1)            -49.4445         calculate D2E/DX2 analytically  !
 ! D14   D(4,5,7,6)            152.3502         calculate D2E/DX2 analytically  !
 --------------------------------------------------------------------------------
 Trust Radius=3.00D-01 FncErr=1.00D-07 GrdErr=1.00D-07 EigMax=2.50D+02 EigMin=1.00D-04
 Number of steps in this run=      2 maximum allowed number of steps=      2.
 GradGradGradGradGradGradGradGradGradGradGradGradGradGradGradGradGradGrad

 Leave Link  103 at Tue Jan 31 21:49:20 2023, MaxMem=  8053063680 cpu:               0.8 elap:               0.0
 (Enter /public3/home/scg5914/software-scg5914/g16/l202.exe)
                          Input orientation:                          
 ---------------------------------------------------------------------
 Center     Atomic      Atomic             Coordinates (Angstroms)
 Number     Number       Type             X           Y           Z
 ---------------------------------------------------------------------
      1          6           0       -1.151594    1.016858    0.031812
      2          6           0       -1.558472   -0.113421    0.597069
      3          1           0       -2.275927   -0.048804    1.404320
      4          6           0       -1.041601   -1.401542    0.137347
      5          8           0       -0.239284   -1.565702   -0.758047
      6          7           0        2.931809   -0.068719    0.026288
      7          7           0        1.997734    0.344876    0.421429
      8          1           0       -1.458101   -2.259929    0.697951
      9          8           0       -0.793560    1.986235   -0.471160
 ---------------------------------------------------------------------
                    Distance matrix (angstroms):
                    1          2          3          4          5
     1  C    0.000000
     2  C    1.327628   0.000000
     3  H    2.069671   1.081929   0.000000
     4  C    2.423199   1.462107   2.226810   0.000000
     5  O    2.850579   2.384474   3.335375   1.213421   0.000000
     6  N    4.225244   4.526634   5.387011   4.192462   3.593323
     7  N    3.243706   3.589915   4.402867   3.516850   3.169499
     8  H    3.357830   2.151220   2.461071   1.106606   2.021731
     9  O    1.149287   2.476845   3.139462   3.450918   3.606353
                    6          7          8          9
     6  N    0.000000
     7  N    1.095305   0.000000
     8  H    4.952155   4.336389   0.000000
     9  O    4.283534   3.358883   4.454026   0.000000
 Stoichiometry    C3H2N2O2
 Framework group  C1[X(C3H2N2O2)]
 Deg. of freedom    21
 Full point group                 C1      NOp   1
 RotChk:  IX=0 Diff= 3.14D-16
 Largest Abelian subgroup         C1      NOp   1
 Largest concise Abelian subgroup C1      NOp   1
                         Standard orientation:                         
 ---------------------------------------------------------------------
 Center     Atomic      Atomic             Coordinates (Angstroms)
 Number     Number       Type             X           Y           Z
 ---------------------------------------------------------------------
      1          6           0       -1.151594    1.016858    0.031812
      2          6           0       -1.558472   -0.113421    0.597069
      3          1           0       -2.275927   -0.048804    1.404320
      4          6           0       -1.041601   -1.401542    0.137347
      5          8           0       -0.239284   -1.565702   -0.758047
      6          7           0        2.931809   -0.068719    0.026288
      7          7           0        1.997734    0.344876    0.421429
      8          1           0       -1.458101   -2.259929    0.697951
      9          8           0       -0.793560    1.986235   -0.471160
 ---------------------------------------------------------------------
 Rotational constants (GHZ):           3.0212334           1.8389980           1.2700650
 Leave Link  202 at Tue Jan 31 21:49:20 2023, MaxMem=  8053063680 cpu:               2.6 elap:               0.1
 (Enter /public3/home/scg5914/software-scg5914/g16/l301.exe)
 Standard basis: 6-311+G(d,p) (5D, 7F)
 Ernie: Thresh=  0.10000D-02 Tol=  0.10000D-05 Strict=F.
 There are   173 symmetry adapted cartesian basis functions of A   symmetry.
 There are   166 symmetry adapted basis functions of A   symmetry.
   166 basis functions,   268 primitive gaussians,   173 cartesian basis functions
    25 alpha electrons       25 beta electrons
       nuclear repulsion energy       236.8825238027 Hartrees.
 IExCor=  402 DFT=T Ex+Corr=B3LYP ExCW=0 ScaHFX=  0.200000
 ScaDFX=  0.800000  0.720000  1.000000  0.810000 ScalE2=  1.000000  1.000000
 IRadAn=      5 IRanWt=     -1 IRanGd=            0 ICorTp=0 IEmpDi=141
 NAtoms=    9 NActive=    9 NUniq=    9 SFac= 1.00D+00 NAtFMM=   60 NAOKFM=F Big=F
 Integral buffers will be    131072 words long.
 Raffenetti 2 integral format.
 Two-electron integral symmetry is turned on.
 R6Disp:  Grimme-D3(BJ) Dispersion energy=       -0.0109783521 Hartrees.
 Nuclear repulsion after empirical dispersion term =      236.8715454505 Hartrees.
 Leave Link  301 at Tue Jan 31 21:49:20 2023, MaxMem=  8053063680 cpu:               1.4 elap:               0.1
 (Enter /public3/home/scg5914/software-scg5914/g16/l302.exe)
 NPDir=0 NMtPBC=     1 NCelOv=     1 NCel=       1 NClECP=     1 NCelD=      1
         NCelK=      1 NCelE2=     1 NClLst=     1 CellRange=     0.0.
 One-electron integrals computed using PRISM.
 One-electron integral symmetry used in STVInt
 NBasis=   166 RedAO= T EigKep=  3.76D-05  NBF=   166
 NBsUse=   166 1.00D-06 EigRej= -1.00D+00 NBFU=   166
 Precomputing XC quadrature grid using
 IXCGrd= 4 IRadAn=           5 IRanWt=          -1 IRanGd=           0 AccXCQ= 0.00D+00.
 Generated NRdTot=       0 NPtTot=           0 NUsed=           0 NTot=          32
 NSgBfM=   173   173   173   173   173 MxSgAt=     9 MxSgA2=     9.
 Leave Link  302 at Tue Jan 31 21:49:21 2023, MaxMem=  8053063680 cpu:              14.9 elap:               0.5
 (Enter /public3/home/scg5914/software-scg5914/g16/l303.exe)
 DipDrv:  MaxL=1.
 Leave Link  303 at Tue Jan 31 21:49:21 2023, MaxMem=  8053063680 cpu:               2.0 elap:               0.1
 (Enter /public3/home/scg5914/software-scg5914/g16/l401.exe)
 Initial guess from the checkpoint file:  "dsgdb9nsd_003895.chk"
 B after Tr=    -0.000000   -0.000000    0.000000
         Rot=    1.000000    0.000000   -0.000000   -0.000000 Ang=   0.00 deg.
 Guess basis will be translated and rotated to current coordinates.
 JPrj=2 DoOrth=T DoCkMO=T.
 Leave Link  401 at Tue Jan 31 21:49:21 2023, MaxMem=  8053063680 cpu:              14.6 elap:               0.5
 (Enter /public3/home/scg5914/software-scg5914/g16/l502.exe)
 Keep R1 ints in memory in canonical form, NReq=128107855.
 FoFCou: FMM=F IPFlag=           0 FMFlag=           0 FMFlg1=           0
         NFxFlg=           0 DoJE=F BraDBF=F KetDBF=F FulRan=T
         wScrn=  0.000000 ICntrl=       600 IOpCl=  0 I1Cent=           0 NGrid=           0
         NMat0=    1 NMatS0=  13861 NMatT0=    0 NMatD0=    1 NMtDS0=    0 NMtDT0=    0
 Symmetry not used in FoFCou.
 Two-electron integral symmetry not used.
 Closed shell SCF:
 Using DIIS extrapolation, IDIIS=  1040.
 NGot=  8053063680 LenX=  7956925807 LenY=  7956895437
 Requested convergence on RMS density matrix=1.00D-08 within 128 cycles.
 Requested convergence on MAX density matrix=1.00D-06.
 Requested convergence on             energy=1.00D-06.
 No special actions if energy rises.

 Cycle   1  Pass 1  IDiag  1:
 E= -375.582678521864    
 DIIS: error= 4.14D-09 at cycle   1 NSaved=   1.
 NSaved= 1 IEnMin= 1 EnMin= -375.582678521864     IErMin= 1 ErrMin= 4.14D-09
 ErrMax= 4.14D-09  0.00D+00 EMaxC= 1.00D-01 BMatC= 2.46D-15 BMatP= 2.46D-15
 IDIUse=1 WtCom= 1.00D+00 WtEn= 0.00D+00
 Coeff-Com:  0.100D+01
 Coeff:      0.100D+01
 Gap=     0.201 Goal=   None    Shift=    0.000
 RMSDP=1.03D-09 MaxDP=4.11D-08              OVMax= 3.14D-08

 SCF Done:  E(RB3LYP) =  -375.582678522     A.U. after    1 cycles
            NFock=  1  Conv=0.10D-08     -V/T= 2.0035
 KE= 3.742817576311D+02 PE=-1.353760533874D+03 EE= 3.670245522705D+02
 Leave Link  502 at Tue Jan 31 21:49:22 2023, MaxMem=  8053063680 cpu:              21.5 elap:               0.8
 (Enter /public3/home/scg5914/software-scg5914/g16/l801.exe)
 DoSCS=F DFT=T ScalE2(SS,OS)=  1.000000  1.000000
 Range of M.O.s used for correlation:     1   166
 NBasis=   166 NAE=    25 NBE=    25 NFC=     0 NFV=     0
 NROrb=    166 NOA=    25 NOB=    25 NVA=   141 NVB=   141

 **** Warning!!: The largest alpha MO coefficient is  0.44781699D+02

 Leave Link  801 at Tue Jan 31 21:49:22 2023, MaxMem=  8053063680 cpu:               0.7 elap:               0.0
 (Enter /public3/home/scg5914/software-scg5914/g16/l1101.exe)
 Using compressed storage, NAtomX=     9.
 Will process     10 centers per pass.
 R6Disp: Adding Grimme-D3(BJ) dispersion energy 1st derivatives to the gradient.
 Leave Link 1101 at Tue Jan 31 21:49:22 2023, MaxMem=  8053063680 cpu:               8.8 elap:               0.3
 (Enter /public3/home/scg5914/software-scg5914/g16/l1102.exe)
 Symmetrizing basis deriv contribution to polar:
 IMax=3 JMax=2 DiffMx= 0.00D+00
 Leave Link 1102 at Tue Jan 31 21:49:23 2023, MaxMem=  8053063680 cpu:               3.7 elap:               0.1
 (Enter /public3/home/scg5914/software-scg5914/g16/l1110.exe)
 Forming Gx(P) for the SCF density, NAtomX=     9.
 Integral derivatives from FoFJK, PRISM(SPDF).
 Do as many integral derivatives as possible in FoFJK.
 G2DrvN: MDV=    8053062635.
 G2DrvN: will do    10 centers at a time, making    1 passes.
 Calling FoFCou, ICntrl=  3107 FMM=F I1Cent=   0 AccDes= 0.00D+00.
 FoFJK:  IHMeth= 1 ICntrl=    3107 DoSepK=F KAlg= 0 I1Cent=           0 FoldK=F
 IRaf=         0 NMat=       1 IRICut=       1 DoRegI=T DoRafI=F ISym2E= 0 IDoP0=0 IntGTp=1.
 FoFCou: FMM=F IPFlag=           0 FMFlag=      100000 FMFlg1=           0
         NFxFlg=           0 DoJE=F BraDBF=F KetDBF=F FulRan=T
         wScrn=  0.000000 ICntrl=      3107 IOpCl=  0 I1Cent=           0 NGrid=           0
         NMat0=    1 NMatS0=      1 NMatT0=    0 NMatD0=    1 NMtDS0=    0 NMtDT0=    0
 Symmetry not used in FoFCou.
 End of G2Drv F.D. properties file   721 does not exist.
 End of G2Drv F.D. properties file   722 does not exist.
 End of G2Drv F.D. properties file   788 does not exist.
 Leave Link 1110 at Tue Jan 31 21:49:27 2023, MaxMem=  8053063680 cpu:             124.1 elap:               3.9
 (Enter /public3/home/scg5914/software-scg5914/g16/l1002.exe)
 Minotr:  Closed shell wavefunction.
          IDoAtm=111111111
          Direct CPHF calculation.
          Differentiating once with respect to electric field.
                with respect to dipole field.
          Differentiating once with respect to nuclear coordinates.
          Requested convergence is 1.0D-08 RMS, and 1.0D-07 maximum.
          Secondary convergence is 1.0D-12 RMS, and 1.0D-12 maximum.
          NewPWx=T KeepS1=F KeepF1=F KeepIn=T MapXYZ=F SortEE=F KeepMc=T.
         2753 words used for storage of precomputed grid.
 Keep R1 ints in memory in canonical form, NReq=128004482.
 FoFCou: FMM=F IPFlag=           0 FMFlag=           0 FMFlg1=           0
         NFxFlg=           0 DoJE=F BraDBF=F KetDBF=F FulRan=T
         wScrn=  0.000000 ICntrl=       600 IOpCl=  0 I1Cent=           0 NGrid=           0
         NMat0=    1 NMatS0=  13861 NMatT0=    0 NMatD0=    1 NMtDS0=    0 NMtDT0=    0
 Symmetry not used in FoFCou.
 Two-electron integral symmetry not used.
          MDV=    8053063680 using IRadAn=       1.
          Solving linear equations simultaneously, MaxMat=       0.
          There are    30 degrees of freedom in the 1st order CPHF.  IDoFFX=6 NUNeed=     3.
     27 vectors produced by pass  0 Test12= 1.18D-14 3.33D-09 XBig12= 8.73D+01 7.07D+00.
 AX will form    27 AO Fock derivatives at one time.
     27 vectors produced by pass  1 Test12= 1.18D-14 3.33D-09 XBig12= 3.02D+01 1.22D+00.
     27 vectors produced by pass  2 Test12= 1.18D-14 3.33D-09 XBig12= 6.15D-01 1.24D-01.
     27 vectors produced by pass  3 Test12= 1.18D-14 3.33D-09 XBig12= 3.02D-03 1.33D-02.
     27 vectors produced by pass  4 Test12= 1.18D-14 3.33D-09 XBig12= 1.13D-05 7.64D-04.
     25 vectors produced by pass  5 Test12= 1.18D-14 3.33D-09 XBig12= 1.82D-08 2.33D-05.
     11 vectors produced by pass  6 Test12= 1.18D-14 3.33D-09 XBig12= 2.09D-11 6.74D-07.
      3 vectors produced by pass  7 Test12= 1.18D-14 3.33D-09 XBig12= 2.82D-14 2.52D-08.
 InvSVY:  IOpt=1 It=  1 EMax= 3.55D-15
 Solved reduced A of dimension   174 with    30 vectors.
 FullF1:  Do perturbations      1 to       3.
 Isotropic polarizability for W=    0.000000       52.25 Bohr**3.
 End of Minotr F.D. properties file   721 does not exist.
 End of Minotr F.D. properties file   722 does not exist.
 End of Minotr F.D. properties file   788 does not exist.
 Leave Link 1002 at Tue Jan 31 21:49:35 2023, MaxMem=  8053063680 cpu:             272.6 elap:               8.6
 (Enter /public3/home/scg5914/software-scg5914/g16/l601.exe)
 Copying SCF densities to generalized density rwf, IOpCl= 0 IROHF=0.

 **********************************************************************

            Population analysis using the SCF Density.

 **********************************************************************

 Orbital symmetries:
       Occupied  (A) (A) (A) (A) (A) (A) (A) (A) (A) (A) (A) (A)
                 (A) (A) (A) (A) (A) (A) (A) (A) (A) (A) (A) (A)
                 (A)
       Virtual   (A) (A) (A) (A) (A) (A) (A) (A) (A) (A) (A) (A)
                 (A) (A) (A) (A) (A) (A) (A) (A) (A) (A) (A) (A)
                 (A) (A) (A) (A) (A) (A) (A) (A) (A) (A) (A) (A)
                 (A) (A) (A) (A) (A) (A) (A) (A) (A) (A) (A) (A)
                 (A) (A) (A) (A) (A) (A) (A) (A) (A) (A) (A) (A)
                 (A) (A) (A) (A) (A) (A) (A) (A) (A) (A) (A) (A)
                 (A) (A) (A) (A) (A) (A) (A) (A) (A) (A) (A) (A)
                 (A) (A) (A) (A) (A) (A) (A) (A) (A) (A) (A) (A)
                 (A) (A) (A) (A) (A) (A) (A) (A) (A) (A) (A) (A)
                 (A) (A) (A) (A) (A) (A) (A) (A) (A) (A) (A) (A)
                 (A) (A) (A) (A) (A) (A) (A) (A) (A) (A) (A) (A)
                 (A) (A) (A) (A) (A) (A) (A) (A) (A)
 The electronic state is 1-A.
 Alpha  occ. eigenvalues --  -19.23641 -19.12614 -14.41697 -14.41520 -10.33914
 Alpha  occ. eigenvalues --  -10.28183 -10.21498  -1.17252  -1.13220  -1.05968
 Alpha  occ. eigenvalues --   -0.82972  -0.66050  -0.56490  -0.55514  -0.54183
 Alpha  occ. eigenvalues --   -0.50318  -0.49988  -0.47218  -0.46891  -0.46748
 Alpha  occ. eigenvalues --   -0.43844  -0.43378  -0.41024  -0.28141  -0.27844
 Alpha virt. eigenvalues --   -0.07719  -0.06312  -0.03058  -0.02852  -0.00603
 Alpha virt. eigenvalues --    0.02006   0.03766   0.04536   0.06097   0.06256
 Alpha virt. eigenvalues --    0.06969   0.07916   0.08479   0.08839   0.10972
 Alpha virt. eigenvalues --    0.11588   0.11743   0.13252   0.14068   0.14177
 Alpha virt. eigenvalues --    0.16851   0.18082   0.18496   0.20686   0.21090
 Alpha virt. eigenvalues --    0.21753   0.23277   0.24955   0.26670   0.26910
 Alpha virt. eigenvalues --    0.27719   0.29419   0.30732   0.31476   0.32390
 Alpha virt. eigenvalues --    0.34363   0.35739   0.40281   0.47697   0.48646
 Alpha virt. eigenvalues --    0.50393   0.54326   0.56311   0.57450   0.58915
 Alpha virt. eigenvalues --    0.59327   0.63171   0.70408   0.70973   0.73281
 Alpha virt. eigenvalues --    0.74388   0.74721   0.77008   0.79926   0.83211
 Alpha virt. eigenvalues --    0.84910   0.85507   0.86919   0.90636   0.93442
 Alpha virt. eigenvalues --    0.97565   1.04392   1.05102   1.08874   1.11479
 Alpha virt. eigenvalues --    1.13187   1.15447   1.16656   1.21030   1.21776
 Alpha virt. eigenvalues --    1.24023   1.24988   1.30314   1.36447   1.47276
 Alpha virt. eigenvalues --    1.54386   1.59980   1.60729   1.67547   1.68200
 Alpha virt. eigenvalues --    1.69997   1.70587   1.71354   1.75388   1.75596
 Alpha virt. eigenvalues --    1.77903   1.82065   1.96031   1.98672   2.01833
 Alpha virt. eigenvalues --    2.16560   2.16986   2.21646   2.34145   2.42708
 Alpha virt. eigenvalues --    2.52509   2.57721   2.58939   2.61424   2.64155
 Alpha virt. eigenvalues --    2.70416   2.77634   2.77920   2.78229   2.83095
 Alpha virt. eigenvalues --    2.86577   2.87100   2.90566   2.92292   2.94835
 Alpha virt. eigenvalues --    3.06062   3.17479   3.28330   3.33919   3.44060
 Alpha virt. eigenvalues --    3.47015   3.47311   3.60583   3.68680   3.69985
 Alpha virt. eigenvalues --    3.72041   3.84538   3.88261   3.96594   3.97006
 Alpha virt. eigenvalues --    4.15359   4.24370   4.54823   4.99386   5.02590
 Alpha virt. eigenvalues --    5.03193   5.13266   5.61401   5.71372  23.67909
 Alpha virt. eigenvalues --   23.88115  24.59057  35.07116  36.30070  49.96443
 Alpha virt. eigenvalues --   50.00791
          Condensed to atoms (all electrons):
               1          2          3          4          5          6
     1  C    5.734771  -0.276876  -0.014941   0.123772   0.108172  -0.031680
     2  C   -0.276876   6.447658   0.367285  -0.190982  -0.248682   0.015453
     3  H   -0.014941   0.367285   0.457665   0.002348   0.006043  -0.000090
     4  C    0.123772  -0.190982   0.002348   5.226939   0.399141   0.000493
     5  O    0.108172  -0.248682   0.006043   0.399141   8.083211  -0.004223
     6  N   -0.031680   0.015453  -0.000090   0.000493  -0.004223   6.149406
     7  N    0.011902  -0.005334   0.000113   0.012318  -0.003326   0.778089
     8  H    0.048767  -0.218005  -0.002563   0.465674  -0.046566  -0.001541
     9  O    0.155742   0.056623   0.001786   0.006121   0.003017  -0.002674
               7          8          9
     1  C    0.011902   0.048767   0.155742
     2  C   -0.005334  -0.218005   0.056623
     3  H    0.000113  -0.002563   0.001786
     4  C    0.012318   0.465674   0.006121
     5  O   -0.003326  -0.046566   0.003017
     6  N    0.778089  -0.001541  -0.002674
     7  N    6.296007   0.000633  -0.001553
     8  H    0.000633   0.635177   0.000282
     9  O   -0.001553   0.000282   7.939688
 Mulliken charges:
               1
     1  C    0.140371
     2  C    0.052861
     3  H    0.182353
     4  C   -0.045825
     5  O   -0.296788
     6  N    0.096768
     7  N   -0.088849
     8  H    0.118142
     9  O   -0.159032
 Sum of Mulliken charges =  -0.00000
 Mulliken charges with hydrogens summed into heavy atoms:
               1
     1  C    0.140371
     2  C    0.235214
     4  C    0.072316
     5  O   -0.296788
     6  N    0.096768
     7  N   -0.088849
     9  O   -0.159032
 APT charges:
               1
     1  C    1.061936
     2  C   -0.761436
     3  H    0.126851
     4  C    1.005276
     5  O   -0.708069
     6  N    0.000358
     7  N   -0.000337
     8  H   -0.051110
     9  O   -0.673468
 Sum of APT charges =  -0.00000
 APT charges with hydrogens summed into heavy atoms:
               1
     1  C    1.061936
     2  C   -0.634585
     4  C    0.954166
     5  O   -0.708069
     6  N    0.000358
     7  N   -0.000337
     9  O   -0.673468
 Electronic spatial extent (au):  <R**2>=            862.9858
 Charge=             -0.0000 electrons
 Dipole moment (field-independent basis, Debye):
    X=             -2.2990    Y=              0.7655    Z=              2.5469  Tot=              3.5154
 Quadrupole moment (field-independent basis, Debye-Ang):
   XX=            -35.5990   YY=            -41.3392   ZZ=            -39.1106
   XY=              1.6450   XZ=             -2.1285   YZ=             -2.3737
 Traceless Quadrupole moment (field-independent basis, Debye-Ang):
   XX=              3.0839   YY=             -2.6563   ZZ=             -0.4277
   XY=              1.6450   XZ=             -2.1285   YZ=             -2.3737
 Octapole moment (field-independent basis, Debye-Ang**2):
  XXX=             -7.5136  YYY=              0.3447  ZZZ=             -1.8447  XYY=             -2.2410
  XXY=              2.7833  XXZ=              6.2660  XZZ=             -0.8573  YZZ=              2.8147
  YYZ=              7.2058  XYZ=             -0.4571
 Hexadecapole moment (field-independent basis, Debye-Ang**3):
 XXXX=           -672.9456 YYYY=           -376.7072 ZZZZ=            -92.2518 XXXY=              3.6105
 XXXZ=             -1.9214 YYYX=              6.3087 YYYZ=             -6.6413 ZZZX=             -0.6216
 ZZZY=             -2.2800 XXYY=           -158.9000 XXZZ=           -112.9828 YYZZ=            -79.1173
 XXYZ=             -0.7597 YYXZ=             -3.8154 ZZXY=             -1.1249
 N-N= 2.368715454505D+02 E-N=-1.353760534023D+03  KE= 3.742817576311D+02
  Exact polarizability:      47.978      -0.569      66.610     -10.155      -3.755      42.167
 Approx polarizability:      70.948      -1.848     109.979     -22.102      -8.160      65.340
 No NMR shielding tensors so no spin-rotation constants.
 Leave Link  601 at Tue Jan 31 21:49:35 2023, MaxMem=  8053063680 cpu:               7.1 elap:               0.2
 (Enter /public3/home/scg5914/software-scg5914/g16/l701.exe)
 ... and contract with generalized density number  0.
 Compute integral second derivatives.
 R6Disp: Adding Grimme-D3(BJ) dispersion energy 2nd derivatives to the Hessian.
 Leave Link  701 at Tue Jan 31 21:49:36 2023, MaxMem=  8053063680 cpu:               8.5 elap:               0.3
 (Enter /public3/home/scg5914/software-scg5914/g16/l702.exe)
 L702 exits ... SP integral derivatives will be done elsewhere.
 Leave Link  702 at Tue Jan 31 21:49:36 2023, MaxMem=  8053063680 cpu:               0.6 elap:               0.0
 (Enter /public3/home/scg5914/software-scg5914/g16/l703.exe)
 Integral derivatives from FoFJK, PRISM(SPDF).
 Compute integral second derivatives, UseDBF=F ICtDFT=           0.
 Calling FoFJK, ICntrl=    100127 FMM=F ISym2X=0 I1Cent= 0 IOpClX= 0 NMat=1 NMatS=1 NMatT=0.
[...]
   6. BD (   1) C   2 - C   4        /155. BD*(   1) C   1 - C   2            2.20    1.31    0.048
   6. BD (   1) C   2 - C   4        /157. BD*(   1) C   1 - O   9            5.30    1.40    0.077
   6. BD (   1) C   2 - C   4        /158. BD*(   2) C   1 - O   9            4.85    0.70    0.053
   6. BD (   1) C   2 - C   4        /159. BD*(   1) C   2 - H   3            1.11    1.09    0.031
   6. BD (   1) C   2 - C   4        /161. BD*(   1) C   4 - O   5            0.77    1.31    0.029
   7. BD (   1) C   4 - O   5        / 65. RY*(   1) C   4                    1.29    2.13    0.047
   7. BD (   1) C   4 - O   5        /159. BD*(   1) C   2 - H   3            0.78    1.47    0.030
   7. BD (   1) C   4 - O   5        /160. BD*(   1) C   2 - C   4            0.97    1.52    0.035
   8. BD (   2) C   4 - O   5        /156. BD*(   2) C   1 - C   2            3.39    0.38    0.035
   9. BD (   1) C   4 - H   8        / 82. RY*(   1) O   5                    1.42    1.25    0.038
   9. BD (   1) C   4 - H   8        /155. BD*(   1) C   1 - C   2            3.48    1.15    0.056
  13. CR (   1) C   1                / 46. RY*(   4) C   2                    1.76   11.71    0.128
  13. CR (   1) C   1                /141. RY*(   4) O   9                    0.84   11.46    0.088
  13. CR (   1) C   1                /155. BD*(   1) C   1 - C   2            0.60   10.80    0.072
  13. CR (   1) C   1                /160. BD*(   1) C   2 - C   4            0.56   10.64    0.070
  14. CR (   1) C   2                / 26. RY*(   1) C   1                    2.16   11.05    0.138
  14. CR (   1) C   2                / 60. RY*(   1) H   3                    0.84   11.67    0.089
  14. CR (   1) C   2                / 66. RY*(   2) C   4                    0.66   11.50    0.078
  14. CR (   1) C   2                / 68. RY*(   4) C   4                    0.54   11.19    0.069
  14. CR (   1) C   2                /157. BD*(   1) C   1 - O   9            4.81   10.78    0.204
  15. CR (   1) C   4                / 46. RY*(   4) C   2                    0.62   11.66    0.076
  15. CR (   1) C   4                / 85. RY*(   4) O   5                    0.58   11.39    0.073
  16. CR (   1) O   5                / 65. RY*(   1) C   4                    6.13   19.92    0.313
  16. CR (   1) O   5                /160. BD*(   1) C   2 - C   4            0.60   19.30    0.097
  19. CR (   1) O   9                / 26. RY*(   1) C   1                    6.68   19.92    0.327
  19. CR (   1) O   9                /155. BD*(   1) C   1 - C   2            2.54   19.55    0.200
  20. LP (   1) O   5                / 65. RY*(   1) C   4                   14.99    1.76    0.145
  20. LP (   1) O   5                /160. BD*(   1) C   2 - C   4            1.34    1.14    0.035
  20. LP (   1) O   5                /163. BD*(   1) C   4 - H   8            0.76    1.05    0.026
  21. LP (   2) O   5                / 66. RY*(   2) C   4                    3.27    1.70    0.069
  21. LP (   2) O   5                / 79. RY*(  15) C   4                    0.69    1.18    0.026
  21. LP (   2) O   5                /158. BD*(   2) C   1 - O   9            0.55    0.27    0.011
  21. LP (   2) O   5                /160. BD*(   1) C   2 - C   4           19.33    0.71    0.106
  21. LP (   2) O   5                /163. BD*(   1) C   4 - H   8           22.88    0.62    0.108
  24. LP (   1) O   9                / 26. RY*(   1) C   1                   17.29    1.75    0.155
  24. LP (   1) O   9                / 39. RY*(  14) C   1                    0.64    2.89    0.039
  24. LP (   1) O   9                /139. RY*(   2) O   9                    1.01    2.14    0.042
  24. LP (   1) O   9                /155. BD*(   1) C   1 - C   2            7.80    1.38    0.093
  25. LP (   2) O   9                / 27. RY*(   2) C   1                    7.31    2.11    0.122
  25. LP (   2) O   9                /138. RY*(   1) O   9                    1.62    0.91    0.038
  25. LP (   2) O   9                /156. BD*(   2) C   1 - C   2          107.19    0.35    0.173
 156. BD*(   2) C   1 - C   2        / 27. RY*(   2) C   1                    0.63    1.76    0.073
 156. BD*(   2) C   1 - C   2        / 30. RY*(   5) C   1                    0.52    1.12    0.053
 156. BD*(   2) C   1 - C   2        / 31. RY*(   6) C   1                    0.68    1.40    0.068
 156. BD*(   2) C   1 - C   2        / 44. RY*(   2) C   2                    0.61    0.71    0.045
 156. BD*(   2) C   1 - C   2        /138. RY*(   1) O   9                    1.41    0.56    0.062
 162. BD*(   2) C   4 - O   5        / 67. RY*(   3) C   4                    0.85    1.56    0.110
 162. BD*(   2) C   4 - O   5        / 70. RY*(   6) C   4                    1.22    0.56    0.079
 162. BD*(   2) C   4 - O   5        / 83. RY*(   2) O   5                    1.23    0.62    0.083

 from unit  1 to unit  2
   8. BD (   2) C   4 - O   5        /165. BD*(   2) N   6 - N   7            0.08    0.47    0.005
  21. LP (   2) O   5                /165. BD*(   2) N   6 - N   7            0.06    0.35    0.004

 from unit  2 to unit  1
  12. BD (   3) N   6 - N   7        / 30. RY*(   5) C   1                    0.05    2.31    0.010
  12. BD (   3) N   6 - N   7        / 83. RY*(   2) O   5                    0.07    1.82    0.010
  23. LP (   1) N   7                /156. BD*(   2) C   1 - C   2            0.13    0.62    0.009
  23. LP (   1) N   7                /158. BD*(   2) C   1 - O   9            0.08    0.63    0.006

 within unit  2
  12. BD (   3) N   6 - N   7        /116. RY*(   1) N   7                    0.56    1.93    0.029
  17. CR (   1) N   6                /116. RY*(   1) N   7                    4.17   14.92    0.223
  18. CR (   1) N   7                / 99. RY*(   1) N   6                    4.18   15.06    0.224
  22. LP (   1) N   6                /116. RY*(   1) N   7                    8.93    1.35    0.098
  22. LP (   1) N   6                /125. RY*(  10) N   7                    0.86    4.13    0.053
  23. LP (   1) N   7                / 99. RY*(   1) N   6                    8.06    1.49    0.098


 Natural Bond Orbitals (Summary):

                                                            Principal Delocalizations
           NBO                        Occupancy    Energy   (geminal,vicinal,remote)
 ====================================================================================
 Molecular unit  1  (C3H2O2)
     1. BD (   1) C   1 - C   2          1.98909    -0.84766  157(g),65(v),139(v),160(g)
                                                    163(v),159(g),69(v)
     2. BD (   2) C   1 - C   2          1.84894    -0.32762  162(v),156(g),138(v),67(v)
     3. BD (   1) C   1 - O   9          1.99788    -1.25915  155(g),26(g)
     4. BD (   2) C   1 - O   9          1.99121    -0.48606  159(v),160(v)
     5. BD (   1) C   2 - H   3          1.94631    -0.56797  158(v),157(v),161(v),28(v)
                                                    68(v),155(g),26(v),159(g)
     6. BD (   1) C   2 - C   4          1.95992    -0.70928  157(v),158(v),155(g),159(g)
                                                    82(v),28(v),26(v),161(g)
     7. BD (   1) C   4 - O   5          1.99700    -1.08733  65(g),160(g),159(v)
     8. BD (   2) C   4 - O   5          1.98848    -0.39478  156(v),165(r)
     9. BD (   1) C   4 - H   8          1.98191    -0.55353  155(v),82(v)
    13. CR (   1) C   1                  1.99922   -10.20794  46(v),141(v),155(g),160(v)
    14. CR (   1) C   2                  1.99896   -10.08557  157(v),26(v),60(v),66(v)
                                                    68(v)
    15. CR (   1) C   4                  1.99947   -10.16022  46(v),85(v)
    16. CR (   1) O   5                  1.99976   -18.86824  65(v),160(v)
    19. CR (   1) O   9                  1.99972   -18.95704  26(v),155(v)
    20. LP (   1) O   5                  1.98391    -0.71029  65(v),160(v),163(v)
    21. LP (   2) O   5                  1.87174    -0.27859  163(v),160(v),66(v),79(v)
                                                    158(r),165(r)
    24. LP (   1) O   9                  1.97992    -0.78432  26(v),155(v),139(g),39(v)
    25. LP (   2) O   9                  1.64237    -0.35719  156(v),27(v),138(g)
    26. RY*(   1) C   1                  0.01606     0.96522   
    27. RY*(   2) C   1                  0.00768     1.74863   
    28. RY*(   3) C   1                  0.00536     1.00310   
    29. RY*(   4) C   1                  0.00101     1.55264   
    30. RY*(   5) C   1                  0.00020     1.10517   
    31. RY*(   6) C   1                  0.00015     1.39062   
    32. RY*(   7) C   1                  0.00014     1.50543   
    33. RY*(   8) C   1                  0.00008     3.62476   
    34. RY*(   9) C   1                  0.00008     4.59149   
    35. RY*(  10) C   1                  0.00004     1.22674   
    36. RY*(  11) C   1                  0.00003     2.13259   
    37. RY*(  12) C   1                  0.00000     2.34700   
    38. RY*(  13) C   1                  0.00001     7.20604   
    39. RY*(  14) C   1                  0.00000     2.10327   
    40. RY*(  15) C   1                  0.00000     8.75738   
    41. RY*(  16) C   1                  0.00000     2.44631   
    42. RY*(  17) C   1                  0.00000     0.87559   
    43. RY*(   1) C   2                  0.00248     0.72244   
    44. RY*(   2) C   2                  0.00194     0.69466   
    45. RY*(   3) C   2                  0.00166     1.02670   
    46. RY*(   4) C   2                  0.00067     1.50099   
    47. RY*(   5) C   2                  0.00042     0.96674   
    48. RY*(   6) C   2                  0.00019     1.81671   
    49. RY*(   7) C   2                  0.00015     1.73575   
    50. RY*(   8) C   2                  0.00011     1.66630   
    51. RY*(   9) C   2                  0.00005     4.65750   
    52. RY*(  10) C   2                  0.00002     2.06230   
    53. RY*(  11) C   2                  0.00001     1.48071   
    54. RY*(  12) C   2                  0.00000     2.11054   
    55. RY*(  13) C   2                  0.00001     0.47044   
    56. RY*(  14) C   2                  0.00000     2.05769   
    57. RY*(  15) C   2                  0.00000     2.56800   
    58. RY*(  16) C   2                  0.00000    19.72058   
    59. RY*(  17) C   2                  0.00000     1.67557   
    60. RY*(   1) H   3                  0.00065     1.58369   
    61. RY*(   2) H   3                  0.00025     1.45820   
    62. RY*(   3) H   3                  0.00025     1.52311   
    63. RY*(   4) H   3                  0.00008     2.06234   
    64. RY*(   5) H   3                  0.00003     2.04849   
    65. RY*(   1) C   4                  0.01239     1.04748   
    66. RY*(   2) C   4                  0.00758     1.41788   
    67. RY*(   3) C   4                  0.00251     1.55607   
    68. RY*(   4) C   4                  0.00228     1.10002   
    69. RY*(   5) C   4                  0.00046     2.46631   
    70. RY*(   6) C   4                  0.00009     0.55409   
    71. RY*(   7) C   4                  0.00007     1.86748   
    72. RY*(   8) C   4                  0.00004     1.17539   
    73. RY*(   9) C   4                  0.00002     3.70816   
    74. RY*(  10) C   4                  0.00000     2.27843   
    75. RY*(  11) C   4                  0.00001     0.68823   
    76. RY*(  12) C   4                  0.00000     2.27491   
    77. RY*(  13) C   4                  0.00000     1.66787   
    78. RY*(  14) C   4                  0.00001     2.89885   
    79. RY*(  15) C   4                  0.00000     0.90224   
    80. RY*(  16) C   4                  0.00000     1.64016   
    81. RY*(  17) C   4                  0.00000    18.41599   
    82. RY*(   1) O   5                  0.00480     0.69465   
    83. RY*(   2) O   5                  0.00120     0.60941   
    84. RY*(   3) O   5                  0.00058     0.49040   
    85. RY*(   4) O   5                  0.00012     1.22908   
    86. RY*(   5) O   5                  0.00005     1.57108   
    87. RY*(   6) O   5                  0.00002     1.30929   
    88. RY*(   7) O   5                  0.00001     1.33894   
    89. RY*(   8) O   5                  0.00000    49.42653   
    90. RY*(   9) O   5                  0.00000     4.95943   
    91. RY*(  10) O   5                  0.00001     5.09570   
    92. RY*(  11) O   5                  0.00001     0.94901   
    93. RY*(  12) O   5                  0.00001     5.03395   
    94. RY*(  13) O   5                  0.00000     2.93119   
    95. RY*(  14) O   5                  0.00000     3.20650   
    96. RY*(  15) O   5                  0.00000     2.82364   
    97. RY*(  16) O   5                  0.00000     2.85988   
    98. RY*(  17) O   5                  0.00000     3.02767   
   133. RY*(   1) H   8                  0.00227     0.50510   
   134. RY*(   2) H   8                  0.00021     2.16691   
   135. RY*(   3) H   8                  0.00010     2.19268   
   136. RY*(   4) H   8                  0.00007     1.57748   
   137. RY*(   5) H   8                  0.00004     2.19038   
   138. RY*(   1) O   9                  0.00369     0.55035   
   139. RY*(   2) O   9                  0.00155     1.35674   
   140. RY*(   3) O   9                  0.00057     0.55235   
   141. RY*(   4) O   9                  0.00015     1.25018   
   142. RY*(   5) O   9                  0.00007     1.02344   
   143. RY*(   6) O   9                  0.00002     1.35510   
   144. RY*(   7) O   9                  0.00001     4.78403   
   145. RY*(   8) O   9                  0.00000     1.31006   
   146. RY*(   9) O   9                  0.00000    49.52735   
   147. RY*(  10) O   9                  0.00001     1.30141   
   148. RY*(  11) O   9                  0.00000     4.54739   
   149. RY*(  12) O   9                  0.00000     4.95566   
   150. RY*(  13) O   9                  0.00000     3.07702   
   151. RY*(  14) O   9                  0.00000     2.80967   
   152. RY*(  15) O   9                  0.00000     3.04748   
   153. RY*(  16) O   9                  0.00000     3.00188   
   154. RY*(  17) O   9                  0.00000     2.85018   
   155. BD*(   1) C   1 - C   2          0.01629     0.59616   
   156. BD*(   2) C   1 - C   2          0.32859    -0.01046  162(v),138(v),31(g),27(g)
                                                    44(g),30(g)
   157. BD*(   1) C   1 - O   9          0.01290     0.68995   
   158. BD*(   2) C   1 - O   9          0.07116    -0.00753   
   159. BD*(   1) C   2 - H   3          0.01100     0.38487   
   160. BD*(   1) C   2 - C   4          0.05760     0.43150   
   161. BD*(   1) C   4 - O   5          0.00524     0.59584   
   162. BD*(   2) C   4 - O   5          0.17344    -0.00682  156(v),70(g),83(g),67(g)
   163. BD*(   1) C   4 - H   8          0.06587     0.34267   
       -------------------------------
              Total Lewis   35.17582  ( 97.7141%)
        Valence non-Lewis    0.74207  (  2.0614%)
        Rydberg non-Lewis    0.08083  (  0.2245%)
       -------------------------------
            Total unit  1   35.99872  (100.0000%)
           Charge unit  1    0.00128
 
 Molecular unit  2  (N2)
    10. BD (   1) N   6 - N   7          1.99990    -0.48558   
    11. BD (   2) N   6 - N   7          1.99972    -0.50884   
    12. BD (   3) N   6 - N   7          1.99953    -1.20827  116(g),83(r),30(r)
    17. CR (   1) N   6                  1.99969   -14.19933  116(v)
    18. CR (   1) N   7                  1.99967   -14.20073  99(v)
    22. LP (   1) N   6                  1.99157    -0.63223  116(v),125(v)
    23. LP (   1) N   7                  1.99172    -0.63465  99(v),156(r),158(r)
    99. RY*(   1) N   6                  0.00685     0.85897   
   100. RY*(   2) N   6                  0.00021     0.44898   
   101. RY*(   3) N   6                  0.00008     1.19589   
   102. RY*(   4) N   6                  0.00006     0.59251   
   103. RY*(   5) N   6                  0.00003     0.64657   
   104. RY*(   6) N   6                  0.00001     3.20937   
   105. RY*(   7) N   6                  0.00001     1.05409   
   106. RY*(   8) N   6                  0.00000    34.95414   
   107. RY*(   9) N   6                  0.00000     3.59884   
   108. RY*(  10) N   6                  0.00000     1.45787   
   109. RY*(  11) N   6                  0.00000     1.43303   
   110. RY*(  12) N   6                  0.00000     2.87759   
   111. RY*(  13) N   6                  0.00000     2.12085   
   112. RY*(  14) N   6                  0.00000     2.20419   
   113. RY*(  15) N   6                  0.00000     1.97669   
   114. RY*(  16) N   6                  0.00000     2.17406   
   115. RY*(  17) N   6                  0.00000     2.00699   
   116. RY*(   1) N   7                  0.00847     0.71678   
   117. RY*(   2) N   7                  0.00108     0.71889   
   118. RY*(   3) N   7                  0.00033     0.47517   
   119. RY*(   4) N   7                  0.00016     0.73828   
   120. RY*(   5) N   7                  0.00012     0.96099   
   121. RY*(   6) N   7                  0.00005     1.32291   
   122. RY*(   7) N   7                  0.00005     1.17182   
   123. RY*(   8) N   7                  0.00001     0.78979   
   124. RY*(   9) N   7                  0.00000     3.47874   
   125. RY*(  10) N   7                  0.00001     3.49486   
   126. RY*(  11) N   7                  0.00000    35.11361   
   127. RY*(  12) N   7                  0.00000     3.76311   
   128. RY*(  13) N   7                  0.00000     2.01654   
   129. RY*(  14) N   7                  0.00000     2.18125   
   130. RY*(  15) N   7                  0.00000     1.99993   
   131. RY*(  16) N   7                  0.00001     2.20781   
   132. RY*(  17) N   7                  0.00000     2.05790   
   164. BD*(   1) N   6 - N   7          0.00042     0.04170   
   165. BD*(   2) N   6 - N   7          0.00124     0.07113   
   166. BD*(   3) N   6 - N   7          0.00026     0.86283   
       -------------------------------
              Total Lewis   13.98180  ( 99.8609%)
        Valence non-Lewis    0.00191  (  0.0137%)
        Rydberg non-Lewis    0.01756  (  0.1254%)
       -------------------------------
            Total unit  2   14.00127  (100.0000%)
           Charge unit  2   -0.00127
 Leave Link  607 at Tue Jan 31 21:49:47 2023, MaxMem=  8053063680 cpu:              47.0 elap:               1.5
 (Enter /public3/home/scg5914/software-scg5914/g16/l9999.exe)
 Unable to Open any file for archive entry.
 1\1\GINC-F0708\SP\RB3LYP\Gen\C3H2N2O2\SCG5914\31-Jan-2023\0\\#p b3lyp/
 chkbas pop=nbo geom=allcheck guess=tcheck em=gd3bj\\dsgdb9nsd_003895.g
 jf\\0,1\C,0,-1.151594,1.016858,0.031812\C,0,-1.558472,-0.113421,0.5970
 69\H,0,-2.275927,-0.048804,1.40432\C,0,-1.041601,-1.401542,0.137347\O,
 0,-0.239284,-1.565702,-0.758047\N,0,2.931809,-0.068719,0.026288\N,0,1.
 997734,0.344876,0.421429\H,0,-1.458101,-2.259929,0.697951\O,0,-0.79356
 ,1.986235,-0.47116\\Version=ES64L-G16RevC.01\State=1-A\HF=-375.5826785
 \RMSD=1.019e-09\Dipole=-0.9045101,0.3011526,1.0020363\Quadrupole=2.292
 8206,-1.9748691,-0.3179515,1.2229864,-1.5825176,-1.7648201\PG=C01 [X(C
 3H2N2O2)]\\@
 The archive entry for this job was punched.


 THE WISE MAN HAS THE POWER TO REASON AWAY
 WHAT A FOOL BELIEVES.
                     - DOOBIE BROTHERS
 Job cpu time:       0 days  0 hours  1 minutes 40.4 seconds.
 Elapsed time:       0 days  0 hours  0 minutes  3.5 seconds.
 File lengths (MBytes):  RWF=     14 Int=      0 D2E=      0 Chk=      3 Scr=      1
 Normal termination of Gaussian 16 at Tue Jan 31 21:49:47 2023.
