 Entering Gaussian System, Link 0=/public3/home/scg5914/software-scg5914/g16/g16
 Input=dsgdb9nsd_009986.gjf
 Output=dsgdb9nsd_009986.log
 Initial command:
 /public3/home/scg5914/software-scg5914/g16/l1.exe "/public3/home/scg5914/software-scg5914/test/tmp/dsgdb9nsd_009986/Gau-97483.inp" -scrdir="/public3/home/scg5914/software-scg5914/test/tmp/dsgdb9nsd_009986/"
 Entering Link 1 = /public3/home/scg5914/software-scg5914/g16/l1.exe PID=     97484.
  
 Copyright (c) 1988-2019, Gaussian, Inc.  All Rights Reserved.
  
 This is part of the Gaussian(R) 16 program.  It is based on
 the Gaussian(R) 09 system (copyright 2009, Gaussian, Inc.),
 the Gaussian(R) 03 system (copyright 2003, Gaussian, Inc.),
 the Gaussian(R) 98 system (copyright 1998, Gaussian, Inc.),
 the Gaussian(R) 94 system (copyright 1995, Gaussian, Inc.),
 the Gaussian 92(TM) system (copyright 1992, Gaussian, Inc.),
 the Gaussian 90(TM) system (copyright 1990, Gaussian, Inc.),
 the Gaussian 88(TM) system (copyright 1988, Gaussian, Inc.),
 the Gaussian 86(TM) system (copyright 1986, Carnegie Mellon
 University), and the Gaussian 82(TM) system (copyright 1983,
 Carnegie Mellon University). Gaussian is a federally registered
 trademark of Gaussian, Inc.
  
 This software contains proprietary and confidential information,
 including trade secrets, belonging to Gaussian, Inc.
  
 This software is provided under written license and may be
 used, copied, transmitted, or stored only in accord with that
 written license.
  
 The following legend is applicable only to US Government
 contracts under FAR:
  
                    RESTRICTED RIGHTS LEGEND
  
 Use, reproduction and disclosure by the US Government is
 subject to restrictions as set forth in subparagraphs (a)
 and (c) of the Commercial Computer Software - Restricted
 Rights clause in FAR 52.227-19.
  
 Gaussian, Inc.
 340 Quinnipiac St., Bldg. 40, Wallingford CT 06492
  
  
 ---------------------------------------------------------------
 Warning -- This program may not be used in any manner that
 competes with the business of Gaussian, Inc. or will provide
 assistance to any competitor of Gaussian, Inc.  The licensee
 of this program is prohibited from giving any competitor of
 Gaussian, Inc. access to this program.  By using this program,
 the user acknowledges that Gaussian, Inc. is engaged in the
 business of creating and licensing software in the field of
 computational chemistry and represents and warrants to the
 licensee that it is not a competitor of Gaussian, Inc. and that
 it will not use this program in any manner prohibited above.
 ---------------------------------------------------------------
  

 Cite this work as:
 Gaussian 16, Revision C.01,
 M. J. Frisch, G. W. Trucks, H. B. Schlegel, G. E. Scuseria, 
 M. A. Robb, J. R. Cheeseman, G. Scalmani, V. Barone, 
 G. A. Petersson, H. Nakatsuji, X. Li, M. Caricato, A. V. Marenich, 
 J. Bloino, B. G. Janesko, R. Gomperts, B. Mennucci, H. P. Hratchian, 
 J. V. Ortiz, A. F. Izmaylov, J. L. Sonnenberg, D. Williams-Young, 
 F. Ding, F. Lipparini, F. Egidi, J. Goings, B. Peng, A. Petrone, 
 T. Henderson, D. Ranasinghe, V. G. Zakrzewski, J. Gao, N. Rega, 
 G. Zheng, W. Liang, M. Hada, M. Ehara, K. Toyota, R. Fukuda, 
 J. Hasegawa, M. Ishida, T. Nakajima, Y. Honda, O. Kitao, H. Nakai, 
 T. Vreven, K. Throssell, J. A. Montgomery, Jr., J. E. Peralta, 
 F. Ogliaro, M. J. Bearpark, J. J. Heyd, E. N. Brothers, K. N. Kudin, 
 V. N. Staroverov, T. A. Keith, R. Kobayashi, J. Normand, 
 K. Raghavachari, A. P. Rendell, J. C. Burant, S. S. Iyengar, 
 J. Tomasi, M. Cossi, J. M. Millam, M. Klene, C. Adamo, R. Cammi, 
 J. W. Ochterski, R. L. Martin, K. Morokuma, O. Farkas, 
 J. B. Foresman, and D. J. Fox, Gaussian, Inc., Wallingford CT, 2019.
 
 ******************************************
 Gaussian 16:  ES64L-G16RevC.01  3-Jul-2019
                16-Oct-2022 
 ******************************************
 %chk=dsgdb9nsd_009986.chk
 %mem=60GB
 %nprocshared=32
 Will use up to   32 processors via shared memory.
 ------------------------------------
 #p opt freq b3lyp/6-311+g** em=gd3bj
 ------------------------------------
 1/18=20,19=15,26=3,38=1/1,3;
 2/9=110,12=2,17=6,18=5,40=1/2;
 3/5=4,6=6,7=111,11=2,25=1,30=1,71=1,74=-5,124=41/1,2,3;
 4//1;
 5/5=2,38=5/2;
 6/7=2,8=2,9=2,10=2,28=1/1;
 7//1,2,3,16;
 1/18=20,19=15,26=3/3(2);
 2/9=110/2;
 99//99;
 2/9=110/2;
 3/5=4,6=6,7=111,11=2,25=1,30=1,71=1,74=-5,124=41/1,2,3;
 4/5=5,16=3,69=1/1;
 5/5=2,38=5/2;
 7//1,2,3,16;
 1/18=20,19=15,26=3/3(-5);
 2/9=110/2;
 6/7=2,8=2,9=2,10=2,19=2,28=1/1;
 99/9=1/99;
 Leave Link    1 at Sun Oct 16 05:44:45 2022, MaxMem=  8053063680 cpu:               0.9 elap:               0.0
 (Enter /public3/home/scg5914/software-scg5914/g16/l101.exe)
 ----------------
 dsgdb9nsd_009986
 ----------------
 Symbolic Z-matrix:
 Charge =  0 Multiplicity = 1
 N                     0.03045   0.87246   0.11149 
 H                     0.03455  -0.11882  -0.07663 
 H                     0.86774   1.35474  -0.17208 
 C                    -1.13498   1.57018   0.0274 
 N                    -2.31718   1.01892   0.03234 
 C                    -3.58459   1.64885   0.03398 
 C                    -3.60191   3.04213   0.03975 
 N                    -3.49802   4.20399   0.04363 
 C                    -4.6982    0.80822   0.01325 
 N                    -5.59086   0.05865  -0.00312 
 H                    -1.08501   2.65191   0.01797 
 H                    -2.37593   0.00616   0.04854 
 
 ITRead=  0  0  0  0  0  0  0  0  0  0  0  0
 MicOpt= -1 -1 -1 -1 -1 -1 -1 -1 -1 -1 -1 -1
 NAtoms=     12 NQM=       12 NQMF=       0 NMMI=      0 NMMIF=      0
                NMic=       0 NMicF=      0.
                    Isotopes and Nuclear Properties:
 (Nuclear quadrupole moments (NQMom) in fm**2, nuclear magnetic moments (NMagM)
  in nuclear magnetons)

  Atom         1           2           3           4           5           6           7           8           9          10
 IAtWgt=          14           1           1          12          14          12          12          14          12          14
 AtmWgt=  14.0030740   1.0078250   1.0078250  12.0000000  14.0030740  12.0000000  12.0000000  14.0030740  12.0000000  14.0030740
 NucSpn=           2           1           1           0           2           0           0           2           0           2
 AtZEff=  -0.0000000  -0.0000000  -0.0000000  -0.0000000  -0.0000000  -0.0000000  -0.0000000  -0.0000000  -0.0000000  -0.0000000
 NQMom=    2.0440000   0.0000000   0.0000000   0.0000000   2.0440000   0.0000000   0.0000000   2.0440000   0.0000000   2.0440000
 NMagM=    0.4037610   2.7928460   2.7928460   0.0000000   0.4037610   0.0000000   0.0000000   0.4037610   0.0000000   0.4037610
 AtZNuc=   7.0000000   1.0000000   1.0000000   6.0000000   7.0000000   6.0000000   6.0000000   7.0000000   6.0000000   7.0000000

  Atom        11          12
 IAtWgt=           1           1
 AtmWgt=   1.0078250   1.0078250
 NucSpn=           1           1
 AtZEff=  -0.0000000  -0.0000000
 NQMom=    0.0000000   0.0000000
 NMagM=    2.7928460   2.7928460
 AtZNuc=   1.0000000   1.0000000
 Leave Link  101 at Sun Oct 16 05:44:46 2022, MaxMem=  8053063680 cpu:               4.1 elap:               0.1
 (Enter /public3/home/scg5914/software-scg5914/g16/l103.exe)

 GradGradGradGradGradGradGradGradGradGradGradGradGradGradGradGradGradGrad
 Berny optimization.
 Initialization pass.
                           ----------------------------
                           !    Initial Parameters    !
                           ! (Angstroms and Degrees)  !
 --------------------------                            --------------------------
 ! Name  Definition              Value          Derivative Info.                !
 --------------------------------------------------------------------------------
 ! R1    R(1,2)                  1.009          estimate D2E/DX2                !
 ! R2    R(1,3)                  1.007          estimate D2E/DX2                !
 ! R3    R(1,4)                  1.3609         estimate D2E/DX2                !
 ! R4    R(4,5)                  1.3044         estimate D2E/DX2                !
 ! R5    R(4,11)                 1.0829         estimate D2E/DX2                !
 ! R6    R(5,6)                  1.4153         estimate D2E/DX2                !
 ! R7    R(5,12)                 1.0146         estimate D2E/DX2                !
 ! R8    R(6,7)                  1.3934         estimate D2E/DX2                !
 ! R9    R(6,9)                  1.3954         estimate D2E/DX2                !
 ! R10   R(7,8)                  1.1665         estimate D2E/DX2                !
 ! R11   R(9,10)                 1.1657         estimate D2E/DX2                !
 ! A1    A(2,1,3)              114.4964         estimate D2E/DX2                !
 ! A2    A(2,1,4)              119.7125         estimate D2E/DX2                !
 ! A3    A(3,1,4)              116.6856         estimate D2E/DX2                !
 ! A4    A(1,4,5)              124.002          estimate D2E/DX2                !
 ! A5    A(1,4,11)             118.2382         estimate D2E/DX2                !
 ! A6    A(5,4,11)             117.645          estimate D2E/DX2                !
 ! A7    A(4,5,6)              128.5724         estimate D2E/DX2                !
 ! A8    A(4,5,12)             118.3186         estimate D2E/DX2                !
 ! A9    A(6,5,12)             113.1044         estimate D2E/DX2                !
 ! A10   A(5,6,7)              117.1406         estimate D2E/DX2                !
 ! A11   A(5,6,9)              116.5198         estimate D2E/DX2                !
 ! A12   A(7,6,9)              126.3347         estimate D2E/DX2                !
 ! A13   L(6,7,8,3,-1)         174.1819         estimate D2E/DX2                !
 ! A14   L(6,9,10,12,-1)       177.0273         estimate D2E/DX2                !
 ! A15   L(6,7,8,3,-2)         180.2301         estimate D2E/DX2                !
 ! A16   L(6,9,10,12,-2)       179.9722         estimate D2E/DX2                !
 ! D1    D(2,1,4,5)             17.1582         estimate D2E/DX2                !
 ! D2    D(2,1,4,11)          -166.8361         estimate D2E/DX2                !
 ! D3    D(3,1,4,5)            162.3591         estimate D2E/DX2                !
 ! D4    D(3,1,4,11)           -21.6352         estimate D2E/DX2                !
 ! D5    D(1,4,5,6)            175.6661         estimate D2E/DX2                !
 ! D6    D(1,4,5,12)            -3.4991         estimate D2E/DX2                !
 ! D7    D(11,4,5,6)            -0.3615         estimate D2E/DX2                !
 ! D8    D(11,4,5,12)         -179.5267         estimate D2E/DX2                !
 ! D9    D(4,5,6,7)             -0.4567         estimate D2E/DX2                !
 ! D10   D(4,5,6,9)            178.7908         estimate D2E/DX2                !
 ! D11   D(12,5,6,7)           178.7442         estimate D2E/DX2                !
 ! D12   D(12,5,6,9)            -2.0082         estimate D2E/DX2                !
 --------------------------------------------------------------------------------
 Trust Radius=3.00D-01 FncErr=1.00D-07 GrdErr=1.00D-06 EigMax=2.50D+02 EigMin=1.00D-04
 Number of steps in this run=     49 maximum allowed number of steps=    100.
 GradGradGradGradGradGradGradGradGradGradGradGradGradGradGradGradGradGrad

 Leave Link  103 at Sun Oct 16 05:44:46 2022, MaxMem=  8053063680 cpu:               0.2 elap:               0.0
 (Enter /public3/home/scg5914/software-scg5914/g16/l202.exe)
                          Input orientation:                          
 ---------------------------------------------------------------------
 Center     Atomic      Atomic             Coordinates (Angstroms)
 Number     Number       Type             X           Y           Z
 ---------------------------------------------------------------------
      1          7           0        0.030447    0.872463    0.111494
      2          1           0        0.034551   -0.118821   -0.076627
      3          1           0        0.867744    1.354742   -0.172075
      4          6           0       -1.134977    1.570179    0.027395
      5          7           0       -2.317185    1.018924    0.032337
      6          6           0       -3.584587    1.648847    0.033985
      7          6           0       -3.601909    3.042135    0.039752
      8          7           0       -3.498017    4.203990    0.043629
      9          6           0       -4.698203    0.808223    0.013251
     10          7           0       -5.590864    0.058650   -0.003118
     11          1           0       -1.085006    2.651910    0.017969
     12          1           0       -2.375927    0.006164    0.048542
 ---------------------------------------------------------------------
                    Distance matrix (angstroms):
                    1          2          3          4          5
     1  N    0.000000
     2  H    1.008985   0.000000
     3  H    1.007011   1.695497   0.000000
     4  C    1.360916   2.057022   2.024128   0.000000
     5  N    2.353528   2.614765   3.209101   1.304424   0.000000
     6  C    3.698276   4.029273   4.466789   2.450881   1.415313
     7  C    4.231623   4.819650   4.782255   2.872727   2.396655
     8  N    4.853219   5.583923   5.217721   3.538528   3.396930
     9  C    4.730107   4.823531   5.595784   3.643811   2.390399
    10  N    5.681071   5.628693   6.589538   4.705378   3.411797
    11  H    2.102240   2.989867   2.352019   1.082925   2.045755
    12  H    2.558334   2.416959   3.519763   1.996634   1.014592
                    6          7          8          9         10
     6  C    0.000000
     7  C    1.393408   0.000000
     8  N    2.556628   1.166497   0.000000
     9  C    1.395428   2.488559   3.601751   0.000000
    10  N    2.560322   3.585939   4.643925   1.165749   0.000000
    11  H    2.693380   2.547067   2.869186   4.056402   5.198865
    12  H    2.039480   3.274177   4.345211   2.457135   3.215781
                   11         12
    11  H    0.000000
    12  H    2.944042   0.000000
 Stoichiometry    C4H4N4
 Framework group  C1[X(C4H4N4)]
 Deg. of freedom    30
 Full point group                 C1      NOp   1
 Largest Abelian subgroup         C1      NOp   1
 Largest concise Abelian subgroup C1      NOp   1
                         Standard orientation:                         
 ---------------------------------------------------------------------
 Center     Atomic      Atomic             Coordinates (Angstroms)
 Number     Number       Type             X           Y           Z
 ---------------------------------------------------------------------
      1          7           0       -2.909097   -0.657996   -0.064034
      2          1           0       -2.934284   -1.650064    0.118221
      3          1           0       -3.733400   -0.158739    0.228092
      4          6           0       -1.727709    0.012801    0.016264
      5          7           0       -0.558285   -0.564870   -0.000004
      6          6           0        0.722953    0.036379   -0.006546
      7          6           0        0.771633    1.428934   -0.004158
      8          7           0        0.693928    2.592835   -0.000429
      9          6           0        1.817455   -0.829195    0.001608
     10          7           0        2.693085   -1.598746    0.007445
     11          1           0       -1.753224    1.095305    0.032454
     12          1           0       -0.522492   -1.578578   -0.022622
 ---------------------------------------------------------------------
 Rotational constants (GHZ):           2.8126926           1.4620383           0.9624490
 Leave Link  202 at Sun Oct 16 05:44:46 2022, MaxMem=  8053063680 cpu:               0.2 elap:               0.0
 (Enter /public3/home/scg5914/software-scg5914/g16/l301.exe)
 Standard basis: 6-311+G(d,p) (5D, 7F)
 Ernie: Thresh=  0.10000D-02 Tol=  0.10000D-05 Strict=F.
 There are   208 symmetry adapted cartesian basis functions of A   symmetry.
 There are   200 symmetry adapted basis functions of A   symmetry.
   200 basis functions,   320 primitive gaussians,   208 cartesian basis functions
    28 alpha electrons       28 beta electrons
       nuclear repulsion energy       303.9886419816 Hartrees.
 IExCor=  402 DFT=T Ex+Corr=B3LYP ExCW=0 ScaHFX=  0.200000
 ScaDFX=  0.800000  0.720000  1.000000  0.810000 ScalE2=  1.000000  1.000000
 IRadAn=      5 IRanWt=     -1 IRanGd=            0 ICorTp=0 IEmpDi=141
 NAtoms=   12 NActive=   12 NUniq=   12 SFac= 1.00D+00 NAtFMM=   60 NAOKFM=F Big=F
 Integral buffers will be    131072 words long.
 Raffenetti 2 integral format.
 Two-electron integral symmetry is turned on.
 R6Disp:  Grimme-D3(BJ) Dispersion energy=       -0.0184355937 Hartrees.
 Nuclear repulsion after empirical dispersion term =      303.9702063879 Hartrees.
 Leave Link  301 at Sun Oct 16 05:44:46 2022, MaxMem=  8053063680 cpu:               0.9 elap:               0.0
 (Enter /public3/home/scg5914/software-scg5914/g16/l302.exe)
 NPDir=0 NMtPBC=     1 NCelOv=     1 NCel=       1 NClECP=     1 NCelD=      1
         NCelK=      1 NCelE2=     1 NClLst=     1 CellRange=     0.0.
 One-electron integrals computed using PRISM.
 One-electron integral symmetry used in STVInt
 NBasis=   200 RedAO= T EigKep=  4.63D-06  NBF=   200
 NBsUse=   200 1.00D-06 EigRej= -1.00D+00 NBFU=   200
 Precomputing XC quadrature grid using
 IXCGrd= 4 IRadAn=           5 IRanWt=          -1 IRanGd=           0 AccXCQ= 0.00D+00.
 Generated NRdTot=       0 NPtTot=           0 NUsed=           0 NTot=          32
 NSgBfM=   208   208   208   208   208 MxSgAt=    12 MxSgA2=    12.
 Leave Link  302 at Sun Oct 16 05:44:46 2022, MaxMem=  8053063680 cpu:               3.7 elap:               0.1
 (Enter /public3/home/scg5914/software-scg5914/g16/l303.exe)
 DipDrv:  MaxL=1.
 Leave Link  303 at Sun Oct 16 05:44:46 2022, MaxMem=  8053063680 cpu:               0.5 elap:               0.0
 (Enter /public3/home/scg5914/software-scg5914/g16/l401.exe)
 ExpMin= 4.38D-02 ExpMax= 6.29D+03 ExpMxC= 9.49D+02 IAcc=3 IRadAn=         5 AccDes= 0.00D+00
 Harris functional with IExCor=  402 and IRadAn=       5 diagonalized for initial guess.
 HarFok:  IExCor=  402 AccDes= 0.00D+00 IRadAn=         5 IDoV= 1 UseB2=F ITyADJ=14
 ICtDFT=  3500011 ScaDFX=  1.000000  1.000000  1.000000  1.000000
 FoFCou: FMM=F IPFlag=           0 FMFlag=      100000 FMFlg1=           0
         NFxFlg=           0 DoJE=T BraDBF=F KetDBF=T FulRan=T
         wScrn=  0.000000 ICntrl=       500 IOpCl=  0 I1Cent=   200000004 NGrid=           0
         NMat0=    1 NMatS0=      1 NMatT0=    0 NMatD0=    1 NMtDS0=    0 NMtDT0=    0
 Petite list used in FoFCou.
 Harris En= -373.902935676728    
 JPrj=0 DoOrth=F DoCkMO=F.
 Leave Link  401 at Sun Oct 16 05:44:47 2022, MaxMem=  8053063680 cpu:               9.8 elap:               0.3
 (Enter /public3/home/scg5914/software-scg5914/g16/l502.exe)
 Keep R1 ints in memory in canonical form, NReq=235246854.
 FoFCou: FMM=F IPFlag=           0 FMFlag=           0 FMFlg1=           0
         NFxFlg=           0 DoJE=F BraDBF=F KetDBF=F FulRan=T
         wScrn=  0.000000 ICntrl=       600 IOpCl=  0 I1Cent=           0 NGrid=           0
         NMat0=    1 NMatS0=  20100 NMatT0=    0 NMatD0=    1 NMtDS0=    0 NMtDT0=    0
 Symmetry not used in FoFCou.
 Two-electron integral symmetry not used.
 Closed shell SCF:
 Using DIIS extrapolation, IDIIS=  1040.
 NGot=  8053063680 LenX=  7850953144 LenY=  7850909439
 Requested convergence on RMS density matrix=1.00D-08 within 128 cycles.
 Requested convergence on MAX density matrix=1.00D-06.
 Requested convergence on             energy=1.00D-06.
 No special actions if energy rises.

 Cycle   1  Pass 1  IDiag  1:
 E= -373.692555541806    
 DIIS: error= 4.24D-02 at cycle   1 NSaved=   1.
 NSaved= 1 IEnMin= 1 EnMin= -373.692555541806     IErMin= 1 ErrMin= 4.24D-02
 ErrMax= 4.24D-02  0.00D+00 EMaxC= 1.00D-01 BMatC= 2.31D-01 BMatP= 2.31D-01
 IDIUse=3 WtCom= 5.76D-01 WtEn= 4.24D-01
 Coeff-Com:  0.100D+01
 Coeff-En:   0.100D+01
 Coeff:      0.100D+01
 Gap=     0.223 Goal=   None    Shift=    0.000
 GapD=    0.223 DampG=1.000 DampE=0.500 DampFc=0.5000 IDamp=-1.
 Damping current iteration by 5.00D-01
 RMSDP=2.42D-02 MaxDP=2.22D+00              OVMax= 5.52D-01

 Cycle   2  Pass 1  IDiag  1:
 E= -373.695854868109     Delta-E=       -0.003299326303 Rises=F Damp=T
 DIIS: error= 2.83D-02 at cycle   2 NSaved=   2.
 NSaved= 2 IEnMin= 2 EnMin= -373.695854868109     IErMin= 2 ErrMin= 2.83D-02
 ErrMax= 2.83D-02  0.00D+00 EMaxC= 1.00D-01 BMatC= 6.57D-02 BMatP= 2.31D-01
 IDIUse=3 WtCom= 7.17D-01 WtEn= 2.83D-01
 Coeff-Com:  0.279D+00 0.721D+00
 Coeff-En:   0.493D+00 0.507D+00
 Coeff:      0.339D+00 0.661D+00
 Gap=     0.117 Goal=   None    Shift=    0.000
 RMSDP=7.16D-03 MaxDP=6.65D-01 DE=-3.30D-03 OVMax= 4.22D-01

 Cycle   3  Pass 1  IDiag  1:
 E= -373.834085892929     Delta-E=       -0.138231024820 Rises=F Damp=F
 DIIS: error= 2.28D-02 at cycle   3 NSaved=   3.
 NSaved= 3 IEnMin= 3 EnMin= -373.834085892929     IErMin= 3 ErrMin= 2.28D-02
 ErrMax= 2.28D-02  0.00D+00 EMaxC= 1.00D-01 BMatC= 5.20D-02 BMatP= 6.57D-02
 IDIUse=3 WtCom= 7.72D-01 WtEn= 2.28D-01
 Coeff-Com:  0.729D-01 0.450D+00 0.477D+00
 Coeff-En:   0.000D+00 0.208D-01 0.979D+00
 Coeff:      0.563D-01 0.352D+00 0.591D+00
 Gap=     0.156 Goal=   None    Shift=    0.000
 RMSDP=4.25D-03 MaxDP=3.89D-01 DE=-1.38D-01 OVMax= 1.17D-01

 Cycle   4  Pass 1  IDiag  1:
 E= -373.865360062398     Delta-E=       -0.031274169469 Rises=F Damp=F
 DIIS: error= 1.74D-02 at cycle   4 NSaved=   4.
 NSaved= 4 IEnMin= 4 EnMin= -373.865360062398     IErMin= 4 ErrMin= 1.74D-02
 ErrMax= 1.74D-02  0.00D+00 EMaxC= 1.00D-01 BMatC= 2.10D-02 BMatP= 5.20D-02
 IDIUse=3 WtCom= 8.26D-01 WtEn= 1.74D-01
 Coeff-Com:  0.272D-01 0.638D-01 0.382D+00 0.527D+00
 Coeff-En:   0.000D+00 0.000D+00 0.318D+00 0.682D+00
 Coeff:      0.225D-01 0.527D-01 0.371D+00 0.554D+00
 Gap=     0.127 Goal=   None    Shift=    0.000
 RMSDP=2.32D-03 MaxDP=2.21D-01 DE=-3.13D-02 OVMax= 3.57D-02

 Cycle   5  Pass 1  IDiag  1:
 E= -373.882313011124     Delta-E=       -0.016952948726 Rises=F Damp=F
 DIIS: error= 3.68D-03 at cycle   5 NSaved=   5.
 NSaved= 5 IEnMin= 5 EnMin= -373.882313011124     IErMin= 5 ErrMin= 3.68D-03
 ErrMax= 3.68D-03  0.00D+00 EMaxC= 1.00D-01 BMatC= 1.59D-03 BMatP= 2.10D-02
 IDIUse=3 WtCom= 9.63D-01 WtEn= 3.68D-02
 Coeff-Com:  0.552D-02 0.349D-02 0.205D+00 0.369D+00 0.416D+00
 Coeff-En:   0.000D+00 0.000D+00 0.000D+00 0.169D-01 0.983D+00
 Coeff:      0.531D-02 0.336D-02 0.198D+00 0.356D+00 0.437D+00
 Gap=     0.132 Goal=   None    Shift=    0.000
 RMSDP=2.90D-04 MaxDP=9.04D-03 DE=-1.70D-02 OVMax= 2.36D-02

 Cycle   6  Pass 1  IDiag  1:
 E= -373.883641225487     Delta-E=       -0.001328214363 Rises=F Damp=F
 DIIS: error= 1.44D-03 at cycle   6 NSaved=   6.
 NSaved= 6 IEnMin= 6 EnMin= -373.883641225487     IErMin= 6 ErrMin= 1.44D-03
 ErrMax= 1.44D-03  0.00D+00 EMaxC= 1.00D-01 BMatC= 1.57D-04 BMatP= 1.59D-03
 IDIUse=3 WtCom= 9.86D-01 WtEn= 1.44D-02
 Coeff-Com:  0.178D-02-0.103D-01 0.841D-01 0.169D+00 0.282D+00 0.473D+00
 Coeff-En:   0.000D+00 0.000D+00 0.000D+00 0.000D+00 0.961D-01 0.904D+00
 Coeff:      0.176D-02-0.101D-01 0.829D-01 0.167D+00 0.279D+00 0.479D+00
 Gap=     0.131 Goal=   None    Shift=    0.000
 RMSDP=1.56D-04 MaxDP=1.15D-02 DE=-1.33D-03 OVMax= 9.03D-03

 Cycle   7  Pass 1  IDiag  1:
 E= -373.883778364461     Delta-E=       -0.000137138974 Rises=F Damp=F
 DIIS: error= 5.75D-04 at cycle   7 NSaved=   7.
 NSaved= 7 IEnMin= 7 EnMin= -373.883778364461     IErMin= 7 ErrMin= 5.75D-04
 ErrMax= 5.75D-04  0.00D+00 EMaxC= 1.00D-01 BMatC= 1.73D-05 BMatP= 1.57D-04
 IDIUse=3 WtCom= 9.94D-01 WtEn= 5.75D-03
 Coeff-Com:  0.618D-03-0.531D-02 0.186D-01 0.393D-01 0.102D+00 0.317D+00
 Coeff-Com:  0.528D+00
 Coeff-En:   0.000D+00 0.000D+00 0.000D+00 0.000D+00 0.000D+00 0.109D+00
 Coeff-En:   0.891D+00
 Coeff:      0.615D-03-0.528D-02 0.185D-01 0.391D-01 0.102D+00 0.316D+00
 Coeff:      0.530D+00
 Gap=     0.131 Goal=   None    Shift=    0.000
 RMSDP=4.14D-05 MaxDP=2.40D-03 DE=-1.37D-04 OVMax= 2.82D-03

 Cycle   8  Pass 1  IDiag  1:
 E= -373.883795716679     Delta-E=       -0.000017352218 Rises=F Damp=F
 DIIS: error= 9.39D-05 at cycle   8 NSaved=   8.
 NSaved= 8 IEnMin= 8 EnMin= -373.883795716679     IErMin= 8 ErrMin= 9.39D-05
 ErrMax= 9.39D-05  0.00D+00 EMaxC= 1.00D-01 BMatC= 1.21D-06 BMatP= 1.73D-05
 IDIUse=1 WtCom= 1.00D+00 WtEn= 0.00D+00
 Coeff-Com:  0.306D-03-0.166D-02 0.355D-02 0.713D-02 0.318D-01 0.131D+00
 Coeff-Com:  0.297D+00 0.530D+00
 Coeff:      0.306D-03-0.166D-02 0.355D-02 0.713D-02 0.318D-01 0.131D+00
 Coeff:      0.297D+00 0.530D+00
 Gap=     0.131 Goal=   None    Shift=    0.000
 RMSDP=8.86D-06 MaxDP=3.82D-04 DE=-1.74D-05 OVMax= 3.44D-04

 Cycle   9  Pass 1  IDiag  1:
 E= -373.883796693714     Delta-E=       -0.000000977036 Rises=F Damp=F
 DIIS: error= 2.10D-05 at cycle   9 NSaved=   9.
 NSaved= 9 IEnMin= 9 EnMin= -373.883796693714     IErMin= 9 ErrMin= 2.10D-05
 ErrMax= 2.10D-05  0.00D+00 EMaxC= 1.00D-01 BMatC= 8.33D-08 BMatP= 1.21D-06
 IDIUse=1 WtCom= 1.00D+00 WtEn= 0.00D+00
 Coeff-Com:  0.368D-04-0.378D-04-0.152D-02-0.285D-02-0.111D-02 0.115D-02
 Coeff-Com:  0.490D-01 0.210D+00 0.745D+00
 Coeff:      0.368D-04-0.378D-04-0.152D-02-0.285D-02-0.111D-02 0.115D-02
 Coeff:      0.490D-01 0.210D+00 0.745D+00
 Gap=     0.131 Goal=   None    Shift=    0.000
 RMSDP=4.68D-06 MaxDP=3.79D-04 DE=-9.77D-07 OVMax= 8.17D-05

 Cycle  10  Pass 1  IDiag  1:
 E= -373.883796769811     Delta-E=       -0.000000076097 Rises=F Damp=F
 DIIS: error= 6.35D-06 at cycle  10 NSaved=  10.
 NSaved=10 IEnMin=10 EnMin= -373.883796769811     IErMin=10 ErrMin= 6.35D-06
 ErrMax= 6.35D-06  0.00D+00 EMaxC= 1.00D-01 BMatC= 9.16D-09 BMatP= 8.33D-08
 IDIUse=1 WtCom= 1.00D+00 WtEn= 0.00D+00
 Coeff-Com: -0.304D-05 0.360D-04-0.979D-03-0.180D-02-0.134D-02-0.371D-02
 Coeff-Com:  0.196D-01 0.106D+00 0.424D+00 0.458D+00
 Coeff:     -0.304D-05 0.360D-04-0.979D-03-0.180D-02-0.134D-02-0.371D-02
 Coeff:      0.196D-01 0.106D+00 0.424D+00 0.458D+00
 Gap=     0.131 Goal=   None    Shift=    0.000
 RMSDP=1.41D-06 MaxDP=1.11D-04 DE=-7.61D-08 OVMax= 3.22D-05

 Cycle  11  Pass 1  IDiag  1:
 E= -373.883796776304     Delta-E=       -0.000000006493 Rises=F Damp=F
 DIIS: error= 3.66D-06 at cycle  11 NSaved=  11.
 NSaved=11 IEnMin=11 EnMin= -373.883796776304     IErMin=11 ErrMin= 3.66D-06
 ErrMax= 3.66D-06  0.00D+00 EMaxC= 1.00D-01 BMatC= 2.51D-09 BMatP= 9.16D-09
 IDIUse=1 WtCom= 1.00D+00 WtEn= 0.00D+00
 Coeff-Com: -0.236D-04 0.624D-04-0.318D-03-0.569D-03-0.562D-03-0.304D-02
 Coeff-Com:  0.143D-02 0.207D-01 0.937D-01 0.331D+00 0.557D+00
 Coeff:     -0.236D-04 0.624D-04-0.318D-03-0.569D-03-0.562D-03-0.304D-02
 Coeff:      0.143D-02 0.207D-01 0.937D-01 0.331D+00 0.557D+00
 Gap=     0.131 Goal=   None    Shift=    0.000
 RMSDP=4.47D-07 MaxDP=2.15D-05 DE=-6.49D-09 OVMax= 1.75D-05

 Cycle  12  Pass 1  IDiag  1:
 E= -373.883796778379     Delta-E=       -0.000000002075 Rises=F Damp=F
 DIIS: error= 1.39D-06 at cycle  12 NSaved=  12.
 NSaved=12 IEnMin=12 EnMin= -373.883796778379     IErMin=12 ErrMin= 1.39D-06
 ErrMax= 1.39D-06  0.00D+00 EMaxC= 1.00D-01 BMatC= 1.95D-10 BMatP= 2.51D-09
 IDIUse=1 WtCom= 1.00D+00 WtEn= 0.00D+00
 Coeff-Com: -0.164D-04 0.360D-04-0.865D-04-0.145D-03-0.189D-03-0.145D-02
 Coeff-Com: -0.161D-02-0.111D-02 0.258D-04 0.114D+00 0.301D+00 0.590D+00
 Coeff:     -0.164D-04 0.360D-04-0.865D-04-0.145D-03-0.189D-03-0.145D-02
 Coeff:     -0.161D-02-0.111D-02 0.258D-04 0.114D+00 0.301D+00 0.590D+00
 Gap=     0.131 Goal=   None    Shift=    0.000
 RMSDP=1.80D-07 MaxDP=9.05D-06 DE=-2.08D-09 OVMax= 7.19D-06

 Cycle  13  Pass 1  IDiag  1:
 E= -373.883796778585     Delta-E=       -0.000000000206 Rises=F Damp=F
 DIIS: error= 3.98D-07 at cycle  13 NSaved=  13.
 NSaved=13 IEnMin=13 EnMin= -373.883796778585     IErMin=13 ErrMin= 3.98D-07
 ErrMax= 3.98D-07  0.00D+00 EMaxC= 1.00D-01 BMatC= 1.18D-11 BMatP= 1.95D-10
 IDIUse=1 WtCom= 1.00D+00 WtEn= 0.00D+00
 Coeff-Com: -0.459D-05 0.853D-05-0.109D-05 0.432D-05 0.851D-05-0.203D-03
 Coeff-Com: -0.556D-03-0.232D-02-0.102D-01 0.148D-02 0.465D-01 0.228D+00
 Coeff-Com:  0.738D+00
 Coeff:     -0.459D-05 0.853D-05-0.109D-05 0.432D-05 0.851D-05-0.203D-03
 Coeff:     -0.556D-03-0.232D-02-0.102D-01 0.148D-02 0.465D-01 0.228D+00
 Coeff:      0.738D+00
 Gap=     0.131 Goal=   None    Shift=    0.000
 RMSDP=8.84D-08 MaxDP=8.66D-06 DE=-2.06D-10 OVMax= 1.47D-06

 Cycle  14  Pass 1  IDiag  1:
 E= -373.883796778598     Delta-E=       -0.000000000013 Rises=F Damp=F
 DIIS: error= 3.23D-08 at cycle  14 NSaved=  14.
 NSaved=14 IEnMin=14 EnMin= -373.883796778598     IErMin=14 ErrMin= 3.23D-08
 ErrMax= 3.23D-08  0.00D+00 EMaxC= 1.00D-01 BMatC= 2.95D-13 BMatP= 1.18D-11
 IDIUse=1 WtCom= 1.00D+00 WtEn= 0.00D+00
 Coeff-Com: -0.468D-06 0.756D-06 0.160D-05 0.463D-05 0.101D-04 0.723D-05
 Coeff-Com: -0.249D-04-0.416D-03-0.227D-02-0.562D-02-0.245D-02 0.299D-01
 Coeff-Com:  0.180D+00 0.801D+00
 Coeff:     -0.468D-06 0.756D-06 0.160D-05 0.463D-05 0.101D-04 0.723D-05
 Coeff:     -0.249D-04-0.416D-03-0.227D-02-0.562D-02-0.245D-02 0.299D-01
 Coeff:      0.180D+00 0.801D+00
 Gap=     0.131 Goal=   None    Shift=    0.000
 RMSDP=1.06D-08 MaxDP=5.40D-07 DE=-1.27D-11 OVMax= 1.81D-07

 Cycle  15  Pass 1  IDiag  1:
 E= -373.883796778599     Delta-E=       -0.000000000001 Rises=F Damp=F
 DIIS: error= 1.42D-08 at cycle  15 NSaved=  15.
 NSaved=15 IEnMin=15 EnMin= -373.883796778599     IErMin=15 ErrMin= 1.42D-08
 ErrMax= 1.42D-08  0.00D+00 EMaxC= 1.00D-01 BMatC= 2.64D-14 BMatP= 2.95D-13
 IDIUse=1 WtCom= 1.00D+00 WtEn= 0.00D+00
 Coeff-Com:  0.357D-08 0.679D-07 0.611D-07 0.348D-06 0.181D-05 0.351D-05
 Coeff-Com:  0.137D-04-0.557D-04-0.331D-03-0.199D-02-0.246D-02 0.172D-02
 Coeff-Com:  0.287D-01 0.281D+00 0.693D+00
 Coeff:      0.357D-08 0.679D-07 0.611D-07 0.348D-06 0.181D-05 0.351D-05
 Coeff:      0.137D-04-0.557D-04-0.331D-03-0.199D-02-0.246D-02 0.172D-02
 Coeff:      0.287D-01 0.281D+00 0.693D+00
 Gap=     0.131 Goal=   None    Shift=    0.000
 RMSDP=4.61D-09 MaxDP=4.05D-07 DE=-9.09D-13 OVMax= 8.21D-08

 SCF Done:  E(RB3LYP) =  -373.883796779     A.U. after   15 cycles
            NFock= 15  Conv=0.46D-08     -V/T= 2.0040
 KE= 3.724053462281D+02 PE=-1.478776772751D+03 EE= 4.285174233561D+02
 Leave Link  502 at Sun Oct 16 05:44:53 2022, MaxMem=  8053063680 cpu:             147.9 elap:               6.3
 (Enter /public3/home/scg5914/software-scg5914/g16/l601.exe)
 Copying SCF densities to generalized density rwf, IOpCl= 0 IROHF=0.

 **********************************************************************

            Population analysis using the SCF Density.

 **********************************************************************

 Orbital symmetries:
       Occupied  (A) (A) (A) (A) (A) (A) (A) (A) (A) (A) (A) (A)
                 (A) (A) (A) (A) (A) (A) (A) (A) (A) (A) (A) (A)
                 (A) (A) (A) (A)
       Virtual   (A) (A) (A) (A) (A) (A) (A) (A) (A) (A) (A) (A)
                 (A) (A) (A) (A) (A) (A) (A) (A) (A) (A) (A) (A)
                 (A) (A) (A) (A) (A) (A) (A) (A) (A) (A) (A) (A)
                 (A) (A) (A) (A) (A) (A) (A) (A) (A) (A) (A) (A)
                 (A) (A) (A) (A) (A) (A) (A) (A) (A) (A) (A) (A)
                 (A) (A) (A) (A) (A) (A) (A) (A) (A) (A) (A) (A)
                 (A) (A) (A) (A) (A) (A) (A) (A) (A) (A) (A) (A)
                 (A) (A) (A) (A) (A) (A) (A) (A) (A) (A) (A) (A)
                 (A) (A) (A) (A) (A) (A) (A) (A) (A) (A) (A) (A)
                 (A) (A) (A) (A) (A) (A) (A) (A) (A) (A) (A) (A)
                 (A) (A) (A) (A) (A) (A) (A) (A) (A) (A) (A) (A)
                 (A) (A) (A) (A) (A) (A) (A) (A) (A) (A) (A) (A)
                 (A) (A) (A) (A) (A) (A) (A) (A) (A) (A) (A) (A)
                 (A) (A) (A) (A) (A) (A) (A) (A) (A) (A) (A) (A)
                 (A) (A) (A) (A)
 The electronic state is 1-A.
 Alpha  occ. eigenvalues --  -14.44489 -14.40760 -14.30794 -14.30072 -10.31761
 Alpha  occ. eigenvalues --  -10.24572 -10.21075 -10.20616  -1.06153  -0.97916
 Alpha  occ. eigenvalues --   -0.90525  -0.89708  -0.79721  -0.72435  -0.64331
 Alpha  occ. eigenvalues --   -0.63153  -0.57045  -0.55932  -0.49876  -0.48699
 Alpha  occ. eigenvalues --   -0.40298  -0.36659  -0.35993  -0.34862  -0.34702
 Alpha  occ. eigenvalues --   -0.33833  -0.33238  -0.20453
 Alpha virt. eigenvalues --   -0.07311  -0.05056  -0.02669  -0.00985   0.00729
 Alpha virt. eigenvalues --    0.02959   0.03641   0.03913   0.04494   0.04669
 Alpha virt. eigenvalues --    0.06319   0.07451   0.07642   0.08470   0.09277
 Alpha virt. eigenvalues --    0.10649   0.10897   0.11621   0.12548   0.12818
 Alpha virt. eigenvalues --    0.13303   0.14571   0.14813   0.16008   0.16765
 Alpha virt. eigenvalues --    0.18201   0.18416   0.19379   0.20379   0.21375
 Alpha virt. eigenvalues --    0.22875   0.23779   0.24399   0.24978   0.25246
 Alpha virt. eigenvalues --    0.25493   0.25761   0.27254   0.28248   0.28978
 Alpha virt. eigenvalues --    0.30571   0.31502   0.32966   0.35233   0.38319
 Alpha virt. eigenvalues --    0.39115   0.45197   0.47131   0.49273   0.53998
 Alpha virt. eigenvalues --    0.55458   0.56431   0.57738   0.59102   0.60757
 Alpha virt. eigenvalues --    0.62236   0.63102   0.65804   0.66219   0.70435
 Alpha virt. eigenvalues --    0.72861   0.74641   0.74698   0.76066   0.76846
 Alpha virt. eigenvalues --    0.79023   0.80992   0.82827   0.86162   0.89306
 Alpha virt. eigenvalues --    0.90981   0.91443   0.92107   0.92427   0.98249
 Alpha virt. eigenvalues --    0.99526   0.99839   1.03134   1.06295   1.07157
 Alpha virt. eigenvalues --    1.08263   1.10083   1.13097   1.13964   1.15012
 Alpha virt. eigenvalues --    1.18313   1.27858   1.29362   1.31267   1.32888
 Alpha virt. eigenvalues --    1.38574   1.46848   1.51026   1.52023   1.53545
 Alpha virt. eigenvalues --    1.55795   1.57433   1.58699   1.59984   1.62348
 Alpha virt. eigenvalues --    1.70096   1.73325   1.76676   1.78502   1.80269
 Alpha virt. eigenvalues --    1.83830   1.89777   1.90767   1.95015   1.98187
 Alpha virt. eigenvalues --    2.06554   2.08966   2.09955   2.10219   2.12186
 Alpha virt. eigenvalues --    2.16434   2.22441   2.27071   2.32072   2.36272
 Alpha virt. eigenvalues --    2.45093   2.48528   2.53039   2.56458   2.59384
 Alpha virt. eigenvalues --    2.60898   2.63596   2.67516   2.68613   2.69152
 Alpha virt. eigenvalues --    2.73437   2.77697   2.82563   2.86219   2.87698
 Alpha virt. eigenvalues --    2.90783   2.91477   2.96953   2.98934   3.00561
 Alpha virt. eigenvalues --    3.04269   3.07025   3.09266   3.10964   3.19100
 Alpha virt. eigenvalues --    3.27365   3.28773   3.38114   3.49651   3.65791
 Alpha virt. eigenvalues --    3.69818   3.80518   3.84339   3.84742   3.99270
 Alpha virt. eigenvalues --    4.00120   4.04600   4.05318   4.60086   4.60662
 Alpha virt. eigenvalues --    4.67933   4.69774   4.79904   5.12797  23.61319
 Alpha virt. eigenvalues --   23.85890  24.50394  24.52898  35.50643  35.59339
 Alpha virt. eigenvalues --   35.84463  35.89379
          Condensed to atoms (all electrons):
               1          2          3          4          5          6
     1  N    6.428766   0.378045   0.379535   0.312832  -0.094290  -0.005863
     2  H    0.378045   0.420051  -0.029798  -0.025161  -0.003300   0.011505
     3  H    0.379535  -0.029798   0.399547  -0.027915   0.008685  -0.002592
     4  C    0.312832  -0.025161  -0.027915   5.151109   0.402512   0.182773
     5  N   -0.094290  -0.003300   0.008685   0.402512   6.397664   0.131204
     6  C   -0.005863   0.011505  -0.002592   0.182773   0.131204   8.781151
     7  C    0.017791  -0.005097   0.002723  -0.123110  -0.170440  -0.810662
     8  N   -0.002788   0.000075  -0.000005   0.031562  -0.001876   0.091180
     9  C    0.007085  -0.004034   0.001323  -0.342006   0.103122  -3.488939
    10  N   -0.001335   0.000109  -0.000005   0.025418  -0.000469   0.372314
    11  H   -0.042641   0.004418  -0.004292   0.419565  -0.041452   0.072792
    12  H   -0.003933   0.005358  -0.000199  -0.048408   0.361595  -0.012979
               7          8          9         10         11         12
     1  N    0.017791  -0.002788   0.007085  -0.001335  -0.042641  -0.003933
     2  H   -0.005097   0.000075  -0.004034   0.000109   0.004418   0.005358
     3  H    0.002723  -0.000005   0.001323  -0.000005  -0.004292  -0.000199
     4  C   -0.123110   0.031562  -0.342006   0.025418   0.419565  -0.048408
     5  N   -0.170440  -0.001876   0.103122  -0.000469  -0.041452   0.361595
     6  C   -0.810662   0.091180  -3.488939   0.372314   0.072792  -0.012979
     7  C    8.043038   0.282197  -1.277370   0.034553  -0.057513   0.014043
     8  N    0.282197   6.878572   0.046114  -0.000110   0.013326   0.000321
     9  C   -1.277370   0.046114  11.705697  -0.063233  -0.006770  -0.001443
    10  N    0.034553  -0.000110  -0.063233   6.920991   0.000327   0.001105
    11  H   -0.057513   0.013326  -0.006770   0.000327   0.449170   0.003412
    12  H    0.014043   0.000321  -0.001443   0.001105   0.003412   0.386462
 Mulliken charges:
               1
     1  N   -0.373203
     2  H    0.247830
     3  H    0.272993
     4  C    0.040828
     5  N   -0.092955
     6  C    0.678116
     7  C    0.049846
     8  N   -0.338568
     9  C   -0.679547
    10  N   -0.289665
    11  H    0.189658
    12  H    0.294666
 Sum of Mulliken charges =  -0.00000
 Mulliken charges with hydrogens summed into heavy atoms:
               1
     1  N    0.147620
     4  C    0.230486
     5  N    0.201711
     6  C    0.678116
     7  C    0.049846
     8  N   -0.338568
     9  C   -0.679547
    10  N   -0.289665
 Electronic spatial extent (au):  <R**2>=           1107.7866
 Charge=             -0.0000 electrons
 Dipole moment (field-independent basis, Debye):
    X=             -9.9217    Y=             -3.3359    Z=              0.7119  Tot=             10.4917
 Quadrupole moment (field-independent basis, Debye-Ang):
   XX=            -43.4634   YY=            -57.3768   ZZ=            -48.9184
   XY=              8.2819   XZ=             -2.8209   YZ=             -0.4208
 Traceless Quadrupole moment (field-independent basis, Debye-Ang):
   XX=              6.4562   YY=             -7.4573   ZZ=              1.0011
   XY=              8.2819   XZ=             -2.8209   YZ=             -0.4208
 Octapole moment (field-independent basis, Debye-Ang**2):
  XXX=           -108.9135  YYY=            -46.1386  ZZZ=              0.5103  XYY=            -41.5723
  XXY=             16.5067  XXZ=              9.9898  XZZ=             -3.1693  YZZ=             -1.1110
  YYZ=              0.6454  XYZ=              1.7183
 Hexadecapole moment (field-independent basis, Debye-Ang**3):
 XXXX=           -841.7300 YYYY=           -637.9558 ZZZZ=            -53.2968 XXXY=            103.7919
 XXXZ=            -37.8119 YYYX=             33.5193 YYYZ=             -1.0349 ZZZX=             -2.1764
 ZZZY=             -0.3280 XXYY=           -267.3835 XXZZ=           -178.6583 YYZZ=           -100.0129
 XXYZ=             -5.2758 YYXZ=             -2.8326 ZZXY=              2.0376
 N-N= 3.039702063879D+02 E-N=-1.478776772617D+03  KE= 3.724053462281D+02
 No NMR shielding tensors so no spin-rotation constants.
 Leave Link  601 at Sun Oct 16 05:44:53 2022, MaxMem=  8053063680 cpu:               2.7 elap:               0.1
 (Enter /public3/home/scg5914/software-scg5914/g16/l701.exe)
 ... and contract with generalized density number  0.
 Compute integral first derivatives.
 R6Disp: Adding Grimme-D3(BJ) dispersion energy 1st derivatives to the gradient.
 Leave Link  701 at Sun Oct 16 05:44:53 2022, MaxMem=  8053063680 cpu:               2.9 elap:               0.1
 (Enter /public3/home/scg5914/software-scg5914/g16/l702.exe)
 L702 exits ... SP integral derivatives will be done elsewhere.
 Leave Link  702 at Sun Oct 16 05:44:54 2022, MaxMem=  8053063680 cpu:               0.3 elap:               0.0
 (Enter /public3/home/scg5914/software-scg5914/g16/l703.exe)
 Integral derivatives from FoFJK, PRISM(SPDF).
 Compute integral first derivatives, UseDBF=F ICtDFT=           0.
 Calling FoFJK, ICntrl=      2127 FMM=F ISym2X=0 I1Cent= 0 IOpClX= 0 NMat=1 NMatS=1 NMatT=0.
 FoFJK:  IHMeth= 1 ICntrl=    2127 DoSepK=F KAlg= 0 I1Cent=           0 FoldK=F
 IRaf=         0 NMat=       1 IRICut=       1 DoRegI=T DoRafI=F ISym2E= 0 IDoP0=0 IntGTp=1.
 FoFCou: FMM=F IPFlag=           0 FMFlag=      100000 FMFlg1=         800
         NFxFlg=           0 DoJE=F BraDBF=F KetDBF=F FulRan=T
         wScrn=  0.000000 ICntrl=      2127 IOpCl=  0 I1Cent=           0 NGrid=           0
         NMat0=    1 NMatS0=      1 NMatT0=    0 NMatD0=    1 NMtDS0=    0 NMtDT0=    0
 Symmetry not used in FoFCou.
 Leave Link  703 at Sun Oct 16 05:44:55 2022, MaxMem=  8053063680 cpu:              30.0 elap:               1.0
 (Enter /public3/home/scg5914/software-scg5914/g16/l716.exe)
 Dipole        =-3.90349685D+00-1.31244140D+00 2.80100366D-01
 ***** Axes restored to original set *****
 -------------------------------------------------------------------
 Center     Atomic                   Forces (Hartrees/Bohr)
 Number     Number              X              Y              Z
 -------------------------------------------------------------------
      1        7          -0.000398792   -0.000437657   -0.001072976
      2        1           0.000229313   -0.000987048    0.000308749
      3        1           0.000854121    0.000406328    0.000366360
      4        6          -0.000696479    0.002949246    0.000278856
      5        7           0.000775059   -0.001620842   -0.000071611
      6        6          -0.000912749    0.001596654    0.000128008
      7        6          -0.000128497    0.003541343    0.000006332
      8        7          -0.000284199   -0.004960738   -0.000047209
      9        6          -0.003012657   -0.001987176   -0.000140043
     10        7           0.003228012    0.002828352    0.000072571
     11        1           0.000140145   -0.000582511    0.000026783
     12        1           0.000206724   -0.000745949    0.000144181
 -------------------------------------------------------------------
 Cartesian Forces:  Max     0.004960738 RMS     0.001574486
 Leave Link  716 at Sun Oct 16 05:44:55 2022, MaxMem=  8053063680 cpu:               0.7 elap:               0.0
 (Enter /public3/home/scg5914/software-scg5914/g16/l103.exe)

 GradGradGradGradGradGradGradGradGradGradGradGradGradGradGradGradGradGrad
 Berny optimization.
 FormGI is forming the generalized inverse of G from B-inverse, IUseBI=4.
 Internal  Forces:  Max     0.004966459 RMS     0.001214647
 Search for a local minimum.
 Step number   1 out of a maximum of   49
 All quantities printed in internal units (Hartrees-Bohrs-Radians)
 RMS Force = .12146D-02 SwitMx=.10000D-02 MixMth= 1
 Mixed Optimization -- RFO/linear search
 Second derivative matrix not updated -- first step.
 ITU=  0
     Eigenvalues ---    0.01489   0.01491   0.02209   0.02255   0.02589
     Eigenvalues ---    0.02956   0.03453   0.04781   0.04781   0.04790
     Eigenvalues ---    0.04790   0.15982   0.15999   0.16000   0.16000
     Eigenvalues ---    0.22000   0.22006   0.25000   0.25000   0.35643
     Eigenvalues ---    0.43174   0.45212   0.46143   0.46387   0.46477
     Eigenvalues ---    0.46731   0.52763   0.65979   1.23634   1.24104
 RFO step:  Lambda=-1.08840605D-04 EMin= 1.48921362D-02
 Linear search not attempted -- first point.
 Iteration  1 RMS(Cart)=  0.00768447 RMS(Int)=  0.00005734
 Iteration  2 RMS(Cart)=  0.00005739 RMS(Int)=  0.00003710
 Iteration  3 RMS(Cart)=  0.00000000 RMS(Int)=  0.00003710
 ITry= 1 IFail=0 DXMaxC= 1.82D-02 DCOld= 1.00D+10 DXMaxT= 3.00D-01 DXLimC= 3.00D+00 Rises=F
 Variable       Old X    -DE/DX   Delta X   Delta X   Delta X     New X
                                 (Linear)    (Quad)   (Total)
    R1        1.90670   0.00091   0.00000   0.00198   0.00198   1.90868
    R2        1.90297   0.00080   0.00000   0.00172   0.00172   1.90470
    R3        2.57176   0.00108   0.00000   0.00205   0.00205   2.57381
    R4        2.46500   0.00069   0.00000   0.00104   0.00104   2.46604
    R5        2.04643  -0.00058   0.00000  -0.00161  -0.00161   2.04482
    R6        2.67455   0.00145   0.00000   0.00335   0.00335   2.67791
    R7        1.91730   0.00073   0.00000   0.00163   0.00163   1.91893
    R8        2.63316  -0.00141   0.00000  -0.00303  -0.00303   2.63013
    R9        2.63698  -0.00068   0.00000  -0.00146  -0.00146   2.63552
   R10        2.20436  -0.00497   0.00000  -0.00402  -0.00402   2.20034
   R11        2.20295  -0.00429   0.00000  -0.00346  -0.00346   2.19949
    A1        1.99834  -0.00015   0.00000   0.00336   0.00321   2.00155
    A2        2.08938   0.00046   0.00000   0.00647   0.00635   2.09573
    A3        2.03655   0.00027   0.00000   0.00528   0.00516   2.04171
    A4        2.16424  -0.00083   0.00000  -0.00377  -0.00377   2.16047
    A5        2.06365   0.00025   0.00000   0.00082   0.00082   2.06446
    A6        2.05329   0.00058   0.00000   0.00290   0.00290   2.05619
    A7        2.24401  -0.00115   0.00000  -0.00522  -0.00522   2.23879
    A8        2.06505   0.00033   0.00000   0.00110   0.00110   2.06615
    A9        1.97404   0.00081   0.00000   0.00410   0.00410   1.97814
   A10        2.04449  -0.00002   0.00000  -0.00012  -0.00014   2.04435
   A11        2.03365   0.00082   0.00000   0.00325   0.00323   2.03689
   A12        2.20496  -0.00080   0.00000  -0.00325  -0.00327   2.20169
   A13        3.04005  -0.00035   0.00000  -0.00736  -0.00736   3.03269
   A14        3.08971   0.00020   0.00000   0.00413   0.00413   3.09384
   A15        3.14561  -0.00005   0.00000  -0.00105  -0.00105   3.14456
   A16        3.14111  -0.00002   0.00000  -0.00051  -0.00051   3.14059
    D1        0.29947  -0.00039   0.00000  -0.01004  -0.01007   0.28939
    D2       -2.91184  -0.00041   0.00000  -0.01093  -0.01096  -2.92280
    D3        2.83370   0.00055   0.00000   0.01696   0.01699   2.85070
    D4       -0.37761   0.00052   0.00000   0.01607   0.01611  -0.36150
    D5        3.06595   0.00003   0.00000   0.00081   0.00081   3.06676
    D6       -0.06107   0.00007   0.00000   0.00272   0.00272  -0.05835
    D7       -0.00631   0.00006   0.00000   0.00177   0.00177  -0.00454
    D8       -3.13333   0.00010   0.00000   0.00367   0.00367  -3.12966
    D9       -0.00797   0.00009   0.00000   0.00533   0.00533  -0.00264
   D10        3.12049  -0.00006   0.00000  -0.00445  -0.00444   3.11604
   D11        3.11968   0.00004   0.00000   0.00349   0.00349   3.12317
   D12       -0.03505  -0.00010   0.00000  -0.00629  -0.00629  -0.04134
         Item               Value     Threshold  Converged?
 Maximum Force            0.004966     0.000450     NO 
 RMS     Force            0.001215     0.000300     NO 
 Maximum Displacement     0.018222     0.001800     NO 
 RMS     Displacement     0.007680     0.001200     NO 
 Predicted change in Energy=-5.473835D-05
 Lowest energy point so far.  Saving SCF results.
 GradGradGradGradGradGradGradGradGradGradGradGradGradGradGradGradGradGrad

 Leave Link  103 at Sun Oct 16 05:44:55 2022, MaxMem=  8053063680 cpu:               3.3 elap:               0.1
 (Enter /public3/home/scg5914/software-scg5914/g16/l202.exe)
                          Input orientation:                          
 ---------------------------------------------------------------------
 Center     Atomic      Atomic             Coordinates (Angstroms)
 Number     Number       Type             X           Y           Z
 ---------------------------------------------------------------------
      1          7           0        0.030239    0.875292    0.104032
      2          1           0        0.039773   -0.118286   -0.077281
      3          1           0        0.871592    1.360405   -0.165597
      4          6           0       -1.137217    1.572347    0.025206
      5          7           0       -2.317137    1.014950    0.032586
      6          6           0       -3.585971    1.645945    0.039045
      7          6           0       -3.602767    3.037649    0.040739
      8          7           0       -3.490170    4.196564    0.039681
      9          6           0       -4.701903    0.809786    0.014567
     10          7           0       -5.598858    0.068293   -0.004571
     11          1           0       -1.089572    2.653353    0.019291
     12          1           0       -2.371943    0.001108    0.048834
 ---------------------------------------------------------------------
                    Distance matrix (angstroms):
                    1          2          3          4          5
     1  N    0.000000
     2  H    1.010032   0.000000
     3  H    1.007923   1.698897   0.000000
     4  C    1.362003   2.062535   2.028950   0.000000
     5  N    2.352612   2.617503   3.213505   1.304974   0.000000
     6  C    3.697987   4.033865   4.471385   2.449899   1.417087
     7  C    4.228301   4.820992   4.782846   2.868151   2.396711
     8  N    4.840275   5.576030   5.206813   3.524643   3.390977
     9  C    4.733441   4.832520   5.603525   3.645353   2.393643
    10  N    5.687687   5.642186   6.600168   4.708430   3.415733
    11  H    2.103011   2.994450   2.356281   1.082071   2.047305
    12  H    2.556897   2.417961   3.523377   1.998474   1.015452
                    6          7          8          9         10
     6  C    0.000000
     7  C    1.391807   0.000000
     8  N    2.552417   1.164372   0.000000
     9  C    1.394656   2.484383   3.597108   0.000000
    10  N    2.557851   3.578199   4.635854   1.163919   0.000000
    11  H    2.692075   2.542498   2.853907   4.055576   5.197765
    12  H    2.044370   3.276519   4.341931   2.466546   3.228056
                   11         12
    11  H    0.000000
    12  H    2.946141   0.000000
 Stoichiometry    C4H4N4
 Framework group  C1[X(C4H4N4)]
 Deg. of freedom    30
 Full point group                 C1      NOp   1
 RotChk:  IX=0 Diff= 3.06D-03
 Largest Abelian subgroup         C1      NOp   1
 Largest concise Abelian subgroup C1      NOp   1
                         Standard orientation:                         
 ---------------------------------------------------------------------
 Center     Atomic      Atomic             Coordinates (Angstroms)
 Number     Number       Type             X           Y           Z
 ---------------------------------------------------------------------
      1          7           0       -2.908173   -0.660840   -0.059569
      2          1           0       -2.937025   -1.655062    0.116085
      3          1           0       -3.737784   -0.160182    0.217911
      4          6           0       -1.726211    0.011674    0.016221
      5          7           0       -0.558043   -0.569729   -0.001476
      6          6           0        0.723413    0.035163   -0.011960
      7          6           0        0.768759    1.426217   -0.005757
      8          7           0        0.679979    2.587169    0.002640
      9          6           0        1.822074   -0.823814    0.000983
     10          7           0        2.703720   -1.583629    0.010452
     11          1           0       -1.751624    1.093375    0.028635
     12          1           0       -0.524154   -1.584368   -0.023881
 ---------------------------------------------------------------------
 Rotational constants (GHZ):           2.8305956           1.4595678           0.9634230
 Leave Link  202 at Sun Oct 16 05:44:55 2022, MaxMem=  8053063680 cpu:               0.1 elap:               0.0
 (Enter /public3/home/scg5914/software-scg5914/g16/l301.exe)
 Standard basis: 6-311+G(d,p) (5D, 7F)
 Ernie: Thresh=  0.10000D-02 Tol=  0.10000D-05 Strict=F.
 There are   208 symmetry adapted cartesian basis functions of A   symmetry.
 There are   200 symmetry adapted basis functions of A   symmetry.
   200 basis functions,   320 primitive gaussians,   208 cartesian basis functions
    28 alpha electrons       28 beta electrons
       nuclear repulsion energy       304.1128711179 Hartrees.
 IExCor=  402 DFT=T Ex+Corr=B3LYP ExCW=0 ScaHFX=  0.200000
 ScaDFX=  0.800000  0.720000  1.000000  0.810000 ScalE2=  1.000000  1.000000
 IRadAn=      5 IRanWt=     -1 IRanGd=            0 ICorTp=0 IEmpDi=141
 NAtoms=   12 NActive=   12 NUniq=   12 SFac= 1.00D+00 NAtFMM=   60 NAOKFM=F Big=F
 Integral buffers will be    131072 words long.
 Raffenetti 2 integral format.
 Two-electron integral symmetry is turned on.
 R6Disp:  Grimme-D3(BJ) Dispersion energy=       -0.0184466426 Hartrees.
 Nuclear repulsion after empirical dispersion term =      304.0944244753 Hartrees.
 Leave Link  301 at Sun Oct 16 05:44:55 2022, MaxMem=  8053063680 cpu:               0.6 elap:               0.0
 (Enter /public3/home/scg5914/software-scg5914/g16/l302.exe)
 NPDir=0 NMtPBC=     1 NCelOv=     1 NCel=       1 NClECP=     1 NCelD=      1
         NCelK=      1 NCelE2=     1 NClLst=     1 CellRange=     0.0.
 One-electron integrals computed using PRISM.
 One-electron integral symmetry used in STVInt
 NBasis=   200 RedAO= T EigKep=  4.66D-06  NBF=   200
 NBsUse=   200 1.00D-06 EigRej= -1.00D+00 NBFU=   200
 Precomputing XC quadrature grid using
 IXCGrd= 4 IRadAn=           5 IRanWt=          -1 IRanGd=           0 AccXCQ= 0.00D+00.
 Generated NRdTot=       0 NPtTot=           0 NUsed=           0 NTot=          32
 NSgBfM=   208   208   208   208   208 MxSgAt=    12 MxSgA2=    12.
 Leave Link  302 at Sun Oct 16 05:44:55 2022, MaxMem=  8053063680 cpu:               3.2 elap:               0.1
 (Enter /public3/home/scg5914/software-scg5914/g16/l303.exe)
 DipDrv:  MaxL=1.
 Leave Link  303 at Sun Oct 16 05:44:55 2022, MaxMem=  8053063680 cpu:               1.1 elap:               0.1
 (Enter /public3/home/scg5914/software-scg5914/g16/l401.exe)
 Initial guess from the checkpoint file:  "dsgdb9nsd_009986.chk"
 B after Tr=    -0.000000   -0.000000    0.000000
         Rot=    0.999999    0.000015    0.000004   -0.001486 Ang=   0.17 deg.
 Guess basis will be translated and rotated to current coordinates.
 JPrj=2 DoOrth=T DoCkMO=T.
 Leave Link  401 at Sun Oct 16 05:44:55 2022, MaxMem=  8053063680 cpu:               1.6 elap:               0.1
 (Enter /public3/home/scg5914/software-scg5914/g16/l502.exe)
 Keep R1 ints in memory in canonical form, NReq=235246854.
 FoFCou: FMM=F IPFlag=           0 FMFlag=           0 FMFlg1=           0
         NFxFlg=           0 DoJE=F BraDBF=F KetDBF=F FulRan=T
         wScrn=  0.000000 ICntrl=       600 IOpCl=  0 I1Cent=           0 NGrid=           0
         NMat0=    1 NMatS0=  20100 NMatT0=    0 NMatD0=    1 NMtDS0=    0 NMtDT0=    0
 Symmetry not used in FoFCou.
 Two-electron integral symmetry not used.
 Closed shell SCF:
 Using DIIS extrapolation, IDIIS=  1040.
 NGot=  8053063680 LenX=  7850953144 LenY=  7850909439
 Requested convergence on RMS density matrix=1.00D-08 within 128 cycles.
 Requested convergence on MAX density matrix=1.00D-06.
 Requested convergence on             energy=1.00D-06.
 No special actions if energy rises.

 Cycle   1  Pass 1  IDiag  1:
 E= -373.883705009598    
 DIIS: error= 5.03D-04 at cycle   1 NSaved=   1.
 NSaved= 1 IEnMin= 1 EnMin= -373.883705009598     IErMin= 1 ErrMin= 5.03D-04
 ErrMax= 5.03D-04  0.00D+00 EMaxC= 1.00D-01 BMatC= 1.37D-04 BMatP= 1.37D-04
 IDIUse=3 WtCom= 9.95D-01 WtEn= 5.03D-03
 Coeff-Com:  0.100D+01
 Coeff-En:   0.100D+01
 Coeff:      0.100D+01
 Gap=     0.333 Goal=   None    Shift=    0.000
 RMSDP=4.45D-04 MaxDP=2.97D-02              OVMax= 3.38D-03

 Cycle   2  Pass 1  IDiag  1:
 E= -373.883856550898     Delta-E=       -0.000151541301 Rises=F Damp=F
 DIIS: error= 1.27D-04 at cycle   2 NSaved=   2.
 NSaved= 2 IEnMin= 2 EnMin= -373.883856550898     IErMin= 2 ErrMin= 1.27D-04
 ErrMax= 1.27D-04  0.00D+00 EMaxC= 1.00D-01 BMatC= 3.93D-06 BMatP= 1.37D-04
 IDIUse=3 WtCom= 9.99D-01 WtEn= 1.27D-03
 Coeff-Com: -0.808D-02 0.101D+01
 Coeff-En:   0.000D+00 0.100D+01
 Coeff:     -0.807D-02 0.101D+01
 Gap=     0.131 Goal=   None    Shift=    0.000
 RMSDP=7.84D-05 MaxDP=5.67D-03 DE=-1.52D-04 OVMax= 2.60D-03

 Cycle   3  Pass 1  IDiag  1:
 E= -373.883852823067     Delta-E=        0.000003727831 Rises=F Damp=F
 DIIS: error= 2.10D-04 at cycle   3 NSaved=   3.
 NSaved= 3 IEnMin= 2 EnMin= -373.883856550898     IErMin= 2 ErrMin= 1.27D-04
 ErrMax= 2.10D-04  0.00D+00 EMaxC= 1.00D-01 BMatC= 7.60D-06 BMatP= 3.93D-06
 IDIUse=3 WtCom= 4.08D-01 WtEn= 5.92D-01
 Coeff-Com: -0.272D-01 0.611D+00 0.416D+00
 Coeff-En:   0.000D+00 0.650D+00 0.350D+00
 Coeff:     -0.111D-01 0.634D+00 0.377D+00
 Gap=     0.131 Goal=   None    Shift=    0.000
 RMSDP=3.57D-05 MaxDP=1.97D-03 DE= 3.73D-06 OVMax= 2.01D-03

 Cycle   4  Pass 1  IDiag  1:
 E= -373.883860469181     Delta-E=       -0.000007646113 Rises=F Damp=F
 DIIS: error= 5.18D-05 at cycle   4 NSaved=   4.
 NSaved= 4 IEnMin= 4 EnMin= -373.883860469181     IErMin= 4 ErrMin= 5.18D-05
 ErrMax= 5.18D-05  0.00D+00 EMaxC= 1.00D-01 BMatC= 5.74D-07 BMatP= 3.93D-06
 IDIUse=1 WtCom= 1.00D+00 WtEn= 0.00D+00
 Coeff-Com: -0.158D-01 0.271D+00 0.239D+00 0.506D+00
 Coeff:     -0.158D-01 0.271D+00 0.239D+00 0.506D+00
 Gap=     0.131 Goal=   None    Shift=    0.000
 RMSDP=1.59D-05 MaxDP=1.52D-03 DE=-7.65D-06 OVMax= 2.12D-04

 Cycle   5  Pass 1  IDiag  1:
 E= -373.883860922852     Delta-E=       -0.000000453671 Rises=F Damp=F
 DIIS: error= 1.88D-05 at cycle   5 NSaved=   5.
 NSaved= 5 IEnMin= 5 EnMin= -373.883860922852     IErMin= 5 ErrMin= 1.88D-05
 ErrMax= 1.88D-05  0.00D+00 EMaxC= 1.00D-01 BMatC= 6.97D-08 BMatP= 5.74D-07
 IDIUse=1 WtCom= 1.00D+00 WtEn= 0.00D+00
 Coeff-Com: -0.481D-02 0.699D-01 0.866D-01 0.290D+00 0.559D+00
 Coeff:     -0.481D-02 0.699D-01 0.866D-01 0.290D+00 0.559D+00
 Gap=     0.131 Goal=   None    Shift=    0.000
 RMSDP=3.20D-06 MaxDP=2.08D-04 DE=-4.54D-07 OVMax= 1.05D-04

 Cycle   6  Pass 1  IDiag  1:
 E= -373.883860976289     Delta-E=       -0.000000053437 Rises=F Damp=F
 DIIS: error= 8.73D-06 at cycle   6 NSaved=   6.
 NSaved= 6 IEnMin= 6 EnMin= -373.883860976289     IErMin= 6 ErrMin= 8.73D-06
 ErrMax= 8.73D-06  0.00D+00 EMaxC= 1.00D-01 BMatC= 1.12D-08 BMatP= 6.97D-08
 IDIUse=1 WtCom= 1.00D+00 WtEn= 0.00D+00
 Coeff-Com: -0.695D-03 0.192D-02 0.197D-01 0.110D+00 0.341D+00 0.528D+00
 Coeff:     -0.695D-03 0.192D-02 0.197D-01 0.110D+00 0.341D+00 0.528D+00
 Gap=     0.131 Goal=   None    Shift=    0.000
 RMSDP=1.20D-06 MaxDP=6.46D-05 DE=-5.34D-08 OVMax= 6.91D-05

 Cycle   7  Pass 1  IDiag  1:
 E= -373.883860984423     Delta-E=       -0.000000008134 Rises=F Damp=F
 DIIS: error= 5.85D-06 at cycle   7 NSaved=   7.
 NSaved= 7 IEnMin= 7 EnMin= -373.883860984423     IErMin= 7 ErrMin= 5.85D-06
 ErrMax= 5.85D-06  0.00D+00 EMaxC= 1.00D-01 BMatC= 2.47D-09 BMatP= 1.12D-08
 IDIUse=1 WtCom= 1.00D+00 WtEn= 0.00D+00
 Coeff-Com:  0.161D-03-0.960D-02 0.108D-02 0.389D-01 0.171D+00 0.371D+00
 Coeff-Com:  0.427D+00
 Coeff:      0.161D-03-0.960D-02 0.108D-02 0.389D-01 0.171D+00 0.371D+00
 Coeff:      0.427D+00
 Gap=     0.131 Goal=   None    Shift=    0.000
 RMSDP=6.87D-07 MaxDP=4.86D-05 DE=-8.13D-09 OVMax= 2.64D-05

 Cycle   8  Pass 1  IDiag  1:
 E= -373.883860986622     Delta-E=       -0.000000002198 Rises=F Damp=F
 DIIS: error= 1.35D-06 at cycle   8 NSaved=   8.
 NSaved= 8 IEnMin= 8 EnMin= -373.883860986622     IErMin= 8 ErrMin= 1.35D-06
 ErrMax= 1.35D-06  0.00D+00 EMaxC= 1.00D-01 BMatC= 2.28D-10 BMatP= 2.47D-09
 IDIUse=1 WtCom= 1.00D+00 WtEn= 0.00D+00
 Coeff-Com:  0.205D-03-0.695D-02-0.224D-02 0.109D-01 0.671D-01 0.167D+00
 Coeff-Com:  0.274D+00 0.490D+00
 Coeff:      0.205D-03-0.695D-02-0.224D-02 0.109D-01 0.671D-01 0.167D+00
 Coeff:      0.274D+00 0.490D+00
 Gap=     0.131 Goal=   None    Shift=    0.000
 RMSDP=2.24D-07 MaxDP=2.04D-05 DE=-2.20D-09 OVMax= 4.60D-06

 Cycle   9  Pass 1  IDiag  1:
 E= -373.883860986789     Delta-E=       -0.000000000167 Rises=F Damp=F
 DIIS: error= 6.18D-07 at cycle   9 NSaved=   9.
 NSaved= 9 IEnMin= 9 EnMin= -373.883860986789     IErMin= 9 ErrMin= 6.18D-07
 ErrMax= 6.18D-07  0.00D+00 EMaxC= 1.00D-01 BMatC= 4.74D-11 BMatP= 2.28D-10
 IDIUse=1 WtCom= 1.00D+00 WtEn= 0.00D+00
 Coeff-Com:  0.121D-03-0.357D-02-0.182D-02 0.192D-02 0.225D-01 0.622D-01
 Coeff-Com:  0.131D+00 0.341D+00 0.447D+00
 Coeff:      0.121D-03-0.357D-02-0.182D-02 0.192D-02 0.225D-01 0.622D-01
 Coeff:      0.131D+00 0.341D+00 0.447D+00
 Gap=     0.131 Goal=   None    Shift=    0.000
 RMSDP=7.94D-08 MaxDP=6.23D-06 DE=-1.67D-10 OVMax= 3.26D-06

 Cycle  10  Pass 1  IDiag  1:
 E= -373.883860986828     Delta-E=       -0.000000000039 Rises=F Damp=F
 DIIS: error= 1.81D-07 at cycle  10 NSaved=  10.
 NSaved=10 IEnMin=10 EnMin= -373.883860986828     IErMin=10 ErrMin= 1.81D-07
 ErrMax= 1.81D-07  0.00D+00 EMaxC= 1.00D-01 BMatC= 5.73D-12 BMatP= 4.74D-11
 IDIUse=1 WtCom= 1.00D+00 WtEn= 0.00D+00
 Coeff-Com:  0.316D-04-0.727D-03-0.565D-03-0.764D-03 0.827D-03 0.428D-02
 Coeff-Com:  0.230D-01 0.110D+00 0.287D+00 0.577D+00
 Coeff:      0.316D-04-0.727D-03-0.565D-03-0.764D-03 0.827D-03 0.428D-02
 Coeff:      0.230D-01 0.110D+00 0.287D+00 0.577D+00
 Gap=     0.131 Goal=   None    Shift=    0.000
 RMSDP=1.96D-08 MaxDP=8.08D-07 DE=-3.92D-11 OVMax= 7.13D-07

 Cycle  11  Pass 1  IDiag  1:
 E= -373.883860986833     Delta-E=       -0.000000000005 Rises=F Damp=F
 DIIS: error= 5.28D-08 at cycle  11 NSaved=  11.
 NSaved=11 IEnMin=11 EnMin= -373.883860986833     IErMin=11 ErrMin= 5.28D-08
 ErrMax= 5.28D-08  0.00D+00 EMaxC= 1.00D-01 BMatC= 6.77D-13 BMatP= 5.73D-12
 IDIUse=1 WtCom= 1.00D+00 WtEn= 0.00D+00
 Coeff-Com:  0.392D-05 0.220D-04-0.697D-04-0.573D-03-0.197D-02-0.432D-02
 Coeff-Com: -0.274D-02 0.233D-01 0.115D+00 0.336D+00 0.536D+00
 Coeff:      0.392D-05 0.220D-04-0.697D-04-0.573D-03-0.197D-02-0.432D-02
 Coeff:     -0.274D-02 0.233D-01 0.115D+00 0.336D+00 0.536D+00
 Gap=     0.131 Goal=   None    Shift=    0.000
 RMSDP=9.69D-09 MaxDP=8.25D-07 DE=-5.00D-12 OVMax= 2.57D-07

 SCF Done:  E(RB3LYP) =  -373.883860987     A.U. after   11 cycles
            NFock= 11  Conv=0.97D-08     -V/T= 2.0039
 KE= 3.724164623109D+02 PE=-1.479049270809D+03 EE= 4.286545230364D+02
 Leave Link  502 at Sun Oct 16 05:45:00 2022, MaxMem=  8053063680 cpu:             111.7 elap:               4.7
 (Enter /public3/home/scg5914/software-scg5914/g16/l701.exe)
 ... and contract with generalized density number  0.
 Compute integral first derivatives.
 R6Disp: Adding Grimme-D3(BJ) dispersion energy 1st derivatives to the gradient.
 Leave Link  701 at Sun Oct 16 05:45:00 2022, MaxMem=  8053063680 cpu:               2.7 elap:               0.1
 (Enter /public3/home/scg5914/software-scg5914/g16/l702.exe)
 L702 exits ... SP integral derivatives will be done elsewhere.
 Leave Link  702 at Sun Oct 16 05:45:00 2022, MaxMem=  8053063680 cpu:               0.6 elap:               0.0
 (Enter /public3/home/scg5914/software-scg5914/g16/l703.exe)
 Integral derivatives from FoFJK, PRISM(SPDF).
 Compute integral first derivatives, UseDBF=F ICtDFT=           0.
 Calling FoFJK, ICntrl=      2127 FMM=F ISym2X=0 I1Cent= 0 IOpClX= 0 NMat=1 NMatS=1 NMatT=0.
 FoFJK:  IHMeth= 1 ICntrl=    2127 DoSepK=F KAlg= 0 I1Cent=           0 FoldK=F
 IRaf=         0 NMat=       1 IRICut=       1 DoRegI=T DoRafI=F ISym2E= 0 IDoP0=0 IntGTp=1.
 FoFCou: FMM=F IPFlag=           0 FMFlag=      100000 FMFlg1=         800
         NFxFlg=           0 DoJE=F BraDBF=F KetDBF=F FulRan=T
         wScrn=  0.000000 ICntrl=      2127 IOpCl=  0 I1Cent=           0 NGrid=           0
         NMat0=    1 NMatS0=      1 NMatT0=    0 NMatD0=    1 NMtDS0=    0 NMtDT0=    0
 Symmetry not used in FoFCou.
 Leave Link  703 at Sun Oct 16 05:45:01 2022, MaxMem=  8053063680 cpu:              27.1 elap:               0.9
 (Enter /public3/home/scg5914/software-scg5914/g16/l716.exe)
 Dipole        =-3.91324920D+00-1.32416430D+00 2.63700326D-01
 ***** Axes restored to original set *****
 -------------------------------------------------------------------
 Center     Atomic                   Forces (Hartrees/Bohr)
 Number     Number              X              Y              Z
 -------------------------------------------------------------------
      1        7          -0.000222551    0.000021271   -0.001206677
      2        1          -0.000047437    0.000239709    0.000346177
      3        1          -0.000169195   -0.000004680    0.000491213
      4        6           0.000482964    0.000119564    0.000460100
      5        7           0.000057359   -0.000557493   -0.000010577
      6        6          -0.000250109    0.000069572   -0.000019597
      7        6           0.000246000    0.000019469   -0.000071709
      8        7          -0.000116929   -0.000060095    0.000059128
      9        6          -0.000311681   -0.000076027   -0.000038679
     10        7           0.000196329    0.000165454    0.000025972
     11        1           0.000077516   -0.000095776   -0.000104312
     12        1           0.000057734    0.000159033    0.000068959
 -------------------------------------------------------------------
 Cartesian Forces:  Max     0.001206677 RMS     0.000294111
 Leave Link  716 at Sun Oct 16 05:45:01 2022, MaxMem=  8053063680 cpu:               0.3 elap:               0.0
 (Enter /public3/home/scg5914/software-scg5914/g16/l103.exe)

 GradGradGradGradGradGradGradGradGradGradGradGradGradGradGradGradGradGrad
 Berny optimization.
 Using GEDIIS/GDIIS optimizer.
 FormGI is forming the generalized inverse of G from B-inverse, IUseBI=4.
 Internal  Forces:  Max     0.000528798 RMS     0.000190324
 Search for a local minimum.
 Step number   2 out of a maximum of   49
 All quantities printed in internal units (Hartrees-Bohrs-Radians)
 RMS Force = .19032D-03 SwitMx=.10000D-02 MixMth= 2
 Mixed Optimization -- En-DIIS/RFO-DIIS
 Update second derivatives using D2CorX and points    1    2
 DE= -6.42D-05 DEPred=-5.47D-05 R= 1.17D+00
 TightC=F SS=  1.41D+00  RLast= 3.47D-02 DXNew= 5.0454D-01 1.0401D-01
 Trust test= 1.17D+00 RLast= 3.47D-02 DXMaxT set to 3.00D-01
 ITU=  1  0
 Use linear search instead of GDIIS.
     Eigenvalues ---    0.01485   0.01511   0.02102   0.02253   0.02494
     Eigenvalues ---    0.02624   0.02967   0.04776   0.04784   0.04790
     Eigenvalues ---    0.05031   0.15908   0.15995   0.16000   0.16042
     Eigenvalues ---    0.21324   0.22136   0.24632   0.25131   0.35597
     Eigenvalues ---    0.42753   0.45327   0.46240   0.46385   0.46530
     Eigenvalues ---    0.48043   0.55028   0.65785   1.23813   1.30128
 RFO step:  Lambda=-1.90586558D-05 EMin= 1.48544205D-02
 Quartic linear search produced a step of  0.22377.
 Iteration  1 RMS(Cart)=  0.00494232 RMS(Int)=  0.00005243
 Iteration  2 RMS(Cart)=  0.00003799 RMS(Int)=  0.00003869
 Iteration  3 RMS(Cart)=  0.00000000 RMS(Int)=  0.00003869
 ITry= 1 IFail=0 DXMaxC= 1.44D-02 DCOld= 1.00D+10 DXMaxT= 3.00D-01 DXLimC= 3.00D+00 Rises=F
 Variable       Old X    -DE/DX   Delta X   Delta X   Delta X     New X
                                 (Linear)    (Quad)   (Total)
    R1        1.90868  -0.00030   0.00044  -0.00090  -0.00046   1.90823
    R2        1.90470  -0.00028   0.00039  -0.00082  -0.00043   1.90427
    R3        2.57381  -0.00053   0.00046  -0.00134  -0.00088   2.57293
    R4        2.46604   0.00023   0.00023   0.00037   0.00060   2.46665
    R5        2.04482  -0.00009  -0.00036  -0.00023  -0.00059   2.04423
    R6        2.67791   0.00026   0.00075   0.00057   0.00132   2.67923
    R7        1.91893  -0.00016   0.00036  -0.00052  -0.00016   1.91877
    R8        2.63013  -0.00004  -0.00068   0.00005  -0.00063   2.62951
    R9        2.63552   0.00004  -0.00033   0.00018  -0.00015   2.63537
   R10        2.20034  -0.00007  -0.00090   0.00015  -0.00075   2.19959
   R11        2.19949  -0.00026  -0.00077  -0.00007  -0.00084   2.19865
    A1        2.00155   0.00010   0.00072   0.00378   0.00435   2.00591
    A2        2.09573   0.00010   0.00142   0.00309   0.00438   2.10011
    A3        2.04171   0.00011   0.00116   0.00326   0.00429   2.04600
    A4        2.16047  -0.00002  -0.00084   0.00010  -0.00074   2.15973
    A5        2.06446  -0.00006   0.00018  -0.00049  -0.00031   2.06415
    A6        2.05619   0.00009   0.00065   0.00058   0.00122   2.05741
    A7        2.23879  -0.00028  -0.00117  -0.00131  -0.00247   2.23632
    A8        2.06615   0.00010   0.00025   0.00037   0.00062   2.06677
    A9        1.97814   0.00019   0.00092   0.00093   0.00185   1.97999
   A10        2.04435  -0.00019  -0.00003  -0.00089  -0.00092   2.04343
   A11        2.03689   0.00028   0.00072   0.00124   0.00196   2.03885
   A12        2.20169  -0.00009  -0.00073  -0.00026  -0.00099   2.20070
   A13        3.03269   0.00025  -0.00165   0.00675   0.00511   3.03779
   A14        3.09384   0.00001   0.00093  -0.00008   0.00084   3.09469
   A15        3.14456   0.00011  -0.00024   0.00299   0.00275   3.14731
   A16        3.14059  -0.00004  -0.00011  -0.00102  -0.00113   3.13946
    D1        0.28939  -0.00026  -0.00225  -0.00807  -0.01035   0.27904
    D2       -2.92280  -0.00019  -0.00245  -0.00489  -0.00738  -2.93018
    D3        2.85070   0.00032   0.00380   0.01163   0.01547   2.86616
    D4       -0.36150   0.00039   0.00360   0.01481   0.01844  -0.34306
    D5        3.06676   0.00006   0.00018   0.00254   0.00273   3.06949
    D6       -0.05835   0.00007   0.00061   0.00306   0.00367  -0.05469
    D7       -0.00454  -0.00000   0.00040  -0.00058  -0.00018  -0.00472
    D8       -3.12966   0.00001   0.00082  -0.00006   0.00076  -3.12890
    D9       -0.00264  -0.00004   0.00119  -0.00356  -0.00237  -0.00501
   D10        3.11604   0.00001  -0.00099   0.00097  -0.00003   3.11602
   D11        3.12317  -0.00005   0.00078  -0.00406  -0.00328   3.11989
   D12       -0.04134   0.00000  -0.00141   0.00047  -0.00094  -0.04228
         Item               Value     Threshold  Converged?
 Maximum Force            0.000529     0.000450     NO 
 RMS     Force            0.000190     0.000300     YES
 Maximum Displacement     0.014373     0.001800     NO 
 RMS     Displacement     0.004933     0.001200     NO 
 Predicted change in Energy=-1.179661D-05
 Lowest energy point so far.  Saving SCF results.
 GradGradGradGradGradGradGradGradGradGradGradGradGradGradGradGradGradGrad

 Leave Link  103 at Sun Oct 16 05:45:01 2022, MaxMem=  8053063680 cpu:               0.9 elap:               0.0
 (Enter /public3/home/scg5914/software-scg5914/g16/l202.exe)
                          Input orientation:                          
 ---------------------------------------------------------------------
 Center     Atomic      Atomic             Coordinates (Angstroms)
 Number     Number       Type             X           Y           Z
 ---------------------------------------------------------------------
      1          7           0        0.030167    0.876415    0.098372
      2          1           0        0.043299   -0.118358   -0.074635
      3          1           0        0.874358    1.363311   -0.157991
      4          6           0       -1.137750    1.572097    0.022315
      5          7           0       -2.316942    1.012433    0.030980
      6          6           0       -3.585981    1.644585    0.037269
      7          6           0       -3.600560    3.035981    0.040143
      8          7           0       -3.491935    4.194869    0.043690
      9          6           0       -4.704052    0.811372    0.014399
     10          7           0       -5.603254    0.073246   -0.002218
     11          1           0       -1.090762    2.652808    0.014852
     12          1           0       -2.370521   -0.001354    0.049359
 ---------------------------------------------------------------------
                    Distance matrix (angstroms):
                    1          2          3          4          5
     1  N    0.000000
     2  H    1.009791   0.000000
     3  H    1.007695   1.700868   0.000000
     4  C    1.361538   2.064440   2.030931   0.000000
     5  N    2.352012   2.619270   3.216088   1.305294   0.000000
     6  C    3.697342   4.036355   4.473462   2.449349   1.417786
     7  C    4.224842   4.820864   4.781420   2.865084   2.396353
     8  N    4.839455   5.578154   5.207966   3.524426   3.392443
     9  C    4.735410   4.838353   5.608299   3.646542   2.395620
    10  N    5.691277   5.650267   6.606663   4.710401   3.418044
    11  H    2.102149   2.995574   2.356772   1.081759   2.048075
    12  H    2.556596   2.419833   3.526265   1.999051   1.015368
                    6          7          8          9         10
     6  C    0.000000
     7  C    1.391476   0.000000
     8  N    2.552026   1.163973   0.000000
     9  C    1.394578   2.483393   3.594181   0.000000
    10  N    2.557353   3.576363   4.631150   1.163473   0.000000
    11  H    2.691308   2.539006   2.853842   4.055460   5.197790
    12  H    2.046119   3.276963   4.343488   2.471257   3.234005
                   11         12
    11  H    0.000000
    12  H    2.946787   0.000000
 Stoichiometry    C4H4N4
 Framework group  C1[X(C4H4N4)]
 Deg. of freedom    30
 Full point group                 C1      NOp   1
 RotChk:  IX=0 Diff= 1.70D-03
 Largest Abelian subgroup         C1      NOp   1
 Largest concise Abelian subgroup C1      NOp   1
                         Standard orientation:                         
 ---------------------------------------------------------------------
 Center     Atomic      Atomic             Coordinates (Angstroms)
 Number     Number       Type             X           Y           Z
 ---------------------------------------------------------------------
      1          7           0       -2.908903   -0.658786   -0.057660
      2          1           0       -2.941911   -1.654182    0.108997
      3          1           0       -3.741476   -0.156114    0.206143
      4          6           0       -1.726373    0.011921    0.016917
      5          7           0       -0.559163   -0.572097   -0.001375
      6          6           0        0.722732    0.033530   -0.010068
      7          6           0        0.766301    1.424311   -0.004048
      8          7           0        0.681843    2.585207    0.000428
      9          6           0        1.823290   -0.822906    0.001723
     10          7           0        2.706980   -1.579681    0.008992
     11          1           0       -1.750784    1.093305    0.031584
     12          1           0       -0.526822   -1.586638   -0.026561
 ---------------------------------------------------------------------
 Rotational constants (GHZ):           2.8370721           1.4578570           0.9633893
 Leave Link  202 at Sun Oct 16 05:45:01 2022, MaxMem=  8053063680 cpu:               0.1 elap:               0.0
 (Enter /public3/home/scg5914/software-scg5914/g16/l301.exe)
 Standard basis: 6-311+G(d,p) (5D, 7F)
 Ernie: Thresh=  0.10000D-02 Tol=  0.10000D-05 Strict=F.
 There are   208 symmetry adapted cartesian basis functions of A   symmetry.
 There are   200 symmetry adapted basis functions of A   symmetry.
   200 basis functions,   320 primitive gaussians,   208 cartesian basis functions
    28 alpha electrons       28 beta electrons
       nuclear repulsion energy       304.1284731437 Hartrees.
 IExCor=  402 DFT=T Ex+Corr=B3LYP ExCW=0 ScaHFX=  0.200000
 ScaDFX=  0.800000  0.720000  1.000000  0.810000 ScalE2=  1.000000  1.000000
 IRadAn=      5 IRanWt=     -1 IRanGd=            0 ICorTp=0 IEmpDi=141
 NAtoms=   12 NActive=   12 NUniq=   12 SFac= 1.00D+00 NAtFMM=   60 NAOKFM=F Big=F
 Integral buffers will be    131072 words long.
 Raffenetti 2 integral format.
 Two-electron integral symmetry is turned on.
 R6Disp:  Grimme-D3(BJ) Dispersion energy=       -0.0184459404 Hartrees.
 Nuclear repulsion after empirical dispersion term =      304.1100272033 Hartrees.
 Leave Link  301 at Sun Oct 16 05:45:01 2022, MaxMem=  8053063680 cpu:               0.6 elap:               0.0
 (Enter /public3/home/scg5914/software-scg5914/g16/l302.exe)
 NPDir=0 NMtPBC=     1 NCelOv=     1 NCel=       1 NClECP=     1 NCelD=      1
         NCelK=      1 NCelE2=     1 NClLst=     1 CellRange=     0.0.
 One-electron integrals computed using PRISM.
 One-electron integral symmetry used in STVInt
 NBasis=   200 RedAO= T EigKep=  4.64D-06  NBF=   200
 NBsUse=   200 1.00D-06 EigRej= -1.00D+00 NBFU=   200
 Precomputing XC quadrature grid using
 IXCGrd= 4 IRadAn=           5 IRanWt=          -1 IRanGd=           0 AccXCQ= 0.00D+00.
 Generated NRdTot=       0 NPtTot=           0 NUsed=           0 NTot=          32
 NSgBfM=   208   208   208   208   208 MxSgAt=    12 MxSgA2=    12.
 Leave Link  302 at Sun Oct 16 05:45:01 2022, MaxMem=  8053063680 cpu:               4.8 elap:               0.2
 (Enter /public3/home/scg5914/software-scg5914/g16/l303.exe)
 DipDrv:  MaxL=1.
 Leave Link  303 at Sun Oct 16 05:45:01 2022, MaxMem=  8053063680 cpu:               0.4 elap:               0.0
 (Enter /public3/home/scg5914/software-scg5914/g16/l401.exe)
 Initial guess from the checkpoint file:  "dsgdb9nsd_009986.chk"
 B after Tr=     0.000000   -0.000000    0.000000
         Rot=    1.000000    0.000007    0.000003   -0.000028 Ang=   0.00 deg.
 Guess basis will be translated and rotated to current coordinates.
 JPrj=2 DoOrth=T DoCkMO=T.
 Leave Link  401 at Sun Oct 16 05:45:01 2022, MaxMem=  8053063680 cpu:               1.8 elap:               0.1
 (Enter /public3/home/scg5914/software-scg5914/g16/l502.exe)
 Keep R1 ints in memory in canonical form, NReq=235246854.
 FoFCou: FMM=F IPFlag=           0 FMFlag=           0 FMFlg1=           0
         NFxFlg=           0 DoJE=F BraDBF=F KetDBF=F FulRan=T
         wScrn=  0.000000 ICntrl=       600 IOpCl=  0 I1Cent=           0 NGrid=           0
         NMat0=    1 NMatS0=  20100 NMatT0=    0 NMatD0=    1 NMtDS0=    0 NMtDT0=    0
 Symmetry not used in FoFCou.
 Two-electron integral symmetry not used.
 Closed shell SCF:
 Using DIIS extrapolation, IDIIS=  1040.
 NGot=  8053063680 LenX=  7850953144 LenY=  7850909439
 Requested convergence on RMS density matrix=1.00D-08 within 128 cycles.
 Requested convergence on MAX density matrix=1.00D-06.
 Requested convergence on             energy=1.00D-06.
 No special actions if energy rises.

 Cycle   1  Pass 1  IDiag  1:
 E= -373.883811554409    
 DIIS: error= 4.58D-04 at cycle   1 NSaved=   1.
 NSaved= 1 IEnMin= 1 EnMin= -373.883811554409     IErMin= 1 ErrMin= 4.58D-04
 ErrMax= 4.58D-04  0.00D+00 EMaxC= 1.00D-01 BMatC= 5.52D-05 BMatP= 5.52D-05
 IDIUse=3 WtCom= 9.95D-01 WtEn= 4.58D-03
 Coeff-Com:  0.100D+01
 Coeff-En:   0.100D+01
 Coeff:      0.100D+01
 Gap=     0.332 Goal=   None    Shift=    0.000
 RMSDP=1.65D-04 MaxDP=4.28D-03              OVMax= 2.02D-03

 Cycle   2  Pass 1  IDiag  1:
 E= -373.883875606322     Delta-E=       -0.000064051913 Rises=F Damp=F
 DIIS: error= 7.50D-05 at cycle   2 NSaved=   2.
 NSaved= 2 IEnMin= 2 EnMin= -373.883875606322     IErMin= 2 ErrMin= 7.50D-05
 ErrMax= 7.50D-05  0.00D+00 EMaxC= 1.00D-01 BMatC= 1.10D-06 BMatP= 5.52D-05
 IDIUse=1 WtCom= 1.00D+00 WtEn= 0.00D+00
 Coeff-Com: -0.290D-01 0.103D+01
 Coeff:     -0.290D-01 0.103D+01
 Gap=     0.131 Goal=   None    Shift=    0.000
 RMSDP=4.51D-05 MaxDP=3.17D-03 DE=-6.41D-05 OVMax= 1.07D-03

 Cycle   3  Pass 1  IDiag  1:
 E= -373.883875023920     Delta-E=        0.000000582402 Rises=F Damp=F
 DIIS: error= 1.22D-04 at cycle   3 NSaved=   3.
 NSaved= 3 IEnMin= 2 EnMin= -373.883875606322     IErMin= 2 ErrMin= 7.50D-05
 ErrMax= 1.22D-04  0.00D+00 EMaxC= 1.00D-01 BMatC= 1.91D-06 BMatP= 1.10D-06
 IDIUse=3 WtCom= 4.75D-01 WtEn= 5.25D-01
 Coeff-Com: -0.307D-01 0.609D+00 0.422D+00
 Coeff-En:   0.000D+00 0.601D+00 0.399D+00
 Coeff:     -0.146D-01 0.605D+00 0.410D+00
 Gap=     0.131 Goal=   None    Shift=    0.000
 RMSDP=2.11D-05 MaxDP=1.21D-03 DE= 5.82D-07 OVMax= 7.90D-04

 Cycle   4  Pass 1  IDiag  1:
 E= -373.883876710022     Delta-E=       -0.000001686102 Rises=F Damp=F
 DIIS: error= 4.26D-05 at cycle   4 NSaved=   4.
[...]
  26. LP (   1) C   6                / 74. RY*(   2) N   5                    2.52    1.48    0.065
  26. LP (   1) C   6                /105. RY*(  16) C   6                    0.60    2.64    0.042
  26. LP (   1) C   6                /108. RY*(   2) C   7                    1.75    1.93    0.062
  26. LP (   1) C   6                /143. RY*(   3) C   9                    1.28    2.30    0.057
  26. LP (   1) C   6                /145. RY*(   5) C   9                    1.13    0.64    0.029
  26. LP (   1) C   6                /189. BD*(   2) C   4 - N   5          101.32    0.07    0.078
  26. LP (   1) C   6                /196. BD*(   2) C   7 - N   8           63.00    0.26    0.127
  26. LP (   1) C   6                /199. BD*(   2) C   9 - N  10           61.55    0.26    0.127
  27. LP (   1) N   8                /107. RY*(   1) C   7                   17.75    1.55    0.149
  27. LP (   1) N   8                /121. RY*(  15) C   7                    1.03   10.20    0.092
  27. LP (   1) N   8                /122. RY*(  16) C   7                    0.58    7.34    0.059
  27. LP (   1) N   8                /125. RY*(   2) N   8                    0.85    2.19    0.039
  27. LP (   1) N   8                /193. BD*(   1) C   6 - C   7           10.82    1.06    0.096
  28. LP (   1) N  10                /141. RY*(   1) C   9                   17.85    1.62    0.152
  28. LP (   1) N  10                /153. RY*(  13) C   9                    0.58    4.99    0.048
  28. LP (   1) N  10                /154. RY*(  14) C   9                    0.86    3.56    0.050
  28. LP (   1) N  10                /156. RY*(  16) C   9                    0.76   11.51    0.084
  28. LP (   1) N  10                /159. RY*(   2) N  10                    0.95    2.19    0.041
  28. LP (   1) N  10                /194. BD*(   1) C   6 - C   9           11.09    1.06    0.097
 189. BD*(   2) C   4 - N   5        / 29. RY*(   1) N   1                    1.16    0.55    0.047
 189. BD*(   2) C   4 - N   5        / 57. RY*(   2) C   4                    4.43    0.65    0.100
 189. BD*(   2) C   4 - N   5        / 58. RY*(   3) C   4                    0.58    1.52    0.055
 189. BD*(   2) C   4 - N   5        / 76. RY*(   4) N   5                    2.06    1.18    0.092
 189. BD*(   2) C   4 - N   5        /188. BD*(   1) C   4 - N   5            1.12    0.57    0.046
 196. BD*(   2) C   7 - N   8        /108. RY*(   2) C   7                    0.70    1.67    0.099
 196. BD*(   2) C   7 - N   8        /111. RY*(   5) C   7                    2.25    0.66    0.112
 196. BD*(   2) C   7 - N   8        /124. RY*(   1) N   8                    2.67    0.38    0.092
 199. BD*(   2) C   9 - N  10        /143. RY*(   3) C   9                    1.09    2.03    0.134
 199. BD*(   2) C   9 - N  10        /145. RY*(   5) C   9                    2.66    0.38    0.091
 199. BD*(   2) C   9 - N  10        /158. RY*(   1) N  10                    2.39    0.45    0.093


 Natural Bond Orbitals (Summary):

                                                            Principal Delocalizations
           NBO                        Occupancy    Energy   (geminal,vicinal,remote)
 ====================================================================================
 Molecular unit  1  (C4H4N4)
     1. BD (   1) N   1 - H   2          1.98884    -0.74237  190(v),59(v),188(v)
     2. BD (   1) N   1 - H   3          1.98755    -0.73518  188(v),56(v),60(v),189(v)
                                                    190(v)
     3. BD (   1) N   1 - C   4          1.99218    -0.91696  191(v),188(g),73(v)
     4. BD (   1) C   4 - N   5          1.98988    -0.96045  91(v),191(g),186(v),187(g)
                                                    194(v),192(g),94(v)
     5. BD (   2) C   4 - N   5          1.98282    -0.43154  26(v),90(v),29(v)
     6. BD (   1) C   4 - H  11          1.97590    -0.61383  192(v),185(v),73(v),30(v)
                                                    75(v)
     7. BD (   1) N   5 - C   6          1.97626    -0.83881  198(v),195(v),187(v),188(g)
                                                    56(v),197(v),193(g),200(v)
                                                    194(g),142(v),60(v)
     8. BD (   1) N   5 - H  12          1.98007    -0.72896  190(v),193(v),91(v),59(v)
                                                    187(v),56(v)
     9. BD (   1) C   6 - C   7          1.97448    -0.75968  195(g),194(g),198(v),125(v)
                                                    192(v),200(v),142(v),191(g)
                                                    75(v),122(g),121(g)
    10. BD (   1) C   6 - C   9          1.97412    -0.75543  198(g),195(v),193(g),188(v)
                                                    159(v),109(v),191(g),197(v)
                                                    73(v),154(g),156(g)
    11. BD (   1) C   7 - N   8          1.99282    -1.03712  193(g),93(v),107(g),92(v)
    12. BD (   2) C   7 - N   8          1.97462    -0.33672  26(v),90(v)
    13. BD (   3) C   7 - N   8          1.96974    -0.34073  191(v),194(v)
    14. BD (   1) C   9 - N  10          1.99270    -1.03047  194(g),92(v),141(g)
    15. BD (   2) C   9 - N  10          1.98188    -0.33061  26(v),90(v)
    16. BD (   3) C   9 - N  10          1.97013    -0.33377  191(v),193(v)
    17. CR (   1) N   1                  1.99947   -14.24111  59(v),60(v),52(v),46(v)
    18. CR (   1) C   4                  1.99940   -10.19053  191(v),75(v),31(v)
    19. CR (   1) N   5                  1.99929   -14.26414  59(v),94(v),60(v),96(v)
                                                    180(v)
    20. CR (   1) C   6                  1.99879   -10.11673  195(v),198(v),107(v),141(v)
                                                    188(v),110(v),144(v)
    21. CR (   1) C   7                  1.99926   -10.07339  126(v),194(v),91(v),93(v)
                                                    195(g)
    22. CR (   1) N   8                  1.99959   -14.05494  107(v),193(v)
    23. CR (   1) C   9                  1.99926   -10.06918  160(v),91(v),193(v),198(g)
    24. CR (   1) N  10                  1.99959   -14.04696  141(v),194(v)
    25. LP (   1) N   1                  1.77243    -0.34933  189(v),58(v),51(v),47(v)
    26. LP (   1) C   6                  1.41514    -0.15969  189(v),196(v),199(v),74(v)
                                                    108(v),143(v),145(v),105(g)
    27. LP (   1) N   8                  1.97158    -0.50930  107(v),193(v),121(v),125(g)
                                                    122(v)
    28. LP (   1) N  10                  1.97193    -0.50213  141(v),194(v),159(g),154(v)
                                                    156(v),153(v)
    29. RY*(   1) N   1                  0.00351     0.45889   
    30. RY*(   2) N   1                  0.00180     0.74158   
    31. RY*(   3) N   1                  0.00036     0.93008   
    32. RY*(   4) N   1                  0.00010     0.99944   
    33. RY*(   5) N   1                  0.00007     1.29310   
    34. RY*(   6) N   1                  0.00002     1.30169   
    35. RY*(   7) N   1                  0.00003     1.24583   
    36. RY*(   8) N   1                  0.00001     0.65728   
    37. RY*(   9) N   1                  0.00000     3.80230   
    38. RY*(  10) N   1                  0.00000     3.42261   
    39. RY*(  11) N   1                  0.00001     1.87779   
    40. RY*(  12) N   1                  0.00000     3.65655   
    41. RY*(  13) N   1                  0.00000    35.14013   
    42. RY*(  14) N   1                  0.00000     1.90009   
    43. RY*(  15) N   1                  0.00000     2.06808   
    44. RY*(  16) N   1                  0.00001     2.66554   
    45. RY*(  17) N   1                  0.00001     2.37438   
    46. RY*(   1) H   2                  0.00087     0.94314   
    47. RY*(   2) H   2                  0.00067     1.58812   
    48. RY*(   3) H   2                  0.00022     2.05020   
    49. RY*(   4) H   2                  0.00010     1.65628   
    50. RY*(   5) H   2                  0.00003     2.25450   
    51. RY*(   1) H   3                  0.00073     1.61257   
    52. RY*(   2) H   3                  0.00041     1.27488   
    53. RY*(   3) H   3                  0.00021     1.95402   
    54. RY*(   4) H   3                  0.00006     1.52530   
    55. RY*(   5) H   3                  0.00003     2.15221   
    56. RY*(   1) C   4                  0.00471     1.13713   
    57. RY*(   2) C   4                  0.00409     0.55696   
    58. RY*(   3) C   4                  0.00325     1.43403   
    59. RY*(   4) C   4                  0.00278     1.23082   
    60. RY*(   5) C   4                  0.00128     1.01008   
    61. RY*(   6) C   4                  0.00036     1.19154   
    62. RY*(   7) C   4                  0.00011     2.67737   
    63. RY*(   8) C   4                  0.00011     1.78780   
    64. RY*(   9) C   4                  0.00007     3.20058   
    65. RY*(  10) C   4                  0.00004     0.52727   
    66. RY*(  11) C   4                  0.00004     5.40817   
    67. RY*(  12) C   4                  0.00000     2.52938   
    68. RY*(  13) C   4                  0.00001     1.03119   
    69. RY*(  14) C   4                  0.00000    16.78899   
    70. RY*(  15) C   4                  0.00000     1.36653   
    71. RY*(  16) C   4                  0.00001     1.23482   
    72. RY*(  17) C   4                  0.00000     1.92231   
    73. RY*(   1) N   5                  0.00393     0.94810   
    74. RY*(   2) N   5                  0.00210     1.31851   
    75. RY*(   3) N   5                  0.00138     1.27596   
    76. RY*(   4) N   5                  0.00076     1.08870   
    77. RY*(   5) N   5                  0.00037     1.02269   
    78. RY*(   6) N   5                  0.00028     1.65164   
    79. RY*(   7) N   5                  0.00015     1.97483   
    80. RY*(   8) N   5                  0.00011     1.87066   
    81. RY*(   9) N   5                  0.00003     1.51618   
    82. RY*(  10) N   5                  0.00002     2.66855   
    83. RY*(  11) N   5                  0.00001     0.91486   
    84. RY*(  12) N   5                  0.00001     2.54804   
    85. RY*(  13) N   5                  0.00000    34.87626   
    86. RY*(  14) N   5                  0.00001     4.20618   
    87. RY*(  15) N   5                  0.00000     1.48232   
    88. RY*(  16) N   5                  0.00001     3.90047   
    89. RY*(  17) N   5                  0.00000     3.74526   
    90. RY*(   1) C   6                  0.00485     0.72475   
    91. RY*(   2) C   6                  0.00476     1.72148   
    92. RY*(   3) C   6                  0.00346     0.81553   
    93. RY*(   4) C   6                  0.00257     0.97323   
    94. RY*(   5) C   6                  0.00094     1.45837   
    95. RY*(   6) C   6                  0.00084     1.08119   
    96. RY*(   7) C   6                  0.00076     1.94825   
    97. RY*(   8) C   6                  0.00063     1.42125   
    98. RY*(   9) C   6                  0.00045     1.67962   
    99. RY*(  10) C   6                  0.00040     1.16192   
   100. RY*(  11) C   6                  0.00018     2.38035   
   101. RY*(  12) C   6                  0.00007     0.68539   
   102. RY*(  13) C   6                  0.00004     1.81250   
   103. RY*(  14) C   6                  0.00004     2.27967   
   104. RY*(  15) C   6                  0.00000    21.60414   
   105. RY*(  16) C   6                  0.00000     2.47783   
   106. RY*(  17) C   6                  0.00001     2.24158   
   107. RY*(   1) C   7                  0.01630     1.04321   
   108. RY*(   2) C   7                  0.00275     1.77092   
   109. RY*(   3) C   7                  0.00241     0.84857   
   110. RY*(   4) C   7                  0.00091     1.08378   
   111. RY*(   5) C   7                  0.00015     0.76161   
   112. RY*(   6) C   7                  0.00010     4.06505   
   113. RY*(   7) C   7                  0.00008     1.10056   
   114. RY*(   8) C   7                  0.00004     2.48301   
   115. RY*(   9) C   7                  0.00005     2.79349   
   116. RY*(  10) C   7                  0.00002     3.28360   
   117. RY*(  11) C   7                  0.00002     2.59084   
   118. RY*(  12) C   7                  0.00000     2.54920   
   119. RY*(  13) C   7                  0.00000     3.13666   
   120. RY*(  14) C   7                  0.00000     1.19258   
   121. RY*(  15) C   7                  0.00000     9.68749   
   122. RY*(  16) C   7                  0.00000     6.83543   
   123. RY*(  17) C   7                  0.00000     1.67252   
   124. RY*(   1) N   8                  0.00233     0.48003   
   125. RY*(   2) N   8                  0.00162     1.67736   
   126. RY*(   3) N   8                  0.00027     0.90576   
   127. RY*(   4) N   8                  0.00006     1.24450   
   128. RY*(   5) N   8                  0.00005     1.03897   
   129. RY*(   6) N   8                  0.00003     1.17854   
   130. RY*(   7) N   8                  0.00000    35.20361   
   131. RY*(   8) N   8                  0.00000     1.27736   
   132. RY*(   9) N   8                  0.00001     3.48199   
   133. RY*(  10) N   8                  0.00000     3.69207   
   134. RY*(  11) N   8                  0.00000     0.98954   
   135. RY*(  12) N   8                  0.00000     3.59137   
   136. RY*(  13) N   8                  0.00001     1.98538   
   137. RY*(  14) N   8                  0.00000     1.98429   
   138. RY*(  15) N   8                  0.00001     2.07311   
   139. RY*(  16) N   8                  0.00001     2.03884   
   140. RY*(  17) N   8                  0.00000     2.02204   
   141. RY*(   1) C   9                  0.01595     1.11426   
   142. RY*(   2) C   9                  0.00305     0.77584   
   143. RY*(   3) C   9                  0.00231     2.13831   
   144. RY*(   4) C   9                  0.00070     1.04465   
   145. RY*(   5) C   9                  0.00026     0.48224   
   146. RY*(   6) C   9                  0.00007     5.86735   
   147. RY*(   7) C   9                  0.00006     1.90463   
   148. RY*(   8) C   9                  0.00004     1.26023   
   149. RY*(   9) C   9                  0.00003     4.15089   
   150. RY*(  10) C   9                  0.00001     2.58044   
   151. RY*(  11) C   9                  0.00000     1.24639   
   152. RY*(  12) C   9                  0.00000     2.13118   
   153. RY*(  13) C   9                  0.00001     4.49185   
   154. RY*(  14) C   9                  0.00000     3.06112   
   155. RY*(  15) C   9                  0.00001     2.07617   
   156. RY*(  16) C   9                  0.00001    11.00319   
   157. RY*(  17) C   9                  0.00001     1.61764   
   158. RY*(   1) N  10                  0.00195     0.54995   
   159. RY*(   2) N  10                  0.00168     1.69023   
   160. RY*(   3) N  10                  0.00030     0.83666   
   161. RY*(   4) N  10                  0.00005     0.85979   
   162. RY*(   5) N  10                  0.00005     1.41920   
   163. RY*(   6) N  10                  0.00001     2.75734   
   164. RY*(   7) N  10                  0.00000    34.58723   
   165. RY*(   8) N  10                  0.00000     2.14842   
   166. RY*(   9) N  10                  0.00001     3.61318   
   167. RY*(  10) N  10                  0.00001     1.32568   
   168. RY*(  11) N  10                  0.00001     1.41996   
   169. RY*(  12) N  10                  0.00001     3.13386   
   170. RY*(  13) N  10                  0.00001     2.45335   
   171. RY*(  14) N  10                  0.00000     2.03523   
   172. RY*(  15) N  10                  0.00000     2.02157   
   173. RY*(  16) N  10                  0.00001     2.14262   
   174. RY*(  17) N  10                  0.00000     1.94170   
   175. RY*(   1) H  11                  0.00145     0.36613   
   176. RY*(   2) H  11                  0.00022     2.12707   
   177. RY*(   3) H  11                  0.00019     1.61591   
   178. RY*(   4) H  11                  0.00011     1.89875   
   179. RY*(   5) H  11                  0.00003     2.66595   
   180. RY*(   1) H  12                  0.00079     0.98627   
   181. RY*(   2) H  12                  0.00044     1.50858   
   182. RY*(   3) H  12                  0.00028     2.11272   
   183. RY*(   4) H  12                  0.00018     2.06647   
   184. RY*(   5) H  12                  0.00003     2.31200   
   185. BD*(   1) N   1 - H   2          0.00929     0.34622   
   186. BD*(   1) N   1 - H   3          0.00481     0.35610   
   187. BD*(   1) N   1 - C   4          0.00818     0.40147   
   188. BD*(   1) C   4 - N   5          0.01885     0.48422   
   189. BD*(   2) C   4 - N   5          0.45448    -0.08908  26(v),57(g),76(g),29(v)
                                                    188(g),58(g)
   190. BD*(   1) C   4 - H  11          0.01552     0.33873   
   191. BD*(   1) N   5 - C   6          0.04041     0.35841   
   192. BD*(   1) N   5 - H  12          0.01723     0.32329   
   193. BD*(   1) C   6 - C   7          0.03083     0.55291   
   194. BD*(   1) C   6 - C   9          0.02983     0.55324   
   195. BD*(   1) C   7 - N   8          0.01084     0.90059   
   196. BD*(   2) C   7 - N   8          0.18969     0.09803  26(v),124(g),111(g),199(r)
                                                    108(g)
   197. BD*(   3) C   7 - N   8          0.01174     0.09926   
   198. BD*(   1) C   9 - N  10          0.01077     0.90694   
   199. BD*(   2) C   9 - N  10          0.19505     0.10412  26(v),145(g),158(g),196(r)
                                                    143(g)
   200. BD*(   3) C   9 - N  10          0.00994     0.10452   
       -------------------------------
              Total Lewis   54.82968  ( 97.9101%)
        Valence non-Lewis    1.05747  (  1.8883%)
        Rydberg non-Lewis    0.11284  (  0.2015%)
       -------------------------------
            Total unit  1   56.00000  (100.0000%)
           Charge unit  1    0.00000
 Leave Link  607 at Sun Oct 16 05:46:20 2022, MaxMem=  8053063680 cpu:              54.9 elap:               1.8
 (Enter /public3/home/scg5914/software-scg5914/g16/l9999.exe)
 Unable to Open any file for archive entry.
 1\1\GINC-F0902\SP\RB3LYP\Gen\C4H4N4\SCG5914\16-Oct-2022\0\\#p b3lyp/ch
 kbas pop=nbo geom=allcheck guess=tcheck em=gd3bj\\dsgdb9nsd_009986\\0,
 1\N,0,0.0276734714,0.8767909908,0.077965864\H,0,0.0490546065,-0.120006
 3906,-0.0751018186\H,0,0.8790204009,1.3701607499,-0.1338671271\C,0,-1.
 1392623863,1.5699778465,0.019874708\N,0,-2.3187394985,1.0110058491,0.0
 290955565\C,0,-3.5879144912,1.6449955508,0.0368572951\C,0,-3.600394800
 9,3.0363901153,0.0399055105\N,0,-3.4861095618,4.1952499832,0.041116394
 5\C,0,-4.7058542792,0.8118575225,0.018383875\N,0,-5.6047105519,0.07256
 48433,0.0039755939\H,0,-1.0929505497,2.6509177512,0.0141314931\H,0,-2.
 3737451194,-0.0025003021,0.044196485\\Version=ES64L-G16RevC.01\State=1
 -A\HF=-373.8838997\RMSD=8.242e-09\Dipole=3.945228,-1.4152599,-0.212046
 1\Quadrupole=4.7452346,-5.2978538,0.5526192,-6.4848555,-1.6632269,0.23
 50711\PG=C01 [X(C4H4N4)]\\@
 The archive entry for this job was punched.


 UNDER MOST GREENE GRASSE LY MOST GREATE SNAKES.
 -- PROVERBS AND REASONS OF THE YEAR 1585
           AS REPRINTED IN PAISLEY MAGAZINE 1828.
 Job cpu time:       0 days  0 hours  1 minutes 33.8 seconds.
 Elapsed time:       0 days  0 hours  0 minutes  3.2 seconds.
 File lengths (MBytes):  RWF=     21 Int=      0 D2E=      0 Chk=      4 Scr=      1
 Normal termination of Gaussian 16 at Sun Oct 16 05:46:20 2022.
