 Entering Gaussian System, Link 0=/public3/home/scg5914/software-scg5914/g16/g16
 Input=dsgdb9nsd_000107-3-.gjf
 Output=dsgdb9nsd_000107-3-.log
 Initial command:
 /public3/home/scg5914/software-scg5914/g16/l1.exe "/public3/home/scg5914/software-scg5914/test/tmp/dsgdb9nsd_000107-3-/Gau-125793.inp" -scrdir="/public3/home/scg5914/software-scg5914/test/tmp/dsgdb9nsd_000107-3-/"
 Entering Link 1 = /public3/home/scg5914/software-scg5914/g16/l1.exe PID=    125794.
  
 Copyright (c) 1988-2019, Gaussian, Inc.  All Rights Reserved.
  
 This is part of the Gaussian(R) 16 program.  It is based on
 the Gaussian(R) 09 system (copyright 2009, Gaussian, Inc.),
 the Gaussian(R) 03 system (copyright 2003, Gaussian, Inc.),
 the Gaussian(R) 98 system (copyright 1998, Gaussian, Inc.),
 the Gaussian(R) 94 system (copyright 1995, Gaussian, Inc.),
 the Gaussian 92(TM) system (copyright 1992, Gaussian, Inc.),
 the Gaussian 90(TM) system (copyright 1990, Gaussian, Inc.),
 the Gaussian 88(TM) system (copyright 1988, Gaussian, Inc.),
 the Gaussian 86(TM) system (copyright 1986, Carnegie Mellon
 University), and the Gaussian 82(TM) system (copyright 1983,
 Carnegie Mellon University). Gaussian is a federally registered
 trademark of Gaussian, Inc.
  
 This software contains proprietary and confidential information,
 including trade secrets, belonging to Gaussian, Inc.
  
 This software is provided under written license and may be
 used, copied, transmitted, or stored only in accord with that
 written license.
  
 The following legend is applicable only to US Government
 contracts under FAR:
  
                    RESTRICTED RIGHTS LEGEND
  
 Use, reproduction and disclosure by the US Government is
 subject to restrictions as set forth in subparagraphs (a)
 and (c) of the Commercial Computer Software - Restricted
 Rights clause in FAR 52.227-19.
  
 Gaussian, Inc.
 340 Quinnipiac St., Bldg. 40, Wallingford CT 06492
  
  
 ---------------------------------------------------------------
 Warning -- This program may not be used in any manner that
 competes with the business of Gaussian, Inc. or will provide
 assistance to any competitor of Gaussian, Inc.  The licensee
 of this program is prohibited from giving any competitor of
 Gaussian, Inc. access to this program.  By using this program,
 the user acknowledges that Gaussian, Inc. is engaged in the
 business of creating and licensing software in the field of
 computational chemistry and represents and warrants to the
 licensee that it is not a competitor of Gaussian, Inc. and that
 it will not use this program in any manner prohibited above.
 ---------------------------------------------------------------
  

 Cite this work as:
 Gaussian 16, Revision C.01,
 M. J. Frisch, G. W. Trucks, H. B. Schlegel, G. E. Scuseria, 
 M. A. Robb, J. R. Cheeseman, G. Scalmani, V. Barone, 
 G. A. Petersson, H. Nakatsuji, X. Li, M. Caricato, A. V. Marenich, 
 J. Bloino, B. G. Janesko, R. Gomperts, B. Mennucci, H. P. Hratchian, 
 J. V. Ortiz, A. F. Izmaylov, J. L. Sonnenberg, D. Williams-Young, 
 F. Ding, F. Lipparini, F. Egidi, J. Goings, B. Peng, A. Petrone, 
 T. Henderson, D. Ranasinghe, V. G. Zakrzewski, J. Gao, N. Rega, 
 G. Zheng, W. Liang, M. Hada, M. Ehara, K. Toyota, R. Fukuda, 
 J. Hasegawa, M. Ishida, T. Nakajima, Y. Honda, O. Kitao, H. Nakai, 
 T. Vreven, K. Throssell, J. A. Montgomery, Jr., J. E. Peralta, 
 F. Ogliaro, M. J. Bearpark, J. J. Heyd, E. N. Brothers, K. N. Kudin, 
 V. N. Staroverov, T. A. Keith, R. Kobayashi, J. Normand, 
 K. Raghavachari, A. P. Rendell, J. C. Burant, S. S. Iyengar, 
 J. Tomasi, M. Cossi, J. M. Millam, M. Klene, C. Adamo, R. Cammi, 
 J. W. Ochterski, R. L. Martin, K. Morokuma, O. Farkas, 
 J. B. Foresman, and D. J. Fox, Gaussian, Inc., Wallingford CT, 2019.
 
 ******************************************
 Gaussian 16:  ES64L-G16RevC.01  3-Jul-2019
                24-Oct-2022 
 ******************************************
 %chk=dsgdb9nsd_000107-3.chk
 %mem=60GB
 %nprocshared=32
 Will use up to   32 processors via shared memory.
 ------------------------------------
 #p opt freq b3lyp/6-311+g** em=gd3bj
 ------------------------------------
 1/18=20,19=15,26=3,38=1/1,3;
 2/9=110,12=2,17=6,18=5,40=1/2;
 3/5=4,6=6,7=111,11=2,25=1,30=1,71=1,74=-5,124=41/1,2,3;
 4//1;
 5/5=2,38=5/2;
 6/7=2,8=2,9=2,10=2,28=1/1;
 7//1,2,3,16;
 1/18=20,19=15,26=3/3(2);
 2/9=110/2;
 99//99;
 2/9=110/2;
 3/5=4,6=6,7=111,11=2,25=1,30=1,71=1,74=-5,124=41/1,2,3;
 4/5=5,16=3,69=1/1;
 5/5=2,38=5/2;
 7//1,2,3,16;
 1/18=20,19=15,26=3/3(-5);
 2/9=110/2;
 6/7=2,8=2,9=2,10=2,19=2,28=1/1;
 99/9=1/99;
 Leave Link    1 at Mon Oct 24 14:29:54 2022, MaxMem=  8053063680 cpu:               1.5 elap:               0.1
 (Enter /public3/home/scg5914/software-scg5914/g16/l101.exe)
 ------------------
 dsgdb9nsd_000107-3
 ------------------
 Symbolic Z-matrix:
 Charge = -1 Multiplicity = 1
 C                    -0.04787  -1.22495  -0.00406 
 C                    -0.0075   -0.02541   0.00198 
 C                     0.02536   1.43803   0.00953 
 C                     1.37953   1.99382  -0.00043 
 C                     2.48461   2.46212  -0.00847 
 H                    -0.07824  -2.28633  -0.00944 
 H                    -0.5304    1.81873  -0.85835 
 H                     3.46441   2.8713   -0.01559 
 
 ITRead=  0  0  0  0  0  0  0  0
 MicOpt= -1 -1 -1 -1 -1 -1 -1 -1
 NAtoms=      8 NQM=        8 NQMF=       0 NMMI=      0 NMMIF=      0
                NMic=       0 NMicF=      0.
                    Isotopes and Nuclear Properties:
 (Nuclear quadrupole moments (NQMom) in fm**2, nuclear magnetic moments (NMagM)
  in nuclear magnetons)

  Atom         1           2           3           4           5           6           7           8
 IAtWgt=          12          12          12          12          12           1           1           1
 AtmWgt=  12.0000000  12.0000000  12.0000000  12.0000000  12.0000000   1.0078250   1.0078250   1.0078250
 NucSpn=           0           0           0           0           0           1           1           1
 AtZEff=  -0.0000000  -0.0000000  -0.0000000  -0.0000000  -0.0000000  -0.0000000  -0.0000000  -0.0000000
 NQMom=    0.0000000   0.0000000   0.0000000   0.0000000   0.0000000   0.0000000   0.0000000   0.0000000
 NMagM=    0.0000000   0.0000000   0.0000000   0.0000000   0.0000000   2.7928460   2.7928460   2.7928460
 AtZNuc=   6.0000000   6.0000000   6.0000000   6.0000000   6.0000000   1.0000000   1.0000000   1.0000000
 Leave Link  101 at Mon Oct 24 14:29:54 2022, MaxMem=  8053063680 cpu:               4.1 elap:               0.1
 (Enter /public3/home/scg5914/software-scg5914/g16/l103.exe)

 GradGradGradGradGradGradGradGradGradGradGradGradGradGradGradGradGradGrad
 Berny optimization.
 Initialization pass.
                           ----------------------------
                           !    Initial Parameters    !
                           ! (Angstroms and Degrees)  !
 --------------------------                            --------------------------
 ! Name  Definition              Value          Derivative Info.                !
 --------------------------------------------------------------------------------
 ! R1    R(1,2)                  1.2002         estimate D2E/DX2                !
 ! R2    R(1,6)                  1.0618         estimate D2E/DX2                !
 ! R3    R(2,3)                  1.4638         estimate D2E/DX2                !
 ! R4    R(3,4)                  1.4638         estimate D2E/DX2                !
 ! R5    R(3,7)                  1.0986         estimate D2E/DX2                !
 ! R6    R(4,5)                  1.2002         estimate D2E/DX2                !
 ! R7    R(5,8)                  1.0618         estimate D2E/DX2                !
 ! A1    A(2,3,4)              113.5978         estimate D2E/DX2                !
 ! A2    A(2,3,7)              109.3296         estimate D2E/DX2                !
 ! A3    A(4,3,7)              109.3306         estimate D2E/DX2                !
 ! A4    L(2,1,6,8,-1)         179.7119         estimate D2E/DX2                !
 ! A5    L(1,2,3,8,-1)         180.6412         estimate D2E/DX2                !
 ! A6    L(3,4,5,6,-1)         180.6509         estimate D2E/DX2                !
 ! A7    L(4,5,8,6,-1)         179.7009         estimate D2E/DX2                !
 ! A8    L(2,1,6,8,-2)         179.9989         estimate D2E/DX2                !
 ! A9    L(1,2,3,8,-2)         180.0015         estimate D2E/DX2                !
 ! A10   L(3,4,5,6,-2)         180.0008         estimate D2E/DX2                !
 ! A11   L(4,5,8,6,-2)         180.003          estimate D2E/DX2                !
 ! D1    D(2,3,7,4)           -124.9333         estimate D2E/DX2                !
 --------------------------------------------------------------------------------
 Trust Radius=3.00D-01 FncErr=1.00D-07 GrdErr=1.00D-06 EigMax=2.50D+02 EigMin=1.00D-04
 Number of steps in this run=     29 maximum allowed number of steps=    100.
 GradGradGradGradGradGradGradGradGradGradGradGradGradGradGradGradGradGrad

 Leave Link  103 at Mon Oct 24 14:29:54 2022, MaxMem=  8053063680 cpu:               0.2 elap:               0.0
 (Enter /public3/home/scg5914/software-scg5914/g16/l202.exe)
                          Input orientation:                          
 ---------------------------------------------------------------------
 Center     Atomic      Atomic             Coordinates (Angstroms)
 Number     Number       Type             X           Y           Z
 ---------------------------------------------------------------------
      1          6           0       -0.047865   -1.224946   -0.004058
      2          6           0       -0.007499   -0.025409    0.001980
      3          6           0        0.025358    1.438030    0.009530
      4          6           0        1.379534    1.993824   -0.000432
      5          6           0        2.484608    2.462118   -0.008470
      6          1           0       -0.078240   -2.286330   -0.009438
      7          1           0       -0.530398    1.818735   -0.858348
      8          1           0        3.464407    2.871303   -0.015594
 ---------------------------------------------------------------------
                    Distance matrix (angstroms):
                    1          2          3          4          5
     1  C    0.000000
     2  C    1.200231   0.000000
     3  C    2.664017   1.463827   0.000000
     4  C    3.521074   2.449729   1.463831   0.000000
     5  C    4.473017   3.521150   2.664018   1.200230   0.000000
     6  H    1.061833   2.262057   3.725849   4.521605   5.395920
     7  H    3.197912   2.101060   1.098642   2.101075   3.197889
     8  H    5.395873   4.521656   3.725850   2.262055   1.061832
                    6          7          8
     6  H    0.000000
     7  H    4.216237   0.000000
     8  H    6.257121   4.216230   0.000000
 Stoichiometry    C5H3(1-)
 Framework group  C1[X(C5H3)]
 Deg. of freedom    18
 Full point group                 C1      NOp   1
 Largest Abelian subgroup         C1      NOp   1
 Largest concise Abelian subgroup C1      NOp   1
                         Standard orientation:                         
 ---------------------------------------------------------------------
 Center     Atomic      Atomic             Coordinates (Angstroms)
 Number     Number       Type             X           Y           Z
 ---------------------------------------------------------------------
      1          6           0        2.236490   -0.526952    0.029818
      2          6           0        1.224883    0.115283   -0.039022
      3          6           0       -0.000001    0.912244   -0.124475
      4          6           0       -1.224846    0.115216   -0.039018
      5          6           0       -2.236527   -0.526902    0.029817
      6          1           0        3.128565   -1.099600    0.091186
      7          1           0       -0.000010    1.665889    0.674920
      8          1           0       -3.128556   -1.099620    0.091177
 ---------------------------------------------------------------------
 Rotational constants (GHZ):          22.0626649           2.8640993           2.5521607
 Leave Link  202 at Mon Oct 24 14:29:54 2022, MaxMem=  8053063680 cpu:               0.2 elap:               0.0
 (Enter /public3/home/scg5914/software-scg5914/g16/l301.exe)
 Standard basis: 6-311+G(d,p) (5D, 7F)
 Ernie: Thresh=  0.10000D-02 Tol=  0.10000D-05 Strict=F.
 There are   133 symmetry adapted cartesian basis functions of A   symmetry.
 There are   128 symmetry adapted basis functions of A   symmetry.
   128 basis functions,   204 primitive gaussians,   133 cartesian basis functions
    17 alpha electrons       17 beta electrons
       nuclear repulsion energy       116.2376112584 Hartrees.
 IExCor=  402 DFT=T Ex+Corr=B3LYP ExCW=0 ScaHFX=  0.200000
 ScaDFX=  0.800000  0.720000  1.000000  0.810000 ScalE2=  1.000000  1.000000
 IRadAn=      5 IRanWt=     -1 IRanGd=            0 ICorTp=0 IEmpDi=141
 NAtoms=    8 NActive=    8 NUniq=    8 SFac= 1.00D+00 NAtFMM=   60 NAOKFM=F Big=F
 Integral buffers will be    131072 words long.
 Raffenetti 2 integral format.
 Two-electron integral symmetry is turned on.
 R6Disp:  Grimme-D3(BJ) Dispersion energy=       -0.0094717601 Hartrees.
 Nuclear repulsion after empirical dispersion term =      116.2281394983 Hartrees.
 Leave Link  301 at Mon Oct 24 14:29:54 2022, MaxMem=  8053063680 cpu:               1.0 elap:               0.0
 (Enter /public3/home/scg5914/software-scg5914/g16/l302.exe)
 NPDir=0 NMtPBC=     1 NCelOv=     1 NCel=       1 NClECP=     1 NCelD=      1
         NCelK=      1 NCelE2=     1 NClLst=     1 CellRange=     0.0.
 One-electron integrals computed using PRISM.
 One-electron integral symmetry used in STVInt
 NBasis=   128 RedAO= T EigKep=  2.43D-06  NBF=   128
 NBsUse=   128 1.00D-06 EigRej= -1.00D+00 NBFU=   128
 Precomputing XC quadrature grid using
 IXCGrd= 4 IRadAn=           5 IRanWt=          -1 IRanGd=           0 AccXCQ= 0.00D+00.
 Generated NRdTot=       0 NPtTot=           0 NUsed=           0 NTot=          32
 NSgBfM=   133   133   133   133   133 MxSgAt=     8 MxSgA2=     8.
 Leave Link  302 at Mon Oct 24 14:29:54 2022, MaxMem=  8053063680 cpu:               2.8 elap:               0.1
 (Enter /public3/home/scg5914/software-scg5914/g16/l303.exe)
 DipDrv:  MaxL=1.
 Leave Link  303 at Mon Oct 24 14:29:54 2022, MaxMem=  8053063680 cpu:               0.4 elap:               0.0
 (Enter /public3/home/scg5914/software-scg5914/g16/l401.exe)
 ExpMin= 4.38D-02 ExpMax= 4.56D+03 ExpMxC= 6.82D+02 IAcc=3 IRadAn=         5 AccDes= 0.00D+00
 Harris functional with IExCor=  402 and IRadAn=       5 diagonalized for initial guess.
 HarFok:  IExCor=  402 AccDes= 0.00D+00 IRadAn=         5 IDoV= 1 UseB2=F ITyADJ=14
 ICtDFT=  3500011 ScaDFX=  1.000000  1.000000  1.000000  1.000000
 FoFCou: FMM=F IPFlag=           0 FMFlag=      100000 FMFlg1=           0
         NFxFlg=           0 DoJE=T BraDBF=F KetDBF=T FulRan=T
         wScrn=  0.000000 ICntrl=       500 IOpCl=  0 I1Cent=   200000004 NGrid=           0
         NMat0=    1 NMatS0=      1 NMatT0=    0 NMatD0=    1 NMtDS0=    0 NMtDT0=    0
 Petite list used in FoFCou.
 Harris En= -192.518904311697    
 JPrj=0 DoOrth=F DoCkMO=F.
 Leave Link  401 at Mon Oct 24 14:29:55 2022, MaxMem=  8053063680 cpu:               5.7 elap:               0.2
 (Enter /public3/home/scg5914/software-scg5914/g16/l502.exe)
 Keep R1 ints in memory in canonical form, NReq=64796428.
 FoFCou: FMM=F IPFlag=           0 FMFlag=           0 FMFlg1=           0
         NFxFlg=           0 DoJE=F BraDBF=F KetDBF=F FulRan=T
         wScrn=  0.000000 ICntrl=       600 IOpCl=  0 I1Cent=           0 NGrid=           0
         NMat0=    1 NMatS0=   8256 NMatT0=    0 NMatD0=    1 NMtDS0=    0 NMtDT0=    0
 Symmetry not used in FoFCou.
 Two-electron integral symmetry not used.
 Closed shell SCF:
 Using DIIS extrapolation, IDIIS=  1040.
 NGot=  8053063680 LenX=  8018937600 LenY=  8018919470
 Requested convergence on RMS density matrix=1.00D-08 within 128 cycles.
 Requested convergence on MAX density matrix=1.00D-06.
 Requested convergence on             energy=1.00D-06.
 No special actions if energy rises.

 Cycle   1  Pass 1  IDiag  1:
 E= -191.990655420390    
 DIIS: error= 4.81D-02 at cycle   1 NSaved=   1.
 NSaved= 1 IEnMin= 1 EnMin= -191.990655420390     IErMin= 1 ErrMin= 4.81D-02
 ErrMax= 4.81D-02  0.00D+00 EMaxC= 1.00D-01 BMatC= 2.34D-01 BMatP= 2.34D-01
 IDIUse=3 WtCom= 5.19D-01 WtEn= 4.81D-01
 Coeff-Com:  0.100D+01
 Coeff-En:   0.100D+01
 Coeff:      0.100D+01
 Gap=     0.180 Goal=   None    Shift=    0.000
 GapD=    0.180 DampG=1.000 DampE=0.500 DampFc=0.5000 IDamp=-1.
 Damping current iteration by 5.00D-01
 RMSDP=6.33D+01 MaxDP=2.11D+03              OVMax= 9.96D-01

 Cycle   2  Pass 1  IDiag  1:
 E= -191.902468072151     Delta-E=        0.088187348239 Rises=F Damp=T
 DIIS: error= 2.41D-02 at cycle   2 NSaved=   2.
 NSaved= 2 IEnMin= 1 EnMin= -191.990655420390     IErMin= 2 ErrMin= 2.41D-02
 ErrMax= 2.41D-02  0.00D+00 EMaxC= 1.00D-01 BMatC= 4.11D-02 BMatP= 2.34D-01
 IDIUse=3 WtCom= 7.59D-01 WtEn= 2.41D-01
 Coeff-Com:  0.231D+00 0.769D+00
 Coeff-En:   0.613D+00 0.387D+00
 Coeff:      0.323D+00 0.677D+00
 Gap=     0.005 Goal=   None    Shift=    0.000
 RMSDP=3.17D+01 MaxDP=1.05D+03 DE= 8.82D-02 OVMax= 9.67D-01

 Cycle   3  Pass 1  IDiag  1:
 E= -192.140036715258     Delta-E=       -0.237568643107 Rises=F Damp=F
 DIIS: error= 4.54D-02 at cycle   3 NSaved=   3.
 NSaved= 3 IEnMin= 3 EnMin= -192.140036715258     IErMin= 2 ErrMin= 2.41D-02
 ErrMax= 4.54D-02  0.00D+00 EMaxC= 1.00D-01 BMatC= 9.94D-02 BMatP= 4.11D-02
 IDIUse=2 WtCom= 0.00D+00 WtEn= 1.00D+00
 Coeff-En:   0.000D+00 0.112D+00 0.888D+00
 Coeff:      0.000D+00 0.112D+00 0.888D+00
 Gap=     0.107 Goal=   None    Shift=    0.000
 RMSDP=4.51D-02 MaxDP=2.35D+00 DE=-2.38D-01 OVMax= 3.55D-01

 Cycle   4  Pass 1  IDiag  1:
 E= -191.827228353143     Delta-E=        0.312808362116 Rises=F Damp=F
 DIIS: error= 8.30D-02 at cycle   4 NSaved=   4.
 NSaved= 4 IEnMin= 3 EnMin= -192.140036715258     IErMin= 2 ErrMin= 2.41D-02
 ErrMax= 8.30D-02  0.00D+00 EMaxC= 1.00D-01 BMatC= 3.88D-01 BMatP= 4.11D-02
 IDIUse=2 WtCom= 0.00D+00 WtEn= 1.00D+00
 Coeff-En:   0.000D+00 0.000D+00 0.723D+00 0.277D+00
 Coeff:      0.000D+00 0.000D+00 0.723D+00 0.277D+00
 Gap=     0.093 Goal=   None    Shift=    0.000
 RMSDP=4.85D-02 MaxDP=2.74D+00 DE= 3.13D-01 OVMax= 1.67D-01

 Cycle   5  Pass 1  IDiag  1:
 E= -192.233675019416     Delta-E=       -0.406446666273 Rises=F Damp=F
 DIIS: error= 1.97D-02 at cycle   5 NSaved=   5.
 NSaved= 5 IEnMin= 5 EnMin= -192.233675019416     IErMin= 5 ErrMin= 1.97D-02
 ErrMax= 1.97D-02  0.00D+00 EMaxC= 1.00D-01 BMatC= 2.13D-02 BMatP= 4.11D-02
 IDIUse=3 WtCom= 8.03D-01 WtEn= 1.97D-01
 Coeff-Com:  0.412D-01-0.112D-01 0.216D+00-0.798D-01 0.834D+00
 Coeff-En:   0.000D+00 0.000D+00 0.231D+00 0.000D+00 0.769D+00
 Coeff:      0.330D-01-0.898D-02 0.219D+00-0.641D-01 0.821D+00
 Gap=     0.123 Goal=   None    Shift=    0.000
 RMSDP=6.36D-03 MaxDP=3.15D-01 DE=-4.06D-01 OVMax= 7.20D-02

 Cycle   6  Pass 1  IDiag  1:
 E= -192.258225090325     Delta-E=       -0.024550070908 Rises=F Damp=F
 DIIS: error= 1.57D-03 at cycle   6 NSaved=   6.
 NSaved= 6 IEnMin= 6 EnMin= -192.258225090325     IErMin= 6 ErrMin= 1.57D-03
 ErrMax= 1.57D-03  0.00D+00 EMaxC= 1.00D-01 BMatC= 2.30D-04 BMatP= 2.13D-02
 IDIUse=3 WtCom= 9.84D-01 WtEn= 1.57D-02
 Coeff-Com:  0.159D-01-0.111D-01 0.536D-01-0.381D-01 0.349D+00 0.631D+00
 Coeff-En:   0.000D+00 0.000D+00 0.000D+00 0.000D+00 0.000D+00 0.100D+01
 Coeff:      0.156D-01-0.109D-01 0.527D-01-0.375D-01 0.343D+00 0.637D+00
 Gap=     0.120 Goal=   None    Shift=    0.000
 RMSDP=5.55D-04 MaxDP=1.79D-02 DE=-2.46D-02 OVMax= 9.09D-03

 Cycle   7  Pass 1  IDiag  1:
 E= -192.258431915595     Delta-E=       -0.000206825271 Rises=F Damp=F
 DIIS: error= 4.78D-04 at cycle   7 NSaved=   7.
 NSaved= 7 IEnMin= 7 EnMin= -192.258431915595     IErMin= 7 ErrMin= 4.78D-04
 ErrMax= 4.78D-04  0.00D+00 EMaxC= 1.00D-01 BMatC= 2.15D-05 BMatP= 2.30D-04
 IDIUse=3 WtCom= 9.95D-01 WtEn= 4.78D-03
 Coeff-Com:  0.152D-02-0.199D-02-0.438D-03 0.437D-03 0.845D-02 0.273D+00
 Coeff-Com:  0.719D+00
 Coeff-En:   0.000D+00 0.000D+00 0.000D+00 0.000D+00 0.000D+00 0.917D-01
 Coeff-En:   0.908D+00
 Coeff:      0.151D-02-0.198D-02-0.436D-03 0.434D-03 0.841D-02 0.272D+00
 Coeff:      0.720D+00
 Gap=     0.121 Goal=   None    Shift=    0.000
 RMSDP=3.57D-04 MaxDP=1.65D-02 DE=-2.07D-04 OVMax= 2.71D-03

 Cycle   8  Pass 1  IDiag  1:
 E= -192.258456381749     Delta-E=       -0.000024466154 Rises=F Damp=F
 DIIS: error= 3.58D-05 at cycle   8 NSaved=   8.
 NSaved= 8 IEnMin= 8 EnMin= -192.258456381749     IErMin= 8 ErrMin= 3.58D-05
 ErrMax= 3.58D-05  0.00D+00 EMaxC= 1.00D-01 BMatC= 1.04D-07 BMatP= 2.15D-05
 IDIUse=1 WtCom= 1.00D+00 WtEn= 0.00D+00
 Coeff-Com:  0.105D-03-0.510D-03-0.818D-03 0.511D-03-0.305D-02 0.377D-01
 Coeff-Com:  0.146D+00 0.820D+00
 Coeff:      0.105D-03-0.510D-03-0.818D-03 0.511D-03-0.305D-02 0.377D-01
 Coeff:      0.146D+00 0.820D+00
 Gap=     0.121 Goal=   None    Shift=    0.000
 RMSDP=5.05D-05 MaxDP=2.11D-03 DE=-2.45D-05 OVMax= 1.96D-04

 Cycle   9  Pass 1  IDiag  1:
 E= -192.258456495799     Delta-E=       -0.000000114050 Rises=F Damp=F
 DIIS: error= 1.70D-05 at cycle   9 NSaved=   9.
 NSaved= 9 IEnMin= 9 EnMin= -192.258456495799     IErMin= 9 ErrMin= 1.70D-05
 ErrMax= 1.70D-05  0.00D+00 EMaxC= 1.00D-01 BMatC= 1.51D-08 BMatP= 1.04D-07
 IDIUse=1 WtCom= 1.00D+00 WtEn= 0.00D+00
 Coeff-Com: -0.348D-04 0.367D-05 0.191D-04-0.157D-04-0.514D-03-0.470D-02
 Coeff-Com: -0.359D-02 0.249D+00 0.760D+00
 Coeff:     -0.348D-04 0.367D-05 0.191D-04-0.157D-04-0.514D-03-0.470D-02
 Coeff:     -0.359D-02 0.249D+00 0.760D+00
 Gap=     0.121 Goal=   None    Shift=    0.000
 RMSDP=3.41D-05 MaxDP=1.18D-03 DE=-1.14D-07 OVMax= 7.70D-05

 Cycle  10  Pass 1  IDiag  1:
 E= -192.258456516458     Delta-E=       -0.000000020660 Rises=F Damp=F
 DIIS: error= 2.07D-06 at cycle  10 NSaved=  10.
 NSaved=10 IEnMin=10 EnMin= -192.258456516458     IErMin=10 ErrMin= 2.07D-06
 ErrMax= 2.07D-06  0.00D+00 EMaxC= 1.00D-01 BMatC= 8.28D-10 BMatP= 1.51D-08
 IDIUse=1 WtCom= 1.00D+00 WtEn= 0.00D+00
 Coeff-Com: -0.205D-04 0.220D-04 0.303D-04-0.341D-04-0.218D-04-0.221D-02
 Coeff-Com: -0.388D-02 0.614D-01 0.262D+00 0.683D+00
 Coeff:     -0.205D-04 0.220D-04 0.303D-04-0.341D-04-0.218D-04-0.221D-02
 Coeff:     -0.388D-02 0.614D-01 0.262D+00 0.683D+00
 Gap=     0.121 Goal=   None    Shift=    0.000
 RMSDP=4.73D-06 MaxDP=2.63D-04 DE=-2.07D-08 OVMax= 1.49D-05

 Cycle  11  Pass 1  IDiag  1:
 E= -192.258456516724     Delta-E=       -0.000000000266 Rises=F Damp=F
 DIIS: error= 2.16D-06 at cycle  11 NSaved=  11.
 NSaved=11 IEnMin=11 EnMin= -192.258456516724     IErMin=10 ErrMin= 2.07D-06
 ErrMax= 2.16D-06  0.00D+00 EMaxC= 1.00D-01 BMatC= 6.50D-10 BMatP= 8.28D-10
 IDIUse=1 WtCom= 1.00D+00 WtEn= 0.00D+00
 Coeff-Com: -0.105D-04 0.173D-04 0.114D-04-0.224D-04 0.700D-04-0.597D-03
 Coeff-Com: -0.142D-02 0.290D-02 0.601D-01 0.483D+00 0.456D+00
 Coeff:     -0.105D-04 0.173D-04 0.114D-04-0.224D-04 0.700D-04-0.597D-03
 Coeff:     -0.142D-02 0.290D-02 0.601D-01 0.483D+00 0.456D+00
 Gap=     0.121 Goal=   None    Shift=    0.000
 RMSDP=1.48D-06 MaxDP=8.03D-05 DE=-2.66D-10 OVMax= 7.92D-06

 Cycle  12  Pass 1  IDiag  1:
 E= -192.258456517366     Delta-E=       -0.000000000641 Rises=F Damp=F
 DIIS: error= 5.53D-07 at cycle  12 NSaved=  12.
 NSaved=12 IEnMin=12 EnMin= -192.258456517366     IErMin=12 ErrMin= 5.53D-07
 ErrMax= 5.53D-07  0.00D+00 EMaxC= 1.00D-01 BMatC= 2.27D-11 BMatP= 6.50D-10
 IDIUse=1 WtCom= 1.00D+00 WtEn= 0.00D+00
 Coeff-Com: -0.199D-05 0.515D-05-0.994D-05-0.773D-06 0.986D-05 0.230D-03
 Coeff-Com:  0.673D-03-0.531D-02-0.125D-01 0.363D-01 0.109D+00 0.871D+00
 Coeff:     -0.199D-05 0.515D-05-0.994D-05-0.773D-06 0.986D-05 0.230D-03
 Coeff:      0.673D-03-0.531D-02-0.125D-01 0.363D-01 0.109D+00 0.871D+00
 Gap=     0.121 Goal=   None    Shift=    0.000
 RMSDP=5.22D-07 MaxDP=1.94D-05 DE=-6.41D-10 OVMax= 2.13D-06

 Cycle  13  Pass 1  IDiag  1:
 E= -192.258456517398     Delta-E=       -0.000000000032 Rises=F Damp=F
 DIIS: error= 1.49D-07 at cycle  13 NSaved=  13.
 NSaved=13 IEnMin=13 EnMin= -192.258456517398     IErMin=13 ErrMin= 1.49D-07
 ErrMax= 1.49D-07  0.00D+00 EMaxC= 1.00D-01 BMatC= 1.32D-12 BMatP= 2.27D-11
 IDIUse=1 WtCom= 1.00D+00 WtEn= 0.00D+00
 Coeff-Com: -0.226D-06 0.555D-07-0.259D-05 0.656D-06-0.193D-05 0.323D-04
 Coeff-Com:  0.144D-03 0.225D-03-0.146D-02-0.191D-01-0.188D-01 0.415D-04
 Coeff-Com:  0.104D+01
 Coeff:     -0.226D-06 0.555D-07-0.259D-05 0.656D-06-0.193D-05 0.323D-04
 Coeff:      0.144D-03 0.225D-03-0.146D-02-0.191D-01-0.188D-01 0.415D-04
 Coeff:      0.104D+01
 Gap=     0.121 Goal=   None    Shift=    0.000
 RMSDP=1.12D-07 MaxDP=5.57D-06 DE=-3.21D-11 OVMax= 8.37D-07

 Cycle  14  Pass 1  IDiag  1:
 E= -192.258456517400     Delta-E=       -0.000000000002 Rises=F Damp=F
 DIIS: error= 9.98D-09 at cycle  14 NSaved=  14.
 NSaved=14 IEnMin=14 EnMin= -192.258456517400     IErMin=14 ErrMin= 9.98D-09
 ErrMax= 9.98D-09  0.00D+00 EMaxC= 1.00D-01 BMatC= 8.58D-15 BMatP= 1.32D-12
 IDIUse=1 WtCom= 1.00D+00 WtEn= 0.00D+00
 Coeff-Com: -0.304D-07-0.996D-07-0.408D-06 0.168D-06-0.990D-06-0.317D-05
 Coeff-Com:  0.352D-05 0.178D-03 0.900D-04-0.468D-02-0.657D-02-0.217D-01
 Coeff-Com:  0.246D+00 0.786D+00
 Coeff:     -0.304D-07-0.996D-07-0.408D-06 0.168D-06-0.990D-06-0.317D-05
 Coeff:      0.352D-05 0.178D-03 0.900D-04-0.468D-02-0.657D-02-0.217D-01
 Coeff:      0.246D+00 0.786D+00
 Gap=     0.121 Goal=   None    Shift=    0.000
 RMSDP=1.67D-08 MaxDP=6.43D-07 DE=-2.16D-12 OVMax= 4.97D-08

 Cycle  15  Pass 1  IDiag  1:
 E= -192.258456517400     Delta-E=       -0.000000000000 Rises=F Damp=F
 DIIS: error= 3.55D-09 at cycle  15 NSaved=  15.
 NSaved=15 IEnMin=15 EnMin= -192.258456517400     IErMin=15 ErrMin= 3.55D-09
 ErrMax= 3.55D-09  0.00D+00 EMaxC= 1.00D-01 BMatC= 2.15D-15 BMatP= 8.58D-15
 IDIUse=1 WtCom= 1.00D+00 WtEn= 0.00D+00
 Coeff-Com:  0.912D-08-0.577D-07-0.366D-07 0.414D-07-0.301D-06-0.355D-05
 Coeff-Com: -0.882D-05 0.405D-04 0.663D-04-0.941D-03-0.155D-02-0.712D-02
 Coeff-Com:  0.511D-01 0.304D+00 0.654D+00
 Coeff:      0.912D-08-0.577D-07-0.366D-07 0.414D-07-0.301D-06-0.355D-05
 Coeff:     -0.882D-05 0.405D-04 0.663D-04-0.941D-03-0.155D-02-0.712D-02
 Coeff:      0.511D-01 0.304D+00 0.654D+00
 Gap=     0.121 Goal=   None    Shift=    0.000
 RMSDP=4.41D-09 MaxDP=1.86D-07 DE=-5.68D-14 OVMax= 2.42D-08

 SCF Done:  E(RB3LYP) =  -192.258456517     A.U. after   15 cycles
            NFock= 15  Conv=0.44D-08     -V/T= 2.0044
 KE= 1.914174403367D+02 PE=-6.854840768107D+02 EE= 1.855800404583D+02
 Leave Link  502 at Mon Oct 24 14:29:57 2022, MaxMem=  8053063680 cpu:              58.5 elap:               2.2
 (Enter /public3/home/scg5914/software-scg5914/g16/l601.exe)
 Copying SCF densities to generalized density rwf, IOpCl= 0 IROHF=0.

 **********************************************************************

            Population analysis using the SCF Density.

 **********************************************************************

 Orbital symmetries:
       Occupied  (A) (A) (A) (A) (A) (A) (A) (A) (A) (A) (A) (A)
                 (A) (A) (A) (A) (A)
       Virtual   (A) (A) (A) (A) (A) (A) (A) (A) (A) (A) (A) (A)
                 (A) (A) (A) (A) (A) (A) (A) (A) (A) (A) (A) (A)
                 (A) (A) (A) (A) (A) (A) (A) (A) (A) (A) (A) (A)
                 (A) (A) (A) (A) (A) (A) (A) (A) (A) (A) (A) (A)
                 (A) (A) (A) (A) (A) (A) (A) (A) (A) (A) (A) (A)
                 (A) (A) (A) (A) (A) (A) (A) (A) (A) (A) (A) (A)
                 (A) (A) (A) (A) (A) (A) (A) (A) (A) (A) (A) (A)
                 (A) (A) (A) (A) (A) (A) (A) (A) (A) (A) (A) (A)
                 (A) (A) (A) (A) (A) (A) (A) (A) (A) (A) (A) (A)
                 (A) (A) (A)
 The electronic state is 1-A.
 Alpha  occ. eigenvalues --   -9.99527  -9.99526  -9.97610  -9.96438  -9.96438
 Alpha  occ. eigenvalues --   -0.59805  -0.56088  -0.49386  -0.36259  -0.34332
 Alpha  occ. eigenvalues --   -0.27258  -0.24772  -0.14808  -0.10273  -0.09619
 Alpha  occ. eigenvalues --   -0.09123   0.01086
 Alpha virt. eigenvalues --    0.13151   0.13288   0.15724   0.17477   0.17652
 Alpha virt. eigenvalues --    0.18098   0.18218   0.20134   0.20974   0.22449
 Alpha virt. eigenvalues --    0.23785   0.23854   0.25492   0.25848   0.26740
 Alpha virt. eigenvalues --    0.28797   0.29711   0.29955   0.30660   0.30726
 Alpha virt. eigenvalues --    0.31941   0.33620   0.34850   0.35443   0.39947
 Alpha virt. eigenvalues --    0.41076   0.41139   0.46929   0.49737   0.56353
 Alpha virt. eigenvalues --    0.58730   0.68461   0.69733   0.70735   0.72518
 Alpha virt. eigenvalues --    0.73058   0.76461   0.78738   0.81763   0.83483
 Alpha virt. eigenvalues --    0.84032   0.84214   0.85651   0.87013   0.89924
 Alpha virt. eigenvalues --    0.90066   1.00671   1.01952   1.07088   1.07168
 Alpha virt. eigenvalues --    1.21204   1.22857   1.23546   1.24834   1.31542
 Alpha virt. eigenvalues --    1.31662   1.35065   1.37838   1.41628   1.43794
 Alpha virt. eigenvalues --    1.48070   1.49412   1.58310   1.58936   1.66166
 Alpha virt. eigenvalues --    1.76099   1.77684   1.79394   1.79772   1.84242
 Alpha virt. eigenvalues --    1.86654   1.87923   1.99555   2.01558   2.09369
 Alpha virt. eigenvalues --    2.17053   2.21258   2.22262   2.25830   2.57229
 Alpha virt. eigenvalues --    2.60888   2.71755   2.76228   2.78122   2.82289
 Alpha virt. eigenvalues --    2.82777   2.83827   2.85571   2.90422   2.93765
 Alpha virt. eigenvalues --    2.98420   3.01334   3.08391   3.16709   3.18688
 Alpha virt. eigenvalues --    3.19261   3.20915   3.28008   3.32319   3.45323
 Alpha virt. eigenvalues --    3.50637   3.62943   3.67163   3.71241   4.19060
 Alpha virt. eigenvalues --    4.37396  23.65221  23.79568  24.05656  25.29467
 Alpha virt. eigenvalues --   25.35013
          Condensed to atoms (all electrons):
               1          2          3          4          5          6
     1  C   13.888576  -2.446212  -4.629351  -0.066786   0.001682   0.527517
     2  C   -2.446212   7.289091   0.609871  -0.016650  -0.066541  -0.125378
     3  C   -4.629351   0.609871  14.071071   0.609937  -4.631425  -0.034707
     4  C   -0.066786  -0.016650   0.609937   7.289501  -2.446156  -0.001365
     5  C    0.001682  -0.066541  -4.631425  -2.446156  13.890140  -0.000345
     6  H    0.527517  -0.125378  -0.034707  -0.001365  -0.000345   0.542248
     7  H    0.100656  -0.069017   0.219753  -0.069030   0.100666  -0.000218
     8  H   -0.000347  -0.001367  -0.034705  -0.125355   0.527493   0.000000
               7          8
     1  C    0.100656  -0.000347
     2  C   -0.069017  -0.001367
     3  C    0.219753  -0.034705
     4  C   -0.069030  -0.125355
     5  C    0.100666   0.527493
     6  H   -0.000218   0.000000
     7  H    0.622323  -0.000218
     8  H   -0.000218   0.542246
 Mulliken charges:
               1
     1  C   -1.375734
     2  C    0.826204
     3  C   -0.180445
     4  C    0.825905
     5  C   -1.375513
     6  H    0.092249
     7  H    0.095083
     8  H    0.092252
 Sum of Mulliken charges =  -1.00000
 Mulliken charges with hydrogens summed into heavy atoms:
               1
     1  C   -1.283486
     2  C    0.826204
     3  C   -0.085361
     4  C    0.825905
     5  C   -1.283262
 Electronic spatial extent (au):  <R**2>=            488.3341
 Charge=             -1.0000 electrons
 Dipole moment (field-independent basis, Debye):
    X=              0.0001    Y=             -1.0299    Z=              1.1603  Tot=              1.5515
 Quadrupole moment (field-independent basis, Debye-Ang):
   XX=            -44.4768   YY=            -37.2484   ZZ=            -37.7434
   XY=              0.0003   XZ=             -0.0001   YZ=              2.6224
 Traceless Quadrupole moment (field-independent basis, Debye-Ang):
   XX=             -4.6539   YY=              2.5745   ZZ=              2.0794
   XY=              0.0003   XZ=             -0.0001   YZ=              2.6224
 Octapole moment (field-independent basis, Debye-Ang**2):
  XXX=              0.0020  YYY=             -4.7701  ZZZ=              2.3715  XYY=             -0.0003
  XXY=             -8.7588  XXZ=              3.1220  XZZ=              0.0000  YZZ=             -0.1753
  YYZ=              4.1700  XYZ=             -0.0001
 Hexadecapole moment (field-independent basis, Debye-Ang**3):
 XXXX=           -634.5068 YYYY=           -146.7407 ZZZZ=            -64.5442 XXXY=              0.0016
 XXXZ=             -0.0001 YYYX=              0.0011 YYYZ=             11.6750 ZZZX=             -0.0001
 ZZZY=              6.4459 XXYY=           -118.9552 XXZZ=           -134.2467 YYZZ=            -37.1217
 XXYZ=              0.4797 YYXZ=             -0.0000 ZZXY=              0.0003
 N-N= 1.162281394983D+02 E-N=-6.854840770630D+02  KE= 1.914174403367D+02
 No NMR shielding tensors so no spin-rotation constants.
 Leave Link  601 at Mon Oct 24 14:29:57 2022, MaxMem=  8053063680 cpu:               2.2 elap:               0.1
 (Enter /public3/home/scg5914/software-scg5914/g16/l701.exe)
 ... and contract with generalized density number  0.
 Compute integral first derivatives.
 R6Disp: Adding Grimme-D3(BJ) dispersion energy 1st derivatives to the gradient.
 Leave Link  701 at Mon Oct 24 14:29:57 2022, MaxMem=  8053063680 cpu:               2.6 elap:               0.1
 (Enter /public3/home/scg5914/software-scg5914/g16/l702.exe)
 L702 exits ... SP integral derivatives will be done elsewhere.
 Leave Link  702 at Mon Oct 24 14:29:57 2022, MaxMem=  8053063680 cpu:               0.2 elap:               0.0
 (Enter /public3/home/scg5914/software-scg5914/g16/l703.exe)
 Integral derivatives from FoFJK, PRISM(SPDF).
 Compute integral first derivatives, UseDBF=F ICtDFT=           0.
 Calling FoFJK, ICntrl=      2127 FMM=F ISym2X=0 I1Cent= 0 IOpClX= 0 NMat=1 NMatS=1 NMatT=0.
 FoFJK:  IHMeth= 1 ICntrl=    2127 DoSepK=F KAlg= 0 I1Cent=           0 FoldK=F
 IRaf=         0 NMat=       1 IRICut=       1 DoRegI=T DoRafI=F ISym2E= 0 IDoP0=0 IntGTp=1.
 FoFCou: FMM=F IPFlag=           0 FMFlag=      100000 FMFlg1=         800
         NFxFlg=           0 DoJE=F BraDBF=F KetDBF=F FulRan=T
         wScrn=  0.000000 ICntrl=      2127 IOpCl=  0 I1Cent=           0 NGrid=           0
         NMat0=    1 NMatS0=      1 NMatT0=    0 NMatD0=    1 NMtDS0=    0 NMtDT0=    0
 Symmetry not used in FoFCou.
 Leave Link  703 at Mon Oct 24 14:29:58 2022, MaxMem=  8053063680 cpu:              18.7 elap:               0.6
 (Enter /public3/home/scg5914/software-scg5914/g16/l716.exe)
 Dipole        = 3.52434939D-05-4.05175981D-01 4.56515267D-01
 ***** Axes restored to original set *****
 -------------------------------------------------------------------
 Center     Atomic                   Forces (Hartrees/Bohr)
 Number     Number              X              Y              Z
 -------------------------------------------------------------------
      1        6          -0.002908980   -0.043436881    0.000862747
      2        6           0.002629351    0.070992574    0.002356465
      3        6           0.031279093   -0.021505566   -0.014650239
      4        6          -0.065325772   -0.027920365    0.002473332
      5        6           0.039503778    0.018300400    0.000791518
      6        1          -0.000112896    0.001584862    0.000552306
      7        1          -0.003544632    0.002445077    0.007060965
      8        1          -0.001519942   -0.000460102    0.000552904
 -------------------------------------------------------------------
 Cartesian Forces:  Max     0.070992574 RMS     0.025517265
 Leave Link  716 at Mon Oct 24 14:29:58 2022, MaxMem=  8053063680 cpu:               0.3 elap:               0.0
 (Enter /public3/home/scg5914/software-scg5914/g16/l103.exe)

 GradGradGradGradGradGradGradGradGradGradGradGradGradGradGradGradGradGrad
 Berny optimization.
 FormGI is forming the generalized inverse of G from B-inverse, IUseBI=4.
 Internal  Forces:  Max     0.041924152 RMS     0.017171787
 Search for a local minimum.
 Step number   1 out of a maximum of   29
 All quantities printed in internal units (Hartrees-Bohrs-Radians)
 RMS Force = .17172D-01 SwitMx=.10000D-02 MixMth= 1
 Mixed Optimization -- RFO/linear search
 Second derivative matrix not updated -- first step.
 The second derivative matrix:
                          R1        R2        R3        R4        R5
           R1           1.04707
           R2           0.00000   0.38282
           R3           0.00000   0.00000   0.36489
           R4           0.00000   0.00000   0.00000   0.36489
           R5           0.00000   0.00000   0.00000   0.00000   0.33833
           R6           0.00000   0.00000   0.00000   0.00000   0.00000
           R7           0.00000   0.00000   0.00000   0.00000   0.00000
           A1           0.00000   0.00000   0.00000   0.00000   0.00000
           A2           0.00000   0.00000   0.00000   0.00000   0.00000
           A3           0.00000   0.00000   0.00000   0.00000   0.00000
           A4           0.00000   0.00000   0.00000   0.00000   0.00000
           A5           0.00000   0.00000   0.00000   0.00000   0.00000
           A6           0.00000   0.00000   0.00000   0.00000   0.00000
           A7           0.00000   0.00000   0.00000   0.00000   0.00000
           A8           0.00000   0.00000   0.00000   0.00000   0.00000
           A9           0.00000   0.00000   0.00000   0.00000   0.00000
           A10          0.00000   0.00000   0.00000   0.00000   0.00000
           A11          0.00000   0.00000   0.00000   0.00000   0.00000
           D1           0.00000   0.00000   0.00000   0.00000   0.00000
                          R6        R7        A1        A2        A3
           R6           1.04708
           R7           0.00000   0.38282
           A1           0.00000   0.00000   0.25000
           A2           0.00000   0.00000   0.00000   0.16000
           A3           0.00000   0.00000   0.00000   0.00000   0.16000
           A4           0.00000   0.00000   0.00000   0.00000   0.00000
           A5           0.00000   0.00000   0.00000   0.00000   0.00000
           A6           0.00000   0.00000   0.00000   0.00000   0.00000
           A7           0.00000   0.00000   0.00000   0.00000   0.00000
           A8           0.00000   0.00000   0.00000   0.00000   0.00000
           A9           0.00000   0.00000   0.00000   0.00000   0.00000
           A10          0.00000   0.00000   0.00000   0.00000   0.00000
           A11          0.00000   0.00000   0.00000   0.00000   0.00000
           D1           0.00000   0.00000   0.00000   0.00000   0.00000
                          A4        A5        A6        A7        A8
           A4           0.00607
           A5           0.00000   0.01244
           A6           0.00000   0.00000   0.04731
           A7           0.00000   0.00000   0.00000   0.00607
           A8           0.00000   0.00000   0.00000   0.00000   0.00607
           A9           0.00000   0.00000   0.00000   0.00000   0.00000
           A10          0.00000   0.00000   0.00000   0.00000   0.00000
           A11          0.00000   0.00000   0.00000   0.00000   0.00000
           D1           0.00000   0.00000   0.00000   0.00000   0.00000
                          A9        A10       A11       D1
           A9           0.01244
           A10          0.00000   0.04731
           A11          0.00000   0.00000   0.00607
           D1           0.00000   0.00000   0.00000   0.00230
 ITU=  0
     Eigenvalues ---    0.00607   0.00607   0.00607   0.00607   0.01244
     Eigenvalues ---    0.01244   0.04731   0.04731   0.05996   0.16000
     Eigenvalues ---    0.19690   0.33833   0.36489   0.36489   0.38282
     Eigenvalues ---    0.38282   1.04707   1.04708
 RFO step:  Lambda=-1.33619993D-02 EMin= 6.07431008D-03
 Linear search not attempted -- first point.
 Iteration  1 RMS(Cart)=  0.18085715 RMS(Int)=  0.01909626
 Iteration  2 RMS(Cart)=  0.02823365 RMS(Int)=  0.00431802
 Iteration  3 RMS(Cart)=  0.00049556 RMS(Int)=  0.00430429
 Iteration  4 RMS(Cart)=  0.00000558 RMS(Int)=  0.00430429
 Iteration  5 RMS(Cart)=  0.00000008 RMS(Int)=  0.00430429
 ITry= 1 IFail=0 DXMaxC= 4.43D-01 DCOld= 1.00D+10 DXMaxT= 3.00D-01 DXLimC= 3.00D+00 Rises=F
 Variable       Old X    -DE/DX   Delta X   Delta X   Delta X     New X
                                 (Linear)    (Quad)   (Total)
    R1        2.26811   0.04192   0.00000   0.03953   0.03953   2.30764
    R2        2.00657  -0.00158   0.00000  -0.00400  -0.00400   2.00258
    R3        2.76623  -0.02914   0.00000  -0.07705  -0.07705   2.68918
    R4        2.76624  -0.02915   0.00000  -0.07706  -0.07706   2.68918
    R5        2.07613  -0.00294   0.00000  -0.00835  -0.00835   2.06778
    R6        2.26811   0.04192   0.00000   0.03953   0.03953   2.30764
    R7        2.00657  -0.00158   0.00000  -0.00400  -0.00400   2.00258
    A1        1.98266   0.00051   0.00000   0.04847   0.03640   2.01906
    A2        1.90816   0.00889   0.00000   0.08916   0.08063   1.98879
    A3        1.90818   0.00888   0.00000   0.08914   0.08061   1.98879
    A4        3.13656   0.00033   0.00000   0.01687   0.01687   3.15344
    A5        3.15278   0.00402   0.00000   0.15582   0.15582   3.30860
    A6        3.15295   0.00401   0.00000   0.06603   0.06603   3.21899
    A7        3.13637   0.00033   0.00000   0.01712   0.01712   3.15349
    A8        3.14157  -0.00068   0.00000  -0.03477  -0.03477   3.10681
    A9        3.14162   0.00352   0.00000   0.13628   0.13628   3.27789
   A10        3.14161   0.00352   0.00000   0.05794   0.05794   3.19955
   A11        3.14165   0.00067   0.00000   0.03466   0.03466   3.17630
    D1       -2.18050  -0.01260   0.00000  -0.18082  -0.18863  -2.36913
         Item               Value     Threshold  Converged?
 Maximum Force            0.041924     0.000450     NO 
 RMS     Force            0.017172     0.000300     NO 
 Maximum Displacement     0.442943     0.001800     NO 
 RMS     Displacement     0.192122     0.001200     NO 
 Predicted change in Energy=-7.777035D-03
 Lowest energy point so far.  Saving SCF results.
 GradGradGradGradGradGradGradGradGradGradGradGradGradGradGradGradGradGrad

 Leave Link  103 at Mon Oct 24 14:29:58 2022, MaxMem=  8053063680 cpu:               3.0 elap:               0.1
 (Enter /public3/home/scg5914/software-scg5914/g16/l202.exe)
                          Input orientation:                          
 ---------------------------------------------------------------------
 Center     Atomic      Atomic             Coordinates (Angstroms)
 Number     Number       Type             X           Y           Z
 ---------------------------------------------------------------------
      1          6           0       -0.099844   -1.275018   -0.017963
      2          6           0        0.128805   -0.077395   -0.085996
      3          6           0        0.151823    1.345151   -0.055682
      4          6           0        1.444025    1.941217   -0.055972
      5          6           0        2.508223    2.538775   -0.015746
      6          1           0       -0.312635   -2.310476    0.056515
      7          1           0       -0.554512    1.815637   -0.746373
      8          1           0        3.424020    3.069434    0.036386
 ---------------------------------------------------------------------
                    Distance matrix (angstroms):
                    1          2          3          4          5
     1  C    0.000000
     2  C    1.221151   0.000000
     3  C    2.632498   1.423055   0.000000
     4  C    3.567793   2.409461   1.423054   0.000000
     5  C    4.620285   3.537076   2.641771   1.221151   0.000000
     6  H    1.059717   2.280752   3.686722   4.601674   5.610499
     7  H    3.207718   2.118158   1.094222   2.118154   3.230649
     8  H    5.594178   4.558064   3.699851   2.280741   1.059717
                    6          7          8
     6  H    0.000000
     7  H    4.210457   0.000000
     8  H    6.550300   4.244224   0.000000
 Stoichiometry    C5H3(1-)
 Framework group  C1[X(C5H3)]
 Deg. of freedom    18
 Full point group                 C1      NOp   1
 RotChk:  IX=0 Diff= 7.02D-02
 Largest Abelian subgroup         C1      NOp   1
 Largest concise Abelian subgroup C1      NOp   1
                         Standard orientation:                         
 ---------------------------------------------------------------------
 Center     Atomic      Atomic             Coordinates (Angstroms)
 Number     Number       Type             X           Y           Z
 ---------------------------------------------------------------------
      1          6           0        2.313337   -0.453223    0.017700
      2          6           0        1.194740    0.036626    0.016841
      3          6           0        0.005720    0.805680   -0.124130
      4          6           0       -1.214096    0.080873   -0.015568
      5          6           0       -2.306933   -0.462495    0.025271
      6          1           0        3.288938   -0.866658    0.001128
      7          1           0        0.015437    1.745364    0.436424
      8          1           0       -3.260989   -0.923476    0.041769
 ---------------------------------------------------------------------
 Rotational constants (GHZ):          28.0847129           2.7335274           2.5000127
 Leave Link  202 at Mon Oct 24 14:29:58 2022, MaxMem=  8053063680 cpu:               0.1 elap:               0.0
 (Enter /public3/home/scg5914/software-scg5914/g16/l301.exe)
 Standard basis: 6-311+G(d,p) (5D, 7F)
 Ernie: Thresh=  0.10000D-02 Tol=  0.10000D-05 Strict=F.
 There are   133 symmetry adapted cartesian basis functions of A   symmetry.
 There are   128 symmetry adapted basis functions of A   symmetry.
   128 basis functions,   204 primitive gaussians,   133 cartesian basis functions
    17 alpha electrons       17 beta electrons
       nuclear repulsion energy       116.3969142849 Hartrees.
 IExCor=  402 DFT=T Ex+Corr=B3LYP ExCW=0 ScaHFX=  0.200000
 ScaDFX=  0.800000  0.720000  1.000000  0.810000 ScalE2=  1.000000  1.000000
 IRadAn=      5 IRanWt=     -1 IRanGd=            0 ICorTp=0 IEmpDi=141
 NAtoms=    8 NActive=    8 NUniq=    8 SFac= 1.00D+00 NAtFMM=   60 NAOKFM=F Big=F
 Integral buffers will be    131072 words long.
 Raffenetti 2 integral format.
 Two-electron integral symmetry is turned on.
 R6Disp:  Grimme-D3(BJ) Dispersion energy=       -0.0094238680 Hartrees.
 Nuclear repulsion after empirical dispersion term =      116.3874904169 Hartrees.
 Leave Link  301 at Mon Oct 24 14:29:58 2022, MaxMem=  8053063680 cpu:               1.0 elap:               0.0
 (Enter /public3/home/scg5914/software-scg5914/g16/l302.exe)
 NPDir=0 NMtPBC=     1 NCelOv=     1 NCel=       1 NClECP=     1 NCelD=      1
         NCelK=      1 NCelE2=     1 NClLst=     1 CellRange=     0.0.
 One-electron integrals computed using PRISM.
 One-electron integral symmetry used in STVInt
 NBasis=   128 RedAO= T EigKep=  2.92D-06  NBF=   128
 NBsUse=   128 1.00D-06 EigRej= -1.00D+00 NBFU=   128
 Precomputing XC quadrature grid using
 IXCGrd= 4 IRadAn=           5 IRanWt=          -1 IRanGd=           0 AccXCQ= 0.00D+00.
 Generated NRdTot=       0 NPtTot=           0 NUsed=           0 NTot=          32
 NSgBfM=   133   133   133   133   133 MxSgAt=     8 MxSgA2=     8.
 Leave Link  302 at Mon Oct 24 14:29:58 2022, MaxMem=  8053063680 cpu:               2.6 elap:               0.1
 (Enter /public3/home/scg5914/software-scg5914/g16/l303.exe)
 DipDrv:  MaxL=1.
 Leave Link  303 at Mon Oct 24 14:29:59 2022, MaxMem=  8053063680 cpu:               0.3 elap:               0.0
 (Enter /public3/home/scg5914/software-scg5914/g16/l401.exe)
 Initial guess from the checkpoint file:  "dsgdb9nsd_000107-3.chk"
 B after Tr=     0.000000   -0.000000    0.000000
         Rot=    0.999901    0.014064   -0.000027    0.000070 Ang=   1.61 deg.
 Guess basis will be translated and rotated to current coordinates.
 JPrj=2 DoOrth=T DoCkMO=T.
 Generating alternative initial guess.
 ExpMin= 4.38D-02 ExpMax= 4.56D+03 ExpMxC= 6.82D+02 IAcc=3 IRadAn=         5 AccDes= 0.00D+00
 Harris functional with IExCor=  402 and IRadAn=       5 diagonalized for initial guess.
 HarFok:  IExCor=  402 AccDes= 0.00D+00 IRadAn=         5 IDoV= 1 UseB2=F ITyADJ=14
 ICtDFT=  3500011 ScaDFX=  1.000000  1.000000  1.000000  1.000000
 FoFCou: FMM=F IPFlag=           0 FMFlag=      100000 FMFlg1=           0
         NFxFlg=           0 DoJE=T BraDBF=F KetDBF=T FulRan=T
         wScrn=  0.000000 ICntrl=       500 IOpCl=  0 I1Cent=   200000004 NGrid=           0
         NMat0=    1 NMatS0=      1 NMatT0=    0 NMatD0=    1 NMtDS0=    0 NMtDT0=    0
 Petite list used in FoFCou.
 Harris En= -192.519278471653    
 Leave Link  401 at Mon Oct 24 14:29:59 2022, MaxMem=  8053063680 cpu:               6.3 elap:               0.2
 (Enter /public3/home/scg5914/software-scg5914/g16/l502.exe)
 Keep R1 ints in memory in canonical form, NReq=64796428.
 FoFCou: FMM=F IPFlag=           0 FMFlag=           0 FMFlg1=           0
         NFxFlg=           0 DoJE=F BraDBF=F KetDBF=F FulRan=T
         wScrn=  0.000000 ICntrl=       600 IOpCl=  0 I1Cent=           0 NGrid=           0
         NMat0=    1 NMatS0=   8256 NMatT0=    0 NMatD0=    1 NMtDS0=    0 NMtDT0=    0
 Symmetry not used in FoFCou.
 Two-electron integral symmetry not used.
 Closed shell SCF:
 Using DIIS extrapolation, IDIIS=  1040.
 NGot=  8053063680 LenX=  8018937600 LenY=  8018919470
 Requested convergence on RMS density matrix=1.00D-08 within 128 cycles.
 Requested convergence on MAX density matrix=1.00D-06.
 Requested convergence on             energy=1.00D-06.
 No special actions if energy rises.

 Cycle   1  Pass 1  IDiag  1:
 E= -192.198760429928    
 DIIS: error= 2.31D-02 at cycle   1 NSaved=   1.
 NSaved= 1 IEnMin= 1 EnMin= -192.198760429928     IErMin= 1 ErrMin= 2.31D-02
 ErrMax= 2.31D-02  0.00D+00 EMaxC= 1.00D-01 BMatC= 6.66D-02 BMatP= 6.66D-02
 IDIUse=3 WtCom= 7.69D-01 WtEn= 2.31D-01
 Coeff-Com:  0.100D+01
 Coeff-En:   0.100D+01
 Coeff:      0.100D+01
 Recover alternate guess density for next cycle.
 RMSDP=3.26D-02 MaxDP=1.49D+00              OVMax= 0.00D+00

 Cycle   2  Pass 1  IDiag  1:
 E= -192.000637827602     Delta-E=        0.198122602327 Rises=F Damp=F
 Switch densities from cycles 1 and 2 for lowest energy.
 DIIS: error= 5.13D-02 at cycle   2 NSaved=   2.
 NSaved= 2 IEnMin= 1 EnMin= -192.198760429928     IErMin= 1 ErrMin= 2.31D-02
 ErrMax= 5.13D-02  0.00D+00 EMaxC= 1.00D+00 BMatC= 2.29D-01 BMatP= 6.66D-02
 IDIUse=1 WtCom= 1.00D+00 WtEn= 0.00D+00
 Coeff-Com:  0.774D+00 0.226D+00
 Coeff:      0.774D+00 0.226D+00
 Gap=     0.183 Goal=   None    Shift=    0.000
 RMSDP=1.35D-01 MaxDP=8.14D+00 DE= 1.98D-01 OVMax= 2.25D-01

 Cycle   3  Pass 1  IDiag  1:
 E= -192.249331634871     Delta-E=       -0.248693807269 Rises=F Damp=F
 DIIS: error= 1.10D-02 at cycle   3 NSaved=   3.
 NSaved= 3 IEnMin= 3 EnMin= -192.249331634871     IErMin= 3 ErrMin= 1.10D-02
 ErrMax= 1.10D-02  0.00D+00 EMaxC= 1.00D+00 BMatC= 1.34D-02 BMatP= 6.66D-02
 IDIUse=1 WtCom= 1.00D+00 WtEn= 0.00D+00
 Coeff-Com: -0.878D-03 0.189D+00 0.812D+00
 Coeff:     -0.878D-03 0.189D+00 0.812D+00
 Gap=     0.120 Goal=   None    Shift=    0.000
 RMSDP=6.88D-02 MaxDP=3.75D+00 DE=-2.49D-01 OVMax= 5.14D-02

 Cycle   4  Pass 1  IDiag  1:
 E= -192.264488341661     Delta-E=       -0.015156706791 Rises=F Damp=F
 DIIS: error= 3.14D-03 at cycle   4 NSaved=   4.
 NSaved= 4 IEnMin= 4 EnMin= -192.264488341661     IErMin= 4 ErrMin= 3.14D-03
 ErrMax= 3.14D-03  0.00D+00 EMaxC= 1.00D+00 BMatC= 7.06D-04 BMatP= 1.34D-02
 IDIUse=1 WtCom= 1.00D+00 WtEn= 0.00D+00
 Coeff-Com: -0.557D-02 0.682D-01 0.343D+00 0.594D+00
 Coeff:     -0.557D-02 0.682D-01 0.343D+00 0.594D+00
 Gap=     0.118 Goal=   None    Shift=    0.000
 RMSDP=4.64D-03 MaxDP=2.94D-01 DE=-1.52D-02 OVMax= 1.47D-02

 Cycle   5  Pass 1  IDiag  1:
 E= -192.264818707723     Delta-E=       -0.000330366062 Rises=F Damp=F
 DIIS: error= 2.64D-03 at cycle   5 NSaved=   5.
 NSaved= 5 IEnMin= 5 EnMin= -192.264818707723     IErMin= 5 ErrMin= 2.64D-03
 ErrMax= 2.64D-03  0.00D+00 EMaxC= 1.00D+00 BMatC= 4.73D-04 BMatP= 7.06D-04
 IDIUse=1 WtCom= 1.00D+00 WtEn= 0.00D+00
 Coeff-Com: -0.438D-02 0.158D-01 0.108D+00 0.443D+00 0.438D+00
 Coeff:     -0.438D-02 0.158D-01 0.108D+00 0.443D+00 0.438D+00
 Gap=     0.118 Goal=   None    Shift=    0.000
 RMSDP=2.94D-03 MaxDP=1.33D-01 DE=-3.30D-04 OVMax= 7.46D-03

 Cycle   6  Pass 1  IDiag  1:
 E= -192.265237867623     Delta-E=       -0.000419159901 Rises=F Damp=F
 DIIS: error= 7.51D-04 at cycle   6 NSaved=   6.
 NSaved= 6 IEnMin= 6 EnMin= -192.265237867623     IErMin= 6 ErrMin= 7.51D-04
 ErrMax= 7.51D-04  0.00D+00 EMaxC= 1.00D+00 BMatC= 3.73D-05 BMatP= 4.73D-04
 IDIUse=1 WtCom= 1.00D+00 WtEn= 0.00D+00
 Coeff-Com: -0.127D-02 0.269D-02 0.342D-01 0.234D+00 0.283D+00 0.448D+00
 Coeff:     -0.127D-02 0.269D-02 0.342D-01 0.234D+00 0.283D+00 0.448D+00
 Gap=     0.117 Goal=   None    Shift=    0.000
 RMSDP=1.49D-03 MaxDP=9.03D-02 DE=-4.19D-04 OVMax= 3.14D-03

 Cycle   7  Pass 1  IDiag  1:
 E= -192.265275373244     Delta-E=       -0.000037505620 Rises=F Damp=F
 DIIS: error= 1.36D-04 at cycle   7 NSaved=   7.
 NSaved= 7 IEnMin= 7 EnMin= -192.265275373244     IErMin= 7 ErrMin= 1.36D-04
 ErrMax= 1.36D-04  0.00D+00 EMaxC= 1.00D+00 BMatC= 1.33D-06 BMatP= 3.73D-05
 IDIUse=1 WtCom= 1.00D+00 WtEn= 0.00D+00
 Coeff-Com: -0.206D-03-0.300D-03 0.141D-02 0.461D-01 0.547D-01 0.194D+00
 Coeff-Com:  0.704D+00
 Coeff:     -0.206D-03-0.300D-03 0.141D-02 0.461D-01 0.547D-01 0.194D+00
 Coeff:      0.704D+00
 Gap=     0.118 Goal=   None    Shift=    0.000
 RMSDP=6.28D-04 MaxDP=3.85D-02 DE=-3.75D-05 OVMax= 5.87D-04

 Cycle   8  Pass 1  IDiag  1:
 E= -192.265276934434     Delta-E=       -0.000001561190 Rises=F Damp=F
 DIIS: error= 1.40D-05 at cycle   8 NSaved=   8.
 NSaved= 8 IEnMin= 8 EnMin= -192.265276934434     IErMin= 8 ErrMin= 1.40D-05
 ErrMax= 1.40D-05  0.00D+00 EMaxC= 1.00D+00 BMatC= 2.31D-08 BMatP= 1.33D-06
 IDIUse=1 WtCom= 1.00D+00 WtEn= 0.00D+00
 Coeff-Com: -0.933D-05-0.159D-03-0.131D-02 0.233D-02 0.257D-02 0.353D-01
 Coeff-Com:  0.192D+00 0.770D+00
 Coeff:     -0.933D-05-0.159D-03-0.131D-02 0.233D-02 0.257D-02 0.353D-01
 Coeff:      0.192D+00 0.770D+00
 Gap=     0.118 Goal=   None    Shift=    0.000
 RMSDP=2.47D-04 MaxDP=1.34D-02 DE=-1.56D-06 OVMax= 1.13D-04

 Cycle   9  Pass 1  IDiag  1:
 E= -192.265276960025     Delta-E=       -0.000000025590 Rises=F Damp=F
 DIIS: error= 7.56D-06 at cycle   9 NSaved=   9.
 NSaved= 9 IEnMin= 9 EnMin= -192.265276960025     IErMin= 9 ErrMin= 7.56D-06
 ErrMax= 7.56D-06  0.00D+00 EMaxC= 1.00D+00 BMatC= 8.22D-09 BMatP= 2.31D-08
 IDIUse=1 WtCom= 1.00D+00 WtEn= 0.00D+00
 Coeff-Com:  0.640D-05-0.610D-04-0.784D-03-0.195D-02-0.182D-02 0.516D-02
 Coeff-Com:  0.554D-01 0.413D+00 0.531D+00
 Coeff:      0.640D-05-0.610D-04-0.784D-03-0.195D-02-0.182D-02 0.516D-02
 Coeff:      0.554D-01 0.413D+00 0.531D+00
 Gap=     0.118 Goal=   None    Shift=    0.000
 RMSDP=2.96D-05 MaxDP=1.51D-03 DE=-2.56D-08 OVMax= 4.45D-05

 Cycle  10  Pass 1  IDiag  1:
 E= -192.265276967040     Delta-E=       -0.000000007016 Rises=F Damp=F
 DIIS: error= 4.00D-06 at cycle  10 NSaved=  10.
 NSaved=10 IEnMin=10 EnMin= -192.265276967040     IErMin=10 ErrMin= 4.00D-06
 ErrMax= 4.00D-06  0.00D+00 EMaxC= 1.00D+00 BMatC= 2.33D-09 BMatP= 8.22D-09
 IDIUse=1 WtCom= 1.00D+00 WtEn= 0.00D+00
 Coeff-Com:  0.537D-05-0.106D-05-0.172D-03-0.196D-02-0.165D-02-0.593D-02
 Coeff-Com: -0.118D-01 0.790D-01 0.366D+00 0.576D+00
 Coeff:      0.537D-05-0.106D-05-0.172D-03-0.196D-02-0.165D-02-0.593D-02
 Coeff:     -0.118D-01 0.790D-01 0.366D+00 0.576D+00
 Gap=     0.118 Goal=   None    Shift=    0.000
 RMSDP=7.58D-06 MaxDP=4.47D-04 DE=-7.02D-09 OVMax= 2.49D-05

 Cycle  11  Pass 1  IDiag  1:
 E= -192.265276969673     Delta-E=       -0.000000002633 Rises=F Damp=F
 DIIS: error= 3.79D-07 at cycle  11 NSaved=  11.
 NSaved=11 IEnMin=11 EnMin= -192.265276969673     IErMin=11 ErrMin= 3.79D-07
 ErrMax= 3.79D-07  0.00D+00 EMaxC= 1.00D+00 BMatC= 2.60D-11 BMatP= 2.33D-09
 IDIUse=1 WtCom= 1.00D+00 WtEn= 0.00D+00
 Coeff-Com:  0.684D-06 0.166D-06 0.211D-04-0.267D-03-0.218D-03-0.130D-02
 Coeff-Com: -0.564D-02-0.105D-01 0.339D-01 0.104D+00 0.880D+00
 Coeff:      0.684D-06 0.166D-06 0.211D-04-0.267D-03-0.218D-03-0.130D-02
 Coeff:     -0.564D-02-0.105D-01 0.339D-01 0.104D+00 0.880D+00
 Gap=     0.118 Goal=   None    Shift=    0.000
 RMSDP=4.91D-06 MaxDP=2.89D-04 DE=-2.63D-09 OVMax= 7.67D-06

 Cycle  12  Pass 1  IDiag  1:
 E= -192.265276969724     Delta-E=       -0.000000000051 Rises=F Damp=F
 DIIS: error= 2.53D-07 at cycle  12 NSaved=  12.
 NSaved=12 IEnMin=12 EnMin= -192.265276969724     IErMin=12 ErrMin= 2.53D-07
 ErrMax= 2.53D-07  0.00D+00 EMaxC= 1.00D+00 BMatC= 6.90D-12 BMatP= 2.60D-11
 IDIUse=1 WtCom= 1.00D+00 WtEn= 0.00D+00
 Coeff-Com:  0.467D-07 0.282D-06 0.209D-04-0.118D-04-0.166D-04-0.286D-03
 Coeff-Com: -0.208D-02-0.997D-02-0.702D-02 0.124D-01 0.439D+00 0.568D+00
 Coeff:      0.467D-07 0.282D-06 0.209D-04-0.118D-04-0.166D-04-0.286D-03
 Coeff:     -0.208D-02-0.997D-02-0.702D-02 0.124D-01 0.439D+00 0.568D+00
 Gap=     0.118 Goal=   None    Shift=    0.000
 RMSDP=8.72D-07 MaxDP=5.15D-05 DE=-5.06D-11 OVMax= 2.24D-06

 Cycle  13  Pass 1  IDiag  1:
 E= -192.265276969733     Delta-E=       -0.000000000009 Rises=F Damp=F
 DIIS: error= 8.14D-08 at cycle  13 NSaved=  13.
 NSaved=13 IEnMin=13 EnMin= -192.265276969733     IErMin=13 ErrMin= 8.14D-08
 ErrMax= 8.14D-08  0.00D+00 EMaxC= 1.00D+00 BMatC= 8.09D-13 BMatP= 6.90D-12
 IDIUse=1 WtCom= 1.00D+00 WtEn= 0.00D+00
 Coeff-Com: -0.651D-07 0.309D-06 0.491D-05 0.343D-04 0.212D-04 0.559D-04
 Coeff-Com: -0.431D-04-0.232D-02-0.845D-02-0.114D-01 0.421D-01 0.269D+00
 Coeff-Com:  0.711D+00
 Coeff:     -0.651D-07 0.309D-06 0.491D-05 0.343D-04 0.212D-04 0.559D-04
 Coeff:     -0.431D-04-0.232D-02-0.845D-02-0.114D-01 0.421D-01 0.269D+00
 Coeff:      0.711D+00
 Gap=     0.118 Goal=   None    Shift=    0.000
 RMSDP=1.81D-07 MaxDP=8.86D-06 DE=-8.64D-12 OVMax= 8.74D-07

 Cycle  14  Pass 1  IDiag  1:
 E= -192.265276969734     Delta-E=       -0.000000000001 Rises=F Damp=F
 DIIS: error= 7.25D-09 at cycle  14 NSaved=  14.
 NSaved=14 IEnMin=14 EnMin= -192.265276969734     IErMin=14 ErrMin= 7.25D-09
 ErrMax= 7.25D-09  0.00D+00 EMaxC= 1.00D+00 BMatC= 6.90D-15 BMatP= 8.09D-13
 IDIUse=1 WtCom= 1.00D+00 WtEn= 0.00D+00
 Coeff-Com: -0.638D-08 0.332D-07-0.441D-06 0.442D-05 0.462D-05 0.140D-04
 Coeff-Com:  0.741D-04 0.211D-03-0.507D-03-0.164D-02-0.149D-01-0.430D-02
 Coeff-Com:  0.500D-01 0.971D+00
 Coeff:     -0.638D-08 0.332D-07-0.441D-06 0.442D-05 0.462D-05 0.140D-04
 Coeff:      0.741D-04 0.211D-03-0.507D-03-0.164D-02-0.149D-01-0.430D-02
 Coeff:      0.500D-01 0.971D+00
 Gap=     0.118 Goal=   None    Shift=    0.000
 RMSDP=1.59D-07 MaxDP=7.52D-06 DE=-1.42D-12 OVMax= 1.99D-07

 Cycle  15  Pass 1  IDiag  1:
 E= -192.265276969735     Delta-E=       -0.000000000001 Rises=F Damp=F
 DIIS: error= 8.86D-10 at cycle  15 NSaved=  15.
 NSaved=15 IEnMin=15 EnMin= -192.265276969735     IErMin=15 ErrMin= 8.86D-10
 ErrMax= 8.86D-10  0.00D+00 EMaxC= 1.00D+00 BMatC= 1.34D-16 BMatP= 6.90D-15
 IDIUse=1 WtCom= 1.00D+00 WtEn= 0.00D+00
 Coeff-Com: -0.598D-09-0.241D-08-0.131D-06-0.148D-06 0.191D-06 0.433D-06
 Coeff-Com:  0.904D-05 0.805D-04 0.176D-03 0.122D-03-0.272D-02-0.785D-02
 Coeff-Com: -0.138D-01 0.900D-01 0.934D+00
 Coeff:     -0.598D-09-0.241D-08-0.131D-06-0.148D-06 0.191D-06 0.433D-06
 Coeff:      0.904D-05 0.805D-04 0.176D-03 0.122D-03-0.272D-02-0.785D-02
 Coeff:     -0.138D-01 0.900D-01 0.934D+00
 Gap=     0.118 Goal=   None    Shift=    0.000
 RMSDP=4.31D-08 MaxDP=2.24D-06 DE=-1.08D-12 OVMax= 3.39D-08

 Cycle  16  Pass 1  IDiag  1:
 E= -192.265276969735     Delta-E=        0.000000000000 Rises=F Damp=F
 DIIS: error= 2.32D-10 at cycle  16 NSaved=  16.
 NSaved=16 IEnMin=15 EnMin= -192.265276969735     IErMin=16 ErrMin= 2.32D-10
 ErrMax= 2.32D-10  0.00D+00 EMaxC= 1.00D+00 BMatC= 1.05D-17 BMatP= 1.34D-16
 IDIUse=1 WtCom= 1.00D+00 WtEn= 0.00D+00
 Large coefficients: NSaved= 16 BigCof=    0.00 CofMax=   10.00 Det=-1.04D-16
 Inversion failed.  Reducing to 15 matrices.
 Coeff-Com: -0.611D-09 0.891D-08-0.873D-07-0.676D-07-0.194D-06-0.914D-06
 Coeff-Com:  0.510D-05 0.329D-04 0.577D-04 0.157D-04-0.950D-03-0.356D-02
 Coeff-Com: -0.184D-01 0.158D+00 0.865D+00
 Coeff:     -0.611D-09 0.891D-08-0.873D-07-0.676D-07-0.194D-06-0.914D-06
 Coeff:      0.510D-05 0.329D-04 0.577D-04 0.157D-04-0.950D-03-0.356D-02
 Coeff:     -0.184D-01 0.158D+00 0.865D+00
 Gap=     0.118 Goal=   None    Shift=    0.000
 RMSDP=1.12D-08 MaxDP=5.46D-07 DE= 2.84D-13 OVMax= 6.60D-09

 Cycle  17  Pass 1  IDiag  1:
 E= -192.265276969734     Delta-E=        0.000000000000 Rises=F Damp=F
 DIIS: error= 7.92D-11 at cycle  17 NSaved=  16.
 NSaved=16 IEnMin=14 EnMin= -192.265276969735     IErMin=16 ErrMin= 7.92D-11
 ErrMax= 7.92D-11  0.00D+00 EMaxC= 1.00D+00 BMatC= 7.30D-19 BMatP= 1.05D-17
 IDIUse=1 WtCom= 1.00D+00 WtEn= 0.00D+00
 Large coefficients: NSaved= 16 BigCof=    0.00 CofMax=   10.00 Det=-8.41D-18
 Inversion failed.  Reducing to 15 matrices.
 Coeff-Com:  0.693D-08-0.233D-07-0.418D-07-0.122D-06-0.769D-06-0.304D-05
 Coeff-Com: -0.204D-05 0.600D-05 0.175D-03 0.262D-03 0.122D-03-0.934D-02
 Coeff-Com: -0.276D-01 0.181D+00 0.856D+00
 Coeff:      0.693D-08-0.233D-07-0.418D-07-0.122D-06-0.769D-06-0.304D-05
 Coeff:     -0.204D-05 0.600D-05 0.175D-03 0.262D-03 0.122D-03-0.934D-02
 Coeff:     -0.276D-01 0.181D+00 0.856D+00
 Gap=     0.118 Goal=   None    Shift=    0.000
 RMSDP=1.99D-09 MaxDP=9.91D-08 DE= 4.55D-13 OVMax= 1.49D-09

 SCF Done:  E(RB3LYP) =  -192.265276970     A.U. after   17 cycles
            NFock= 17  Conv=0.20D-08     -V/T= 2.0046
 KE= 1.913888199564D+02 PE=-6.857446258755D+02 EE= 1.857030385325D+02
 Leave Link  502 at Mon Oct 24 14:30:01 2022, MaxMem=  8053063680 cpu:              63.0 elap:               2.3
 (Enter /public3/home/scg5914/software-scg5914/g16/l701.exe)
 ... and contract with generalized density number  0.
 Compute integral first derivatives.
 R6Disp: Adding Grimme-D3(BJ) dispersion energy 1st derivatives to the gradient.
 Leave Link  701 at Mon Oct 24 14:30:01 2022, MaxMem=  8053063680 cpu:               7.8 elap:               0.3
 (Enter /public3/home/scg5914/software-scg5914/g16/l702.exe)
 L702 exits ... SP integral derivatives will be done elsewhere.
 Leave Link  702 at Mon Oct 24 14:30:01 2022, MaxMem=  8053063680 cpu:               0.2 elap:               0.0
 (Enter /public3/home/scg5914/software-scg5914/g16/l703.exe)
 Integral derivatives from FoFJK, PRISM(SPDF).
 Compute integral first derivatives, UseDBF=F ICtDFT=           0.
 Calling FoFJK, ICntrl=      2127 FMM=F ISym2X=0 I1Cent= 0 IOpClX= 0 NMat=1 NMatS=1 NMatT=0.
 FoFJK:  IHMeth= 1 ICntrl=    2127 DoSepK=F KAlg= 0 I1Cent=           0 FoldK=F
 IRaf=         0 NMat=       1 IRICut=       1 DoRegI=T DoRafI=F ISym2E= 0 IDoP0=0 IntGTp=1.
 FoFCou: FMM=F IPFlag=           0 FMFlag=      100000 FMFlg1=         800
         NFxFlg=           0 DoJE=F BraDBF=F KetDBF=F FulRan=T
         wScrn=  0.000000 ICntrl=      2127 IOpCl=  0 I1Cent=           0 NGrid=           0
         NMat0=    1 NMatS0=      1 NMatT0=    0 NMatD0=    1 NMtDS0=    0 NMtDT0=    0
 Symmetry not used in FoFCou.
 Leave Link  703 at Mon Oct 24 14:30:02 2022, MaxMem=  8053063680 cpu:              17.8 elap:               0.6
 (Enter /public3/home/scg5914/software-scg5914/g16/l716.exe)
 Dipole        = 8.43052803D-03-3.82849286D-02 2.72789914D-01
 ***** Axes restored to original set *****
 -------------------------------------------------------------------
 Center     Atomic                   Forces (Hartrees/Bohr)
 Number     Number              X              Y              Z
 -------------------------------------------------------------------
      1        6           0.001815221   -0.007292931   -0.002498863
      2        6          -0.016802886    0.015978474    0.009245742
      3        6           0.025315152   -0.012911265   -0.015169629
      4        6          -0.017129360    0.003128054    0.003958890
      5        6           0.004909838    0.002274172   -0.000579893
      6        1           0.002180487   -0.000684132   -0.000240259
      7        1          -0.001032607    0.000490506    0.004966836
      8        1           0.000744156   -0.000982878    0.000317175
 -------------------------------------------------------------------
 Cartesian Forces:  Max     0.025315152 RMS     0.009365046
 Leave Link  716 at Mon Oct 24 14:30:02 2022, MaxMem=  8053063680 cpu:               0.2 elap:               0.0
 (Enter /public3/home/scg5914/software-scg5914/g16/l103.exe)

 GradGradGradGradGradGradGradGradGradGradGradGradGradGradGradGradGradGrad
 Berny optimization.
 Using GEDIIS/GDIIS optimizer.
 FormGI is forming the generalized inverse of G from B-inverse, IUseBI=4.
 Internal  Forces:  Max     0.015922988 RMS     0.006440403
 Search for a local minimum.
 Step number   2 out of a maximum of   29
 All quantities printed in internal units (Hartrees-Bohrs-Radians)
 RMS Force = .64404D-02 SwitMx=.10000D-02 MixMth= 1
 Mixed Optimization -- RFO/linear search
 Update second derivatives using D2CorX and points    1    2
 DE= -6.82D-03 DEPred=-7.78D-03 R= 8.77D-01
 TightC=F SS=  1.41D+00  RLast= 3.44D-01 DXNew= 5.0454D-01 1.0330D+00
 Trust test= 8.77D-01 RLast= 3.44D-01 DXMaxT set to 5.05D-01
 The second derivative matrix:
                          R1        R2        R3        R4        R5
           R1           0.98732
           R2           0.00084   0.38286
           R3           0.04732  -0.00092   0.32865
           R4           0.04938  -0.00102  -0.03750   0.32618
           R5           0.00873  -0.00030  -0.00606  -0.00610   0.33764
           R6          -0.05593   0.00065   0.04500   0.04715   0.00866
           R7           0.00104   0.00003  -0.00104  -0.00114  -0.00030
           A1          -0.05647   0.00241   0.03677   0.03629   0.00276
           A2          -0.02208   0.00044   0.01685   0.01742   0.00279
           A3          -0.02263   0.00047   0.01719   0.01774   0.00280
           A4           0.01251  -0.00065  -0.00758  -0.00730  -0.00022
           A5           0.04704  -0.00252  -0.02811  -0.02694  -0.00056
           A6           0.01480  -0.00093  -0.00818  -0.00761   0.00028
           A7           0.00674  -0.00035  -0.00407  -0.00392  -0.00011
           A8          -0.00267   0.00015   0.00157   0.00149   0.00001
           A9           0.01917  -0.00107  -0.01122  -0.01067  -0.00006
           A10          0.00088  -0.00019   0.00019   0.00043   0.00048
           A11          0.00054  -0.00004  -0.00028  -0.00025   0.00003
           D1           0.00021   0.00001  -0.00024  -0.00027  -0.00008
                          R6        R7        A1        A2        A3
           R6           0.99511
           R7           0.00085   0.38284
           A1          -0.05737   0.00236   0.24776
           A2          -0.02103   0.00049  -0.01679   0.15217
           A3          -0.02160   0.00052  -0.01665  -0.00799   0.15187
           A4           0.01302  -0.00062  -0.00311   0.00343   0.00335
           A5           0.04922  -0.00241  -0.01435   0.01269   0.01237
           A6           0.01586  -0.00087  -0.00880   0.00365   0.00350
           A7           0.00703  -0.00034  -0.00176   0.00184   0.00180
           A8          -0.00281   0.00014   0.00099  -0.00071  -0.00069
           A9           0.02020  -0.00102  -0.00739   0.00505   0.00490
           A10          0.00132  -0.00017  -0.00488  -0.00013  -0.00020
           A11          0.00060  -0.00004  -0.00049   0.00012   0.00011
           D1           0.00015   0.00001   0.00069   0.00012   0.00012
                          A4        A5        A6        A7        A8
           A4           0.00782
           A5           0.00733   0.04305
           A6           0.00356   0.01456   0.05380
           A7           0.00096   0.00405   0.00195   0.00661
           A8          -0.00047  -0.00194  -0.00090  -0.00026   0.00620
           A9           0.00344   0.01425   0.00662   0.00189  -0.00089
           A10          0.00148   0.00587   0.00232   0.00081  -0.00035
           A11          0.00018   0.00072   0.00031   0.00010  -0.00004
           D1          -0.00019  -0.00073  -0.00027  -0.00010   0.00004
                          A9        A10       A11       D1
           A9           0.01902
           A10          0.00256   0.04794
           A11          0.00032   0.00010   0.00609
           D1          -0.00031  -0.00006  -0.00001   0.00230
 ITU=  1  0
 Use linear search instead of GDIIS.
     Eigenvalues ---    0.00595   0.00607   0.00607   0.00616   0.01191
     Eigenvalues ---    0.01546   0.03550   0.04716   0.05990   0.16000
     Eigenvalues ---    0.21583   0.29737   0.33955   0.36495   0.38282
     Eigenvalues ---    0.38298   0.95690   1.04732
 RFO step:  Lambda=-1.74954421D-02 EMin= 5.94990832D-03
 Quartic linear search produced a step of  0.03590.
 Maximum step size (   0.505) exceeded in Quadratic search.
    -- Step size scaled by   0.872
 Iteration  1 RMS(Cart)=  0.18894683 RMS(Int)=  0.06128713
 Iteration  2 RMS(Cart)=  0.14405857 RMS(Int)=  0.01468707
 Iteration  3 RMS(Cart)=  0.01294236 RMS(Int)=  0.01165744
 Iteration  4 RMS(Cart)=  0.00006688 RMS(Int)=  0.01165731
 Iteration  5 RMS(Cart)=  0.00000230 RMS(Int)=  0.01165731
 Iteration  6 RMS(Cart)=  0.00000007 RMS(Int)=  0.01165731
 ITry= 1 IFail=0 DXMaxC= 8.94D-01 DCOld= 1.00D+10 DXMaxT= 5.05D-01 DXLimC= 3.00D+00 Rises=F
 Variable       Old X    -DE/DX   Delta X   Delta X   Delta X     New X
                                 (Linear)    (Quad)   (Total)
    R1        2.30764   0.00692   0.00142   0.05060   0.05202   2.35966
    R2        2.00258   0.00021  -0.00014  -0.00395  -0.00410   1.99848
    R3        2.68918  -0.00785  -0.00277  -0.10287  -0.10563   2.58355
    R4        2.68918  -0.00861  -0.00277  -0.10461  -0.10737   2.58181
    R5        2.06778  -0.00226  -0.00030  -0.01472  -0.01502   2.05276
    R6        2.30764   0.00552   0.00142   0.04945   0.05087   2.35851
    R7        2.00258   0.00014  -0.00014  -0.00411  -0.00425   1.99832
    A1        2.01906   0.00873   0.00131   0.08980   0.06085   2.07990
    A2        1.98879  -0.00075   0.00289   0.10369   0.07862   2.06742
    A3        1.98879  -0.00055   0.00289   0.10467   0.07960   2.06839
    A4        3.15344  -0.00441   0.00061  -0.15822  -0.15761   2.99582
    A5        3.30860  -0.01592   0.00559  -0.38943  -0.38383   2.92477
    A6        3.21899  -0.00573   0.00237  -0.02145  -0.01908   3.19991
    A7        3.15349  -0.00229   0.00061  -0.07960  -0.07898   3.07451
    A8        3.10681   0.00060  -0.00125   0.01163   0.01038   3.11719
    A9        3.27789  -0.00586   0.00489  -0.10516  -0.10027   3.17763
   A10        3.19955  -0.00058   0.00208   0.04114   0.04322   3.24277
   A11        3.17630   0.00018   0.00124   0.01725   0.01849   3.19479
    D1       -2.36913  -0.01208  -0.00677  -0.36641  -0.38333  -2.75246
         Item               Value     Threshold  Converged?
 Maximum Force            0.015923     0.000450     NO 
 RMS     Force            0.006440     0.000300     NO 
 Maximum Displacement     0.894161     0.001800     NO 
 RMS     Displacement     0.326962     0.001200     NO 
 Predicted change in Energy=-1.215226D-02
 Lowest energy point so far.  Saving SCF results.
 GradGradGradGradGradGradGradGradGradGradGradGradGradGradGradGradGradGrad

 Leave Link  103 at Mon Oct 24 14:30:02 2022, MaxMem=  8053063680 cpu:               1.2 elap:               0.1
 (Enter /public3/home/scg5914/software-scg5914/g16/l202.exe)
                          Input orientation:                          
 ---------------------------------------------------------------------
 Center     Atomic      Atomic             Coordinates (Angstroms)
 Number     Number       Type             X           Y           Z
 ---------------------------------------------------------------------
      1          6           0       -0.049356   -1.199147   -0.003141
      2          6           0       -0.123238    0.039657   -0.141337
      3          6           0        0.082668    1.389420   -0.211050
      4          6           0        1.359540    1.872061   -0.154024
      5          6           0        2.486240    2.390770   -0.015592
      6          1           0        0.160534   -2.223354    0.156098
      7          1           0       -0.685227    2.007203   -0.667860
      8          1           0        3.458744    2.770714    0.152076
 ---------------------------------------------------------------------
                    Distance matrix (angstroms):
                    1          2          3          4          5
     1  C    0.000000
     2  C    1.248677   0.000000
     3  C    2.600257   1.367157   0.000000
     4  C    3.382318   2.357222   1.366235   0.000000
     5  C    4.395100   3.514672   2.611142   1.248069   0.000000
     6  H    1.057549   2.300046   3.632217   4.278576   5.169964
     7  H    3.335695   2.112887   1.086275   2.112667   3.260488
     8  H    5.300061   4.513907   3.665750   2.303895   1.057466
                    6          7          8
     6  H    0.000000
     7  H    4.392246   0.000000
     8  H    5.984891   4.292754   0.000000
 Stoichiometry    C5H3(1-)
 Framework group  C1[X(C5H3)]
 Deg. of freedom    18
 Full point group                 C1      NOp   1
 RotChk:  IX=0 Diff= 8.46D-02
 Largest Abelian subgroup         C1      NOp   1
 Largest concise Abelian subgroup C1      NOp   1
                         Standard orientation:                         
 ---------------------------------------------------------------------
 Center     Atomic      Atomic             Coordinates (Angstroms)
 Number     Number       Type             X           Y           Z
 ---------------------------------------------------------------------
      1          6           0        2.178639   -0.566319    0.013431
      2          6           0        1.216553    0.229377   -0.007823
      3          6           0        0.001010    0.852538   -0.064775
      4          6           0       -1.136984    0.101938    0.025588
      5          6           0       -2.216259   -0.524587    0.008077
      6          1           0        2.887155   -1.351435    0.010536
      7          1           0       -0.052173    1.907459    0.188808
      8          1           0       -3.092741   -1.113698   -0.046340
 ---------------------------------------------------------------------
 Rotational constants (GHZ):          21.5247423           3.0206175           2.6514758
 Leave Link  202 at Mon Oct 24 14:30:02 2022, MaxMem=  8053063680 cpu:               1.0 elap:               0.0
 (Enter /public3/home/scg5914/software-scg5914/g16/l301.exe)
 Standard basis: 6-311+G(d,p) (5D, 7F)
 Ernie: Thresh=  0.10000D-02 Tol=  0.10000D-05 Strict=F.
 There are   133 symmetry adapted cartesian basis functions of A   symmetry.
 There are   128 symmetry adapted basis functions of A   symmetry.
   128 basis functions,   204 primitive gaussians,   133 cartesian basis functions
    17 alpha electrons       17 beta electrons
       nuclear repulsion energy       117.8378832978 Hartrees.
 IExCor=  402 DFT=T Ex+Corr=B3LYP ExCW=0 ScaHFX=  0.200000
 ScaDFX=  0.800000  0.720000  1.000000  0.810000 ScalE2=  1.000000  1.000000
 IRadAn=      5 IRanWt=     -1 IRanGd=            0 ICorTp=0 IEmpDi=141
 NAtoms=    8 NActive=    8 NUniq=    8 SFac= 1.00D+00 NAtFMM=   60 NAOKFM=F Big=F
 Integral buffers will be    131072 words long.
 Raffenetti 2 integral format.
 Two-electron integral symmetry is turned on.
 R6Disp:  Grimme-D3(BJ) Dispersion energy=       -0.0095699157 Hartrees.
 Nuclear repulsion after empirical dispersion term =      117.8283133821 Hartrees.
 Leave Link  301 at Mon Oct 24 14:30:02 2022, MaxMem=  8053063680 cpu:               0.6 elap:               0.0
 (Enter /public3/home/scg5914/software-scg5914/g16/l302.exe)
 NPDir=0 NMtPBC=     1 NCelOv=     1 NCel=       1 NClECP=     1 NCelD=      1
         NCelK=      1 NCelE2=     1 NClLst=     1 CellRange=     0.0.
 One-electron integrals computed using PRISM.
 One-electron integral symmetry used in STVInt
 NBasis=   128 RedAO= T EigKep=  2.93D-06  NBF=   128
 NBsUse=   128 1.00D-06 EigRej= -1.00D+00 NBFU=   128
 Precomputing XC quadrature grid using
 IXCGrd= 4 IRadAn=           5 IRanWt=          -1 IRanGd=           0 AccXCQ= 0.00D+00.
 Generated NRdTot=       0 NPtTot=           0 NUsed=           0 NTot=          32
 NSgBfM=   133   133   133   133   133 MxSgAt=     8 MxSgA2=     8.
 Leave Link  302 at Mon Oct 24 14:30:02 2022, MaxMem=  8053063680 cpu:               2.5 elap:               0.1
 (Enter /public3/home/scg5914/software-scg5914/g16/l303.exe)
 DipDrv:  MaxL=1.
 Leave Link  303 at Mon Oct 24 14:30:02 2022, MaxMem=  8053063680 cpu:               0.3 elap:               0.0
 (Enter /public3/home/scg5914/software-scg5914/g16/l401.exe)
 Initial guess from the checkpoint file:  "dsgdb9nsd_000107-3.chk"
 B after Tr=    -0.000000    0.000000   -0.000000
         Rot=    0.999995    0.000836    0.000223    0.002998 Ang=   0.36 deg.
 Guess basis will be translated and rotated to current coordinates.
 JPrj=2 DoOrth=T DoCkMO=T.
 Generating alternative initial guess.
 ExpMin= 4.38D-02 ExpMax= 4.56D+03 ExpMxC= 6.82D+02 IAcc=3 IRadAn=         5 AccDes= 0.00D+00
 Harris functional with IExCor=  402 and IRadAn=       5 diagonalized for initial guess.
 HarFok:  IExCor=  402 AccDes= 0.00D+00 IRadAn=         5 IDoV= 1 UseB2=F ITyADJ=14
 ICtDFT=  3500011 ScaDFX=  1.000000  1.000000  1.000000  1.000000
 FoFCou: FMM=F IPFlag=           0 FMFlag=      100000 FMFlg1=           0
         NFxFlg=           0 DoJE=T BraDBF=F KetDBF=T FulRan=T
         wScrn=  0.000000 ICntrl=       500 IOpCl=  0 I1Cent=   200000004 NGrid=           0
         NMat0=    1 NMatS0=      1 NMatT0=    0 NMatD0=    1 NMtDS0=    0 NMtDT0=    0
 Petite list used in FoFCou.
 Harris En= -192.513656856092    
 Leave Link  401 at Mon Oct 24 14:30:03 2022, MaxMem=  8053063680 cpu:              11.4 elap:               0.4
 (Enter /public3/home/scg5914/software-scg5914/g16/l502.exe)
 Keep R1 ints in memory in canonical form, NReq=64796428.
 FoFCou: FMM=F IPFlag=           0 FMFlag=           0 FMFlg1=           0
         NFxFlg=           0 DoJE=F BraDBF=F KetDBF=F FulRan=T
         wScrn=  0.000000 ICntrl=       600 IOpCl=  0 I1Cent=           0 NGrid=           0
         NMat0=    1 NMatS0=   8256 NMatT0=    0 NMatD0=    1 NMtDS0=    0 NMtDT0=    0
 Symmetry not used in FoFCou.
 Two-electron integral symmetry not used.
 Closed shell SCF:
 Using DIIS extrapolation, IDIIS=  1040.
 NGot=  8053063680 LenX=  8018937600 LenY=  8018919470
 Requested convergence on RMS density matrix=1.00D-08 within 128 cycles.
 Requested convergence on MAX density matrix=1.00D-06.
 Requested convergence on             energy=1.00D-06.
 No special actions if energy rises.

 Cycle   1  Pass 1  IDiag  1:
 E= -192.155782815415    
 DIIS: error= 2.53D-02 at cycle   1 NSaved=   1.
 NSaved= 1 IEnMin= 1 EnMin= -192.155782815415     IErMin= 1 ErrMin= 2.53D-02
 ErrMax= 2.53D-02  0.00D+00 EMaxC= 1.00D-01 BMatC= 9.56D-02 BMatP= 9.56D-02
 IDIUse=3 WtCom= 7.47D-01 WtEn= 2.53D-01
 Coeff-Com:  0.100D+01
 Coeff-En:   0.100D+01
 Coeff:      0.100D+01
 Recover alternate guess density for next cycle.
 RMSDP=8.57D-02 MaxDP=4.24D+00              OVMax= 0.00D+00

 Cycle   2  Pass 1  IDiag  1:
 E= -191.997167956181     Delta-E=        0.158614859234 Rises=F Damp=F
 Switch densities from cycles 1 and 2 for lowest energy.
 DIIS: error= 5.08D-02 at cycle   2 NSaved=   2.
 NSaved= 2 IEnMin= 1 EnMin= -192.155782815415     IErMin= 1 ErrMin= 2.53D-02
[...]
   9. BD (   2) C   4 - C   5        /113. RY*(   1) H   8                    0.71    0.73    0.020
   9. BD (   2) C   4 - C   5        /114. RY*(   2) H   8                    0.92    2.26    0.041
   9. BD (   2) C   4 - C   5        /126. BD*(   2) C   4 - C   5            0.82    0.37    0.017
   9. BD (   2) C   4 - C   5        /128. BD*(   1) C   5 - H   8            1.56    0.72    0.030
  10. BD (   3) C   4 - C   5        / 53. RY*(   2) C   3                    0.51    1.04    0.021
  10. BD (   3) C   4 - C   5        /122. BD*(   1) C   2 - C   3            4.18    0.88    0.054
  10. BD (   3) C   4 - C   5        /124. BD*(   1) C   3 - H   7            4.94    0.69    0.052
  11. BD (   1) C   5 - H   8        / 69. RY*(   1) C   4                    2.92    1.63    0.062
  11. BD (   1) C   5 - H   8        / 71. RY*(   3) C   4                    1.92    1.82    0.053
  11. BD (   1) C   5 - H   8        /123. BD*(   1) C   3 - C   4            7.09    1.18    0.082
  11. BD (   1) C   5 - H   8        /125. BD*(   1) C   4 - C   5            3.85    1.47    0.067
  11. BD (   1) C   5 - H   8        /126. BD*(   2) C   4 - C   5            1.99    0.66    0.035
  12. CR (   1) C   1                / 35. RY*(   1) C   2                    3.08   11.06    0.165
  12. CR (   1) C   1                / 37. RY*(   3) C   2                    0.83   11.26    0.086
  12. CR (   1) C   1                / 38. RY*(   4) C   2                    0.60   10.96    0.073
  12. CR (   1) C   1                /103. RY*(   1) H   6                    0.51   10.47    0.065
  12. CR (   1) C   1                /118. BD*(   1) C   1 - C   2            1.06   10.91    0.096
  12. CR (   1) C   1                /119. BD*(   2) C   1 - C   2            1.39   10.10    0.115
  12. CR (   1) C   1                /121. BD*(   1) C   1 - H   6            0.54   10.45    0.067
  12. CR (   1) C   1                /122. BD*(   1) C   2 - C   3            5.72   10.61    0.221
  13. CR (   1) C   2                / 19. RY*(   2) C   1                    1.30   11.56    0.109
  13. CR (   1) C   2                / 20. RY*(   3) C   1                    1.25   10.72    0.103
  13. CR (   1) C   2                / 54. RY*(   3) C   3                    0.55   11.66    0.071
  13. CR (   1) C   2                / 56. RY*(   5) C   3                    1.21   10.73    0.102
  13. CR (   1) C   2                /118. BD*(   1) C   1 - C   2            1.13   10.93    0.100
  13. CR (   1) C   2                /121. BD*(   1) C   1 - H   6            2.79   10.47    0.153
  13. CR (   1) C   2                /123. BD*(   1) C   3 - C   4            1.06   10.63    0.095
  14. CR (   1) C   3                / 35. RY*(   1) C   2                    0.81   11.08    0.085
  14. CR (   1) C   3                / 38. RY*(   4) C   2                    0.74   10.98    0.081
  14. CR (   1) C   3                / 39. RY*(   5) C   2                    0.52   10.74    0.067
  14. CR (   1) C   3                / 69. RY*(   1) C   4                    0.81   11.08    0.085
  14. CR (   1) C   3                / 72. RY*(   4) C   4                    0.74   10.98    0.081
  14. CR (   1) C   3                / 73. RY*(   5) C   4                    0.52   10.74    0.067
  14. CR (   1) C   3                /118. BD*(   1) C   1 - C   2            3.99   10.93    0.187
  14. CR (   1) C   3                /125. BD*(   1) C   4 - C   5            4.00   10.93    0.187
  15. CR (   1) C   4                / 54. RY*(   3) C   3                    0.55   11.66    0.071
  15. CR (   1) C   4                / 56. RY*(   5) C   3                    1.21   10.73    0.102
  15. CR (   1) C   4                / 87. RY*(   2) C   5                    1.30   11.56    0.109
  15. CR (   1) C   4                / 88. RY*(   3) C   5                    1.25   10.72    0.103
  15. CR (   1) C   4                /122. BD*(   1) C   2 - C   3            1.06   10.63    0.095
  15. CR (   1) C   4                /125. BD*(   1) C   4 - C   5            1.13   10.93    0.100
  15. CR (   1) C   4                /128. BD*(   1) C   5 - H   8            2.79   10.47    0.153
  16. CR (   1) C   5                / 69. RY*(   1) C   4                    3.08   11.06    0.165
  16. CR (   1) C   5                / 71. RY*(   3) C   4                    0.83   11.26    0.086
  16. CR (   1) C   5                / 72. RY*(   4) C   4                    0.60   10.96    0.073
  16. CR (   1) C   5                /113. RY*(   1) H   8                    0.50   10.46    0.065
  16. CR (   1) C   5                /123. BD*(   1) C   3 - C   4            5.71   10.61    0.221
  16. CR (   1) C   5                /125. BD*(   1) C   4 - C   5            1.06   10.91    0.096
  16. CR (   1) C   5                /126. BD*(   2) C   4 - C   5            1.39   10.10    0.115
  16. CR (   1) C   5                /128. BD*(   1) C   5 - H   8            0.54   10.45    0.067
  17. LP (   1) C   3                / 35. RY*(   1) C   2                    1.06    1.17    0.038
  17. LP (   1) C   3                / 38. RY*(   4) C   2                    1.07    1.07    0.036
  17. LP (   1) C   3                / 44. RY*(  10) C   2                    0.70    1.34    0.033
  17. LP (   1) C   3                / 52. RY*(   1) C   3                    0.50    0.55    0.018
  17. LP (   1) C   3                / 63. RY*(  12) C   3                    1.09    2.59    0.057
  17. LP (   1) C   3                / 69. RY*(   1) C   4                    1.06    1.17    0.038
  17. LP (   1) C   3                / 72. RY*(   4) C   4                    1.07    1.07    0.036
  17. LP (   1) C   3                / 78. RY*(  10) C   4                    0.70    1.34    0.033
  17. LP (   1) C   3                /109. RY*(   2) H   7                    0.71    1.75    0.038
  17. LP (   1) C   3                /119. BD*(   2) C   1 - C   2           86.12    0.20    0.129
  17. LP (   1) C   3                /126. BD*(   2) C   4 - C   5           86.17    0.20    0.129
 119. BD*(   2) C   1 - C   2        / 18. RY*(   1) C   1                    7.14    0.19    0.082
 119. BD*(   2) C   1 - C   2        / 25. RY*(   8) C   1                    0.50    0.31    0.028
 119. BD*(   2) C   1 - C   2        / 28. RY*(  11) C   1                    1.42    0.40    0.054
 119. BD*(   2) C   1 - C   2        / 35. RY*(   1) C   2                    1.64    0.96    0.089
 119. BD*(   2) C   1 - C   2        / 37. RY*(   3) C   2                    0.61    1.16    0.061
 119. BD*(   2) C   1 - C   2        / 38. RY*(   4) C   2                    0.72    0.86    0.057
 119. BD*(   2) C   1 - C   2        / 52. RY*(   1) C   3                    0.82    0.35    0.038
 119. BD*(   2) C   1 - C   2        /121. BD*(   1) C   1 - H   6            6.14    0.36    0.104
 126. BD*(   2) C   4 - C   5        / 52. RY*(   1) C   3                    0.82    0.35    0.038
 126. BD*(   2) C   4 - C   5        / 69. RY*(   1) C   4                    1.64    0.96    0.089
 126. BD*(   2) C   4 - C   5        / 71. RY*(   3) C   4                    0.61    1.16    0.061
 126. BD*(   2) C   4 - C   5        / 72. RY*(   4) C   4                    0.72    0.86    0.057
 126. BD*(   2) C   4 - C   5        / 86. RY*(   1) C   5                    7.14    0.19    0.082
 126. BD*(   2) C   4 - C   5        / 96. RY*(  11) C   5                    1.42    0.40    0.054
 126. BD*(   2) C   4 - C   5        /128. BD*(   1) C   5 - H   8            6.15    0.36    0.104


 Natural Bond Orbitals (Summary):

                                                            Principal Delocalizations
           NBO                        Occupancy    Energy   (geminal,vicinal,remote)
 ====================================================================================
 Molecular unit  1  (C5H3)
     1. BD (   1) C   1 - C   2          1.98816    -0.65056  122(g),121(g),54(v),55(v)
                                                    119(g),123(v),35(g)
     2. BD (   2) C   1 - C   2          1.97555    -0.09771  17(v),52(v),121(g),119(g)
                                                    104(v),103(v)
     3. BD (   3) C   1 - C   2          1.97256    -0.09512  124(v),123(v),53(v)
     4. BD (   1) C   1 - H   6          1.98481    -0.39262  122(v),118(g),35(v),119(g)
                                                    37(v)
     5. BD (   1) C   2 - C   3          1.97540    -0.54033  118(g),125(v),123(g),19(v)
                                                    121(v),70(v),127(v),124(g)
                                                    108(v),24(v),35(g)
     6. BD (   1) C   3 - C   4          1.97540    -0.54040  125(g),118(v),122(g),87(v)
                                                    128(v),36(v),120(v),124(g)
                                                    108(v),92(v),69(g)
     7. BD (   1) C   3 - H   7          1.95068    -0.32129  127(v),120(v),125(v),118(v)
                                                    123(g),122(g),36(v),70(v)
                                                    35(v),69(v)
     8. BD (   1) C   4 - C   5          1.98816    -0.65049  123(g),128(g),54(v),55(v)
                                                    126(g),122(v),69(g)
     9. BD (   2) C   4 - C   5          1.97554    -0.09769  17(v),52(v),128(g),126(g)
                                                    114(v),113(v)
    10. BD (   3) C   4 - C   5          1.97254    -0.09510  124(v),122(v),53(v)
    11. BD (   1) C   5 - H   8          1.98481    -0.39259  123(v),125(g),69(v),126(g)
                                                    71(v)
    12. CR (   1) C   1                  1.99869    -9.82912  122(v),35(v),119(g),118(g)
                                                    37(v),38(v),121(g),103(v)
    13. CR (   1) C   2                  1.99889    -9.84942  121(v),19(v),20(v),56(v)
                                                    118(g),123(v),54(v)
    14. CR (   1) C   3                  1.99891    -9.84784  125(v),118(v),69(v),35(v)
                                                    72(v),38(v),73(v),39(v)
    15. CR (   1) C   4                  1.99889    -9.84943  128(v),87(v),88(v),56(v)
                                                    125(g),122(v),54(v)
    16. CR (   1) C   5                  1.99869    -9.82914  123(v),69(v),126(g),125(g)
                                                    71(v),72(v),128(g),113(v)
    17. LP (   1) C   3                  1.37155     0.06457  126(v),119(v),63(g),72(v)
                                                    38(v),69(v),35(v),109(v)
                                                    44(v),78(v)
    18. RY*(   1) C   1                  0.00811     0.45487   
    19. RY*(   2) C   1                  0.00149     1.71099   
    20. RY*(   3) C   1                  0.00032     0.86943   
    21. RY*(   4) C   1                  0.00019     0.48817   
    22. RY*(   5) C   1                  0.00010     0.69333   
    23. RY*(   6) C   1                  0.00002     1.30256   
    24. RY*(   7) C   1                  0.00000    22.69927   
    25. RY*(   8) C   1                  0.00001     0.57780   
    26. RY*(   9) C   1                  0.00000     2.92181   
    27. RY*(  10) C   1                  0.00000     2.55416   
    28. RY*(  11) C   1                  0.00000     0.66593   
    29. RY*(  12) C   1                  0.00000     2.97734   
    30. RY*(  13) C   1                  0.00000     2.42146   
    31. RY*(  14) C   1                  0.00000     2.12285   
    32. RY*(  15) C   1                  0.00000     1.70702   
    33. RY*(  16) C   1                  0.00000     2.19919   
    34. RY*(  17) C   1                  0.00000     1.92905   
    35. RY*(   1) C   2                  0.00987     1.23339   
    36. RY*(   2) C   2                  0.00417     0.84274   
    37. RY*(   3) C   2                  0.00259     1.42760   
    38. RY*(   4) C   2                  0.00094     1.13063   
    39. RY*(   5) C   2                  0.00050     0.88805   
    40. RY*(   6) C   2                  0.00010     1.72751   
    41. RY*(   7) C   2                  0.00007     1.61348   
    42. RY*(   8) C   2                  0.00003     1.96078   
    43. RY*(   9) C   2                  0.00000     2.81082   
    44. RY*(  10) C   2                  0.00000     1.40229   
    45. RY*(  11) C   2                  0.00000    22.02747   
    46. RY*(  12) C   2                  0.00000     2.88093   
    47. RY*(  13) C   2                  0.00000     1.47797   
    48. RY*(  14) C   2                  0.00000     2.99359   
    49. RY*(  15) C   2                  0.00000     1.62986   
    50. RY*(  16) C   2                  0.00000     1.89540   
    51. RY*(  17) C   2                  0.00000     1.65055   
    52. RY*(   1) C   3                  0.00731     0.61782   
    53. RY*(   2) C   3                  0.00385     0.94019   
    54. RY*(   3) C   3                  0.00134     1.81032   
    55. RY*(   4) C   3                  0.00122     1.85406   
    56. RY*(   5) C   3                  0.00056     0.88067   
    57. RY*(   6) C   3                  0.00045     1.99675   
    58. RY*(   7) C   3                  0.00032     2.40563   
    59. RY*(   8) C   3                  0.00008     3.01336   
    60. RY*(   9) C   3                  0.00006     0.80996   
    61. RY*(  10) C   3                  0.00004     1.46398   
    62. RY*(  11) C   3                  0.00000     1.31092   
    63. RY*(  12) C   3                  0.00000     2.65225   
    64. RY*(  13) C   3                  0.00000     2.13386   
    65. RY*(  14) C   3                  0.00000     2.30778   
    66. RY*(  15) C   3                  0.00000     1.77342   
    67. RY*(  16) C   3                  0.00000    21.20490   
    68. RY*(  17) C   3                  0.00000     1.89858   
    69. RY*(   1) C   4                  0.00988     1.23337   
    70. RY*(   2) C   4                  0.00417     0.84287   
    71. RY*(   3) C   4                  0.00259     1.42769   
    72. RY*(   4) C   4                  0.00094     1.13062   
    73. RY*(   5) C   4                  0.00050     0.88787   
    74. RY*(   6) C   4                  0.00010     1.72419   
    75. RY*(   7) C   4                  0.00007     1.61605   
    76. RY*(   8) C   4                  0.00003     1.96084   
    77. RY*(   9) C   4                  0.00000     2.81068   
    78. RY*(  10) C   4                  0.00000     1.40205   
    79. RY*(  11) C   4                  0.00000    22.02780   
    80. RY*(  12) C   4                  0.00000     2.88091   
    81. RY*(  13) C   4                  0.00000     1.47790   
    82. RY*(  14) C   4                  0.00000     2.99413   
    83. RY*(  15) C   4                  0.00000     1.63005   
    84. RY*(  16) C   4                  0.00000     1.89539   
    85. RY*(  17) C   4                  0.00000     1.65061   
    86. RY*(   1) C   5                  0.00811     0.45486   
    87. RY*(   2) C   5                  0.00149     1.71059   
    88. RY*(   3) C   5                  0.00032     0.86960   
    89. RY*(   4) C   5                  0.00019     0.48775   
    90. RY*(   5) C   5                  0.00010     0.69373   
    91. RY*(   6) C   5                  0.00002     1.30288   
    92. RY*(   7) C   5                  0.00000    22.69968   
    93. RY*(   8) C   5                  0.00001     0.57797   
    94. RY*(   9) C   5                  0.00000     2.92169   
    95. RY*(  10) C   5                  0.00000     2.55436   
    96. RY*(  11) C   5                  0.00000     0.66563   
    97. RY*(  12) C   5                  0.00000     2.97782   
    98. RY*(  13) C   5                  0.00000     2.42093   
    99. RY*(  14) C   5                  0.00000     2.12274   
   100. RY*(  15) C   5                  0.00000     1.70655   
   101. RY*(  16) C   5                  0.00000     2.19929   
   102. RY*(  17) C   5                  0.00000     1.92896   
   103. RY*(   1) H   6                  0.00109     0.63748   
   104. RY*(   2) H   6                  0.00083     2.15863   
   105. RY*(   3) H   6                  0.00025     1.76765   
   106. RY*(   4) H   6                  0.00009     1.98896   
   107. RY*(   5) H   6                  0.00003     2.77610   
   108. RY*(   1) H   7                  0.00303     0.65326   
   109. RY*(   2) H   7                  0.00037     1.81728   
   110. RY*(   3) H   7                  0.00026     2.46701   
   111. RY*(   4) H   7                  0.00014     2.17263   
   112. RY*(   5) H   7                  0.00006     2.79214   
   113. RY*(   1) H   8                  0.00109     0.63548   
   114. RY*(   2) H   8                  0.00083     2.16068   
   115. RY*(   3) H   8                  0.00025     1.76768   
   116. RY*(   4) H   8                  0.00009     1.98889   
   117. RY*(   5) H   8                  0.00003     2.77602   
   118. BD*(   1) C   1 - C   2          0.01585     1.08015   
   119. BD*(   2) C   1 - C   2          0.30668     0.26844  126(r),17(v),18(g),121(g)
                                                    35(g),28(g),52(v),38(g)
                                                    37(g),25(g)
   120. BD*(   3) C   1 - C   2          0.02588     0.29021   
   121. BD*(   1) C   1 - H   6          0.01630     0.62471   
   122. BD*(   1) C   2 - C   3          0.02495     0.78258   
   123. BD*(   1) C   3 - C   4          0.02494     0.78273   
   124. BD*(   1) C   3 - H   7          0.03059     0.59401   
   125. BD*(   1) C   4 - C   5          0.01585     1.07998   
   126. BD*(   2) C   4 - C   5          0.30684     0.26842  119(r),17(v),86(g),128(g)
                                                    69(g),96(g),52(v),72(g)
                                                    71(g)
   127. BD*(   3) C   4 - C   5          0.02586     0.29019   
   128. BD*(   1) C   5 - H   8          0.01630     0.62466   
       -------------------------------
              Total Lewis   33.10922  ( 97.3800%)
        Valence non-Lewis    0.81003  (  2.3825%)
        Rydberg non-Lewis    0.08075  (  0.2375%)
       -------------------------------
            Total unit  1   34.00000  (100.0000%)
           Charge unit  1   -1.00000
 Leave Link  607 at Mon Oct 24 14:31:25 2022, MaxMem=  8053063680 cpu:              55.8 elap:               1.8
 (Enter /public3/home/scg5914/software-scg5914/g16/l9999.exe)
 Unable to Open any file for archive entry.
 1\1\GINC-J0309\SP\RB3LYP\Gen\C5H3(1-)\SCG5914\24-Oct-2022\0\\#p b3lyp/
 chkbas pop=nbo geom=allcheck guess=tcheck em=gd3bj\\dsgdb9nsd_000107-3
 \\-1,1\C,0,-0.0534886858,-1.3219612085,-0.2438708636\C,0,0.0917597313,
 -0.092537181,-0.2021576391\C,0,0.2517996189,1.2820866302,-0.2868034278
 \C,0,1.4476646495,1.9455827526,-0.0592366381\C,0,2.4714853832,2.571820
 1717,0.2475686871\H,0,-0.2937586175,-2.2041124725,0.3117219206\H,0,-0.
 6190844279,1.8798434649,-0.5496178735\H,0,3.3935270631,2.986602038,-0.
 102434002\\Version=ES64L-G16RevC.01\State=1-A\HF=-192.2749583\RMSD=9.7
 03e-10\Dipole=-0.251549,0.1724811,-0.0760102\Quadrupole=2.2590398,-4.3
 850249,2.1259851,-4.8869185,-2.5043592,-4.8501802\PG=C01 [X(C5H3)]\\@
 The archive entry for this job was punched.


 THERE IS NOTHING NOBLE IN BEING SUPERIOR TO SOME OTHER MAN.
 TRUE NOBILITY IS BEING SUPERIOR TO YOUR FORMER SELF.

                                                   -- HINDU PROVERB
 Job cpu time:       0 days  0 hours  1 minutes 23.4 seconds.
 Elapsed time:       0 days  0 hours  0 minutes  2.8 seconds.
 File lengths (MBytes):  RWF=     10 Int=      0 D2E=      0 Chk=      2 Scr=      1
 Normal termination of Gaussian 16 at Mon Oct 24 14:31:25 2022.
