 Entering Gaussian System, Link 0=/public3/home/scg5914/software-scg5914/g16/g16
 Input=dsgdb9nsd_006075.gjf
 Output=dsgdb9nsd_006075.log
 Initial command:
 /public3/home/scg5914/software-scg5914/g16/l1.exe "/public3/home/scg5914/software-scg5914/test/tmp/dsgdb9nsd_006075/Gau-220994.inp" -scrdir="/public3/home/scg5914/software-scg5914/test/tmp/dsgdb9nsd_006075/"
 Entering Link 1 = /public3/home/scg5914/software-scg5914/g16/l1.exe PID=    220995.
  
 Copyright (c) 1988-2019, Gaussian, Inc.  All Rights Reserved.
  
 This is part of the Gaussian(R) 16 program.  It is based on
 the Gaussian(R) 09 system (copyright 2009, Gaussian, Inc.),
 the Gaussian(R) 03 system (copyright 2003, Gaussian, Inc.),
 the Gaussian(R) 98 system (copyright 1998, Gaussian, Inc.),
 the Gaussian(R) 94 system (copyright 1995, Gaussian, Inc.),
 the Gaussian 92(TM) system (copyright 1992, Gaussian, Inc.),
 the Gaussian 90(TM) system (copyright 1990, Gaussian, Inc.),
 the Gaussian 88(TM) system (copyright 1988, Gaussian, Inc.),
 the Gaussian 86(TM) system (copyright 1986, Carnegie Mellon
 University), and the Gaussian 82(TM) system (copyright 1983,
 Carnegie Mellon University). Gaussian is a federally registered
 trademark of Gaussian, Inc.
  
 This software contains proprietary and confidential information,
 including trade secrets, belonging to Gaussian, Inc.
  
 This software is provided under written license and may be
 used, copied, transmitted, or stored only in accord with that
 written license.
  
 The following legend is applicable only to US Government
 contracts under FAR:
  
                    RESTRICTED RIGHTS LEGEND
  
 Use, reproduction and disclosure by the US Government is
 subject to restrictions as set forth in subparagraphs (a)
 and (c) of the Commercial Computer Software - Restricted
 Rights clause in FAR 52.227-19.
  
 Gaussian, Inc.
 340 Quinnipiac St., Bldg. 40, Wallingford CT 06492
  
  
 ---------------------------------------------------------------
 Warning -- This program may not be used in any manner that
 competes with the business of Gaussian, Inc. or will provide
 assistance to any competitor of Gaussian, Inc.  The licensee
 of this program is prohibited from giving any competitor of
 Gaussian, Inc. access to this program.  By using this program,
 the user acknowledges that Gaussian, Inc. is engaged in the
 business of creating and licensing software in the field of
 computational chemistry and represents and warrants to the
 licensee that it is not a competitor of Gaussian, Inc. and that
 it will not use this program in any manner prohibited above.
 ---------------------------------------------------------------
  

 Cite this work as:
 Gaussian 16, Revision C.01,
 M. J. Frisch, G. W. Trucks, H. B. Schlegel, G. E. Scuseria, 
 M. A. Robb, J. R. Cheeseman, G. Scalmani, V. Barone, 
 G. A. Petersson, H. Nakatsuji, X. Li, M. Caricato, A. V. Marenich, 
 J. Bloino, B. G. Janesko, R. Gomperts, B. Mennucci, H. P. Hratchian, 
 J. V. Ortiz, A. F. Izmaylov, J. L. Sonnenberg, D. Williams-Young, 
 F. Ding, F. Lipparini, F. Egidi, J. Goings, B. Peng, A. Petrone, 
 T. Henderson, D. Ranasinghe, V. G. Zakrzewski, J. Gao, N. Rega, 
 G. Zheng, W. Liang, M. Hada, M. Ehara, K. Toyota, R. Fukuda, 
 J. Hasegawa, M. Ishida, T. Nakajima, Y. Honda, O. Kitao, H. Nakai, 
 T. Vreven, K. Throssell, J. A. Montgomery, Jr., J. E. Peralta, 
 F. Ogliaro, M. J. Bearpark, J. J. Heyd, E. N. Brothers, K. N. Kudin, 
 V. N. Staroverov, T. A. Keith, R. Kobayashi, J. Normand, 
 K. Raghavachari, A. P. Rendell, J. C. Burant, S. S. Iyengar, 
 J. Tomasi, M. Cossi, J. M. Millam, M. Klene, C. Adamo, R. Cammi, 
 J. W. Ochterski, R. L. Martin, K. Morokuma, O. Farkas, 
 J. B. Foresman, and D. J. Fox, Gaussian, Inc., Wallingford CT, 2019.
 
 ******************************************
 Gaussian 16:  ES64L-G16RevC.01  3-Jul-2019
                31-Jan-2023 
 ******************************************
 %chk=dsgdb9nsd_006075.chk
 %mem=60GB
 %nprocshared=32
 Will use up to   32 processors via shared memory.
 ------------------------------------
 #p opt freq b3lyp/6-311+g** em=gd3bj
 ------------------------------------
 1/18=20,19=15,26=3,38=1/1,3;
 2/9=110,12=2,17=6,18=5,40=1/2;
 3/5=4,6=6,7=111,11=2,25=1,30=1,71=1,74=-5,124=41/1,2,3;
 4//1;
 5/5=2,38=5/2;
 6/7=2,8=2,9=2,10=2,28=1/1;
 7//1,2,3,16;
 1/18=20,19=15,26=3/3(2);
 2/9=110/2;
 99//99;
 2/9=110/2;
 3/5=4,6=6,7=111,11=2,25=1,30=1,71=1,74=-5,124=41/1,2,3;
 4/5=5,16=3,69=1/1;
 5/5=2,38=5/2;
 7//1,2,3,16;
 1/18=20,19=15,26=3/3(-5);
 2/9=110/2;
 6/7=2,8=2,9=2,10=2,19=2,28=1/1;
 99/9=1/99;
 Leave Link    1 at Tue Jan 31 22:07:29 2023, MaxMem=  8053063680 cpu:               0.7 elap:               0.0
 (Enter /public3/home/scg5914/software-scg5914/g16/l101.exe)
 --------------------
 dsgdb9nsd_006075.gjf
 --------------------
 Symbolic Z-matrix:
 Charge =  0 Multiplicity = 1
 N                     2.60148   1.01016  -0.10984 
 C                     1.69846   0.0225    0.03305 
 N                     2.08247  -1.259    -0.2426 
 H                     1.37923  -1.98248  -0.12166 
 H                     3.05274  -1.52723  -0.71619 
 O                     0.47577   0.38228   0.42976 
 C                    -0.65344  -0.61853   0.27577 
 C                    -2.04791   0.11249  -0.04407 
 O                    -2.03441   1.34483  -0.22069 
 O                    -2.93594  -0.75507  -0.08814 
 H                     3.59402   0.84843  -0.19918 
 H                     2.25134   1.95686   0.07721 
 H                    -0.40224  -1.26961  -0.58711 
 H                    -0.68874  -1.17008   1.22703 
 
 ITRead=  0  0  0  0  0  0  0  0  0  0  0  0  0  0
 MicOpt= -1 -1 -1 -1 -1 -1 -1 -1 -1 -1 -1 -1 -1 -1
 NAtoms=     14 NQM=       14 NQMF=       0 NMMI=      0 NMMIF=      0
                NMic=       0 NMicF=      0.
                    Isotopes and Nuclear Properties:
 (Nuclear quadrupole moments (NQMom) in fm**2, nuclear magnetic moments (NMagM)
  in nuclear magnetons)

  Atom         1           2           3           4           5           6           7           8           9          10
 IAtWgt=          14          12          14           1           1          16          12          12          16          16
 AtmWgt=  14.0030740  12.0000000  14.0030740   1.0078250   1.0078250  15.9949146  12.0000000  12.0000000  15.9949146  15.9949146
 NucSpn=           2           0           2           1           1           0           0           0           0           0
 AtZEff=  -0.0000000  -0.0000000  -0.0000000  -0.0000000  -0.0000000  -0.0000000  -0.0000000  -0.0000000  -0.0000000  -0.0000000
 NQMom=    2.0440000   0.0000000   2.0440000   0.0000000   0.0000000   0.0000000   0.0000000   0.0000000   0.0000000   0.0000000
 NMagM=    0.4037610   0.0000000   0.4037610   2.7928460   2.7928460   0.0000000   0.0000000   0.0000000   0.0000000   0.0000000
 AtZNuc=   7.0000000   6.0000000   7.0000000   1.0000000   1.0000000   8.0000000   6.0000000   6.0000000   8.0000000   8.0000000

  Atom        11          12          13          14
 IAtWgt=           1           1           1           1
 AtmWgt=   1.0078250   1.0078250   1.0078250   1.0078250
 NucSpn=           1           1           1           1
 AtZEff=  -0.0000000  -0.0000000  -0.0000000  -0.0000000
 NQMom=    0.0000000   0.0000000   0.0000000   0.0000000
 NMagM=    2.7928460   2.7928460   2.7928460   2.7928460
 AtZNuc=   1.0000000   1.0000000   1.0000000   1.0000000
 Leave Link  101 at Tue Jan 31 22:07:30 2023, MaxMem=  8053063680 cpu:               3.9 elap:               0.1
 (Enter /public3/home/scg5914/software-scg5914/g16/l103.exe)

 GradGradGradGradGradGradGradGradGradGradGradGradGradGradGradGradGradGrad
 Berny optimization.
 Initialization pass.
                           ----------------------------
                           !    Initial Parameters    !
                           ! (Angstroms and Degrees)  !
 --------------------------                            --------------------------
 ! Name  Definition              Value          Derivative Info.                !
 --------------------------------------------------------------------------------
 ! R1    R(1,2)                  1.3459         estimate D2E/DX2                !
 ! R2    R(1,11)                 1.0096         estimate D2E/DX2                !
 ! R3    R(1,12)                 1.0266         estimate D2E/DX2                !
 ! R4    R(2,3)                  1.3659         estimate D2E/DX2                !
 ! R5    R(2,6)                  1.3348         estimate D2E/DX2                !
 ! R6    R(3,4)                  1.0162         estimate D2E/DX2                !
 ! R7    R(3,5)                  1.1125         estimate D2E/DX2                !
 ! R8    R(6,7)                  1.5167         estimate D2E/DX2                !
 ! R9    R(7,8)                  1.6066         estimate D2E/DX2                !
 ! R10   R(7,13)                 1.1098         estimate D2E/DX2                !
 ! R11   R(7,14)                 1.1002         estimate D2E/DX2                !
 ! R12   R(8,9)                  1.245          estimate D2E/DX2                !
 ! R13   R(8,10)                 1.2423         estimate D2E/DX2                !
 ! A1    A(2,1,11)             123.4678         estimate D2E/DX2                !
 ! A2    A(2,1,12)             115.3763         estimate D2E/DX2                !
 ! A3    A(11,1,12)            119.9456         estimate D2E/DX2                !
 ! A4    A(1,2,3)              118.5837         estimate D2E/DX2                !
 ! A5    A(1,2,6)              116.638          estimate D2E/DX2                !
 ! A6    A(3,2,6)              124.7762         estimate D2E/DX2                !
 ! A7    A(2,3,4)              116.7048         estimate D2E/DX2                !
 ! A8    A(2,3,5)              123.8704         estimate D2E/DX2                !
 ! A9    A(4,3,5)              118.8539         estimate D2E/DX2                !
 ! A10   A(2,6,7)              118.2901         estimate D2E/DX2                !
 ! A11   A(6,7,8)              111.4804         estimate D2E/DX2                !
 ! A12   A(6,7,13)             107.31           estimate D2E/DX2                !
 ! A13   A(6,7,14)             105.4799         estimate D2E/DX2                !
 ! A14   A(8,7,13)             107.9766         estimate D2E/DX2                !
 ! A15   A(8,7,14)             111.8633         estimate D2E/DX2                !
 ! A16   A(13,7,14)            112.6705         estimate D2E/DX2                !
 ! A17   A(7,8,9)              117.9828         estimate D2E/DX2                !
 ! A18   A(7,8,10)             108.0448         estimate D2E/DX2                !
 ! A19   A(9,8,10)             133.9464         estimate D2E/DX2                !
 ! D1    D(11,1,2,3)           -14.7471         estimate D2E/DX2                !
 ! D2    D(11,1,2,6)           165.7595         estimate D2E/DX2                !
 ! D3    D(12,1,2,3)           177.8663         estimate D2E/DX2                !
 ! D4    D(12,1,2,6)            -1.6271         estimate D2E/DX2                !
 ! D5    D(1,2,3,4)            179.7655         estimate D2E/DX2                !
 ! D6    D(1,2,3,5)             -9.0206         estimate D2E/DX2                !
 ! D7    D(6,2,3,4)             -0.7858         estimate D2E/DX2                !
 ! D8    D(6,2,3,5)            170.4281         estimate D2E/DX2                !
 ! D9    D(1,2,6,7)            165.0627         estimate D2E/DX2                !
 ! D10   D(3,2,6,7)            -14.3957         estimate D2E/DX2                !
 ! D11   D(2,6,7,8)           -146.7123         estimate D2E/DX2                !
 ! D12   D(2,6,7,13)           -28.6753         estimate D2E/DX2                !
 ! D13   D(2,6,7,14)            91.6709         estimate D2E/DX2                !
 ! D14   D(6,7,8,9)              5.0094         estimate D2E/DX2                !
 ! D15   D(6,7,8,10)          -176.5897         estimate D2E/DX2                !
 ! D16   D(13,7,8,9)          -112.626          estimate D2E/DX2                !
 ! D17   D(13,7,8,10)           65.7749         estimate D2E/DX2                !
 ! D18   D(14,7,8,9)           122.8459         estimate D2E/DX2                !
 ! D19   D(14,7,8,10)          -58.7532         estimate D2E/DX2                !
 --------------------------------------------------------------------------------
 Trust Radius=3.00D-01 FncErr=1.00D-07 GrdErr=1.00D-06 EigMax=2.50D+02 EigMin=1.00D-04
 Number of steps in this run=     61 maximum allowed number of steps=    100.
 GradGradGradGradGradGradGradGradGradGradGradGradGradGradGradGradGradGrad

 Leave Link  103 at Tue Jan 31 22:07:30 2023, MaxMem=  8053063680 cpu:               0.2 elap:               0.0
 (Enter /public3/home/scg5914/software-scg5914/g16/l202.exe)
                          Input orientation:                          
 ---------------------------------------------------------------------
 Center     Atomic      Atomic             Coordinates (Angstroms)
 Number     Number       Type             X           Y           Z
 ---------------------------------------------------------------------
      1          7           0        2.601479    1.010157   -0.109838
      2          6           0        1.698456    0.022500    0.033050
      3          7           0        2.082467   -1.259001   -0.242603
      4          1           0        1.379228   -1.982484   -0.121656
      5          1           0        3.052740   -1.527234   -0.716192
      6          8           0        0.475774    0.382276    0.429763
      7          6           0       -0.653441   -0.618525    0.275765
      8          6           0       -2.047908    0.112488   -0.044069
      9          8           0       -2.034413    1.344826   -0.220690
     10          8           0       -2.935938   -0.755070   -0.088135
     11          1           0        3.594024    0.848425   -0.199183
     12          1           0        2.251338    1.956858    0.077213
     13          1           0       -0.402236   -1.269606   -0.587107
     14          1           0       -0.688737   -1.170078    1.227025
 ---------------------------------------------------------------------
                    Distance matrix (angstroms):
                    1          2          3          4          5
     1  N    0.000000
     2  C    1.345858   0.000000
     3  N    2.331540   1.365904   0.000000
     4  H    3.232636   2.036124   1.016170   0.000000
     5  H    2.647575   2.190234   1.112504   1.833403   0.000000
     6  O    2.281233   1.334830   2.393184   2.590826   3.405906
     7  C    3.660027   2.449743   2.857290   2.479934   3.942779
     8  C    4.735708   3.748238   4.356650   4.017485   5.399727
     9  O    4.649278   3.968279   4.871252   4.767992   5.862881
    10  O    5.812012   4.700735   5.046008   4.486460   6.070828
    11  H    1.009597   2.080688   2.593826   3.595188   2.490792
    12  H    1.026562   2.012305   3.236132   4.039621   3.662053
    13  H    3.800975   2.543037   2.508494   1.974450   3.466972
    14  H    4.167271   2.923441   3.138038   2.599120   4.231111
                    6          7          8          9         10
     6  O    0.000000
     7  C    1.516722   0.000000
     8  C    2.581913   1.606615   0.000000
     9  O    2.765977   2.451183   1.245004   0.000000
    10  O    3.633394   2.315353   1.242254   2.289079   0.000000
    11  H    3.215020   4.518681   5.691842   5.650326   6.724874
    12  H    2.399214   3.887128   4.679736   4.339469   5.855743
    13  H    2.129235   1.109756   2.216599   3.103791   2.633129
    14  H    2.097979   1.100160   2.260089   3.198666   2.636625
                   11         12         13         14
    11  H    0.000000
    12  H    1.762902   0.000000
    13  H    4.539453   4.229994   0.000000
    14  H    4.944741   4.443404   1.839311   0.000000
 Stoichiometry    C3H6N2O3
 Framework group  C1[X(C3H6N2O3)]
 Deg. of freedom    36
 Full point group                 C1      NOp   1
 Largest Abelian subgroup         C1      NOp   1
 Largest concise Abelian subgroup C1      NOp   1
                         Standard orientation:                         
 ---------------------------------------------------------------------
 Center     Atomic      Atomic             Coordinates (Angstroms)
 Number     Number       Type             X           Y           Z
 ---------------------------------------------------------------------
      1          7           0        2.602166    1.009729   -0.094379
      2          6           0        1.698119    0.023190    0.049748
      3          7           0        2.084327   -1.260521   -0.212209
      4          1           0        1.380213   -1.983055   -0.090678
      5          1           0        3.058258   -1.532582   -0.676007
      6          8           0        0.472378    0.386117    0.433955
      7          6           0       -0.655553   -0.616072    0.279572
      8          6           0       -2.047540    0.112076   -0.057154
      9          8           0       -2.032747    1.342898   -0.243950
     10          8           0       -2.935153   -0.755928   -0.100855
     11          1           0        3.595383    0.847377   -0.174675
     12          1           0        2.250532    1.957916    0.082040
     13          1           0       -0.397630   -1.274305   -0.575860
     14          1           0       -0.698190   -1.159667    1.235103
 ---------------------------------------------------------------------
 Rotational constants (GHZ):           4.8745961           1.0295378           0.8742471
 Leave Link  202 at Tue Jan 31 22:07:30 2023, MaxMem=  8053063680 cpu:               0.6 elap:               0.0
 (Enter /public3/home/scg5914/software-scg5914/g16/l301.exe)
 Standard basis: 6-311+G(d,p) (5D, 7F)
 Ernie: Thresh=  0.10000D-02 Tol=  0.10000D-05 Strict=F.
 There are   220 symmetry adapted cartesian basis functions of A   symmetry.
 There are   212 symmetry adapted basis functions of A   symmetry.
   212 basis functions,   336 primitive gaussians,   220 cartesian basis functions
    31 alpha electrons       31 beta electrons
       nuclear repulsion energy       369.0956197485 Hartrees.
 IExCor=  402 DFT=T Ex+Corr=B3LYP ExCW=0 ScaHFX=  0.200000
 ScaDFX=  0.800000  0.720000  1.000000  0.810000 ScalE2=  1.000000  1.000000
 IRadAn=      5 IRanWt=     -1 IRanGd=            0 ICorTp=0 IEmpDi=141
 NAtoms=   14 NActive=   14 NUniq=   14 SFac= 1.00D+00 NAtFMM=   60 NAOKFM=F Big=F
 Integral buffers will be    131072 words long.
 Raffenetti 2 integral format.
 Two-electron integral symmetry is turned on.
 R6Disp:  Grimme-D3(BJ) Dispersion energy=       -0.0176439178 Hartrees.
 Nuclear repulsion after empirical dispersion term =      369.0779758307 Hartrees.
 Leave Link  301 at Tue Jan 31 22:07:30 2023, MaxMem=  8053063680 cpu:               0.8 elap:               0.0
 (Enter /public3/home/scg5914/software-scg5914/g16/l302.exe)
 NPDir=0 NMtPBC=     1 NCelOv=     1 NCel=       1 NClECP=     1 NCelD=      1
         NCelK=      1 NCelE2=     1 NClLst=     1 CellRange=     0.0.
 One-electron integrals computed using PRISM.
 One-electron integral symmetry used in STVInt
 NBasis=   212 RedAO= T EigKep=  8.53D-05  NBF=   212
 NBsUse=   212 1.00D-06 EigRej= -1.00D+00 NBFU=   212
 Precomputing XC quadrature grid using
 IXCGrd= 4 IRadAn=           5 IRanWt=          -1 IRanGd=           0 AccXCQ= 0.00D+00.
 Generated NRdTot=       0 NPtTot=           0 NUsed=           0 NTot=          32
 NSgBfM=   220   220   220   220   220 MxSgAt=    14 MxSgA2=    14.
 Leave Link  302 at Tue Jan 31 22:07:30 2023, MaxMem=  8053063680 cpu:               3.5 elap:               0.1
 (Enter /public3/home/scg5914/software-scg5914/g16/l303.exe)
 DipDrv:  MaxL=1.
 Leave Link  303 at Tue Jan 31 22:07:30 2023, MaxMem=  8053063680 cpu:               0.4 elap:               0.0
 (Enter /public3/home/scg5914/software-scg5914/g16/l401.exe)
 ExpMin= 4.38D-02 ExpMax= 8.59D+03 ExpMxC= 1.30D+03 IAcc=3 IRadAn=         5 AccDes= 0.00D+00
 Harris functional with IExCor=  402 and IRadAn=       5 diagonalized for initial guess.
 HarFok:  IExCor=  402 AccDes= 0.00D+00 IRadAn=         5 IDoV= 1 UseB2=F ITyADJ=14
 ICtDFT=  3500011 ScaDFX=  1.000000  1.000000  1.000000  1.000000
 FoFCou: FMM=F IPFlag=           0 FMFlag=      100000 FMFlg1=           0
         NFxFlg=           0 DoJE=T BraDBF=F KetDBF=T FulRan=T
         wScrn=  0.000000 ICntrl=       500 IOpCl=  0 I1Cent=   200000004 NGrid=           0
         NMat0=    1 NMatS0=      1 NMatT0=    0 NMatD0=    1 NMtDS0=    0 NMtDT0=    0
 Petite list used in FoFCou.
 Harris En= -453.307326613199    
 JPrj=0 DoOrth=F DoCkMO=F.
 Leave Link  401 at Tue Jan 31 22:07:30 2023, MaxMem=  8053063680 cpu:              11.7 elap:               0.4
 (Enter /public3/home/scg5914/software-scg5914/g16/l502.exe)
 Integral symmetry usage will be decided dynamically.
 Closed shell SCF:
 Using DIIS extrapolation, IDIIS=  1040.
 NGot=  8053063680 LenX=  8052957314 LenY=  8052908473
 Requested convergence on RMS density matrix=1.00D-08 within 128 cycles.
 Requested convergence on MAX density matrix=1.00D-06.
 Requested convergence on             energy=1.00D-06.
 No special actions if energy rises.
 Fock matrices will be formed incrementally for  20 cycles.

 Cycle   1  Pass 1  IDiag  1:
 FoFJK:  IHMeth= 1 ICntrl=       0 DoSepK=F KAlg= 0 I1Cent=           0 FoldK=F
 IRaf= 930000000 NMat=       1 IRICut=       1 DoRegI=T DoRafI=F ISym2E= 0 IDoP0=0 IntGTp=1.
 FoFCou: FMM=F IPFlag=           0 FMFlag=      100000 FMFlg1=           0
         NFxFlg=           0 DoJE=F BraDBF=F KetDBF=F FulRan=T
         wScrn=  0.000000 ICntrl=         0 IOpCl=  0 I1Cent=           0 NGrid=           0
         NMat0=    1 NMatS0=      1 NMatT0=    0 NMatD0=    1 NMtDS0=    0 NMtDT0=    0
 Symmetry not used in FoFCou.
 E= -452.930271367385    
 DIIS: error= 4.38D-02 at cycle   1 NSaved=   1.
 NSaved= 1 IEnMin= 1 EnMin= -452.930271367385     IErMin= 1 ErrMin= 4.38D-02
 ErrMax= 4.38D-02  0.00D+00 EMaxC= 1.00D-01 BMatC= 3.99D-01 BMatP= 3.99D-01
 IDIUse=3 WtCom= 5.62D-01 WtEn= 4.38D-01
 Coeff-Com:  0.100D+01
 Coeff-En:   0.100D+01
 Coeff:      0.100D+01
 Gap=     0.519 Goal=   None    Shift=    0.000
 GapD=    0.519 DampG=2.000 DampE=0.500 DampFc=1.0000 IDamp=-1.
 RMSDP=1.84D-01 MaxDP=1.29D+01              OVMax= 9.91D-01

 Cycle   2  Pass 1  IDiag  1:
 RMSU=  1.84D-01    CP:  1.43D+00
 E= -444.969652982147     Delta-E=        7.960618385238 Rises=F Damp=F
 DIIS: error= 1.51D-01 at cycle   2 NSaved=   2.
 NSaved= 2 IEnMin= 1 EnMin= -452.930271367385     IErMin= 1 ErrMin= 4.38D-02
 ErrMax= 1.51D-01  0.00D+00 EMaxC= 1.00D-01 BMatC= 4.11D+00 BMatP= 3.99D-01
 IDIUse=2 WtCom= 0.00D+00 WtEn= 1.00D+00
 Coeff-En:   0.940D+00 0.601D-01
 Coeff:      0.940D+00 0.601D-01
 Gap=    -0.011 Goal=   None    Shift=    0.000
 RMSDP=1.83D-01 MaxDP=1.27D+01 DE= 7.96D+00 OVMax= 9.95D-01

 Cycle   3  Pass 1  IDiag  1:
 RMSU=  7.55D-03    CP:  1.03D+00  9.32D-03
 E= -452.881617615329     Delta-E=       -7.911964633182 Rises=F Damp=F
 DIIS: error= 4.45D-02 at cycle   3 NSaved=   3.
 NSaved= 3 IEnMin= 1 EnMin= -452.930271367385     IErMin= 1 ErrMin= 4.38D-02
 ErrMax= 4.45D-02  0.00D+00 EMaxC= 1.00D-01 BMatC= 4.67D-01 BMatP= 3.99D-01
 IDIUse=2 WtCom= 0.00D+00 WtEn= 1.00D+00
 Coeff-En:   0.534D+00 0.000D+00 0.466D+00
 Coeff:      0.534D+00 0.000D+00 0.466D+00
 Gap=     0.083 Goal=   None    Shift=    0.000
 RMSDP=4.04D-03 MaxDP=2.13D-01 DE=-7.91D+00 OVMax= 1.34D-01

 Cycle   4  Pass 1  IDiag  1:
 RMSU=  1.65D-03    CP:  1.02D+00  4.04D-03  5.29D-01
 E= -453.204202337866     Delta-E=       -0.322584722537 Rises=F Damp=F
 DIIS: error= 6.24D-03 at cycle   4 NSaved=   4.
 NSaved= 4 IEnMin= 4 EnMin= -453.204202337866     IErMin= 4 ErrMin= 6.24D-03
 ErrMax= 6.24D-03  0.00D+00 EMaxC= 1.00D-01 BMatC= 1.15D-02 BMatP= 3.99D-01
 IDIUse=3 WtCom= 9.38D-01 WtEn= 6.24D-02
 Coeff-Com:  0.201D+00-0.846D-02 0.214D+00 0.594D+00
 Coeff-En:   0.000D+00 0.000D+00 0.000D+00 0.100D+01
 Coeff:      0.188D+00-0.793D-02 0.201D+00 0.619D+00
 Gap=     0.124 Goal=   None    Shift=    0.000
 RMSDP=1.09D-03 MaxDP=3.88D-02 DE=-3.23D-01 OVMax= 3.92D-02

 Cycle   5  Pass 1  IDiag  1:
 RMSU=  8.38D-04    CP:  1.01D+00  2.90D-03  4.57D-01  7.78D-01
 E= -453.213948162048     Delta-E=       -0.009745824182 Rises=F Damp=F
 DIIS: error= 2.85D-03 at cycle   5 NSaved=   5.
 NSaved= 5 IEnMin= 5 EnMin= -453.213948162048     IErMin= 5 ErrMin= 2.85D-03
 ErrMax= 2.85D-03  0.00D+00 EMaxC= 1.00D-01 BMatC= 2.54D-03 BMatP= 1.15D-02
 IDIUse=3 WtCom= 9.72D-01 WtEn= 2.85D-02
 Coeff-Com:  0.443D-01-0.435D-02 0.456D-01 0.324D+00 0.590D+00
 Coeff-En:   0.000D+00 0.000D+00 0.000D+00 0.113D+00 0.887D+00
 Coeff:      0.431D-01-0.423D-02 0.443D-01 0.318D+00 0.599D+00
 Gap=     0.126 Goal=   None    Shift=    0.000
 RMSDP=3.04D-04 MaxDP=7.56D-03 DE=-9.75D-03 OVMax= 1.47D-02

 Cycle   6  Pass 1  IDiag  1:
 RMSU=  2.31D-04    CP:  1.01D+00  2.86D-03  4.46D-01  8.32D-01  8.18D-01
 E= -453.215507891209     Delta-E=       -0.001559729161 Rises=F Damp=F
 DIIS: error= 1.91D-03 at cycle   6 NSaved=   6.
 NSaved= 6 IEnMin= 6 EnMin= -453.215507891209     IErMin= 6 ErrMin= 1.91D-03
 ErrMax= 1.91D-03  0.00D+00 EMaxC= 1.00D-01 BMatC= 7.92D-04 BMatP= 2.54D-03
 IDIUse=3 WtCom= 9.81D-01 WtEn= 1.91D-02
 Coeff-Com:  0.647D-02-0.104D-02 0.191D-02 0.134D+00 0.399D+00 0.460D+00
 Coeff-En:   0.000D+00 0.000D+00 0.000D+00 0.000D+00 0.212D+00 0.788D+00
 Coeff:      0.635D-02-0.102D-02 0.188D-02 0.131D+00 0.396D+00 0.466D+00
 Gap=     0.127 Goal=   None    Shift=    0.000
 RMSDP=1.29D-04 MaxDP=3.78D-03 DE=-1.56D-03 OVMax= 6.36D-03

 Cycle   7  Pass 1  IDiag  1:
 RMSU=  8.83D-05    CP:  1.01D+00  2.82D-03  4.39D-01  8.17D-01  8.59D-01
                    CP:  7.07D-01
 E= -453.216046150421     Delta-E=       -0.000538259213 Rises=F Damp=F
 DIIS: error= 3.63D-04 at cycle   7 NSaved=   7.
 NSaved= 7 IEnMin= 7 EnMin= -453.216046150421     IErMin= 7 ErrMin= 3.63D-04
 ErrMax= 3.63D-04  0.00D+00 EMaxC= 1.00D-01 BMatC= 4.92D-05 BMatP= 7.92D-04
 IDIUse=3 WtCom= 9.96D-01 WtEn= 3.63D-03
 Coeff-Com:  0.196D-02-0.172D-03-0.733D-03 0.579D-01 0.184D+00 0.271D+00
 Coeff-Com:  0.486D+00
 Coeff-En:   0.000D+00 0.000D+00 0.000D+00 0.000D+00 0.000D+00 0.000D+00
 Coeff-En:   0.100D+01
 Coeff:      0.195D-02-0.171D-03-0.731D-03 0.577D-01 0.183D+00 0.270D+00
 Coeff:      0.488D+00
 Gap=     0.126 Goal=   None    Shift=    0.000
 RMSDP=3.73D-05 MaxDP=8.22D-04 DE=-5.38D-04 OVMax= 2.04D-03

 Cycle   8  Pass 1  IDiag  1:
 RMSU=  2.42D-05    CP:  1.01D+00  2.82D-03  4.40D-01  8.17D-01  8.71D-01
                    CP:  7.49D-01  7.25D-01
 E= -453.216078153979     Delta-E=       -0.000032003557 Rises=F Damp=F
 DIIS: error= 1.98D-04 at cycle   8 NSaved=   8.
 NSaved= 8 IEnMin= 8 EnMin= -453.216078153979     IErMin= 8 ErrMin= 1.98D-04
 ErrMax= 1.98D-04  0.00D+00 EMaxC= 1.00D-01 BMatC= 7.01D-06 BMatP= 4.92D-05
 IDIUse=3 WtCom= 9.98D-01 WtEn= 1.98D-03
 Coeff-Com: -0.731D-05 0.446D-04-0.850D-03 0.192D-01 0.587D-01 0.106D+00
 Coeff-Com:  0.298D+00 0.519D+00
 Coeff-En:   0.000D+00 0.000D+00 0.000D+00 0.000D+00 0.000D+00 0.000D+00
 Coeff-En:   0.938D-01 0.906D+00
 Coeff:     -0.730D-05 0.445D-04-0.849D-03 0.192D-01 0.585D-01 0.105D+00
 Coeff:      0.298D+00 0.520D+00
 Gap=     0.126 Goal=   None    Shift=    0.000
 RMSDP=2.28D-05 MaxDP=9.46D-04 DE=-3.20D-05 OVMax= 1.28D-03

 Cycle   9  Pass 1  IDiag  1:
 RMSU=  1.41D-05    CP:  1.01D+00  2.81D-03  4.38D-01  8.21D-01  8.77D-01
                    CP:  7.49D-01  8.06D-01  5.79D-01
 E= -453.216082191109     Delta-E=       -0.000004037131 Rises=F Damp=F
 DIIS: error= 1.26D-04 at cycle   9 NSaved=   9.
 NSaved= 9 IEnMin= 9 EnMin= -453.216082191109     IErMin= 9 ErrMin= 1.26D-04
 ErrMax= 1.26D-04  0.00D+00 EMaxC= 1.00D-01 BMatC= 2.01D-06 BMatP= 7.01D-06
 IDIUse=3 WtCom= 9.99D-01 WtEn= 1.26D-03
 Coeff-Com: -0.380D-03 0.333D-04-0.459D-03 0.781D-02 0.202D-01 0.397D-01
 Coeff-Com:  0.134D+00 0.370D+00 0.429D+00
 Coeff-En:   0.000D+00 0.000D+00 0.000D+00 0.000D+00 0.000D+00 0.000D+00
 Coeff-En:   0.000D+00 0.228D+00 0.772D+00
 Coeff:     -0.380D-03 0.332D-04-0.458D-03 0.780D-02 0.201D-01 0.396D-01
 Coeff:      0.134D+00 0.369D+00 0.430D+00
 Gap=     0.126 Goal=   None    Shift=    0.000
 RMSDP=7.92D-06 MaxDP=2.91D-04 DE=-4.04D-06 OVMax= 5.13D-04

 Cycle  10  Pass 1  IDiag  1:
 RMSU=  3.43D-06    CP:  1.01D+00  2.81D-03  4.39D-01  8.21D-01  8.75D-01
                    CP:  7.53D-01  7.91D-01  7.22D-01  6.77D-01
 E= -453.216083677217     Delta-E=       -0.000001486108 Rises=F Damp=F
 DIIS: error= 2.41D-05 at cycle  10 NSaved=  10.
 NSaved=10 IEnMin=10 EnMin= -453.216083677217     IErMin=10 ErrMin= 2.41D-05
 ErrMax= 2.41D-05  0.00D+00 EMaxC= 1.00D-01 BMatC= 1.03D-07 BMatP= 2.01D-06
 IDIUse=1 WtCom= 1.00D+00 WtEn= 0.00D+00
 Coeff-Com: -0.177D-03 0.164D-04 0.671D-06 0.229D-02 0.349D-02 0.517D-02
 Coeff-Com:  0.222D-01 0.115D+00 0.212D+00 0.639D+00
 Coeff:     -0.177D-03 0.164D-04 0.671D-06 0.229D-02 0.349D-02 0.517D-02
 Coeff:      0.222D-01 0.115D+00 0.212D+00 0.639D+00
 Gap=     0.126 Goal=   None    Shift=    0.000
 RMSDP=2.02D-06 MaxDP=4.14D-05 DE=-1.49D-06 OVMax= 8.11D-05

 Cycle  11  Pass 1  IDiag  1:
 RMSU=  1.33D-06    CP:  1.01D+00  2.82D-03  4.39D-01  8.21D-01  8.76D-01
                    CP:  7.53D-01  7.95D-01  7.29D-01  7.26D-01  9.98D-01
 E= -453.216083758886     Delta-E=       -0.000000081669 Rises=F Damp=F
 DIIS: error= 8.13D-06 at cycle  11 NSaved=  11.
 NSaved=11 IEnMin=11 EnMin= -453.216083758886     IErMin=11 ErrMin= 8.13D-06
 ErrMax= 8.13D-06  0.00D+00 EMaxC= 1.00D-01 BMatC= 1.02D-08 BMatP= 1.03D-07
 IDIUse=1 WtCom= 1.00D+00 WtEn= 0.00D+00
 Coeff-Com: -0.450D-04 0.707D-05 0.566D-04 0.205D-03-0.450D-03-0.257D-02
 Coeff-Com: -0.762D-02-0.494D-03 0.342D-01 0.298D+00 0.679D+00
 Coeff:     -0.450D-04 0.707D-05 0.566D-04 0.205D-03-0.450D-03-0.257D-02
 Coeff:     -0.762D-02-0.494D-03 0.342D-01 0.298D+00 0.679D+00
 Gap=     0.126 Goal=   None    Shift=    0.000
 RMSDP=7.43D-07 MaxDP=1.80D-05 DE=-8.17D-08 OVMax= 2.98D-05

 Cycle  12  Pass 1  IDiag  1:
 RMSU=  4.33D-07    CP:  1.01D+00  2.82D-03  4.39D-01  8.22D-01  8.76D-01
                    CP:  7.53D-01  7.98D-01  7.36D-01  7.42D-01  1.08D+00
                    CP:  9.12D-01
 E= -453.216083768165     Delta-E=       -0.000000009280 Rises=F Damp=F
 DIIS: error= 1.47D-06 at cycle  12 NSaved=  12.
 NSaved=12 IEnMin=12 EnMin= -453.216083768165     IErMin=12 ErrMin= 1.47D-06
 ErrMax= 1.47D-06  0.00D+00 EMaxC= 1.00D-01 BMatC= 7.73D-10 BMatP= 1.02D-08
 IDIUse=1 WtCom= 1.00D+00 WtEn= 0.00D+00
 Coeff-Com: -0.715D-05 0.173D-05 0.158D-04-0.945D-04-0.353D-03-0.114D-02
 Coeff-Com: -0.395D-02-0.103D-01-0.699D-02 0.443D-01 0.273D+00 0.705D+00
 Coeff:     -0.715D-05 0.173D-05 0.158D-04-0.945D-04-0.353D-03-0.114D-02
 Coeff:     -0.395D-02-0.103D-01-0.699D-02 0.443D-01 0.273D+00 0.705D+00
 Gap=     0.126 Goal=   None    Shift=    0.000
 RMSDP=2.07D-07 MaxDP=6.31D-06 DE=-9.28D-09 OVMax= 8.68D-06

 Cycle  13  Pass 1  IDiag  1:
 RMSU=  1.37D-07    CP:  1.01D+00  2.82D-03  4.39D-01  8.22D-01  8.76D-01
                    CP:  7.53D-01  7.98D-01  7.36D-01  7.46D-01  1.10D+00
                    CP:  9.46D-01  8.43D-01
 E= -453.216083768866     Delta-E=       -0.000000000701 Rises=F Damp=F
 DIIS: error= 5.46D-07 at cycle  13 NSaved=  13.
 NSaved=13 IEnMin=13 EnMin= -453.216083768866     IErMin=13 ErrMin= 5.46D-07
 ErrMax= 5.46D-07  0.00D+00 EMaxC= 1.00D-01 BMatC= 7.06D-11 BMatP= 7.73D-10
 IDIUse=1 WtCom= 1.00D+00 WtEn= 0.00D+00
 Coeff-Com: -0.331D-05-0.498D-08 0.315D-05-0.346D-04-0.961D-04-0.298D-03
 Coeff-Com: -0.111D-02-0.377D-02-0.413D-02 0.694D-03 0.770D-01 0.305D+00
 Coeff-Com:  0.627D+00
 Coeff:     -0.331D-05-0.498D-08 0.315D-05-0.346D-04-0.961D-04-0.298D-03
 Coeff:     -0.111D-02-0.377D-02-0.413D-02 0.694D-03 0.770D-01 0.305D+00
 Coeff:      0.627D+00
 Gap=     0.126 Goal=   None    Shift=    0.000
 RMSDP=5.47D-08 MaxDP=1.72D-06 DE=-7.01D-10 OVMax= 1.87D-06

 Cycle  14  Pass 1  IDiag  1:
 RMSU=  3.12D-08    CP:  1.01D+00  2.82D-03  4.39D-01  8.22D-01  8.76D-01
                    CP:  7.53D-01  7.98D-01  7.36D-01  7.46D-01  1.10D+00
                    CP:  9.64D-01  8.67D-01  9.02D-01
 E= -453.216083768924     Delta-E=       -0.000000000058 Rises=F Damp=F
 DIIS: error= 2.25D-07 at cycle  14 NSaved=  14.
 NSaved=14 IEnMin=14 EnMin= -453.216083768924     IErMin=14 ErrMin= 2.25D-07
 ErrMax= 2.25D-07  0.00D+00 EMaxC= 1.00D-01 BMatC= 6.71D-12 BMatP= 7.06D-11
 IDIUse=1 WtCom= 1.00D+00 WtEn= 0.00D+00
 Coeff-Com: -0.218D-06 0.440D-08 0.898D-06-0.135D-04-0.384D-04-0.742D-04
 Coeff-Com: -0.244D-03-0.890D-03-0.122D-02-0.312D-02 0.112D-01 0.732D-01
 Coeff-Com:  0.285D+00 0.636D+00
 Coeff:     -0.218D-06 0.440D-08 0.898D-06-0.135D-04-0.384D-04-0.742D-04
 Coeff:     -0.244D-03-0.890D-03-0.122D-02-0.312D-02 0.112D-01 0.732D-01
 Coeff:      0.285D+00 0.636D+00
 Gap=     0.126 Goal=   None    Shift=    0.000
 RMSDP=1.24D-08 MaxDP=4.54D-07 DE=-5.78D-11 OVMax= 9.33D-07

 Cycle  15  Pass 1  IDiag  1:
 RMSU=  8.60D-09    CP:  1.01D+00  2.82D-03  4.39D-01  8.22D-01  8.76D-01
                    CP:  7.53D-01  7.98D-01  7.36D-01  7.46D-01  1.10D+00
                    CP:  9.64D-01  8.78D-01  9.19D-01  8.27D-01
 E= -453.216083768929     Delta-E=       -0.000000000005 Rises=F Damp=F
 DIIS: error= 1.02D-07 at cycle  15 NSaved=  15.
 NSaved=15 IEnMin=15 EnMin= -453.216083768929     IErMin=15 ErrMin= 1.02D-07
 ErrMax= 1.02D-07  0.00D+00 EMaxC= 1.00D-01 BMatC= 1.22D-12 BMatP= 6.71D-12
 IDIUse=1 WtCom= 1.00D+00 WtEn= 0.00D+00
 Coeff-Com:  0.243D-06 0.151D-07 0.404D-06-0.521D-05-0.174D-04-0.210D-04
 Coeff-Com: -0.427D-04-0.145D-03-0.269D-03-0.161D-02-0.358D-03 0.131D-01
 Coeff-Com:  0.104D+00 0.368D+00 0.517D+00
 Coeff:      0.243D-06 0.151D-07 0.404D-06-0.521D-05-0.174D-04-0.210D-04
 Coeff:     -0.427D-04-0.145D-03-0.269D-03-0.161D-02-0.358D-03 0.131D-01
 Coeff:      0.104D+00 0.368D+00 0.517D+00
 Gap=     0.126 Goal=   None    Shift=    0.000
 RMSDP=4.78D-09 MaxDP=1.66D-07 DE=-5.34D-12 OVMax= 3.82D-07

 SCF Done:  E(RB3LYP) =  -453.216083769     A.U. after   15 cycles
            NFock= 15  Conv=0.48D-08     -V/T= 2.0048
 KE= 4.510709946960D+02 PE=-1.801243382837D+03 EE= 5.278783285419D+02
 Leave Link  502 at Tue Jan 31 22:07:38 2023, MaxMem=  8053063680 cpu:             240.5 elap:               7.5
 (Enter /public3/home/scg5914/software-scg5914/g16/l601.exe)
 Copying SCF densities to generalized density rwf, IOpCl= 0 IROHF=0.

 **********************************************************************

            Population analysis using the SCF Density.

 **********************************************************************

 Orbital symmetries:
       Occupied  (A) (A) (A) (A) (A) (A) (A) (A) (A) (A) (A) (A)
                 (A) (A) (A) (A) (A) (A) (A) (A) (A) (A) (A) (A)
                 (A) (A) (A) (A) (A) (A) (A)
       Virtual   (A) (A) (A) (A) (A) (A) (A) (A) (A) (A) (A) (A)
                 (A) (A) (A) (A) (A) (A) (A) (A) (A) (A) (A) (A)
                 (A) (A) (A) (A) (A) (A) (A) (A) (A) (A) (A) (A)
                 (A) (A) (A) (A) (A) (A) (A) (A) (A) (A) (A) (A)
                 (A) (A) (A) (A) (A) (A) (A) (A) (A) (A) (A) (A)
                 (A) (A) (A) (A) (A) (A) (A) (A) (A) (A) (A) (A)
                 (A) (A) (A) (A) (A) (A) (A) (A) (A) (A) (A) (A)
                 (A) (A) (A) (A) (A) (A) (A) (A) (A) (A) (A) (A)
                 (A) (A) (A) (A) (A) (A) (A) (A) (A) (A) (A) (A)
                 (A) (A) (A) (A) (A) (A) (A) (A) (A) (A) (A) (A)
                 (A) (A) (A) (A) (A) (A) (A) (A) (A) (A) (A) (A)
                 (A) (A) (A) (A) (A) (A) (A) (A) (A) (A) (A) (A)
                 (A) (A) (A) (A) (A) (A) (A) (A) (A) (A) (A) (A)
                 (A) (A) (A) (A) (A) (A) (A) (A) (A) (A) (A) (A)
                 (A) (A) (A) (A) (A) (A) (A) (A) (A) (A) (A) (A)
                 (A)
 The electronic state is 1-A.
 Alpha  occ. eigenvalues --  -19.23398 -19.02540 -19.02473 -14.44310 -14.43131
 Alpha  occ. eigenvalues --  -10.41930 -10.24335 -10.22667  -1.15553  -1.03275
 Alpha  occ. eigenvalues --   -0.98752  -0.97760  -0.90876  -0.76276  -0.69998
 Alpha  occ. eigenvalues --   -0.64605  -0.64029  -0.57338  -0.55077  -0.53666
 Alpha  occ. eigenvalues --   -0.49414  -0.45777  -0.42502  -0.39227  -0.37127
 Alpha  occ. eigenvalues --   -0.36690  -0.36006  -0.33565  -0.21142  -0.20373
 Alpha  occ. eigenvalues --   -0.20238
 Alpha virt. eigenvalues --   -0.07658  -0.07323  -0.03345  -0.01119   0.01707
 Alpha virt. eigenvalues --    0.02189   0.02618   0.04479   0.05758   0.05930
 Alpha virt. eigenvalues --    0.06344   0.08710   0.09320   0.09713   0.10378
 Alpha virt. eigenvalues --    0.10783   0.12359   0.12569   0.13129   0.13617
 Alpha virt. eigenvalues --    0.14325   0.16825   0.17128   0.19105   0.19576
 Alpha virt. eigenvalues --    0.20088   0.20652   0.21383   0.22839   0.23974
 Alpha virt. eigenvalues --    0.25148   0.25717   0.26768   0.27891   0.29596
 Alpha virt. eigenvalues --    0.30286   0.31285   0.32670   0.33978   0.34033
 Alpha virt. eigenvalues --    0.34879   0.36005   0.37587   0.38062   0.41387
 Alpha virt. eigenvalues --    0.43662   0.45226   0.45828   0.49302   0.51950
 Alpha virt. eigenvalues --    0.52400   0.53290   0.56126   0.59714   0.60809
 Alpha virt. eigenvalues --    0.63486   0.65066   0.65454   0.68808   0.69394
 Alpha virt. eigenvalues --    0.70089   0.73002   0.73998   0.75378   0.76744
 Alpha virt. eigenvalues --    0.78818   0.81385   0.82802   0.90519   0.91837
 Alpha virt. eigenvalues --    0.95551   1.00713   1.06460   1.07958   1.08434
 Alpha virt. eigenvalues --    1.11744   1.11985   1.14015   1.16395   1.18728
 Alpha virt. eigenvalues --    1.21546   1.23823   1.24192   1.25464   1.27264
 Alpha virt. eigenvalues --    1.28487   1.29146   1.37716   1.41676   1.43257
 Alpha virt. eigenvalues --    1.45407   1.46650   1.51430   1.52401   1.53593
 Alpha virt. eigenvalues --    1.55732   1.58212   1.59172   1.62033   1.63088
 Alpha virt. eigenvalues --    1.65617   1.67953   1.72463   1.72597   1.77000
 Alpha virt. eigenvalues --    1.81361   1.88291   1.94296   1.95709   1.98268
 Alpha virt. eigenvalues --    2.00697   2.01517   2.09155   2.12688   2.15980
 Alpha virt. eigenvalues --    2.17294   2.18497   2.27318   2.33676   2.42394
 Alpha virt. eigenvalues --    2.45232   2.46965   2.47625   2.50211   2.57141
 Alpha virt. eigenvalues --    2.67915   2.69558   2.70615   2.70986   2.72884
 Alpha virt. eigenvalues --    2.76527   2.77403   2.79609   2.85744   2.89335
 Alpha virt. eigenvalues --    2.91043   2.91369   2.93688   2.95018   2.96983
 Alpha virt. eigenvalues --    3.00705   3.05448   3.08172   3.14192   3.29092
 Alpha virt. eigenvalues --    3.31384   3.34017   3.35287   3.43409   3.45392
 Alpha virt. eigenvalues --    3.49301   3.56889   3.73444   3.76661   3.78313
 Alpha virt. eigenvalues --    3.78358   3.88314   3.92505   4.09601   4.12803
 Alpha virt. eigenvalues --    4.49349   4.58590   4.64799   4.94088   5.00854
 Alpha virt. eigenvalues --    5.09512   5.13040   5.19335   5.21960   5.25002
 Alpha virt. eigenvalues --    5.59598   5.72616   5.92328  23.64452  23.75692
 Alpha virt. eigenvalues --   23.92830  35.42034  35.56553  49.85135  49.99100
 Alpha virt. eigenvalues --   50.07588
          Condensed to atoms (all electrons):
               1          2          3          4          5          6
     1  N    6.595322   0.404624  -0.157118   0.007149   0.001850  -0.141851
     2  C    0.404624   4.933589   0.257176  -0.009862  -0.001943   0.288710
     3  N   -0.157118   0.257176   6.681222   0.351814   0.323042  -0.088263
     4  H    0.007149  -0.009862   0.351814   0.351400  -0.012864  -0.005124
     5  H    0.001850  -0.001943   0.323042  -0.012864   0.385099   0.002797
     6  O   -0.141851   0.288710  -0.088263  -0.005124   0.002797   8.142660
     7  C   -0.010658  -0.216201   0.045911   0.006478  -0.000074   0.001338
     8  C   -0.005684  -0.012753  -0.008130   0.003619   0.001609  -0.087287
     9  O   -0.003122   0.019937  -0.002146   0.000609   0.000016   0.050930
    10  O    0.000196   0.007397  -0.002467   0.000771   0.000007   0.018055
    11  H    0.348627  -0.015947   0.005416  -0.000220   0.000636   0.003235
    12  H    0.353387  -0.014860   0.010188  -0.000056  -0.000208   0.011312
    13  H    0.003004   0.016757  -0.001119   0.015580  -0.000041  -0.066766
    14  H   -0.003028  -0.017781   0.001741  -0.001206  -0.000011  -0.037875
               7          8          9         10         11         12
     1  N   -0.010658  -0.005684  -0.003122   0.000196   0.348627   0.353387
     2  C   -0.216201  -0.012753   0.019937   0.007397  -0.015947  -0.014860
     3  N    0.045911  -0.008130  -0.002146  -0.002467   0.005416   0.010188
     4  H    0.006478   0.003619   0.000609   0.000771  -0.000220  -0.000056
     5  H   -0.000074   0.001609   0.000016   0.000007   0.000636  -0.000208
     6  O    0.001338  -0.087287   0.050930   0.018055   0.003235   0.011312
     7  C    6.609777  -0.375231  -0.163503  -0.273663   0.003913  -0.003433
     8  C   -0.375231   5.375089   0.418161   0.461442   0.000741   0.001075
     9  O   -0.163503   0.418161   8.226409  -0.125041  -0.000039   0.000383
    10  O   -0.273663   0.461442  -0.125041   8.316019  -0.000004   0.000024
    11  H    0.003913   0.000741  -0.000039  -0.000004   0.385018  -0.013438
    12  H   -0.003433   0.001075   0.000383   0.000024  -0.013438   0.338354
    13  H    0.417374  -0.060497   0.001246  -0.002823   0.000033  -0.000069
    14  H    0.371205   0.038500  -0.000606  -0.001588   0.000047   0.000077
              13         14
     1  N    0.003004  -0.003028
     2  C    0.016757  -0.017781
     3  N   -0.001119   0.001741
     4  H    0.015580  -0.001206
     5  H   -0.000041  -0.000011
     6  O   -0.066766  -0.037875
     7  C    0.417374   0.371205
     8  C   -0.060497   0.038500
     9  O    0.001246  -0.000606
    10  O   -0.002823  -0.001588
    11  H    0.000033   0.000047
    12  H   -0.000069   0.000077
    13  H    0.573283  -0.032766
    14  H   -0.032766   0.485213
 Mulliken charges:
               1
     1  N   -0.392699
     2  C    0.361157
     3  N   -0.417267
     4  H    0.291913
     5  H    0.300086
     6  O   -0.091871
     7  C   -0.413233
     8  C    0.249347
     9  O   -0.423235
    10  O   -0.398326
    11  H    0.281982
    12  H    0.317265
    13  H    0.136805
    14  H    0.198077
 Sum of Mulliken charges =  -0.00000
 Mulliken charges with hydrogens summed into heavy atoms:
               1
     1  N    0.206548
     2  C    0.361157
     3  N    0.174731
     6  O   -0.091871
     7  C   -0.078350
     8  C    0.249347
     9  O   -0.423235
    10  O   -0.398326
 Electronic spatial extent (au):  <R**2>=           1235.4963
 Charge=             -0.0000 electrons
 Dipole moment (field-independent basis, Debye):
    X=             16.7559    Y=             -2.9111    Z=              0.1500  Tot=             17.0076
 Quadrupole moment (field-independent basis, Debye-Ang):
   XX=            -49.5570   YY=            -44.8345   ZZ=            -47.5900
   XY=              1.2151   XZ=             -5.4760   YZ=              2.1200
 Traceless Quadrupole moment (field-independent basis, Debye-Ang):
   XX=             -2.2299   YY=              2.4927   ZZ=             -0.2629
   XY=              1.2151   XZ=             -5.4760   YZ=              2.1200
 Octapole moment (field-independent basis, Debye-Ang**2):
  XXX=            172.3742  YYY=             -5.3228  ZZZ=              1.5683  XYY=             41.2929
  XXY=              6.9166  XXZ=             -5.1619  XZZ=              0.4511  YZZ=             -1.9006
  YYZ=             -0.3220  XYZ=              4.1186
 Hexadecapole moment (field-independent basis, Debye-Ang**3):
 XXXX=          -1140.8191 YYYY=           -251.4966 ZZZZ=            -69.5590 XXXY=            -23.0755
 XXXZ=            -57.2111 YYYX=             14.0921 YYYZ=             10.3471 ZZZX=             -2.5541
 ZZZY=              1.1005 XXYY=           -236.0895 XXZZ=           -216.3414 YYZZ=            -60.5540
 XXYZ=             19.6669 YYXZ=            -10.9377 ZZXY=             -2.4682
 N-N= 3.690779758307D+02 E-N=-1.801243385741D+03  KE= 4.510709946960D+02
 No NMR shielding tensors so no spin-rotation constants.
 Leave Link  601 at Tue Jan 31 22:07:38 2023, MaxMem=  8053063680 cpu:               2.5 elap:               0.1
 (Enter /public3/home/scg5914/software-scg5914/g16/l701.exe)
 ... and contract with generalized density number  0.
 Compute integral first derivatives.
 R6Disp: Adding Grimme-D3(BJ) dispersion energy 1st derivatives to the gradient.
 Leave Link  701 at Tue Jan 31 22:07:38 2023, MaxMem=  8053063680 cpu:               2.9 elap:               0.1
 (Enter /public3/home/scg5914/software-scg5914/g16/l702.exe)
 L702 exits ... SP integral derivatives will be done elsewhere.
 Leave Link  702 at Tue Jan 31 22:07:38 2023, MaxMem=  8053063680 cpu:               0.2 elap:               0.0
 (Enter /public3/home/scg5914/software-scg5914/g16/l703.exe)
 Integral derivatives from FoFJK, PRISM(SPDF).
 Compute integral first derivatives, UseDBF=F ICtDFT=           0.
 Calling FoFJK, ICntrl=      2127 FMM=F ISym2X=0 I1Cent= 0 IOpClX= 0 NMat=1 NMatS=1 NMatT=0.
 FoFJK:  IHMeth= 1 ICntrl=    2127 DoSepK=F KAlg= 0 I1Cent=           0 FoldK=F
 IRaf=         0 NMat=       1 IRICut=       1 DoRegI=T DoRafI=F ISym2E= 0 IDoP0=0 IntGTp=1.
 FoFCou: FMM=F IPFlag=           0 FMFlag=      100000 FMFlg1=         800
         NFxFlg=           0 DoJE=F BraDBF=F KetDBF=F FulRan=T
         wScrn=  0.000000 ICntrl=      2127 IOpCl=  0 I1Cent=           0 NGrid=           0
         NMat0=    1 NMatS0=      1 NMatT0=    0 NMatD0=    1 NMtDS0=    0 NMtDT0=    0
 Symmetry not used in FoFCou.
 Leave Link  703 at Tue Jan 31 22:07:39 2023, MaxMem=  8053063680 cpu:              37.3 elap:               1.2
 (Enter /public3/home/scg5914/software-scg5914/g16/l716.exe)
 Dipole        = 6.59229185D+00-1.14531246D+00 5.89986685D-02
 ***** Axes restored to original set *****
 -------------------------------------------------------------------
 Center     Atomic                   Forces (Hartrees/Bohr)
 Number     Number              X              Y              Z
 -------------------------------------------------------------------
      1        7          -0.019507965    0.009783322    0.007112990
      2        6          -0.012801430   -0.001672054    0.002164077
      3        7           0.032805036    0.003490086   -0.015949321
      4        1           0.006615652    0.000984968   -0.002001675
      5        1          -0.060308590    0.019439832    0.028913811
      6        8           0.049366691   -0.022655488   -0.019298375
      7        6          -0.004945313   -0.000906707   -0.003785874
      8        6          -0.000783320    0.009574426   -0.002291763
      9        8           0.005627396   -0.018231313    0.003827262
     10        8           0.006074473    0.002007980    0.001121623
     11        1          -0.003601135   -0.000255204    0.000200298
     12        1           0.007193651   -0.011324427   -0.002742042
     13        1          -0.004593373    0.006500641    0.009697898
     14        1          -0.001141773    0.003263938   -0.006968910
 -------------------------------------------------------------------
 Cartesian Forces:  Max     0.060308590 RMS     0.016359106
 Leave Link  716 at Tue Jan 31 22:07:39 2023, MaxMem=  8053063680 cpu:               0.3 elap:               0.0
 (Enter /public3/home/scg5914/software-scg5914/g16/l103.exe)

 GradGradGradGradGradGradGradGradGradGradGradGradGradGradGradGradGradGrad
 Berny optimization.
 FormGI is forming the generalized inverse of G from B-inverse, IUseBI=4.
 Internal  Forces:  Max     0.069593778 RMS     0.014574000
 Search for a local minimum.
 Step number   1 out of a maximum of   61
 All quantities printed in internal units (Hartrees-Bohrs-Radians)
 RMS Force = .14574D-01 SwitMx=.10000D-02 MixMth= 1
 Mixed Optimization -- RFO/linear search
 Second derivative matrix not updated -- first step.
 ITU=  0
     Eigenvalues ---    0.00230   0.00230   0.00236   0.02143   0.02221
     Eigenvalues ---    0.02324   0.02408   0.02554   0.02575   0.05931
     Eigenvalues ---    0.06963   0.11414   0.13876   0.16000   0.16000
     Eigenvalues ---    0.16000   0.16000   0.22261   0.23347   0.24999
     Eigenvalues ---    0.25000   0.25000   0.25000   0.25000   0.30685
     Eigenvalues ---    0.32336   0.32626   0.33664   0.43307   0.44955
     Eigenvalues ---    0.46040   0.51772   0.55912   0.58379   0.85111
     Eigenvalues ---    0.86166
 RFO step:  Lambda=-2.62381918D-02 EMin= 2.30000000D-03
 Linear search not attempted -- first point.
 Iteration  1 RMS(Cart)=  0.07082468 RMS(Int)=  0.00129717
 Iteration  2 RMS(Cart)=  0.00193529 RMS(Int)=  0.00005634
 Iteration  3 RMS(Cart)=  0.00000148 RMS(Int)=  0.00005632
 Iteration  4 RMS(Cart)=  0.00000000 RMS(Int)=  0.00005632
 ITry= 1 IFail=0 DXMaxC= 2.79D-01 DCOld= 1.00D+10 DXMaxT= 3.00D-01 DXLimC= 3.00D+00 Rises=F
 Variable       Old X    -DE/DX   Delta X   Delta X   Delta X     New X
                                 (Linear)    (Quad)   (Total)
    R1        2.54330  -0.01248   0.00000  -0.02132  -0.02132   2.52198
    R2        1.90786  -0.00352   0.00000  -0.00723  -0.00723   1.90063
    R3        1.93992  -0.01340   0.00000  -0.02917  -0.02917   1.91075
    R4        2.58118  -0.03052   0.00000  -0.05611  -0.05611   2.52507
    R5        2.52246  -0.05621   0.00000  -0.09214  -0.09214   2.43032
    R6        1.92028  -0.00552   0.00000  -0.01160  -0.01160   1.90869
    R7        2.10233  -0.06959   0.00000  -0.19907  -0.19907   1.90326
    R8        2.86619  -0.00180   0.00000  -0.00540  -0.00540   2.86079
    R9        3.03606  -0.01303   0.00000  -0.05017  -0.05017   2.98589
   R10        2.09714  -0.01239   0.00000  -0.03516  -0.03516   2.06197
   R11        2.07900  -0.00763   0.00000  -0.02101  -0.02101   2.05799
   R12        2.35272  -0.01853   0.00000  -0.02112  -0.02112   2.33160
   R13        2.34752  -0.00578   0.00000  -0.00651  -0.00651   2.34101
    A1        2.15492  -0.00284   0.00000  -0.01514  -0.01514   2.13978
    A2        2.01370   0.00419   0.00000   0.02263   0.02263   2.03633
    A3        2.09345  -0.00131   0.00000  -0.00690  -0.00690   2.08654
    A4        2.06968   0.01443   0.00000   0.05225   0.05224   2.12191
    A5        2.03572  -0.00661   0.00000  -0.02389  -0.02390   2.01181
    A6        2.17776  -0.00782   0.00000  -0.02828  -0.02829   2.14946
    A7        2.03688   0.00734   0.00000   0.03905   0.03904   2.07592
    A8        2.16195  -0.00654   0.00000  -0.03552  -0.03554   2.12641
    A9        2.07439  -0.00088   0.00000  -0.00509  -0.00510   2.06929
   A10        2.06455   0.01323   0.00000   0.04789   0.04789   2.11244
   A11        1.94570  -0.00508   0.00000  -0.02013  -0.02013   1.92557
   A12        1.87291   0.00304   0.00000   0.01778   0.01771   1.89062
   A13        1.84097   0.00260   0.00000   0.01305   0.01295   1.85392
   A14        1.88455  -0.00020   0.00000  -0.00469  -0.00464   1.87991
   A15        1.95238  -0.00000   0.00000  -0.00466  -0.00464   1.94774
   A16        1.96647  -0.00036   0.00000  -0.00070  -0.00084   1.96563
   A17        2.05919  -0.00703   0.00000  -0.02532  -0.02534   2.03384
   A18        1.88574   0.00007   0.00000   0.00036   0.00034   1.88608
   A19        2.33781   0.00696   0.00000   0.02531   0.02529   2.36310
    D1       -0.25739   0.00045   0.00000   0.00925   0.00930  -0.24808
    D2        2.89305   0.00007   0.00000   0.00092   0.00086   2.89391
    D3        3.10435   0.00032   0.00000   0.00672   0.00677   3.11112
    D4       -0.02840  -0.00007   0.00000  -0.00161  -0.00167  -0.03007
    D5        3.13750  -0.00017   0.00000  -0.00352  -0.00354   3.13396
    D6       -0.15744  -0.00074   0.00000  -0.01538  -0.01540  -0.17284
    D7       -0.01372   0.00027   0.00000   0.00562   0.00565  -0.00807
    D8        2.97453  -0.00030   0.00000  -0.00624  -0.00621   2.96832
    D9        2.88089  -0.00047   0.00000  -0.00953  -0.00969   2.87120
   D10       -0.25125  -0.00100   0.00000  -0.01889  -0.01873  -0.26999
   D11       -2.56061   0.00003   0.00000   0.00026   0.00028  -2.56033
   D12       -0.50048  -0.00120   0.00000  -0.00587  -0.00605  -0.50653
   D13        1.59996   0.00127   0.00000   0.00909   0.00924   1.60920
   D14        0.08743   0.00011   0.00000  -0.00258  -0.00259   0.08484
   D15       -3.08207   0.00043   0.00000   0.00866   0.00866  -3.07342
   D16       -1.96569  -0.00056   0.00000  -0.00983  -0.00985  -1.97555
   D17        1.14799  -0.00024   0.00000   0.00141   0.00139   1.14938
   D18        2.14406   0.00003   0.00000  -0.00249  -0.00247   2.14160
   D19       -1.02544   0.00035   0.00000   0.00875   0.00878  -1.01666
         Item               Value     Threshold  Converged?
 Maximum Force            0.069594     0.000450     NO 
 RMS     Force            0.014574     0.000300     NO 
 Maximum Displacement     0.278588     0.001800     NO 
 RMS     Displacement     0.070934     0.001200     NO 
 Predicted change in Energy=-1.405052D-02
 Lowest energy point so far.  Saving SCF results.
 GradGradGradGradGradGradGradGradGradGradGradGradGradGradGradGradGradGrad

 Leave Link  103 at Tue Jan 31 22:07:39 2023, MaxMem=  8053063680 cpu:               0.7 elap:               0.0
 (Enter /public3/home/scg5914/software-scg5914/g16/l202.exe)
                          Input orientation:                          
 ---------------------------------------------------------------------
 Center     Atomic      Atomic             Coordinates (Angstroms)
 Number     Number       Type             X           Y           Z
 ---------------------------------------------------------------------
      1          7           0        2.549419    1.023689   -0.113690
      2          6           0        1.699528    0.003213    0.018222
      3          7           0        2.073450   -1.255352   -0.230082
      4          1           0        1.399374   -1.998049   -0.110964
      5          1           0        2.956545   -1.471502   -0.663441
      6          8           0        0.512555    0.322710    0.396373
      7          6           0       -0.639032   -0.650164    0.257973
      8          6           0       -1.981478    0.127411   -0.041722
      9          8           0       -1.886990    1.346311   -0.208120
     10          8           0       -2.905478   -0.697322   -0.067828
     11          1           0        3.543239    0.893835   -0.197573
     12          1           0        2.180734    1.947702    0.067007
     13          1           0       -0.436436   -1.302787   -0.592701
     14          1           0       -0.692596   -1.194162    1.199889
 ---------------------------------------------------------------------
                    Distance matrix (angstroms):
                    1          2          3          4          5
     1  N    0.000000
     2  C    1.334574   0.000000
     3  N    2.331121   1.336211   0.000000
     4  H    3.233189   2.027765   1.010033   0.000000
     5  H    2.587269   2.054153   1.007163   1.734146   0.000000
     6  O    2.213673   1.286072   2.306322   2.535697   3.211774
     7  C    3.620240   2.439927   2.821704   2.471438   3.801549
     8  C    4.619255   3.683588   4.288351   3.994062   5.227535
     9  O    4.449126   3.836437   4.738589   4.689816   5.622030
    10  O    5.720130   4.658780   5.012729   4.497278   5.942847
    11  H    1.005772   2.058894   2.603909   3.600924   2.481142
    12  H    1.011128   2.003740   3.218591   4.026307   3.581396
    13  H    3.815400   2.577054   2.536390   2.021301   3.397909
    14  H    4.141861   2.924431   3.114414   2.596326   4.106719
                    6          7          8          9         10
     6  O    0.000000
     7  C    1.513866   0.000000
     8  C    2.539738   1.580064   0.000000
     9  O    2.677870   2.400116   1.233828   0.000000
    10  O    3.597068   2.290229   1.238807   2.287670   0.000000
    11  H    3.140701   4.481389   5.579802   5.449058   6.643385
    12  H    2.352000   3.838809   4.544149   4.121134   5.734447
    13  H    2.126286   1.091150   2.176281   3.044623   2.595814
    14  H    2.097362   1.089040   2.224718   3.140552   2.598231
                   11         12         13         14
    11  H    0.000000
    12  H    1.742716   0.000000
    13  H    4.562794   4.224982   0.000000
    14  H    4.924929   4.405764   1.814055   0.000000
 Stoichiometry    C3H6N2O3
 Framework group  C1[X(C3H6N2O3)]
 Deg. of freedom    36
 Full point group                 C1      NOp   1
 RotChk:  IX=0 Diff= 1.75D-02
 Largest Abelian subgroup         C1      NOp   1
 Largest concise Abelian subgroup C1      NOp   1
                         Standard orientation:                         
 ---------------------------------------------------------------------
 Center     Atomic      Atomic             Coordinates (Angstroms)
 Number     Number       Type             X           Y           Z
 ---------------------------------------------------------------------
      1          7           0        2.525149    1.026296   -0.077647
      2          6           0        1.674248    0.005087    0.041465
      3          7           0        2.051223   -1.252447   -0.207448
      4          1           0        1.376169   -1.995779   -0.098238
      5          1           0        2.938958   -1.466742   -0.632162
      6          8           0        0.483206    0.322838    0.408115
      7          6           0       -0.666510   -0.649869    0.253894
      8          6           0       -2.005952    0.128394   -0.057238
      9          8           0       -1.910112    1.347924   -0.218156
     10          8           0       -2.929341   -0.696516   -0.096206
     11          1           0        3.519851    0.897049   -0.151412
     12          1           0        2.154246    1.949529    0.102493
     13          1           0       -0.454642   -1.299309   -0.596957
     14          1           0       -0.729920   -1.197332    1.193187
 ---------------------------------------------------------------------
 Rotational constants (GHZ):           4.9709011           1.0752176           0.9072128
 Leave Link  202 at Tue Jan 31 22:07:39 2023, MaxMem=  8053063680 cpu:               1.0 elap:               0.0
 (Enter /public3/home/scg5914/software-scg5914/g16/l301.exe)
 Standard basis: 6-311+G(d,p) (5D, 7F)
 Ernie: Thresh=  0.10000D-02 Tol=  0.10000D-05 Strict=F.
 There are   220 symmetry adapted cartesian basis functions of A   symmetry.
 There are   212 symmetry adapted basis functions of A   symmetry.
   212 basis functions,   336 primitive gaussians,   220 cartesian basis functions
    31 alpha electrons       31 beta electrons
       nuclear repulsion energy       375.2754181766 Hartrees.
 IExCor=  402 DFT=T Ex+Corr=B3LYP ExCW=0 ScaHFX=  0.200000
 ScaDFX=  0.800000  0.720000  1.000000  0.810000 ScalE2=  1.000000  1.000000
 IRadAn=      5 IRanWt=     -1 IRanGd=            0 ICorTp=0 IEmpDi=141
 NAtoms=   14 NActive=   14 NUniq=   14 SFac= 1.00D+00 NAtFMM=   60 NAOKFM=F Big=F
 Integral buffers will be    131072 words long.
 Raffenetti 2 integral format.
 Two-electron integral symmetry is turned on.
 R6Disp:  Grimme-D3(BJ) Dispersion energy=       -0.0179286027 Hartrees.
 Nuclear repulsion after empirical dispersion term =      375.2574895739 Hartrees.
 Leave Link  301 at Tue Jan 31 22:07:39 2023, MaxMem=  8053063680 cpu:               0.6 elap:               0.0
 (Enter /public3/home/scg5914/software-scg5914/g16/l302.exe)
 NPDir=0 NMtPBC=     1 NCelOv=     1 NCel=       1 NClECP=     1 NCelD=      1
         NCelK=      1 NCelE2=     1 NClLst=     1 CellRange=     0.0.
 One-electron integrals computed using PRISM.
 One-electron integral symmetry used in STVInt
 NBasis=   212 RedAO= T EigKep=  7.73D-05  NBF=   212
 NBsUse=   212 1.00D-06 EigRej= -1.00D+00 NBFU=   212
 Precomputing XC quadrature grid using
 IXCGrd= 4 IRadAn=           5 IRanWt=          -1 IRanGd=           0 AccXCQ= 0.00D+00.
 Generated NRdTot=       0 NPtTot=           0 NUsed=           0 NTot=          32
 NSgBfM=   220   220   220   220   220 MxSgAt=    14 MxSgA2=    14.
 Leave Link  302 at Tue Jan 31 22:07:39 2023, MaxMem=  8053063680 cpu:               3.6 elap:               0.1
 (Enter /public3/home/scg5914/software-scg5914/g16/l303.exe)
 DipDrv:  MaxL=1.
 Leave Link  303 at Tue Jan 31 22:07:39 2023, MaxMem=  8053063680 cpu:               0.5 elap:               0.0
 (Enter /public3/home/scg5914/software-scg5914/g16/l401.exe)
 Initial guess from the checkpoint file:  "dsgdb9nsd_006075.chk"
 B after Tr=    -0.000000    0.000000    0.000000
         Rot=    0.999965   -0.007373    0.000239    0.003840 Ang=  -0.95 deg.
 Guess basis will be translated and rotated to current coordinates.
 JPrj=2 DoOrth=T DoCkMO=T.
 Generating alternative initial guess.
 ExpMin= 4.38D-02 ExpMax= 8.59D+03 ExpMxC= 1.30D+03 IAcc=3 IRadAn=         5 AccDes= 0.00D+00
 Harris functional with IExCor=  402 and IRadAn=       5 diagonalized for initial guess.
 HarFok:  IExCor=  402 AccDes= 0.00D+00 IRadAn=         5 IDoV= 1 UseB2=F ITyADJ=14
 ICtDFT=  3500011 ScaDFX=  1.000000  1.000000  1.000000  1.000000
 FoFCou: FMM=F IPFlag=           0 FMFlag=      100000 FMFlg1=           0
         NFxFlg=           0 DoJE=T BraDBF=F KetDBF=T FulRan=T
         wScrn=  0.000000 ICntrl=       500 IOpCl=  0 I1Cent=   200000004 NGrid=           0
         NMat0=    1 NMatS0=      1 NMatT0=    0 NMatD0=    1 NMtDS0=    0 NMtDT0=    0
 Petite list used in FoFCou.
 Harris En= -453.323701085529    
 Leave Link  401 at Tue Jan 31 22:07:40 2023, MaxMem=  8053063680 cpu:              12.1 elap:               0.4
 (Enter /public3/home/scg5914/software-scg5914/g16/l502.exe)
 Integral symmetry usage will be decided dynamically.
 Closed shell SCF:
 Using DIIS extrapolation, IDIIS=  1040.
 NGot=  8053063680 LenX=  8052957314 LenY=  8052908473
 Requested convergence on RMS density matrix=1.00D-08 within 128 cycles.
 Requested convergence on MAX density matrix=1.00D-06.
 Requested convergence on             energy=1.00D-06.
 No special actions if energy rises.
 Fock matrices will be formed incrementally for  20 cycles.

 Cycle   1  Pass 1  IDiag  1:
 FoFJK:  IHMeth= 1 ICntrl=       0 DoSepK=F KAlg= 0 I1Cent=           0 FoldK=F
 IRaf= 940000000 NMat=       1 IRICut=       1 DoRegI=T DoRafI=F ISym2E= 0 IDoP0=0 IntGTp=1.
 FoFCou: FMM=F IPFlag=           0 FMFlag=      100000 FMFlg1=           0
         NFxFlg=           0 DoJE=F BraDBF=F KetDBF=F FulRan=T
         wScrn=  0.000000 ICntrl=         0 IOpCl=  0 I1Cent=           0 NGrid=           0
         NMat0=    1 NMatS0=      1 NMatT0=    0 NMatD0=    1 NMtDS0=    0 NMtDT0=    0
 Symmetry not used in FoFCou.
 E= -453.221496709608    
 DIIS: error= 4.21D-03 at cycle   1 NSaved=   1.
 NSaved= 1 IEnMin= 1 EnMin= -453.221496709608     IErMin= 1 ErrMin= 4.21D-03
 ErrMax= 4.21D-03  0.00D+00 EMaxC= 1.00D-01 BMatC= 8.16D-03 BMatP= 8.16D-03
 IDIUse=3 WtCom= 9.58D-01 WtEn= 4.21D-02
 Coeff-Com:  0.100D+01
 Coeff-En:   0.100D+01
 Coeff:      0.100D+01
 Gap=     0.368 Goal=   None    Shift=    0.000
 GapD=    0.368 DampG=1.000 DampE=1.000 DampFc=1.0000 IDamp=-1.
 RMSDP=6.60D-04 MaxDP=1.01D-02              OVMax= 2.37D-02

 Cycle   2  Pass 1  IDiag  1:
 RMSU=  6.58D-04    CP:  9.96D-01
 E= -453.229489006934     Delta-E=       -0.007992297326 Rises=F Damp=F
 DIIS: error= 3.82D-03 at cycle   2 NSaved=   2.
 NSaved= 2 IEnMin= 2 EnMin= -453.229489006934     IErMin= 2 ErrMin= 3.82D-03
 ErrMax= 3.82D-03  0.00D+00 EMaxC= 1.00D-01 BMatC= 1.41D-03 BMatP= 8.16D-03
 IDIUse=3 WtCom= 9.62D-01 WtEn= 3.82D-02
 Coeff-Com:  0.190D+00 0.810D+00
 Coeff-En:   0.000D+00 0.100D+01
 Coeff:      0.183D+00 0.817D+00
 Gap=     0.141 Goal=   None    Shift=    0.000
 RMSDP=2.90D-04 MaxDP=1.08D-02 DE=-7.99D-03 OVMax= 1.59D-02

 Cycle   3  Pass 1  IDiag  1:
 RMSU=  2.84D-04    CP:  9.95D-01  9.19D-01
 E= -453.229046373344     Delta-E=        0.000442633589 Rises=F Damp=F
 DIIS: error= 3.85D-03 at cycle   3 NSaved=   3.
 NSaved= 3 IEnMin= 2 EnMin= -453.229489006934     IErMin= 2 ErrMin= 3.82D-03
 ErrMax= 3.85D-03  0.00D+00 EMaxC= 1.00D-01 BMatC= 2.07D-03 BMatP= 1.41D-03
 IDIUse=3 WtCom= 1.39D-01 WtEn= 8.61D-01
 Coeff-Com:  0.467D-02 0.549D+00 0.446D+00
 Coeff-En:   0.000D+00 0.568D+00 0.432D+00
 Coeff:      0.649D-03 0.566D+00 0.434D+00
 Gap=     0.137 Goal=   None    Shift=    0.000
 RMSDP=1.88D-04 MaxDP=4.91D-03 DE= 4.43D-04 OVMax= 1.11D-02

 Cycle   4  Pass 1  IDiag  1:
 RMSU=  8.40D-05    CP:  9.95D-01  9.74D-01  4.21D-01
 E= -453.230571744437     Delta-E=       -0.001525371092 Rises=F Damp=F
 DIIS: error= 6.77D-04 at cycle   4 NSaved=   4.
 NSaved= 4 IEnMin= 4 EnMin= -453.230571744437     IErMin= 4 ErrMin= 6.77D-04
 ErrMax= 6.77D-04  0.00D+00 EMaxC= 1.00D-01 BMatC= 9.35D-05 BMatP= 1.41D-03
 IDIUse=3 WtCom= 9.93D-01 WtEn= 6.77D-03
 Coeff-Com: -0.103D-01 0.272D+00 0.243D+00 0.495D+00
 Coeff-En:   0.000D+00 0.000D+00 0.000D+00 0.100D+01
 Coeff:     -0.102D-01 0.270D+00 0.241D+00 0.499D+00
 Gap=     0.136 Goal=   None    Shift=    0.000
 RMSDP=6.04D-05 MaxDP=1.88D-03 DE=-1.53D-03 OVMax= 4.19D-03

 Cycle   5  Pass 1  IDiag  1:
 RMSU=  3.43D-05    CP:  9.96D-01  9.78D-01  5.00D-01  4.81D-01
 E= -453.230625947991     Delta-E=       -0.000054203554 Rises=F Damp=F
 DIIS: error= 3.78D-04 at cycle   5 NSaved=   5.
 NSaved= 5 IEnMin= 5 EnMin= -453.230625947991     IErMin= 5 ErrMin= 3.78D-04
 ErrMax= 3.78D-04  0.00D+00 EMaxC= 1.00D-01 BMatC= 2.14D-05 BMatP= 9.35D-05
 IDIUse=3 WtCom= 9.96D-01 WtEn= 3.78D-03
 Coeff-Com: -0.698D-02 0.106D+00 0.997D-01 0.337D+00 0.464D+00
 Coeff-En:   0.000D+00 0.000D+00 0.000D+00 0.201D+00 0.799D+00
 Coeff:     -0.696D-02 0.106D+00 0.993D-01 0.336D+00 0.465D+00
 Gap=     0.136 Goal=   None    Shift=    0.000
 RMSDP=2.96D-05 MaxDP=1.28D-03 DE=-5.42D-05 OVMax= 1.74D-03

 Cycle   6  Pass 1  IDiag  1:
 RMSU=  1.53D-05    CP:  9.95D-01  9.83D-01  4.62D-01  6.20D-01  4.48D-01
 E= -453.230640122359     Delta-E=       -0.000014174368 Rises=F Damp=F
 DIIS: error= 8.82D-05 at cycle   6 NSaved=   6.
 NSaved= 6 IEnMin= 6 EnMin= -453.230640122359     IErMin= 6 ErrMin= 8.82D-05
 ErrMax= 8.82D-05  0.00D+00 EMaxC= 1.00D-01 BMatC= 2.33D-06 BMatP= 2.14D-05
 IDIUse=1 WtCom= 1.00D+00 WtEn= 0.00D+00
 Coeff-Com: -0.301D-02 0.345D-01 0.341D-01 0.159D+00 0.305D+00 0.470D+00
 Coeff:     -0.301D-02 0.345D-01 0.341D-01 0.159D+00 0.305D+00 0.470D+00
 Gap=     0.136 Goal=   None    Shift=    0.000
 RMSDP=8.77D-06 MaxDP=2.84D-04 DE=-1.42D-05 OVMax= 3.60D-04

 Cycle   7  Pass 1  IDiag  1:
 RMSU=  4.05D-06    CP:  9.95D-01  9.82D-01  4.69D-01  6.04D-01  5.56D-01
                    CP:  5.85D-01
 E= -453.230641841010     Delta-E=       -0.000001718651 Rises=F Damp=F
 DIIS: error= 1.76D-05 at cycle   7 NSaved=   7.
 NSaved= 7 IEnMin= 7 EnMin= -453.230641841010     IErMin= 7 ErrMin= 1.76D-05
 ErrMax= 1.76D-05  0.00D+00 EMaxC= 1.00D-01 BMatC= 1.14D-07 BMatP= 2.33D-06
 IDIUse=1 WtCom= 1.00D+00 WtEn= 0.00D+00
 Coeff-Com: -0.949D-03 0.780D-02 0.855D-02 0.513D-01 0.115D+00 0.249D+00
 Coeff-Com:  0.570D+00
 Coeff:     -0.949D-03 0.780D-02 0.855D-02 0.513D-01 0.115D+00 0.249D+00
 Coeff:      0.570D+00
 Gap=     0.136 Goal=   None    Shift=    0.000
 RMSDP=1.82D-06 MaxDP=4.53D-05 DE=-1.72D-06 OVMax= 1.01D-04

 Cycle   8  Pass 1  IDiag  1:
 RMSU=  1.49D-06    CP:  9.95D-01  9.82D-01  4.70D-01  6.10D-01  5.60D-01
                    CP:  5.86D-01  7.85D-01
 E= -453.230641910889     Delta-E=       -0.000000069879 Rises=F Damp=F
 DIIS: error= 1.03D-05 at cycle   8 NSaved=   8.
 NSaved= 8 IEnMin= 8 EnMin= -453.230641910889     IErMin= 8 ErrMin= 1.03D-05
 ErrMax= 1.03D-05  0.00D+00 EMaxC= 1.00D-01 BMatC= 1.91D-08 BMatP= 1.14D-07
 IDIUse=1 WtCom= 1.00D+00 WtEn= 0.00D+00
 Coeff-Com: -0.827D-04-0.108D-02-0.405D-03 0.527D-02 0.202D-01 0.790D-01
 Coeff-Com:  0.336D+00 0.561D+00
 Coeff:     -0.827D-04-0.108D-02-0.405D-03 0.527D-02 0.202D-01 0.790D-01
 Coeff:      0.336D+00 0.561D+00
 Gap=     0.136 Goal=   None    Shift=    0.000
 RMSDP=7.58D-07 MaxDP=3.33D-05 DE=-6.99D-08 OVMax= 4.14D-05

 Cycle   9  Pass 1  IDiag  1:
 RMSU=  3.82D-07    CP:  9.95D-01  9.82D-01  4.70D-01  6.11D-01  5.55D-01
                    CP:  6.10D-01  8.22D-01  7.11D-01
 E= -453.230641925417     Delta-E=       -0.000000014529 Rises=F Damp=F
 DIIS: error= 1.51D-06 at cycle   9 NSaved=   9.
 NSaved= 9 IEnMin= 9 EnMin= -453.230641925417     IErMin= 9 ErrMin= 1.51D-06
 ErrMax= 1.51D-06  0.00D+00 EMaxC= 1.00D-01 BMatC= 8.72D-10 BMatP= 1.91D-08
 IDIUse=1 WtCom= 1.00D+00 WtEn= 0.00D+00
 Coeff-Com:  0.644D-05-0.971D-03-0.652D-03-0.247D-03 0.362D-02 0.249D-01
 Coeff-Com:  0.129D+00 0.274D+00 0.571D+00
 Coeff:      0.644D-05-0.971D-03-0.652D-03-0.247D-03 0.362D-02 0.249D-01
 Coeff:      0.129D+00 0.274D+00 0.571D+00
 Gap=     0.136 Goal=   None    Shift=    0.000
 RMSDP=1.94D-07 MaxDP=5.24D-06 DE=-1.45D-08 OVMax= 8.07D-06

 Cycle  10  Pass 1  IDiag  1:
 RMSU=  1.52D-07    CP:  9.95D-01  9.82D-01  4.70D-01  6.11D-01  5.55D-01
                    CP:  6.17D-01  8.23D-01  7.16D-01  8.63D-01
 E= -453.230641926072     Delta-E=       -0.000000000654 Rises=F Damp=F
 DIIS: error= 7.32D-07 at cycle  10 NSaved=  10.
 NSaved=10 IEnMin=10 EnMin= -453.230641926072     IErMin=10 ErrMin= 7.32D-07
 ErrMax= 7.32D-07  0.00D+00 EMaxC= 1.00D-01 BMatC= 1.24D-10 BMatP= 8.72D-10
 IDIUse=1 WtCom= 1.00D+00 WtEn= 0.00D+00
 Coeff-Com:  0.169D-04-0.355D-03-0.288D-03-0.893D-03-0.931D-03 0.175D-02
 Coeff-Com:  0.186D-01 0.624D-01 0.302D+00 0.618D+00
 Coeff:      0.169D-04-0.355D-03-0.288D-03-0.893D-03-0.931D-03 0.175D-02
 Coeff:      0.186D-01 0.624D-01 0.302D+00 0.618D+00
 Gap=     0.136 Goal=   None    Shift=    0.000
 RMSDP=7.70D-08 MaxDP=3.16D-06 DE=-6.54D-10 OVMax= 3.12D-06

 Cycle  11  Pass 1  IDiag  1:
 RMSU=  4.90D-08    CP:  9.95D-01  9.82D-01  4.70D-01  6.12D-01  5.55D-01
                    CP:  6.18D-01  8.28D-01  7.12D-01  9.38D-01  8.12D-01
 E= -453.230641926167     Delta-E=       -0.000000000095 Rises=F Damp=F
 DIIS: error= 2.89D-07 at cycle  11 NSaved=  11.
 NSaved=11 IEnMin=11 EnMin= -453.230641926167     IErMin=11 ErrMin= 2.89D-07
 ErrMax= 2.89D-07  0.00D+00 EMaxC= 1.00D-01 BMatC= 1.64D-11 BMatP= 1.24D-10
 IDIUse=1 WtCom= 1.00D+00 WtEn= 0.00D+00
 Coeff-Com:  0.791D-05-0.866D-04-0.842D-04-0.420D-03-0.816D-03-0.150D-02
 Coeff-Com: -0.290D-02 0.786D-02 0.109D+00 0.339D+00 0.549D+00
 Coeff:      0.791D-05-0.866D-04-0.842D-04-0.420D-03-0.816D-03-0.150D-02
 Coeff:     -0.290D-02 0.786D-02 0.109D+00 0.339D+00 0.549D+00
 Gap=     0.136 Goal=   None    Shift=    0.000
 RMSDP=3.00D-08 MaxDP=1.03D-06 DE=-9.54D-11 OVMax= 1.22D-06

 Cycle  12  Pass 1  IDiag  1:
 RMSU=  1.75D-08    CP:  9.95D-01  9.82D-01  4.70D-01  6.12D-01  5.55D-01
                    CP:  6.18D-01  8.28D-01  7.22D-01  9.32D-01  8.09D-01
                    CP:  7.51D-01
 E= -453.230641926179     Delta-E=       -0.000000000012 Rises=F Damp=F
 DIIS: error= 8.95D-08 at cycle  12 NSaved=  12.
 NSaved=12 IEnMin=12 EnMin= -453.230641926179     IErMin=12 ErrMin= 8.95D-08
 ErrMax= 8.95D-08  0.00D+00 EMaxC= 1.00D-01 BMatC= 1.81D-12 BMatP= 1.64D-11
 IDIUse=1 WtCom= 1.00D+00 WtEn= 0.00D+00
 Coeff-Com:  0.226D-05-0.420D-06-0.863D-05-0.111D-03-0.340D-03-0.104D-02
 Coeff-Com: -0.408D-02-0.374D-02 0.144D-01 0.898D-01 0.293D+00 0.612D+00
 Coeff:      0.226D-05-0.420D-06-0.863D-05-0.111D-03-0.340D-03-0.104D-02
 Coeff:     -0.408D-02-0.374D-02 0.144D-01 0.898D-01 0.293D+00 0.612D+00
 Gap=     0.136 Goal=   None    Shift=    0.000
 RMSDP=1.08D-08 MaxDP=5.29D-07 DE=-1.23D-11 OVMax= 3.81D-07

 Cycle  13  Pass 1  IDiag  1:
 RMSU=  4.50D-09    CP:  9.95D-01  9.82D-01  4.70D-01  6.12D-01  5.55D-01
                    CP:  6.18D-01  8.28D-01  7.21D-01  9.43D-01  8.39D-01
                    CP:  7.92D-01  7.99D-01
 E= -453.230641926181     Delta-E=       -0.000000000001 Rises=F Damp=F
 DIIS: error= 1.10D-08 at cycle  13 NSaved=  13.
 NSaved=13 IEnMin=13 EnMin= -453.230641926181     IErMin=13 ErrMin= 1.10D-08
 ErrMax= 1.10D-08  0.00D+00 EMaxC= 1.00D-01 BMatC= 2.85D-14 BMatP= 1.81D-12
 IDIUse=1 WtCom= 1.00D+00 WtEn= 0.00D+00
 Coeff-Com:  0.990D-07 0.489D-05 0.283D-05-0.108D-05-0.425D-04-0.166D-03
 Coeff-Com: -0.832D-03-0.138D-02-0.280D-02 0.512D-03 0.424D-01 0.137D+00
 Coeff-Com:  0.826D+00
 Coeff:      0.990D-07 0.489D-05 0.283D-05-0.108D-05-0.425D-04-0.166D-03
 Coeff:     -0.832D-03-0.138D-02-0.280D-02 0.512D-03 0.424D-01 0.137D+00
 Coeff:      0.826D+00
 Gap=     0.136 Goal=   None    Shift=    0.000
 RMSDP=2.33D-09 MaxDP=1.15D-07 DE=-1.36D-12 OVMax= 1.05D-07

 SCF Done:  E(RB3LYP) =  -453.230641926     A.U. after   13 cycles
            NFock= 13  Conv=0.23D-08     -V/T= 2.0036
 KE= 4.516250524418D+02 PE=-1.813934729786D+03 EE= 5.338215458445D+02
 Leave Link  502 at Tue Jan 31 22:07:46 2023, MaxMem=  8053063680 cpu:             203.0 elap:               6.4
 (Enter /public3/home/scg5914/software-scg5914/g16/l701.exe)
 ... and contract with generalized density number  0.
 Compute integral first derivatives.
 R6Disp: Adding Grimme-D3(BJ) dispersion energy 1st derivatives to the gradient.
 Leave Link  701 at Tue Jan 31 22:07:46 2023, MaxMem=  8053063680 cpu:               3.1 elap:               0.1
 (Enter /public3/home/scg5914/software-scg5914/g16/l702.exe)
 L702 exits ... SP integral derivatives will be done elsewhere.
 Leave Link  702 at Tue Jan 31 22:07:46 2023, MaxMem=  8053063680 cpu:               0.3 elap:               0.0
 (Enter /public3/home/scg5914/software-scg5914/g16/l703.exe)
 Integral derivatives from FoFJK, PRISM(SPDF).
 Compute integral first derivatives, UseDBF=F ICtDFT=           0.
 Calling FoFJK, ICntrl=      2127 FMM=F ISym2X=0 I1Cent= 0 IOpClX= 0 NMat=1 NMatS=1 NMatT=0.
 FoFJK:  IHMeth= 1 ICntrl=    2127 DoSepK=F KAlg= 0 I1Cent=           0 FoldK=F
 IRaf=         0 NMat=       1 IRICut=       1 DoRegI=T DoRafI=F ISym2E= 0 IDoP0=0 IntGTp=1.
 FoFCou: FMM=F IPFlag=           0 FMFlag=      100000 FMFlg1=         800
         NFxFlg=           0 DoJE=F BraDBF=F KetDBF=F FulRan=T
         wScrn=  0.000000 ICntrl=      2127 IOpCl=  0 I1Cent=           0 NGrid=           0
         NMat0=    1 NMatS0=      1 NMatT0=    0 NMatD0=    1 NMtDS0=    0 NMtDT0=    0
 Symmetry not used in FoFCou.
 Leave Link  703 at Tue Jan 31 22:07:47 2023, MaxMem=  8053063680 cpu:              34.4 elap:               1.1
 (Enter /public3/home/scg5914/software-scg5914/g16/l716.exe)
 Dipole        = 6.36372773D+00-1.18146455D+00 6.27066913D-02
 ***** Axes restored to original set *****
 -------------------------------------------------------------------
 Center     Atomic                   Forces (Hartrees/Bohr)
 Number     Number              X              Y              Z
 -------------------------------------------------------------------
      1        7           0.002852421    0.001416754   -0.000008530
      2        6          -0.012669893    0.004694769    0.003963269
      3        7           0.001051491   -0.000690111   -0.000158106
      4        1           0.000885050    0.000776596   -0.000167099
      5        1          -0.000075229    0.000135494    0.000050656
      6        8           0.007138701   -0.009921205   -0.004012768
      7        6          -0.002084148    0.003378000    0.000146436
      8        6           0.004093579    0.001077449    0.001972612
      9        8          -0.001312253   -0.000795531   -0.000698477
     10        8          -0.002329038   -0.000311201   -0.000756983
     11        1           0.000489723    0.000465014   -0.000412818
     12        1           0.000648871   -0.000895343   -0.000368086
     13        1           0.001019126    0.000242895    0.000819484
     14        1           0.000291600    0.000426421   -0.000369590
 -------------------------------------------------------------------
 Cartesian Forces:  Max     0.012669893 RMS     0.003190907
 Leave Link  716 at Tue Jan 31 22:07:48 2023, MaxMem=  8053063680 cpu:               0.2 elap:               0.0
 (Enter /public3/home/scg5914/software-scg5914/g16/l103.exe)

 GradGradGradGradGradGradGradGradGradGradGradGradGradGradGradGradGradGrad
 Berny optimization.
 Using GEDIIS/GDIIS optimizer.
 FormGI is forming the generalized inverse of G from B-inverse, IUseBI=4.
 Internal  Forces:  Max     0.008669559 RMS     0.002016640
 Search for a local minimum.
 Step number   2 out of a maximum of   61
 All quantities printed in internal units (Hartrees-Bohrs-Radians)
 RMS Force = .20166D-02 SwitMx=.10000D-02 MixMth= 1
 Mixed Optimization -- RFO/linear search
 Update second derivatives using D2CorX and points    1    2
 DE= -1.46D-02 DEPred=-1.41D-02 R= 1.04D+00
 TightC=F SS=  1.41D+00  RLast= 2.66D-01 DXNew= 5.0454D-01 7.9918D-01
 Trust test= 1.04D+00 RLast= 2.66D-01 DXMaxT set to 5.05D-01
 ITU=  1  0
 Use linear search instead of GDIIS.
     Eigenvalues ---    0.00230   0.00230   0.00233   0.02143   0.02234
     Eigenvalues ---    0.02322   0.02408   0.02555   0.02569   0.06077
     Eigenvalues ---    0.07059   0.11253   0.13791   0.15988   0.16000
     Eigenvalues ---    0.16000   0.16074   0.22253   0.23224   0.24067
     Eigenvalues ---    0.25000   0.25000   0.25000   0.25622   0.30587
     Eigenvalues ---    0.32613   0.33650   0.35240   0.43242   0.44915
     Eigenvalues ---    0.46061   0.52001   0.55682   0.56565   0.85036
     Eigenvalues ---    0.86304
 RFO step:  Lambda=-1.09870552D-03 EMin= 2.29955325D-03
 Quartic linear search produced a step of  0.02730.
 Iteration  1 RMS(Cart)=  0.10075740 RMS(Int)=  0.00705012
 Iteration  2 RMS(Cart)=  0.00910334 RMS(Int)=  0.00258926
 Iteration  3 RMS(Cart)=  0.00007608 RMS(Int)=  0.00258852
 Iteration  4 RMS(Cart)=  0.00000045 RMS(Int)=  0.00258852
 ITry= 1 IFail=0 DXMaxC= 3.41D-01 DCOld= 1.00D+10 DXMaxT= 5.05D-01 DXLimC= 3.00D+00 Rises=F
 Variable       Old X    -DE/DX   Delta X   Delta X   Delta X     New X
                                 (Linear)    (Quad)   (Total)
    R1        2.52198   0.00337  -0.00058   0.00591   0.00533   2.52731
    R2        1.90063   0.00046  -0.00020   0.00094   0.00074   1.90137
    R3        1.91075  -0.00112  -0.00080  -0.00298  -0.00378   1.90698
    R4        2.52507   0.00036  -0.00153   0.00002  -0.00151   2.52356
    R5        2.43032  -0.00861  -0.00252  -0.01634  -0.01886   2.41147
    R6        1.90869  -0.00118  -0.00032  -0.00283  -0.00314   1.90554
    R7        1.90326  -0.00012  -0.00543  -0.00212  -0.00755   1.89571
    R8        2.86079  -0.00244  -0.00015  -0.00818  -0.00833   2.85246
    R9        2.98589  -0.00050  -0.00137  -0.00242  -0.00379   2.98209
   R10        2.06197  -0.00059  -0.00096  -0.00218  -0.00314   2.05884
   R11        2.05799  -0.00055  -0.00057  -0.00186  -0.00243   2.05556
   R12        2.33160  -0.00079  -0.00058  -0.00127  -0.00185   2.32975
   R13        2.34101   0.00196  -0.00018   0.00224   0.00206   2.34306
    A1        2.13978   0.00054  -0.00041   0.00438   0.00392   2.14371
    A2        2.03633   0.00007   0.00062   0.00135   0.00192   2.03824
    A3        2.08654  -0.00051  -0.00019  -0.00232  -0.00256   2.08398
    A4        2.12191  -0.00367   0.00143  -0.01470  -0.01328   2.10864
    A5        2.01181   0.00220  -0.00065   0.00887   0.00822   2.02003
    A6        2.14946   0.00147  -0.00077   0.00583   0.00506   2.15452
    A7        2.07592   0.00025   0.00107   0.00161   0.00268   2.07860
    A8        2.12641  -0.00023  -0.00097  -0.00133  -0.00230   2.12411
    A9        2.06929  -0.00001  -0.00014   0.00001  -0.00013   2.06916
   A10        2.11244   0.00867   0.00131   0.03575   0.03706   2.14950
   A11        1.92557   0.00010  -0.00055   0.00008  -0.00047   1.92510
   A12        1.89062  -0.00079   0.00048  -0.00709  -0.00661   1.88401
[...]
  30. LP (   1) O  10                /210. BD*(   1) C   8 - O   9            1.58    1.07    0.037
  31. LP (   2) O  10                /128. RY*(   2) C   8                    3.22    1.75    0.070
  31. LP (   2) O  10                /130. RY*(   4) C   8                    1.51    2.09    0.052
  31. LP (   2) O  10                /207. BD*(   1) C   7 - C   8           20.54    0.61    0.102
  31. LP (   2) O  10                /210. BD*(   1) C   8 - O   9           32.61    0.64    0.131
 203. BD*(   1) C   2 - O   9        / 49. RY*(   1) C   2                    0.75    0.82    0.073
 203. BD*(   1) C   2 - O   9        / 52. RY*(   4) C   2                    0.84    1.43    0.105
 203. BD*(   1) C   2 - O   9        /147. RY*(   4) O   9                    0.98    0.72    0.081
 203. BD*(   1) C   2 - O   9        /200. BD*(   1) N   1 - H  12            0.80    0.26    0.043
 203. BD*(   1) C   2 - O   9        /205. BD*(   1) N   3 - H   5            0.64    0.24    0.038
 203. BD*(   1) C   2 - O   9        /206. BD*(   1) O   6 - C   7            0.73    0.12    0.027
 203. BD*(   1) C   2 - O   9        /207. BD*(   1) C   7 - C   8            1.66    0.18    0.044
 203. BD*(   1) C   2 - O   9        /210. BD*(   1) C   8 - O   9            1.50    0.21    0.042
 210. BD*(   1) C   8 - O   9        /128. RY*(   2) C   8                    2.13    1.11    0.181
 210. BD*(   1) C   8 - O   9        /145. RY*(   2) O   9                    1.21    0.09    0.040
 210. BD*(   1) C   8 - O   9        /146. RY*(   3) O   9                    1.03    0.40    0.079
 210. BD*(   1) C   8 - O   9        /198. BD*(   1) N   1 - C   2            2.25    0.01    0.016
 212. BD*(   2) C   8 - O  10        /129. RY*(   3) C   8                    1.63    1.59    0.137
 212. BD*(   2) C   8 - O  10        /163. RY*(   3) O  10                    1.03    0.70    0.073
 212. BD*(   2) C   8 - O  10        /208. BD*(   1) C   7 - H  13            1.27    0.34    0.054
 212. BD*(   2) C   8 - O  10        /209. BD*(   1) C   7 - H  14            1.12    0.36    0.053
 212. BD*(   2) C   8 - O  10        /211. BD*(   1) C   8 - O  10            0.75    0.62    0.057


 Natural Bond Orbitals (Summary):

                                                            Principal Delocalizations
           NBO                        Occupancy    Energy   (geminal,vicinal,remote)
 ====================================================================================
 Molecular unit  1  (C3H6N2O3)
     1. BD (   1) N   1 - C   2          1.98954    -0.83586  204(v),206(v),210(v),66(v)
     2. BD (   1) N   1 - H  11          1.98318    -0.65851  202(v),201(v),51(v),50(v)
                                                    56(v),203(v)
     3. BD (   1) N   1 - H  12          1.98364    -0.65627  201(v),51(v),203(v),54(v)
     4. BD (   1) C   2 - N   3          1.98994    -0.81742  200(v)
     5. BD (   1) C   2 - O   6          1.98447    -0.87299  112(v),205(v),203(g),199(v)
                                                    207(v),209(v)
     6. BD (   1) C   2 - O   9          1.98046    -0.79066  211(v),130(v),203(g),202(g)
                                                    128(v)
     7. BD (   1) N   3 - H   4          1.98358    -0.65914  198(v),50(v),202(v)
     8. BD (   1) N   3 - H   5          1.98117    -0.65654  202(v),50(v),203(v),55(v)
     9. BD (   1) O   6 - C   7          1.98487    -0.83919  211(v),49(v),203(v),198(v)
    10. BD (   1) C   7 - C   8          1.98894    -0.67476  161(v),211(g),144(v),198(r)
    11. BD (   1) C   7 - H  13          1.97415    -0.55387  212(v),202(v),93(v),210(v)
    12. BD (   1) C   7 - H  14          1.97567    -0.55249  212(v),202(v),210(v)
    13. BD (   1) C   8 - O   9          1.98980    -0.93521  49(v),202(v),198(v),206(v)
                                                    211(g)
    14. BD (   1) C   8 - O  10          1.99564    -1.11040  127(g),207(g),203(v),210(g)
    15. BD (   2) C   8 - O  10          1.99395    -0.40824  208(v),212(g),209(v)
    16. CR (   1) N   1                  1.99934   -14.14913  51(v),54(v),50(v),179(v)
    17. CR (   1) C   2                  1.99946   -10.25630  203(g),206(v)
    18. CR (   1) N   3                  1.99940   -14.15521  50(v),84(v)
    19. CR (   1) O   6                  1.99973   -18.95460  49(v),110(v),51(v)
    20. CR (   1) C   7                  1.99915   -10.13383  206(g),202(v),128(v),211(v)
    21. CR (   1) C   8                  1.99944   -10.20358  203(v)
    22. CR (   1) O   9                  1.99973   -18.96559  128(v),49(v),130(v),50(v)
    23. CR (   1) O  10                  1.99973   -18.85401  127(v),207(v),210(v)
    24. LP (   1) N   1                  1.87758    -0.30477  203(v),202(v),49(v),178(v)
                                                    183(v),53(v),54(v)
    25. LP (   1) N   3                  1.91333    -0.33422  203(v),198(v),83(v),88(v)
                                                    50(v),52(v),51(v)
    26. LP (   1) O   6                  1.95923    -0.60204  110(v),49(v),203(v),209(v)
                                                    207(v),51(v),198(v),52(v)
    27. LP (   2) O   6                  1.90738    -0.33281  201(v),208(v),203(v),198(v)
                                                    209(v),111(v),207(v),55(v)
                                                    53(v),50(v),205(r)
    28. LP (   1) O   9                  1.96287    -0.62592  207(v),49(v),128(v),202(v)
                                                    131(v),130(v),50(v),211(v)
    29. LP (   2) O   9                  1.78242    -0.34340  212(v),201(v),129(v),198(v)
                                                    202(v)
    30. LP (   1) O  10                  1.97990    -0.70887  127(v),207(v),210(v),137(v)
                                                    141(v),162(g)
    31. LP (   2) O  10                  1.83528    -0.27516  210(v),207(v),128(v),130(v)
    32. RY*(   1) N   1                  0.00302     0.69767   
    33. RY*(   2) N   1                  0.00185     0.58852   
    34. RY*(   3) N   1                  0.00095     1.23111   
    35. RY*(   4) N   1                  0.00023     1.34914   
    36. RY*(   5) N   1                  0.00019     1.03582   
    37. RY*(   6) N   1                  0.00015     2.41224   
    38. RY*(   7) N   1                  0.00008     2.62104   
    39. RY*(   8) N   1                  0.00003     0.87865   
    40. RY*(   9) N   1                  0.00003     1.56199   
    41. RY*(  10) N   1                  0.00003     1.32032   
    42. RY*(  11) N   1                  0.00000     1.80074   
    43. RY*(  12) N   1                  0.00000     3.94440   
    44. RY*(  13) N   1                  0.00000     3.70644   
    45. RY*(  14) N   1                  0.00000     2.63105   
    46. RY*(  15) N   1                  0.00000     2.18716   
    47. RY*(  16) N   1                  0.00001     2.57798   
    48. RY*(  17) N   1                  0.00000    35.23085   
    49. RY*(   1) C   2                  0.01284     0.97174   
    50. RY*(   2) C   2                  0.00956     0.89349   
    51. RY*(   3) C   2                  0.00571     1.18235   
    52. RY*(   4) C   2                  0.00420     1.58136   
    53. RY*(   5) C   2                  0.00360     1.57818   
    54. RY*(   6) C   2                  0.00286     1.37473   
    55. RY*(   7) C   2                  0.00240     1.65129   
    56. RY*(   8) C   2                  0.00190     2.06820   
    57. RY*(   9) C   2                  0.00131     1.47369   
    58. RY*(  10) C   2                  0.00020     2.94806   
    59. RY*(  11) C   2                  0.00006     1.65507   
    60. RY*(  12) C   2                  0.00005     1.49259   
    61. RY*(  13) C   2                  0.00002     1.66897   
    62. RY*(  14) C   2                  0.00002     1.22071   
    63. RY*(  15) C   2                  0.00001     2.48977   
    64. RY*(  16) C   2                  0.00001    21.32517   
    65. RY*(  17) C   2                  0.00001     1.43584   
    66. RY*(   1) N   3                  0.00284     0.59794   
    67. RY*(   2) N   3                  0.00159     0.92136   
    68. RY*(   3) N   3                  0.00133     0.69596   
    69. RY*(   4) N   3                  0.00030     1.09510   
    70. RY*(   5) N   3                  0.00018     1.18557   
    71. RY*(   6) N   3                  0.00013     1.76834   
    72. RY*(   7) N   3                  0.00011     3.46635   
    73. RY*(   8) N   3                  0.00008     1.46699   
    74. RY*(   9) N   3                  0.00005     0.83414   
    75. RY*(  10) N   3                  0.00004     1.64094   
    76. RY*(  11) N   3                  0.00002     1.08424   
    77. RY*(  12) N   3                  0.00001     3.27349   
    78. RY*(  13) N   3                  0.00000     2.33286   
    79. RY*(  14) N   3                  0.00000     4.21885   
    80. RY*(  15) N   3                  0.00000    35.21537   
    81. RY*(  16) N   3                  0.00000     2.36216   
    82. RY*(  17) N   3                  0.00000     3.43411   
    83. RY*(   1) H   4                  0.00095     1.81694   
    84. RY*(   2) H   4                  0.00070     1.31804   
    85. RY*(   3) H   4                  0.00023     1.74138   
    86. RY*(   4) H   4                  0.00016     1.60741   
    87. RY*(   5) H   4                  0.00003     2.38513   
    88. RY*(   1) H   5                  0.00098     1.59565   
    89. RY*(   2) H   5                  0.00055     1.49119   
    90. RY*(   3) H   5                  0.00026     1.51499   
    91. RY*(   4) H   5                  0.00019     1.83976   
    92. RY*(   5) H   5                  0.00002     2.46457   
    93. RY*(   1) O   6                  0.00379     0.69014   
    94. RY*(   2) O   6                  0.00303     0.47495   
    95. RY*(   3) O   6                  0.00173     1.13611   
    96. RY*(   4) O   6                  0.00088     0.87602   
    97. RY*(   5) O   6                  0.00055     1.16427   
    98. RY*(   6) O   6                  0.00043     1.19046   
    99. RY*(   7) O   6                  0.00023     1.23526   
   100. RY*(   8) O   6                  0.00009     2.48092   
   101. RY*(   9) O   6                  0.00004     3.07850   
   102. RY*(  10) O   6                  0.00005     2.98859   
   103. RY*(  11) O   6                  0.00001     4.78133   
   104. RY*(  12) O   6                  0.00001     4.33016   
   105. RY*(  13) O   6                  0.00002     2.85385   
   106. RY*(  14) O   6                  0.00000     4.90927   
   107. RY*(  15) O   6                  0.00000     3.15104   
   108. RY*(  16) O   6                  0.00000    49.41716   
   109. RY*(  17) O   6                  0.00001     2.87553   
   110. RY*(   1) C   7                  0.00485     0.87000   
   111. RY*(   2) C   7                  0.00232     1.61768   
   112. RY*(   3) C   7                  0.00195     1.13225   
   113. RY*(   4) C   7                  0.00086     1.58570   
   114. RY*(   5) C   7                  0.00067     0.89656   
   115. RY*(   6) C   7                  0.00057     0.81027   
   116. RY*(   7) C   7                  0.00022     1.37267   
   117. RY*(   8) C   7                  0.00019     1.77139   
   118. RY*(   9) C   7                  0.00011     1.65442   
   119. RY*(  10) C   7                  0.00009     1.85255   
   120. RY*(  11) C   7                  0.00003     1.39944   
   121. RY*(  12) C   7                  0.00004     1.28306   
   122. RY*(  13) C   7                  0.00001     1.28916   
   123. RY*(  14) C   7                  0.00000    22.81875   
   124. RY*(  15) C   7                  0.00000     2.07199   
   125. RY*(  16) C   7                  0.00000     2.40502   
   126. RY*(  17) C   7                  0.00001     2.07434   
   127. RY*(   1) C   8                  0.01487     1.06741   
   128. RY*(   2) C   8                  0.01202     1.47373   
   129. RY*(   3) C   8                  0.00650     1.59711   
   130. RY*(   4) C   8                  0.00325     1.81879   
   131. RY*(   5) C   8                  0.00227     2.18292   
   132. RY*(   6) C   8                  0.00114     1.29675   
   133. RY*(   7) C   8                  0.00045     0.98853   
   134. RY*(   8) C   8                  0.00020     4.50085   
   135. RY*(   9) C   8                  0.00016     1.10040   
   136. RY*(  10) C   8                  0.00011     1.83778   
   137. RY*(  11) C   8                  0.00009     1.79828   
   138. RY*(  12) C   8                  0.00006     1.97638   
   139. RY*(  13) C   8                  0.00003     3.65123   
   140. RY*(  14) C   8                  0.00001    14.91425   
   141. RY*(  15) C   8                  0.00002     1.32500   
   142. RY*(  16) C   8                  0.00001     2.82057   
   143. RY*(  17) C   8                  0.00001     1.63879   
   144. RY*(   1) O   9                  0.00360     0.43026   
   145. RY*(   2) O   9                  0.00261     0.44748   
   146. RY*(   3) O   9                  0.00207     0.76206   
   147. RY*(   4) O   9                  0.00191     0.87215   
   148. RY*(   5) O   9                  0.00067     0.95500   
   149. RY*(   6) O   9                  0.00061     1.89148   
   150. RY*(   7) O   9                  0.00037     1.58091   
   151. RY*(   8) O   9                  0.00014     2.68794   
   152. RY*(   9) O   9                  0.00007     3.45337   
   153. RY*(  10) O   9                  0.00008     3.42194   
   154. RY*(  11) O   9                  0.00005     1.97629   
   155. RY*(  12) O   9                  0.00002     4.54981   
   156. RY*(  13) O   9                  0.00002     4.13336   
   157. RY*(  14) O   9                  0.00000     4.90903   
   158. RY*(  15) O   9                  0.00000     2.88025   
   159. RY*(  16) O   9                  0.00000    49.28474   
   160. RY*(  17) O   9                  0.00001     3.23830   
   161. RY*(   1) O  10                  0.00315     0.69948   
   162. RY*(   2) O  10                  0.00091     0.96596   
   163. RY*(   3) O  10                  0.00072     0.70665   
   164. RY*(   4) O  10                  0.00019     1.10969   
   165. RY*(   5) O  10                  0.00011     4.34185   
   166. RY*(   6) O  10                  0.00008     1.06916   
   167. RY*(   7) O  10                  0.00004     2.11704   
   168. RY*(   8) O  10                  0.00004     1.22051   
   169. RY*(   9) O  10                  0.00001     3.77777   
   170. RY*(  10) O  10                  0.00000    49.25701   
   171. RY*(  11) O  10                  0.00001     2.17369   
   172. RY*(  12) O  10                  0.00000     4.97228   
   173. RY*(  13) O  10                  0.00000     3.52825   
   174. RY*(  14) O  10                  0.00000     3.03753   
   175. RY*(  15) O  10                  0.00000     2.75316   
   176. RY*(  16) O  10                  0.00000     3.36844   
   177. RY*(  17) O  10                  0.00000     2.91876   
   178. RY*(   1) H  11                  0.00096     1.61501   
   179. RY*(   2) H  11                  0.00082     1.21529   
   180. RY*(   3) H  11                  0.00020     1.66576   
   181. RY*(   4) H  11                  0.00016     2.07769   
   182. RY*(   5) H  11                  0.00003     2.31024   
   183. RY*(   1) H  12                  0.00097     1.70869   
   184. RY*(   2) H  12                  0.00056     1.48406   
   185. RY*(   3) H  12                  0.00023     1.93776   
   186. RY*(   4) H  12                  0.00018     1.45816   
   187. RY*(   5) H  12                  0.00002     2.30158   
   188. RY*(   1) H  13                  0.00121     0.61919   
   189. RY*(   2) H  13                  0.00031     1.89523   
   190. RY*(   3) H  13                  0.00016     1.99129   
   191. RY*(   4) H  13                  0.00010     2.06807   
   192. RY*(   5) H  13                  0.00004     2.45017   
   193. RY*(   1) H  14                  0.00086     0.54030   
   194. RY*(   2) H  14                  0.00030     1.94669   
   195. RY*(   3) H  14                  0.00013     1.98702   
   196. RY*(   4) H  14                  0.00010     2.37140   
   197. RY*(   5) H  14                  0.00004     2.08367   
   198. BD*(   1) N   1 - C   2          0.04690     0.37248   
   199. BD*(   1) N   1 - H  11          0.00581     0.41163   
   200. BD*(   1) N   1 - H  12          0.00698     0.41185   
   201. BD*(   1) C   2 - N   3          0.05386     0.33314   
   202. BD*(   1) C   2 - O   6          0.08873     0.25507   
   203. BD*(   1) C   2 - O   9          0.16944     0.15602  207(v),147(g),210(g),52(g)
                                                    200(v),49(g),206(v),205(v)
   204. BD*(   1) N   3 - H   4          0.00520     0.40172   
   205. BD*(   1) N   3 - H   5          0.00624     0.39949   
   206. BD*(   1) O   6 - C   7          0.01436     0.27239   
   207. BD*(   1) C   7 - C   8          0.08109     0.33593   
   208. BD*(   1) C   7 - H  13          0.02544     0.34679   
   209. BD*(   1) C   7 - H  14          0.01769     0.36451   
   210. BD*(   1) C   8 - O   9          0.10324     0.36124  209(v),206(v),128(g),198(v)
                                                    145(g),146(g),208(v),203(g)
   211. BD*(   1) C   8 - O  10          0.01598     0.62309   
   212. BD*(   2) C   8 - O  10          0.21511     0.00314  129(g),208(v),209(v),163(g)
                                                    211(g)
       -------------------------------
              Total Lewis   60.99294  ( 98.3757%)
        Valence non-Lewis    0.85607  (  1.3808%)
        Rydberg non-Lewis    0.15099  (  0.2435%)
       -------------------------------
            Total unit  1   62.00000  (100.0000%)
           Charge unit  1    0.00000
 Leave Link  607 at Tue Jan 31 22:13:17 2023, MaxMem=  8053063680 cpu:              51.9 elap:               1.6
 (Enter /public3/home/scg5914/software-scg5914/g16/l9999.exe)
 Unable to Open any file for archive entry.
 1\1\GINC-H0903\SP\RB3LYP\Gen\C3H6N2O3\SCG5914\31-Jan-2023\0\\#p b3lyp/
 chkbas pop=nbo geom=allcheck guess=tcheck em=gd3bj\\dsgdb9nsd_006075.g
 jf\\0,1\N,0,2.1414325892,1.0739434831,0.1702949444\C,0,1.2743666283,0.
 0003432899,-0.0629732846\N,0,1.9284005852,-1.0369266917,-0.7936479735\
 H,0,1.5206756509,-1.9432259932,-0.6037460169\H,0,1.9191921077,-0.85502
 69709,-1.7907636583\O,0,0.7405970634,-0.4896171847,1.150130912\C,0,-0.
 625768636,-0.8250665584,0.9632444184\C,0,-1.0544517357,-0.0475700837,-
 0.2692675812\O,0,0.0556888874,0.4870558182,-0.8091129824\O,0,-2.162074
 562,0.0800474216,-0.7080279036\H,0,2.9281544171,1.1095343943,-0.459541
 2612\H,0,1.6789227155,1.9635575015,0.2913378862\H,0,-0.7722525121,-1.8
 991840489,0.7966327068\H,0,-1.2000501991,-0.5223323771,1.8387827937\\V
 ersion=ES64L-G16RevC.01\State=1-A\HF=-453.2701597\RMSD=2.323e-09\Dipol
 e=0.7693733,-0.3370797,-0.0910335\Quadrupole=-6.1376787,5.8159266,0.32
 17521,3.575812,-7.7165602,1.2585217\PG=C01 [X(C3H6N2O3)]\\@
 The archive entry for this job was punched.


 AND THIS OUR LIFE, EXEMPT FROM PUBLIC HAUNT,
 FINDS TONGUES IN TREES, BOOKS IN THE RUNNING BROOKS,
 SERMONS IN STONES, AND GOOD IN EVERYTHING.
 I WOULD NOT CHANGE IT. -- W. SHAKESPEARE
 AS YOU LIKE IT, ACT II, SCENE 1.
 Job cpu time:       0 days  0 hours  1 minutes 29.2 seconds.
 Elapsed time:       0 days  0 hours  0 minutes  2.9 seconds.
 File lengths (MBytes):  RWF=     29 Int=      0 D2E=      0 Chk=      5 Scr=      1
 Normal termination of Gaussian 16 at Tue Jan 31 22:13:17 2023.
