 Entering Gaussian System, Link 0=/public3/home/scg5914/software-scg5914/g16/g16
 Input=dsgdb9nsd_000923-3+.gjf
 Output=dsgdb9nsd_000923-3+.log
 Initial command:
 /public3/home/scg5914/software-scg5914/g16/l1.exe "/public3/home/scg5914/software-scg5914/test/tmp/dsgdb9nsd_000923-3+/Gau-145159.inp" -scrdir="/public3/home/scg5914/software-scg5914/test/tmp/dsgdb9nsd_000923-3+/"
 Entering Link 1 = /public3/home/scg5914/software-scg5914/g16/l1.exe PID=    145160.
  
 Copyright (c) 1988-2019, Gaussian, Inc.  All Rights Reserved.
  
 This is part of the Gaussian(R) 16 program.  It is based on
 the Gaussian(R) 09 system (copyright 2009, Gaussian, Inc.),
 the Gaussian(R) 03 system (copyright 2003, Gaussian, Inc.),
 the Gaussian(R) 98 system (copyright 1998, Gaussian, Inc.),
 the Gaussian(R) 94 system (copyright 1995, Gaussian, Inc.),
 the Gaussian 92(TM) system (copyright 1992, Gaussian, Inc.),
 the Gaussian 90(TM) system (copyright 1990, Gaussian, Inc.),
 the Gaussian 88(TM) system (copyright 1988, Gaussian, Inc.),
 the Gaussian 86(TM) system (copyright 1986, Carnegie Mellon
 University), and the Gaussian 82(TM) system (copyright 1983,
 Carnegie Mellon University). Gaussian is a federally registered
 trademark of Gaussian, Inc.
  
 This software contains proprietary and confidential information,
 including trade secrets, belonging to Gaussian, Inc.
  
 This software is provided under written license and may be
 used, copied, transmitted, or stored only in accord with that
 written license.
  
 The following legend is applicable only to US Government
 contracts under FAR:
  
                    RESTRICTED RIGHTS LEGEND
  
 Use, reproduction and disclosure by the US Government is
 subject to restrictions as set forth in subparagraphs (a)
 and (c) of the Commercial Computer Software - Restricted
 Rights clause in FAR 52.227-19.
  
 Gaussian, Inc.
 340 Quinnipiac St., Bldg. 40, Wallingford CT 06492
  
  
 ---------------------------------------------------------------
 Warning -- This program may not be used in any manner that
 competes with the business of Gaussian, Inc. or will provide
 assistance to any competitor of Gaussian, Inc.  The licensee
 of this program is prohibited from giving any competitor of
 Gaussian, Inc. access to this program.  By using this program,
 the user acknowledges that Gaussian, Inc. is engaged in the
 business of creating and licensing software in the field of
 computational chemistry and represents and warrants to the
 licensee that it is not a competitor of Gaussian, Inc. and that
 it will not use this program in any manner prohibited above.
 ---------------------------------------------------------------
  

 Cite this work as:
 Gaussian 16, Revision C.01,
 M. J. Frisch, G. W. Trucks, H. B. Schlegel, G. E. Scuseria, 
 M. A. Robb, J. R. Cheeseman, G. Scalmani, V. Barone, 
 G. A. Petersson, H. Nakatsuji, X. Li, M. Caricato, A. V. Marenich, 
 J. Bloino, B. G. Janesko, R. Gomperts, B. Mennucci, H. P. Hratchian, 
 J. V. Ortiz, A. F. Izmaylov, J. L. Sonnenberg, D. Williams-Young, 
 F. Ding, F. Lipparini, F. Egidi, J. Goings, B. Peng, A. Petrone, 
 T. Henderson, D. Ranasinghe, V. G. Zakrzewski, J. Gao, N. Rega, 
 G. Zheng, W. Liang, M. Hada, M. Ehara, K. Toyota, R. Fukuda, 
 J. Hasegawa, M. Ishida, T. Nakajima, Y. Honda, O. Kitao, H. Nakai, 
 T. Vreven, K. Throssell, J. A. Montgomery, Jr., J. E. Peralta, 
 F. Ogliaro, M. J. Bearpark, J. J. Heyd, E. N. Brothers, K. N. Kudin, 
 V. N. Staroverov, T. A. Keith, R. Kobayashi, J. Normand, 
 K. Raghavachari, A. P. Rendell, J. C. Burant, S. S. Iyengar, 
 J. Tomasi, M. Cossi, J. M. Millam, M. Klene, C. Adamo, R. Cammi, 
 J. W. Ochterski, R. L. Martin, K. Morokuma, O. Farkas, 
 J. B. Foresman, and D. J. Fox, Gaussian, Inc., Wallingford CT, 2019.
 
 ******************************************
 Gaussian 16:  ES64L-G16RevC.01  3-Jul-2019
                21-Oct-2022 
 ******************************************
 %chk=dsgdb9nsd_000923-3.chk
 %mem=60GB
 %nprocshared=32
 Will use up to   32 processors via shared memory.
 ------------------------------------
 #p opt freq b3lyp/6-311+g** em=gd3bj
 ------------------------------------
 1/18=20,19=15,26=3,38=1/1,3;
 2/9=110,12=2,17=6,18=5,40=1/2;
 3/5=4,6=6,7=111,11=2,25=1,30=1,71=1,74=-5,124=41/1,2,3;
 4//1;
 5/5=2,38=5/2;
 6/7=2,8=2,9=2,10=2,28=1/1;
 7//1,2,3,16;
 1/18=20,19=15,26=3/3(2);
 2/9=110/2;
 99//99;
 2/9=110/2;
 3/5=4,6=6,7=111,11=2,25=1,30=1,71=1,74=-5,124=41/1,2,3;
 4/5=5,16=3,69=1/1;
 5/5=2,38=5/2;
 7//1,2,3,16;
 1/18=20,19=15,26=3/3(-5);
 2/9=110/2;
 6/7=2,8=2,9=2,10=2,19=2,28=1/1;
 99/9=1/99;
 Leave Link    1 at Fri Oct 21 08:00:48 2022, MaxMem=  8053063680 cpu:               0.9 elap:               0.0
 (Enter /public3/home/scg5914/software-scg5914/g16/l101.exe)
 ------------------
 dsgdb9nsd_000923-3
 ------------------
 Symbolic Z-matrix:
 Charge =  1 Multiplicity = 1
 O                    -0.05008  -0.08348   0.0037 
 C                     0.02331   1.12893   0.00901 
 N                    -1.15505   1.91877   0.02862 
 C                    -1.16229   3.27301   0.03556 
 N                    -0.09557   4.00941   0.02508 
 C                     1.0941    3.3192    0.00573 
 C                     1.20665   1.96458  -0.00262 
 H                    -2.02333   1.39889   0.03753 
 H                    -2.14284   3.74312   0.05097 
 H                     2.16802   1.46727  -0.01799 
 
 ITRead=  0  0  0  0  0  0  0  0  0  0
 MicOpt= -1 -1 -1 -1 -1 -1 -1 -1 -1 -1
 NAtoms=     10 NQM=       10 NQMF=       0 NMMI=      0 NMMIF=      0
                NMic=       0 NMicF=      0.
                    Isotopes and Nuclear Properties:
 (Nuclear quadrupole moments (NQMom) in fm**2, nuclear magnetic moments (NMagM)
  in nuclear magnetons)

  Atom         1           2           3           4           5           6           7           8           9          10
 IAtWgt=          16          12          14          12          14          12          12           1           1           1
 AtmWgt=  15.9949146  12.0000000  14.0030740  12.0000000  14.0030740  12.0000000  12.0000000   1.0078250   1.0078250   1.0078250
 NucSpn=           0           0           2           0           2           0           0           1           1           1
 AtZEff=  -0.0000000  -0.0000000  -0.0000000  -0.0000000  -0.0000000  -0.0000000  -0.0000000  -0.0000000  -0.0000000  -0.0000000
 NQMom=    0.0000000   0.0000000   2.0440000   0.0000000   2.0440000   0.0000000   0.0000000   0.0000000   0.0000000   0.0000000
 NMagM=    0.0000000   0.0000000   0.4037610   0.0000000   0.4037610   0.0000000   0.0000000   2.7928460   2.7928460   2.7928460
 AtZNuc=   8.0000000   6.0000000   7.0000000   6.0000000   7.0000000   6.0000000   6.0000000   1.0000000   1.0000000   1.0000000
 Leave Link  101 at Fri Oct 21 08:00:48 2022, MaxMem=  8053063680 cpu:               4.1 elap:               0.1
 (Enter /public3/home/scg5914/software-scg5914/g16/l103.exe)

 GradGradGradGradGradGradGradGradGradGradGradGradGradGradGradGradGradGrad
 Berny optimization.
 Initialization pass.
                           ----------------------------
                           !    Initial Parameters    !
                           ! (Angstroms and Degrees)  !
 --------------------------                            --------------------------
 ! Name  Definition              Value          Derivative Info.                !
 --------------------------------------------------------------------------------
 ! R1    R(1,2)                  1.2146         estimate D2E/DX2                !
 ! R2    R(2,3)                  1.4187         estimate D2E/DX2                !
 ! R3    R(2,7)                  1.4487         estimate D2E/DX2                !
 ! R4    R(3,4)                  1.3543         estimate D2E/DX2                !
 ! R5    R(3,8)                  1.0121         estimate D2E/DX2                !
 ! R6    R(4,5)                  1.2963         estimate D2E/DX2                !
 ! R7    R(4,9)                  1.0875         estimate D2E/DX2                !
 ! R8    R(5,6)                  1.3755         estimate D2E/DX2                !
 ! R9    R(6,7)                  1.3593         estimate D2E/DX2                !
 ! R10   R(7,10)                 1.0825         estimate D2E/DX2                !
 ! A1    A(1,2,3)              120.3697         estimate D2E/DX2                !
 ! A2    A(1,2,7)              128.6887         estimate D2E/DX2                !
 ! A3    A(3,2,7)              110.9416         estimate D2E/DX2                !
 ! A4    A(2,3,4)              124.1402         estimate D2E/DX2                !
 ! A5    A(2,3,8)              115.2598         estimate D2E/DX2                !
 ! A6    A(4,3,8)              120.6            estimate D2E/DX2                !
 ! A7    A(3,4,5)              124.308          estimate D2E/DX2                !
 ! A8    A(3,4,9)              115.9224         estimate D2E/DX2                !
 ! A9    A(5,4,9)              119.7696         estimate D2E/DX2                !
 ! A10   A(4,5,6)              115.2639         estimate D2E/DX2                !
 ! A11   A(5,6,7)              124.8715         estimate D2E/DX2                !
 ! A12   A(2,7,6)              120.4748         estimate D2E/DX2                !
 ! A13   A(2,7,10)             117.4222         estimate D2E/DX2                !
 ! A14   A(6,7,10)             122.103          estimate D2E/DX2                !
 ! D1    D(1,2,3,4)           -179.9914         estimate D2E/DX2                !
 ! D2    D(1,2,3,8)              0.0099         estimate D2E/DX2                !
 ! D3    D(7,2,3,4)             -0.0066         estimate D2E/DX2                !
 ! D4    D(7,2,3,8)            179.9947         estimate D2E/DX2                !
 ! D5    D(1,2,7,6)            179.9902         estimate D2E/DX2                !
 ! D6    D(1,2,7,10)            -0.0108         estimate D2E/DX2                !
 ! D7    D(3,2,7,6)              0.0069         estimate D2E/DX2                !
 ! D8    D(3,2,7,10)          -179.994          estimate D2E/DX2                !
 ! D9    D(2,3,4,5)              0.0025         estimate D2E/DX2                !
 ! D10   D(2,3,4,9)           -179.9977         estimate D2E/DX2                !
 ! D11   D(8,3,4,5)           -179.9989         estimate D2E/DX2                !
 ! D12   D(8,3,4,9)              0.0009         estimate D2E/DX2                !
 ! D13   D(3,4,5,6)              0.0017         estimate D2E/DX2                !
 ! D14   D(9,4,5,6)           -179.9981         estimate D2E/DX2                !
 ! D15   D(4,5,6,7)             -0.001          estimate D2E/DX2                !
 ! D16   D(5,6,7,2)             -0.0037         estimate D2E/DX2                !
 ! D17   D(5,6,7,10)           179.9974         estimate D2E/DX2                !
 --------------------------------------------------------------------------------
 Trust Radius=3.00D-01 FncErr=1.00D-07 GrdErr=1.00D-06 EigMax=2.50D+02 EigMin=1.00D-04
 Number of steps in this run=     51 maximum allowed number of steps=    100.
 GradGradGradGradGradGradGradGradGradGradGradGradGradGradGradGradGradGrad

 Leave Link  103 at Fri Oct 21 08:00:48 2022, MaxMem=  8053063680 cpu:               0.2 elap:               0.0
 (Enter /public3/home/scg5914/software-scg5914/g16/l202.exe)
                          Input orientation:                          
 ---------------------------------------------------------------------
 Center     Atomic      Atomic             Coordinates (Angstroms)
 Number     Number       Type             X           Y           Z
 ---------------------------------------------------------------------
      1          8           0       -0.050081   -0.083482    0.003703
      2          6           0        0.023311    1.128931    0.009008
      3          7           0       -1.155053    1.918769    0.028623
      4          6           0       -1.162292    3.273010    0.035558
      5          7           0       -0.095574    4.009409    0.025083
      6          6           0        1.094104    3.319200    0.005732
      7          6           0        1.206648    1.964583   -0.002621
      8          1           0       -2.023334    1.398887    0.037534
      9          1           0       -2.142843    3.743121    0.050974
     10          1           0        2.168021    1.467274   -0.017995
 ---------------------------------------------------------------------
                    Distance matrix (angstroms):
                    1          2          3          4          5
     1  O    0.000000
     2  C    1.214644   0.000000
     3  N    2.287049   1.418721   0.000000
     4  C    3.536109   2.450191   1.354278   0.000000
     5  N    4.093200   2.882975   2.343776   1.296256   0.000000
     6  C    3.589903   2.438008   2.649610   2.257065   1.375535
     7  C    2.402910   1.448701   2.362351   2.706531   2.424430
     8  H    2.468257   2.064570   1.012062   2.062459   3.245188
     9  H    4.361740   3.395287   2.074726   1.087531   2.064678
    10  H    2.706527   2.171402   3.353929   3.788738   3.404140
                    6          7          8          9         10
     6  C    0.000000
     7  C    1.359309   0.000000
     8  H    3.661561   3.279391   0.000000
     9  H    3.264902   3.792777   2.347316   0.000000
    10  H    2.140909   1.082494   4.192281   4.875222   0.000000
 Stoichiometry    C4H3N2O(1+)
 Framework group  C1[X(C4H3N2O)]
 Deg. of freedom    24
 Full point group                 C1      NOp   1
 Largest Abelian subgroup         C1      NOp   1
 Largest concise Abelian subgroup C1      NOp   1
                         Standard orientation:                         
 ---------------------------------------------------------------------
 Center     Atomic      Atomic             Coordinates (Angstroms)
 Number     Number       Type             X           Y           Z
 ---------------------------------------------------------------------
      1          8           0       -2.233486   -0.141037    0.000047
      2          6           0       -1.030607    0.027606   -0.000095
      3          7           0       -0.150332   -1.084997   -0.000010
      4          6           0        1.200292   -0.985570    0.000012
      5          7           0        1.850334    0.135914    0.000005
      6          6           0        1.068487    1.267644    0.000009
      7          6           0       -0.290811    1.273174    0.000000
      8          1           0       -0.600167   -1.991594    0.000015
      9          1           0        1.746237   -1.926137    0.000042
     10          1           0       -0.862360    2.192480    0.000047
 ---------------------------------------------------------------------
 Rotational constants (GHZ):           6.3295366           2.8528218           1.9664926
 Leave Link  202 at Fri Oct 21 08:00:48 2022, MaxMem=  8053063680 cpu:               0.2 elap:               0.0
 (Enter /public3/home/scg5914/software-scg5914/g16/l301.exe)
 Standard basis: 6-311+G(d,p) (5D, 7F)
 Ernie: Thresh=  0.10000D-02 Tol=  0.10000D-05 Strict=F.
 There are   179 symmetry adapted cartesian basis functions of A   symmetry.
 There are   172 symmetry adapted basis functions of A   symmetry.
   172 basis functions,   276 primitive gaussians,   179 cartesian basis functions
    24 alpha electrons       24 beta electrons
       nuclear repulsion energy       267.8649194994 Hartrees.
 IExCor=  402 DFT=T Ex+Corr=B3LYP ExCW=0 ScaHFX=  0.200000
 ScaDFX=  0.800000  0.720000  1.000000  0.810000 ScalE2=  1.000000  1.000000
 IRadAn=      5 IRanWt=     -1 IRanGd=            0 ICorTp=0 IEmpDi=141
 NAtoms=   10 NActive=   10 NUniq=   10 SFac= 1.00D+00 NAtFMM=   60 NAOKFM=F Big=F
 Integral buffers will be    131072 words long.
 Raffenetti 2 integral format.
 Two-electron integral symmetry is turned on.
 R6Disp:  Grimme-D3(BJ) Dispersion energy=       -0.0163878318 Hartrees.
 Nuclear repulsion after empirical dispersion term =      267.8485316676 Hartrees.
 Leave Link  301 at Fri Oct 21 08:00:49 2022, MaxMem=  8053063680 cpu:               0.9 elap:               0.0
 (Enter /public3/home/scg5914/software-scg5914/g16/l302.exe)
 NPDir=0 NMtPBC=     1 NCelOv=     1 NCel=       1 NClECP=     1 NCelD=      1
         NCelK=      1 NCelE2=     1 NClLst=     1 CellRange=     0.0.
 One-electron integrals computed using PRISM.
 One-electron integral symmetry used in STVInt
 NBasis=   172 RedAO= T EigKep=  2.69D-05  NBF=   172
 NBsUse=   172 1.00D-06 EigRej= -1.00D+00 NBFU=   172
 Precomputing XC quadrature grid using
 IXCGrd= 4 IRadAn=           5 IRanWt=          -1 IRanGd=           0 AccXCQ= 0.00D+00.
 Generated NRdTot=       0 NPtTot=           0 NUsed=           0 NTot=          32
 NSgBfM=   179   179   179   179   179 MxSgAt=    10 MxSgA2=    10.
 Leave Link  302 at Fri Oct 21 08:00:49 2022, MaxMem=  8053063680 cpu:               3.3 elap:               0.1
 (Enter /public3/home/scg5914/software-scg5914/g16/l303.exe)
 DipDrv:  MaxL=1.
 Leave Link  303 at Fri Oct 21 08:00:49 2022, MaxMem=  8053063680 cpu:               0.4 elap:               0.0
 (Enter /public3/home/scg5914/software-scg5914/g16/l401.exe)
 ExpMin= 4.38D-02 ExpMax= 8.59D+03 ExpMxC= 1.30D+03 IAcc=3 IRadAn=         5 AccDes= 0.00D+00
 Harris functional with IExCor=  402 and IRadAn=       5 diagonalized for initial guess.
 HarFok:  IExCor=  402 AccDes= 0.00D+00 IRadAn=         5 IDoV= 1 UseB2=F ITyADJ=14
 ICtDFT=  3500011 ScaDFX=  1.000000  1.000000  1.000000  1.000000
 FoFCou: FMM=F IPFlag=           0 FMFlag=      100000 FMFlg1=           0
         NFxFlg=           0 DoJE=T BraDBF=F KetDBF=T FulRan=T
         wScrn=  0.000000 ICntrl=       500 IOpCl=  0 I1Cent=   200000004 NGrid=           0
         NMat0=    1 NMatS0=      1 NMatT0=    0 NMatD0=    1 NMtDS0=    0 NMtDT0=    0
 Petite list used in FoFCou.
 Harris En= -338.719925236697    
 JPrj=0 DoOrth=F DoCkMO=F.
 Leave Link  401 at Fri Oct 21 08:00:49 2022, MaxMem=  8053063680 cpu:               8.1 elap:               0.3
 (Enter /public3/home/scg5914/software-scg5914/g16/l502.exe)
 Keep R1 ints in memory in canonical form, NReq=142859929.
 FoFCou: FMM=F IPFlag=           0 FMFlag=           0 FMFlg1=           0
         NFxFlg=           0 DoJE=F BraDBF=F KetDBF=F FulRan=T
         wScrn=  0.000000 ICntrl=       600 IOpCl=  0 I1Cent=           0 NGrid=           0
         NMat0=    1 NMatS0=  14878 NMatT0=    0 NMatD0=    1 NMtDS0=    0 NMtDT0=    0
 Symmetry not used in FoFCou.
 Two-electron integral symmetry not used.
 Closed shell SCF:
 Using DIIS extrapolation, IDIIS=  1040.
 NGot=  8053063680 LenX=  7942307003 LenY=  7942274521
 Requested convergence on RMS density matrix=1.00D-08 within 128 cycles.
 Requested convergence on MAX density matrix=1.00D-06.
 Requested convergence on             energy=1.00D-06.
 No special actions if energy rises.

 Cycle   1  Pass 1  IDiag  1:
 E= -338.424778995689    
 DIIS: error= 4.10D-02 at cycle   1 NSaved=   1.
 NSaved= 1 IEnMin= 1 EnMin= -338.424778995689     IErMin= 1 ErrMin= 4.10D-02
 ErrMax= 4.10D-02  0.00D+00 EMaxC= 1.00D-01 BMatC= 2.51D-01 BMatP= 2.51D-01
 IDIUse=3 WtCom= 5.90D-01 WtEn= 4.10D-01
 Coeff-Com:  0.100D+01
 Coeff-En:   0.100D+01
 Coeff:      0.100D+01
 Gap=    -0.125 Goal=   None    Shift=    0.000
 GapD=   -0.125 DampG=0.250 DampE=0.500 DampFc=0.2500 IDamp=-1.
 Damping current iteration by 2.50D-01
 RMSDP=9.77D-03 MaxDP=2.16D-01              OVMax= 7.65D-01

 Cycle   2  Pass 1  IDiag  1:
 E= -338.425357065952     Delta-E=       -0.000578070264 Rises=F Damp=T
 DIIS: error= 3.09D-02 at cycle   2 NSaved=   2.
 NSaved= 2 IEnMin= 2 EnMin= -338.425357065952     IErMin= 2 ErrMin= 3.09D-02
 ErrMax= 3.09D-02  0.00D+00 EMaxC= 1.00D-01 BMatC= 5.68D-02 BMatP= 2.51D-01
 IDIUse=3 WtCom= 6.91D-01 WtEn= 3.09D-01
 Coeff-Com:  0.153D+00 0.847D+00
 Coeff-En:   0.499D+00 0.501D+00
 Coeff:      0.260D+00 0.740D+00
 Gap=     0.183 Goal=   None    Shift=    0.000
 RMSDP=4.04D-03 MaxDP=1.25D-01 DE=-5.78D-04 OVMax= 8.68D-01

 Cycle   3  Pass 1  IDiag  1:
 E= -338.437133902092     Delta-E=       -0.011776836140 Rises=F Damp=F
 DIIS: error= 6.39D-02 at cycle   3 NSaved=   3.
 NSaved= 3 IEnMin= 3 EnMin= -338.437133902092     IErMin= 2 ErrMin= 3.09D-02
 ErrMax= 6.39D-02  0.00D+00 EMaxC= 1.00D-01 BMatC= 1.89D-01 BMatP= 5.68D-02
 IDIUse=2 WtCom= 0.00D+00 WtEn= 1.00D+00
 EnCoef did     3 forward-backward iterations
 Coeff-En:   0.230D+00 0.381D+00 0.389D+00
 Coeff:      0.230D+00 0.381D+00 0.389D+00
 Gap=     0.022 Goal=   None    Shift=    0.000
 RMSDP=7.00D-03 MaxDP=1.62D-01 DE=-1.18D-02 OVMax= 7.94D-01

 Cycle   4  Pass 1  IDiag  1:
 E= -337.561802114666     Delta-E=        0.875331787426 Rises=F Damp=F
 DIIS: error= 1.59D-01 at cycle   4 NSaved=   4.
 NSaved= 4 IEnMin= 3 EnMin= -338.437133902092     IErMin= 2 ErrMin= 3.09D-02
 ErrMax= 1.59D-01  0.00D+00 EMaxC= 1.00D-01 BMatC= 9.77D-01 BMatP= 5.68D-02
 IDIUse=2 WtCom= 0.00D+00 WtEn= 1.00D+00
 EnCoef did   100 forward-backward iterations
 Coeff-En:   0.382D+00 0.682D-02 0.400D+00 0.211D+00
 Coeff:      0.382D+00 0.682D-02 0.400D+00 0.211D+00
 Gap=     0.045 Goal=   None    Shift=    0.000
 RMSDP=5.18D-03 MaxDP=1.22D-01 DE= 8.75D-01 OVMax= 6.32D-01

 Cycle   5  Pass 1  IDiag  1:
 E= -338.617900575430     Delta-E=       -1.056098460765 Rises=F Damp=F
 DIIS: error= 1.85D-02 at cycle   5 NSaved=   5.
 NSaved= 5 IEnMin= 5 EnMin= -338.617900575430     IErMin= 5 ErrMin= 1.85D-02
 ErrMax= 1.85D-02  0.00D+00 EMaxC= 1.00D-01 BMatC= 2.53D-02 BMatP= 5.68D-02
 IDIUse=3 WtCom= 8.15D-01 WtEn= 1.85D-01
 Coeff-Com:  0.265D-01 0.206D+00 0.223D+00-0.247D-01 0.569D+00
 Coeff-En:   0.000D+00 0.000D+00 0.150D+00 0.000D+00 0.850D+00
 Coeff:      0.216D-01 0.167D+00 0.210D+00-0.201D-01 0.621D+00
 Gap=     0.066 Goal=   None    Shift=    0.000
 RMSDP=1.25D-03 MaxDP=2.16D-02 DE=-1.06D+00 OVMax= 9.98D-02

 Cycle   6  Pass 1  IDiag  1:
 E= -338.633742701647     Delta-E=       -0.015842126217 Rises=F Damp=F
 DIIS: error= 7.83D-03 at cycle   6 NSaved=   6.
 NSaved= 6 IEnMin= 6 EnMin= -338.633742701647     IErMin= 6 ErrMin= 7.83D-03
 ErrMax= 7.83D-03  0.00D+00 EMaxC= 1.00D-01 BMatC= 7.90D-03 BMatP= 2.53D-02
 IDIUse=3 WtCom= 9.22D-01 WtEn= 7.83D-02
 Coeff-Com: -0.134D-01 0.702D-01 0.790D-01-0.225D-01 0.426D+00 0.460D+00
 Coeff-En:   0.000D+00 0.000D+00 0.000D+00 0.000D+00 0.290D+00 0.710D+00
 Coeff:     -0.124D-01 0.647D-01 0.729D-01-0.207D-01 0.416D+00 0.480D+00
 Gap=     0.072 Goal=   None    Shift=    0.000
 RMSDP=4.90D-04 MaxDP=8.69D-03 DE=-1.58D-02 OVMax= 2.93D-02

 Cycle   7  Pass 1  IDiag  1:
 E= -338.640584329311     Delta-E=       -0.006841627664 Rises=F Damp=F
 DIIS: error= 1.89D-03 at cycle   7 NSaved=   7.
 NSaved= 7 IEnMin= 7 EnMin= -338.640584329311     IErMin= 7 ErrMin= 1.89D-03
 ErrMax= 1.89D-03  0.00D+00 EMaxC= 1.00D-01 BMatC= 4.36D-04 BMatP= 7.90D-03
 IDIUse=3 WtCom= 9.81D-01 WtEn= 1.89D-02
 Coeff-Com: -0.356D-02 0.644D-02 0.166D-01-0.447D-02 0.166D+00 0.277D+00
 Coeff-Com:  0.542D+00
 Coeff-En:   0.000D+00 0.000D+00 0.000D+00 0.000D+00 0.000D+00 0.000D+00
 Coeff-En:   0.100D+01
 Coeff:     -0.349D-02 0.632D-02 0.163D-01-0.438D-02 0.162D+00 0.272D+00
 Coeff:      0.551D+00
 Gap=     0.071 Goal=   None    Shift=    0.000
 RMSDP=1.34D-04 MaxDP=2.85D-03 DE=-6.84D-03 OVMax= 8.34D-03

 Cycle   8  Pass 1  IDiag  1:
 E= -338.640881389898     Delta-E=       -0.000297060586 Rises=F Damp=F
 DIIS: error= 1.27D-03 at cycle   8 NSaved=   8.
 NSaved= 8 IEnMin= 8 EnMin= -338.640881389898     IErMin= 8 ErrMin= 1.27D-03
 ErrMax= 1.27D-03  0.00D+00 EMaxC= 1.00D-01 BMatC= 9.41D-05 BMatP= 4.36D-04
 IDIUse=3 WtCom= 9.87D-01 WtEn= 1.27D-02
 Coeff-Com: -0.207D-02 0.731D-03-0.356D-03-0.183D-02 0.310D-01 0.995D-01
 Coeff-Com:  0.357D+00 0.516D+00
 Coeff-En:   0.000D+00 0.000D+00 0.000D+00 0.000D+00 0.000D+00 0.000D+00
 Coeff-En:   0.199D+00 0.801D+00
 Coeff:     -0.205D-02 0.722D-03-0.351D-03-0.180D-02 0.306D-01 0.983D-01
 Coeff:      0.355D+00 0.519D+00
 Gap=     0.072 Goal=   None    Shift=    0.000
 RMSDP=7.00D-05 MaxDP=2.12D-03 DE=-2.97D-04 OVMax= 5.22D-03

 Cycle   9  Pass 1  IDiag  1:
 E= -338.640964968088     Delta-E=       -0.000083578190 Rises=F Damp=F
 DIIS: error= 4.13D-04 at cycle   9 NSaved=   9.
 NSaved= 9 IEnMin= 9 EnMin= -338.640964968088     IErMin= 9 ErrMin= 4.13D-04
 ErrMax= 4.13D-04  0.00D+00 EMaxC= 1.00D-01 BMatC= 6.54D-06 BMatP= 9.41D-05
 IDIUse=3 WtCom= 9.96D-01 WtEn= 4.13D-03
 Coeff-Com: -0.156D-02 0.114D-02-0.119D-02-0.377D-03 0.690D-02 0.389D-01
 Coeff-Com:  0.159D+00 0.294D+00 0.504D+00
 Coeff-En:   0.000D+00 0.000D+00 0.000D+00 0.000D+00 0.000D+00 0.000D+00
 Coeff-En:   0.000D+00 0.666D-01 0.933D+00
 Coeff:     -0.155D-02 0.113D-02-0.119D-02-0.375D-03 0.687D-02 0.387D-01
 Coeff:      0.158D+00 0.293D+00 0.506D+00
 Gap=     0.072 Goal=   None    Shift=    0.000
 RMSDP=1.49D-05 MaxDP=3.47D-04 DE=-8.36D-05 OVMax= 1.16D-03

 Cycle  10  Pass 1  IDiag  1:
 E= -338.640971273852     Delta-E=       -0.000006305764 Rises=F Damp=F
 DIIS: error= 1.27D-04 at cycle  10 NSaved=  10.
 NSaved=10 IEnMin=10 EnMin= -338.640971273852     IErMin=10 ErrMin= 1.27D-04
 ErrMax= 1.27D-04  0.00D+00 EMaxC= 1.00D-01 BMatC= 1.48D-06 BMatP= 6.54D-06
 IDIUse=3 WtCom= 9.99D-01 WtEn= 1.27D-03
 Coeff-Com: -0.123D-02 0.121D-02-0.937D-03 0.282D-03-0.174D-02 0.676D-02
 Coeff-Com:  0.323D-01 0.868D-01 0.315D+00 0.562D+00
 Coeff-En:   0.000D+00 0.000D+00 0.000D+00 0.000D+00 0.000D+00 0.000D+00
 Coeff-En:   0.000D+00 0.000D+00 0.000D+00 0.100D+01
 Coeff:     -0.123D-02 0.121D-02-0.936D-03 0.281D-03-0.174D-02 0.675D-02
 Coeff:      0.323D-01 0.867D-01 0.314D+00 0.562D+00
 Gap=     0.072 Goal=   None    Shift=    0.000
 RMSDP=5.18D-06 MaxDP=1.32D-04 DE=-6.31D-06 OVMax= 3.04D-04

 Cycle  11  Pass 1  IDiag  1:
 E= -338.640972058683     Delta-E=       -0.000000784831 Rises=F Damp=F
 DIIS: error= 1.22D-04 at cycle  11 NSaved=  11.
 NSaved=11 IEnMin=11 EnMin= -338.640972058683     IErMin=11 ErrMin= 1.22D-04
 ErrMax= 1.22D-04  0.00D+00 EMaxC= 1.00D-01 BMatC= 6.11D-07 BMatP= 1.48D-06
 IDIUse=3 WtCom= 9.99D-01 WtEn= 1.22D-03
 Coeff-Com: -0.958D-03 0.942D-03-0.500D-03 0.266D-03-0.194D-03 0.170D-02
 Coeff-Com:  0.516D-02 0.749D-02 0.299D-01 0.881D-01 0.868D+00
 Coeff-En:   0.000D+00 0.000D+00 0.000D+00 0.000D+00 0.000D+00 0.000D+00
 Coeff-En:   0.000D+00 0.000D+00 0.000D+00 0.000D+00 0.100D+01
 Coeff:     -0.957D-03 0.941D-03-0.499D-03 0.266D-03-0.194D-03 0.170D-02
 Coeff:      0.515D-02 0.748D-02 0.298D-01 0.880D-01 0.868D+00
 Gap=     0.072 Goal=   None    Shift=    0.000
 RMSDP=1.74D-06 MaxDP=4.48D-05 DE=-7.85D-07 OVMax= 1.42D-04

 Cycle  12  Pass 1  IDiag  1:
 E= -338.640972439867     Delta-E=       -0.000000381184 Rises=F Damp=F
 DIIS: error= 7.98D-05 at cycle  12 NSaved=  12.
 NSaved=12 IEnMin=12 EnMin= -338.640972439867     IErMin=12 ErrMin= 7.98D-05
 ErrMax= 7.98D-05  0.00D+00 EMaxC= 1.00D-01 BMatC= 2.55D-07 BMatP= 6.11D-07
 IDIUse=1 WtCom= 1.00D+00 WtEn= 0.00D+00
 Coeff-Com: -0.389D-03 0.346D-03-0.194D-03 0.139D-03 0.928D-03 0.109D-03
 Coeff-Com: -0.256D-02-0.170D-01-0.893D-01-0.173D+00 0.165D+00 0.112D+01
 Coeff:     -0.389D-03 0.346D-03-0.194D-03 0.139D-03 0.928D-03 0.109D-03
 Coeff:     -0.256D-02-0.170D-01-0.893D-01-0.173D+00 0.165D+00 0.112D+01
 Gap=     0.072 Goal=   None    Shift=    0.000
 RMSDP=2.30D-06 MaxDP=5.25D-05 DE=-3.81D-07 OVMax= 2.35D-04

 Cycle  13  Pass 1  IDiag  1:
 E= -338.640972688678     Delta-E=       -0.000000248811 Rises=F Damp=F
 DIIS: error= 2.34D-05 at cycle  13 NSaved=  13.
 NSaved=13 IEnMin=13 EnMin= -338.640972688678     IErMin=13 ErrMin= 2.34D-05
 ErrMax= 2.34D-05  0.00D+00 EMaxC= 1.00D-01 BMatC= 2.96D-08 BMatP= 2.55D-07
 IDIUse=1 WtCom= 1.00D+00 WtEn= 0.00D+00
 Coeff-Com: -0.242D-04 0.387D-04-0.280D-04 0.128D-04 0.927D-03 0.538D-03
 Coeff-Com:  0.704D-03-0.447D-02-0.470D-01-0.112D+00-0.251D+00 0.697D+00
 Coeff-Com:  0.715D+00
 Coeff:     -0.242D-04 0.387D-04-0.280D-04 0.128D-04 0.927D-03 0.538D-03
 Coeff:      0.704D-03-0.447D-02-0.470D-01-0.112D+00-0.251D+00 0.697D+00
 Coeff:      0.715D+00
 Gap=     0.072 Goal=   None    Shift=    0.000
 RMSDP=1.22D-06 MaxDP=3.00D-05 DE=-2.49D-07 OVMax= 1.38D-04

 Cycle  14  Pass 1  IDiag  1:
 E= -338.640972718247     Delta-E=       -0.000000029569 Rises=F Damp=F
 DIIS: error= 4.83D-06 at cycle  14 NSaved=  14.
 NSaved=14 IEnMin=14 EnMin= -338.640972718247     IErMin=14 ErrMin= 4.83D-06
 ErrMax= 4.83D-06  0.00D+00 EMaxC= 1.00D-01 BMatC= 1.84D-09 BMatP= 2.96D-08
 IDIUse=1 WtCom= 1.00D+00 WtEn= 0.00D+00
 Coeff-Com:  0.175D-04-0.270D-04-0.164D-04-0.320D-05 0.355D-03 0.294D-03
 Coeff-Com:  0.987D-03 0.987D-03-0.710D-02-0.204D-01-0.861D-01 0.182D+00
 Coeff-Com:  0.281D+00 0.648D+00
 Coeff:      0.175D-04-0.270D-04-0.164D-04-0.320D-05 0.355D-03 0.294D-03
 Coeff:      0.987D-03 0.987D-03-0.710D-02-0.204D-01-0.861D-01 0.182D+00
 Coeff:      0.281D+00 0.648D+00
 Gap=     0.072 Goal=   None    Shift=    0.000
 RMSDP=3.07D-07 MaxDP=9.14D-06 DE=-2.96D-08 OVMax= 2.21D-05

 Cycle  15  Pass 1  IDiag  1:
 E= -338.640972719080     Delta-E=       -0.000000000833 Rises=F Damp=F
 DIIS: error= 5.16D-06 at cycle  15 NSaved=  15.
 NSaved=15 IEnMin=15 EnMin= -338.640972719080     IErMin=14 ErrMin= 4.83D-06
 ErrMax= 5.16D-06  0.00D+00 EMaxC= 1.00D-01 BMatC= 1.10D-09 BMatP= 1.84D-09
 IDIUse=1 WtCom= 1.00D+00 WtEn= 0.00D+00
 Coeff-Com:  0.858D-05-0.846D-05-0.277D-05-0.113D-05-0.902D-05-0.900D-04
 Coeff-Com: -0.107D-03 0.274D-03 0.248D-02 0.652D-02 0.207D-01 0.372D-02
 Coeff-Com:  0.135D-01 0.180D+00 0.773D+00
 Coeff:      0.858D-05-0.846D-05-0.277D-05-0.113D-05-0.902D-05-0.900D-04
 Coeff:     -0.107D-03 0.274D-03 0.248D-02 0.652D-02 0.207D-01 0.372D-02
 Coeff:      0.135D-01 0.180D+00 0.773D+00
 Gap=     0.072 Goal=   None    Shift=    0.000
 RMSDP=1.36D-07 MaxDP=2.96D-06 DE=-8.33D-10 OVMax= 1.07D-05

 Cycle  16  Pass 1  IDiag  1:
 E= -338.640972720177     Delta-E=       -0.000000001097 Rises=F Damp=F
 DIIS: error= 1.60D-06 at cycle  16 NSaved=  16.
 NSaved=16 IEnMin=16 EnMin= -338.640972720177     IErMin=16 ErrMin= 1.60D-06
 ErrMax= 1.60D-06  0.00D+00 EMaxC= 1.00D-01 BMatC= 9.08D-11 BMatP= 1.10D-09
 IDIUse=1 WtCom= 1.00D+00 WtEn= 0.00D+00
 Coeff-Com:  0.257D-06-0.132D-06 0.294D-05-0.213D-06-0.135D-04-0.303D-04
 Coeff-Com: -0.103D-03-0.174D-03 0.202D-03 0.533D-03 0.525D-02 0.254D-02
 Coeff-Com: -0.170D-02-0.491D-02-0.739D-01 0.107D+01
 Coeff:      0.257D-06-0.132D-06 0.294D-05-0.213D-06-0.135D-04-0.303D-04
 Coeff:     -0.103D-03-0.174D-03 0.202D-03 0.533D-03 0.525D-02 0.254D-02
 Coeff:     -0.170D-02-0.491D-02-0.739D-01 0.107D+01
 Gap=     0.072 Goal=   None    Shift=    0.000
 RMSDP=4.70D-08 MaxDP=9.29D-07 DE=-1.10D-09 OVMax= 4.12D-06

 Cycle  17  Pass 1  IDiag  1:
 E= -338.640972720277     Delta-E=       -0.000000000100 Rises=F Damp=F
 DIIS: error= 2.43D-07 at cycle  17 NSaved=  17.
 NSaved=17 IEnMin=17 EnMin= -338.640972720277     IErMin=17 ErrMin= 2.43D-07
 ErrMax= 2.43D-07  0.00D+00 EMaxC= 1.00D-01 BMatC= 1.91D-12 BMatP= 9.08D-11
 IDIUse=1 WtCom= 1.00D+00 WtEn= 0.00D+00
 Coeff-Com: -0.208D-06 0.162D-06 0.681D-06-0.382D-07-0.160D-05 0.203D-05
 Coeff-Com:  0.274D-05-0.649D-05-0.570D-04-0.189D-03-0.102D-02 0.643D-03
 Coeff-Com:  0.919D-03-0.907D-03-0.534D-01 0.210D-01 0.103D+01
 Coeff:     -0.208D-06 0.162D-06 0.681D-06-0.382D-07-0.160D-05 0.203D-05
 Coeff:      0.274D-05-0.649D-05-0.570D-04-0.189D-03-0.102D-02 0.643D-03
 Coeff:      0.919D-03-0.907D-03-0.534D-01 0.210D-01 0.103D+01
 Gap=     0.072 Goal=   None    Shift=    0.000
 RMSDP=7.94D-09 MaxDP=1.21D-07 DE=-9.96D-11 OVMax= 7.38D-07

 SCF Done:  E(RB3LYP) =  -338.640972720     A.U. after   17 cycles
            NFock= 17  Conv=0.79D-08     -V/T= 2.0048
 KE= 3.370263858576D+02 PE=-1.314890539423D+03 EE= 3.713746491780D+02
 Leave Link  502 at Fri Oct 21 08:00:54 2022, MaxMem=  8053063680 cpu:             110.5 elap:               4.5
 (Enter /public3/home/scg5914/software-scg5914/g16/l601.exe)
 Copying SCF densities to generalized density rwf, IOpCl= 0 IROHF=0.

 **********************************************************************

            Population analysis using the SCF Density.

 **********************************************************************

 Orbital symmetries:
       Occupied  (A) (A) (A) (A) (A) (A) (A) (A) (A) (A) (A) (A)
                 (A) (A) (A) (A) (A) (A) (A) (A) (A) (A) (A) (A)
       Virtual   (A) (A) (A) (A) (A) (A) (A) (A) (A) (A) (A) (A)
                 (A) (A) (A) (A) (A) (A) (A) (A) (A) (A) (A) (A)
                 (A) (A) (A) (A) (A) (A) (A) (A) (A) (A) (A) (A)
                 (A) (A) (A) (A) (A) (A) (A) (A) (A) (A) (A) (A)
                 (A) (A) (A) (A) (A) (A) (A) (A) (A) (A) (A) (A)
                 (A) (A) (A) (A) (A) (A) (A) (A) (A) (A) (A) (A)
                 (A) (A) (A) (A) (A) (A) (A) (A) (A) (A) (A) (A)
                 (A) (A) (A) (A) (A) (A) (A) (A) (A) (A) (A) (A)
                 (A) (A) (A) (A) (A) (A) (A) (A) (A) (A) (A) (A)
                 (A) (A) (A) (A) (A) (A) (A) (A) (A) (A) (A) (A)
                 (A) (A) (A) (A) (A) (A) (A) (A) (A) (A) (A) (A)
                 (A) (A) (A) (A) (A) (A) (A) (A) (A) (A) (A) (A)
                 (A) (A) (A) (A)
 The electronic state is 1-A.
 Alpha  occ. eigenvalues --  -19.36185 -14.62575 -14.61167 -10.55963 -10.54467
 Alpha  occ. eigenvalues --  -10.53169 -10.46350  -1.30667  -1.25490  -1.16637
 Alpha  occ. eigenvalues --   -1.05454  -0.93022  -0.90028  -0.82291  -0.78914
 Alpha  occ. eigenvalues --   -0.72599  -0.70600  -0.69097  -0.67180  -0.63042
 Alpha  occ. eigenvalues --   -0.57746  -0.57681  -0.51945  -0.50062
 Alpha virt. eigenvalues --   -0.42846  -0.29968  -0.25873  -0.16780  -0.13560
 Alpha virt. eigenvalues --   -0.12990  -0.11765  -0.11117  -0.10246  -0.08633
 Alpha virt. eigenvalues --   -0.08339  -0.06239  -0.05934  -0.04678  -0.04166
 Alpha virt. eigenvalues --   -0.03246  -0.01827  -0.00544  -0.00051   0.00043
 Alpha virt. eigenvalues --    0.01570   0.02441   0.02729   0.03269   0.04639
 Alpha virt. eigenvalues --    0.06349   0.06504   0.07203   0.07371   0.08318
 Alpha virt. eigenvalues --    0.09351   0.10643   0.11522   0.12528   0.13825
 Alpha virt. eigenvalues --    0.15381   0.16481   0.18689   0.19099   0.21406
 Alpha virt. eigenvalues --    0.25526   0.30500   0.31831   0.33147   0.34146
 Alpha virt. eigenvalues --    0.35585   0.36138   0.36807   0.41091   0.41895
 Alpha virt. eigenvalues --    0.43443   0.48902   0.50052   0.51444   0.53874
 Alpha virt. eigenvalues --    0.55452   0.59795   0.60597   0.62100   0.64652
 Alpha virt. eigenvalues --    0.66110   0.67196   0.72524   0.72668   0.77618
 Alpha virt. eigenvalues --    0.78847   0.79750   0.81720   0.86539   0.86806
 Alpha virt. eigenvalues --    0.92652   0.97737   0.97955   0.99337   1.02865
 Alpha virt. eigenvalues --    1.03395   1.07021   1.07532   1.21955   1.26219
 Alpha virt. eigenvalues --    1.30664   1.35607   1.38353   1.40019   1.42037
 Alpha virt. eigenvalues --    1.44326   1.47941   1.53986   1.55581   1.55670
 Alpha virt. eigenvalues --    1.59644   1.68518   1.69569   1.75173   1.77267
 Alpha virt. eigenvalues --    1.78217   1.87804   1.94948   1.97137   2.04242
 Alpha virt. eigenvalues --    2.05698   2.12305   2.17376   2.18726   2.33347
 Alpha virt. eigenvalues --    2.33662   2.35149   2.42590   2.45490   2.45749
 Alpha virt. eigenvalues --    2.51368   2.52512   2.57339   2.59592   2.62387
 Alpha virt. eigenvalues --    2.65812   2.67661   2.70179   2.72374   2.75167
 Alpha virt. eigenvalues --    2.86815   2.90611   3.11644   3.12954   3.18754
 Alpha virt. eigenvalues --    3.21921   3.31631   3.36974   3.46844   3.59336
 Alpha virt. eigenvalues --    3.59794   3.63486   3.63804   3.89474   4.16101
 Alpha virt. eigenvalues --    4.55064   4.58181   4.81197   4.92698   5.01292
 Alpha virt. eigenvalues --    5.52453  23.32739  23.62265  23.65486  23.82894
 Alpha virt. eigenvalues --   35.30509  35.36247  49.77599
          Condensed to atoms (all electrons):
               1          2          3          4          5          6
     1  O    7.917587   0.342766  -0.077858   0.032881  -0.002711  -0.014213
     2  C    0.342766   5.431266   0.235795  -0.147228  -0.013178   0.129301
     3  N   -0.077858   0.235795   6.797113   0.229998  -0.029852  -0.026261
     4  C    0.032881  -0.147228   0.229998   4.926197   0.429319  -0.002036
     5  N   -0.002711  -0.013178  -0.029852   0.429319   6.261358   0.248817
     6  C   -0.014213   0.129301  -0.026261  -0.002036   0.248817   5.697746
     7  C   -0.058077   0.026255  -0.183584  -0.062619   0.126670  -0.189620
     8  H    0.005073  -0.025094   0.343915  -0.009295   0.002801  -0.002797
     9  H    0.000042   0.006971  -0.066973   0.441487  -0.052741   0.019622
    10  H   -0.006104  -0.024935   0.006308   0.000530   0.000733   0.002207
               7          8          9         10
     1  O   -0.058077   0.005073   0.000042  -0.006104
     2  C    0.026255  -0.025094   0.006971  -0.024935
     3  N   -0.183584   0.343915  -0.066973   0.006308
     4  C   -0.062619  -0.009295   0.441487   0.000530
     5  N    0.126670   0.002801  -0.052741   0.000733
     6  C   -0.189620  -0.002797   0.019622   0.002207
     7  C    5.823926   0.011400  -0.013596   0.371478
     8  H    0.011400   0.296215   0.000783   0.000065
     9  H   -0.013596   0.000783   0.434780   0.000089
    10  H    0.371478   0.000065   0.000089   0.400745
 Mulliken charges:
               1
     1  O   -0.139386
     2  C    0.038081
     3  N   -0.228602
     4  C    0.160766
     5  N    0.028783
     6  C    0.137234
     7  C    0.147767
     8  H    0.376935
     9  H    0.229537
    10  H    0.248885
 Sum of Mulliken charges =   1.00000
 Mulliken charges with hydrogens summed into heavy atoms:
               1
     1  O   -0.139386
     2  C    0.038081
     3  N    0.148333
     4  C    0.390302
     5  N    0.028783
     6  C    0.137234
     7  C    0.396652
 Electronic spatial extent (au):  <R**2>=            557.9856
 Charge=              1.0000 electrons
 Dipole moment (field-independent basis, Debye):
    X=              2.6741    Y=             -0.6839    Z=              0.0000  Tot=              2.7602
 Quadrupole moment (field-independent basis, Debye-Ang):
   XX=            -36.4750   YY=            -19.2724   ZZ=            -37.8179
   XY=             -1.1553   XZ=              0.0007   YZ=              0.0003
 Traceless Quadrupole moment (field-independent basis, Debye-Ang):
   XX=             -5.2866   YY=             11.9160   ZZ=             -6.6294
   XY=             -1.1553   XZ=              0.0007   YZ=              0.0003
 Octapole moment (field-independent basis, Debye-Ang**2):
  XXX=              7.6127  YYY=             -9.4266  ZZZ=              0.0003  XYY=              2.5291
  XXY=             -3.1238  XXZ=              0.0005  XZZ=             -2.6390  YZZ=             -2.1462
  YYZ=              0.0014  XYZ=              0.0001
 Hexadecapole moment (field-independent basis, Debye-Ang**3):
 XXXX=           -461.6013 YYYY=           -158.2947 ZZZZ=            -35.5475 XXXY=             -8.7365
 XXXZ=              0.0016 YYYX=             -6.1533 YYYZ=              0.0011 ZZZX=             -0.0000
 ZZZY=              0.0002 XXYY=            -81.6937 XXZZ=            -77.5161 YYZZ=            -47.6343
 XXYZ=              0.0006 YYXZ=              0.0008 ZZXY=             -0.0044
 N-N= 2.678485316676D+02 E-N=-1.314890542394D+03  KE= 3.370263858576D+02
 No NMR shielding tensors so no spin-rotation constants.
 Leave Link  601 at Fri Oct 21 08:00:54 2022, MaxMem=  8053063680 cpu:               2.4 elap:               0.1
 (Enter /public3/home/scg5914/software-scg5914/g16/l701.exe)
 ... and contract with generalized density number  0.
 Compute integral first derivatives.
 R6Disp: Adding Grimme-D3(BJ) dispersion energy 1st derivatives to the gradient.
 Leave Link  701 at Fri Oct 21 08:00:54 2022, MaxMem=  8053063680 cpu:               6.8 elap:               0.2
 (Enter /public3/home/scg5914/software-scg5914/g16/l702.exe)
 L702 exits ... SP integral derivatives will be done elsewhere.
 Leave Link  702 at Fri Oct 21 08:00:54 2022, MaxMem=  8053063680 cpu:               0.3 elap:               0.0
 (Enter /public3/home/scg5914/software-scg5914/g16/l703.exe)
 Integral derivatives from FoFJK, PRISM(SPDF).
 Compute integral first derivatives, UseDBF=F ICtDFT=           0.
 Calling FoFJK, ICntrl=      2127 FMM=F ISym2X=0 I1Cent= 0 IOpClX= 0 NMat=1 NMatS=1 NMatT=0.
 FoFJK:  IHMeth= 1 ICntrl=    2127 DoSepK=F KAlg= 0 I1Cent=           0 FoldK=F
 IRaf=         0 NMat=       1 IRICut=       1 DoRegI=T DoRafI=F ISym2E= 0 IDoP0=0 IntGTp=1.
 FoFCou: FMM=F IPFlag=           0 FMFlag=      100000 FMFlg1=         800
         NFxFlg=           0 DoJE=F BraDBF=F KetDBF=F FulRan=T
         wScrn=  0.000000 ICntrl=      2127 IOpCl=  0 I1Cent=           0 NGrid=           0
         NMat0=    1 NMatS0=      1 NMatT0=    0 NMatD0=    1 NMtDS0=    0 NMtDT0=    0
 Symmetry not used in FoFCou.
 Leave Link  703 at Fri Oct 21 08:00:55 2022, MaxMem=  8053063680 cpu:              24.8 elap:               0.8
 (Enter /public3/home/scg5914/software-scg5914/g16/l716.exe)
 Dipole        = 1.05208128D+00-2.69081377D-01 1.40033090D-05
 ***** Axes restored to original set *****
 -------------------------------------------------------------------
 Center     Atomic                   Forces (Hartrees/Bohr)
 Number     Number              X              Y              Z
 -------------------------------------------------------------------
      1        8           0.020115474    0.030158684   -0.000099867
      2        6          -0.054416411   -0.021624378    0.000588275
      3        7           0.014295598    0.017005386   -0.000095912
      4        6          -0.029122494   -0.017465744    0.000294856
      5        7           0.124582518   -0.025139113   -0.001787080
      6        6          -0.161077606   -0.017800097    0.002063753
      7        6           0.088143272    0.037632569   -0.000982912
      8        1          -0.004988786    0.000635109    0.000070721
      9        1           0.002767711    0.001937862   -0.000026399
     10        1          -0.000299275   -0.005340279   -0.000025435
 -------------------------------------------------------------------
 Cartesian Forces:  Max     0.161077606 RMS     0.043994285
 Leave Link  716 at Fri Oct 21 08:00:55 2022, MaxMem=  8053063680 cpu:               0.3 elap:               0.0
 (Enter /public3/home/scg5914/software-scg5914/g16/l103.exe)

 GradGradGradGradGradGradGradGradGradGradGradGradGradGradGradGradGradGrad
 Berny optimization.
 FormGI is forming the generalized inverse of G from B-inverse, IUseBI=4.
 Internal  Forces:  Max     0.108606952 RMS     0.024631538
 Search for a local minimum.
 Step number   1 out of a maximum of   51
 All quantities printed in internal units (Hartrees-Bohrs-Radians)
 RMS Force = .24632D-01 SwitMx=.10000D-02 MixMth= 1
 Mixed Optimization -- RFO/linear search
 Second derivative matrix not updated -- first step.
 ITU=  0
     Eigenvalues ---    0.01444   0.01653   0.01812   0.01929   0.02252
     Eigenvalues ---    0.02492   0.02633   0.16000   0.16000   0.16000
     Eigenvalues ---    0.22270   0.23384   0.24462   0.25000   0.35100
     Eigenvalues ---    0.35695   0.37437   0.41309   0.45629   0.48266
     Eigenvalues ---    0.50613   0.53661   0.66111   0.97796
 RFO step:  Lambda=-5.81991721D-02 EMin= 1.44435482D-02
 Linear search not attempted -- first point.
 Maximum step size (   0.300) exceeded in Quadratic search.
    -- Step size scaled by   0.770
 Iteration  1 RMS(Cart)=  0.04263350 RMS(Int)=  0.00248908
 Iteration  2 RMS(Cart)=  0.00278230 RMS(Int)=  0.00089573
 Iteration  3 RMS(Cart)=  0.00000332 RMS(Int)=  0.00089572
 Iteration  4 RMS(Cart)=  0.00000000 RMS(Int)=  0.00089572
 ITry= 1 IFail=0 DXMaxC= 1.81D-01 DCOld= 1.00D+10 DXMaxT= 3.00D-01 DXLimC= 3.00D+00 Rises=F
 Variable       Old X    -DE/DX   Delta X   Delta X   Delta X     New X
                                 (Linear)    (Quad)   (Total)
    R1        2.29534  -0.03132   0.00000  -0.02327  -0.02327   2.27207
    R2        2.68099   0.00430   0.00000   0.01199   0.01094   2.69194
    R3        2.73765   0.02087   0.00000   0.03795   0.03840   2.77605
    R4        2.55922  -0.01184   0.00000  -0.01261  -0.01396   2.54526
    R5        1.91252   0.00395   0.00000   0.00592   0.00592   1.91844
    R6        2.44957   0.01500   0.00000   0.01459   0.01417   2.46374
    R7        2.05514  -0.00166   0.00000  -0.00312  -0.00312   2.05201
    R8        2.59938  -0.10861   0.00000  -0.15447  -0.15343   2.44596
    R9        2.56872  -0.04208   0.00000  -0.05790  -0.05652   2.51220
   R10        2.04562   0.00219   0.00000   0.00406   0.00406   2.04968
    A1        2.10085   0.01977   0.00000   0.04167   0.04205   2.14289
    A2        2.24604  -0.02213   0.00000  -0.06304  -0.06266   2.18338
    A3        1.93630   0.00236   0.00000   0.02137   0.02061   1.95691
    A4        2.16666  -0.00242   0.00000   0.01165   0.00925   2.17591
    A5        2.01166   0.00418   0.00000   0.00466   0.00586   2.01753
    A6        2.10487  -0.00176   0.00000  -0.01631  -0.01512   2.08975
    A7        2.16958  -0.01667   0.00000  -0.03984  -0.04166   2.12793
    A8        2.02323   0.01136   0.00000   0.03059   0.03150   2.05473
    A9        2.09037   0.00531   0.00000   0.00924   0.01015   2.10053
   A10        2.01174  -0.00740   0.00000  -0.02902  -0.02849   1.98324
   A11        2.17942   0.06992   0.00000   0.16121   0.16398   2.34340
   A12        2.10268  -0.04579   0.00000  -0.12537  -0.12370   1.97898
   A13        2.04940   0.01790   0.00000   0.04507   0.04423   2.09364
   A14        2.13110   0.02789   0.00000   0.08030   0.07947   2.21057
    D1       -3.14144  -0.00000   0.00000  -0.00004  -0.00005  -3.14149
    D2        0.00017  -0.00000   0.00000  -0.00005  -0.00005   0.00012
    D3       -0.00012   0.00000   0.00000   0.00004   0.00004  -0.00008
    D4        3.14150   0.00000   0.00000   0.00003   0.00003   3.14154
    D5        3.14142   0.00001   0.00000   0.00008   0.00008   3.14150
    D6       -0.00019   0.00001   0.00000   0.00008   0.00008  -0.00011
    D7        0.00012  -0.00000   0.00000  -0.00003  -0.00003   0.00009
    D8       -3.14149  -0.00000   0.00000  -0.00003  -0.00003  -3.14152
    D9        0.00004  -0.00000   0.00000  -0.00003  -0.00003   0.00001
   D10       -3.14155  -0.00000   0.00000  -0.00001  -0.00001  -3.14156
   D11       -3.14157  -0.00000   0.00000  -0.00003  -0.00003   3.14159
   D12        0.00002  -0.00000   0.00000  -0.00001  -0.00001   0.00001
   D13        0.00003   0.00000   0.00000  -0.00000   0.00000   0.00003
   D14       -3.14156  -0.00000   0.00000  -0.00002  -0.00002  -3.14158
   D15       -0.00002   0.00000   0.00000   0.00002   0.00002  -0.00000
   D16       -0.00006   0.00000   0.00000  -0.00000  -0.00000  -0.00007
   D17        3.14155   0.00000   0.00000   0.00000   0.00000   3.14155
         Item               Value     Threshold  Converged?
 Maximum Force            0.108607     0.000450     NO 
 RMS     Force            0.024632     0.000300     NO 
 Maximum Displacement     0.181103     0.001800     NO 
 RMS     Displacement     0.042923     0.001200     NO 
 Predicted change in Energy=-3.021380D-02
 Lowest energy point so far.  Saving SCF results.
 GradGradGradGradGradGradGradGradGradGradGradGradGradGradGradGradGradGrad

 Leave Link  103 at Fri Oct 21 08:00:56 2022, MaxMem=  8053063680 cpu:               4.5 elap:               0.2
 (Enter /public3/home/scg5914/software-scg5914/g16/l202.exe)
                          Input orientation:                          
 ---------------------------------------------------------------------
 Center     Atomic      Atomic             Coordinates (Angstroms)
 Number     Number       Type             X           Y           Z
 ---------------------------------------------------------------------
      1          8           0       -0.009103   -0.067215    0.003261
      2          6           0        0.018054    1.134792    0.009075
      3          7           0       -1.161798    1.932784    0.028777
      4          6           0       -1.175839    3.279586    0.035765
      5          7           0       -0.076589    3.980515    0.024687
      6          6           0        0.998268    3.259624    0.006718
      7          6           0        1.238619    1.952168   -0.003117
      8          1           0       -2.037955    1.420060    0.037845
      9          1           0       -2.142158    3.774689    0.051131
     10          1           0        2.211408    1.472700   -0.018541
 ---------------------------------------------------------------------
                    Distance matrix (angstroms):
                    1          2          3          4          5
     1  O    0.000000
     2  C    1.202328   0.000000
     3  N    2.308539   1.424511   0.000000
     4  C    3.544489   2.454839   1.346893   0.000000
     5  N    4.048349   2.847339   2.317520   1.303755   0.000000
     6  C    3.476012   2.340028   2.535128   2.174393   1.294344
     7  C    2.373765   1.469023   2.400707   2.755569   2.417589
     8  H    2.515834   2.075904   1.015194   2.049654   3.225377
     9  H    4.394592   3.411354   2.086676   1.085880   2.075967
    10  H    2.702311   2.219402   3.404767   3.839431   3.394987
                    6          7          8          9         10
     6  C    0.000000
     7  C    1.329400   0.000000
     8  H    3.550157   3.319752   0.000000
     9  H    3.182694   3.841116   2.356971   0.000000
    10  H    2.159964   1.084641   4.250063   4.925195   0.000000
 Stoichiometry    C4H3N2O(1+)
 Framework group  C1[X(C4H3N2O)]
 Deg. of freedom    24
 Full point group                 C1      NOp   1
 RotChk:  IX=0 Diff= 6.84D-02
 Largest Abelian subgroup         C1      NOp   1
 Largest concise Abelian subgroup C1      NOp   1
                         Standard orientation:                         
 ---------------------------------------------------------------------
 Center     Atomic      Atomic             Coordinates (Angstroms)
 Number     Number       Type             X           Y           Z
 ---------------------------------------------------------------------
      1          8           0       -2.207723   -0.204417    0.000026
      2          6           0       -1.018862   -0.024968   -0.000062
      3          7           0       -0.077520   -1.094130   -0.000005
      4          6           0        1.260197   -0.937178    0.000015
      5          7           0        1.815914    0.242210   -0.000001
      6          6           0        0.964380    1.216999   -0.000002
      7          6           0       -0.363040    1.289538    0.000008
      8          1           0       -0.474874   -2.028330    0.000003
      9          1           0        1.873985   -1.832945    0.000030
     10          1           0       -0.962140    2.193709    0.000045
 ---------------------------------------------------------------------
 Rotational constants (GHZ):           6.4246503           2.9146477           2.0050321
 Leave Link  202 at Fri Oct 21 08:00:56 2022, MaxMem=  8053063680 cpu:               1.3 elap:               0.1
 (Enter /public3/home/scg5914/software-scg5914/g16/l301.exe)
 Standard basis: 6-311+G(d,p) (5D, 7F)
 Ernie: Thresh=  0.10000D-02 Tol=  0.10000D-05 Strict=F.
 There are   179 symmetry adapted cartesian basis functions of A   symmetry.
 There are   172 symmetry adapted basis functions of A   symmetry.
   172 basis functions,   276 primitive gaussians,   179 cartesian basis functions
    24 alpha electrons       24 beta electrons
       nuclear repulsion energy       270.3332236164 Hartrees.
 IExCor=  402 DFT=T Ex+Corr=B3LYP ExCW=0 ScaHFX=  0.200000
 ScaDFX=  0.800000  0.720000  1.000000  0.810000 ScalE2=  1.000000  1.000000
 IRadAn=      5 IRanWt=     -1 IRanGd=            0 ICorTp=0 IEmpDi=141
 NAtoms=   10 NActive=   10 NUniq=   10 SFac= 1.00D+00 NAtFMM=   60 NAOKFM=F Big=F
 Integral buffers will be    131072 words long.
 Raffenetti 2 integral format.
 Two-electron integral symmetry is turned on.
 R6Disp:  Grimme-D3(BJ) Dispersion energy=       -0.0163770202 Hartrees.
 Nuclear repulsion after empirical dispersion term =      270.3168465962 Hartrees.
 Leave Link  301 at Fri Oct 21 08:00:56 2022, MaxMem=  8053063680 cpu:               0.8 elap:               0.0
 (Enter /public3/home/scg5914/software-scg5914/g16/l302.exe)
 NPDir=0 NMtPBC=     1 NCelOv=     1 NCel=       1 NClECP=     1 NCelD=      1
         NCelK=      1 NCelE2=     1 NClLst=     1 CellRange=     0.0.
 One-electron integrals computed using PRISM.
 One-electron integral symmetry used in STVInt
 NBasis=   172 RedAO= T EigKep=  2.58D-05  NBF=   172
 NBsUse=   172 1.00D-06 EigRej= -1.00D+00 NBFU=   172
 Precomputing XC quadrature grid using
 IXCGrd= 4 IRadAn=           5 IRanWt=          -1 IRanGd=           0 AccXCQ= 0.00D+00.
 Generated NRdTot=       0 NPtTot=           0 NUsed=           0 NTot=          32
 NSgBfM=   179   179   179   179   179 MxSgAt=    10 MxSgA2=    10.
 Leave Link  302 at Fri Oct 21 08:00:56 2022, MaxMem=  8053063680 cpu:               4.2 elap:               0.1
 (Enter /public3/home/scg5914/software-scg5914/g16/l303.exe)
 DipDrv:  MaxL=1.
 Leave Link  303 at Fri Oct 21 08:00:56 2022, MaxMem=  8053063680 cpu:               0.4 elap:               0.0
 (Enter /public3/home/scg5914/software-scg5914/g16/l401.exe)
 Initial guess from the checkpoint file:  "dsgdb9nsd_000923-3.chk"
 B after Tr=    -0.000000    0.000000    0.000000
         Rot=    0.999751    0.000000    0.000000   -0.022313 Ang=   2.56 deg.
 Guess basis will be translated and rotated to current coordinates.
 JPrj=2 DoOrth=T DoCkMO=T.
 Generating alternative initial guess.
 ExpMin= 4.38D-02 ExpMax= 8.59D+03 ExpMxC= 1.30D+03 IAcc=3 IRadAn=         5 AccDes= 0.00D+00
 Harris functional with IExCor=  402 and IRadAn=       5 diagonalized for initial guess.
 HarFok:  IExCor=  402 AccDes= 0.00D+00 IRadAn=         5 IDoV= 1 UseB2=F ITyADJ=14
 ICtDFT=  3500011 ScaDFX=  1.000000  1.000000  1.000000  1.000000
 FoFCou: FMM=F IPFlag=           0 FMFlag=      100000 FMFlg1=           0
         NFxFlg=           0 DoJE=T BraDBF=F KetDBF=T FulRan=T
         wScrn=  0.000000 ICntrl=       500 IOpCl=  0 I1Cent=   200000004 NGrid=           0
         NMat0=    1 NMatS0=      1 NMatT0=    0 NMatD0=    1 NMtDS0=    0 NMtDT0=    0
 Petite list used in FoFCou.
 Harris En= -338.748829699948    
 Leave Link  401 at Fri Oct 21 08:00:56 2022, MaxMem=  8053063680 cpu:               8.7 elap:               0.3
 (Enter /public3/home/scg5914/software-scg5914/g16/l502.exe)
 Keep R1 ints in memory in canonical form, NReq=142859929.
 FoFCou: FMM=F IPFlag=           0 FMFlag=           0 FMFlg1=           0
         NFxFlg=           0 DoJE=F BraDBF=F KetDBF=F FulRan=T
         wScrn=  0.000000 ICntrl=       600 IOpCl=  0 I1Cent=           0 NGrid=           0
         NMat0=    1 NMatS0=  14878 NMatT0=    0 NMatD0=    1 NMtDS0=    0 NMtDT0=    0
 Symmetry not used in FoFCou.
 Two-electron integral symmetry not used.
 Closed shell SCF:
 Using DIIS extrapolation, IDIIS=  1040.
 NGot=  8053063680 LenX=  7942307003 LenY=  7942274521
 Requested convergence on RMS density matrix=1.00D-08 within 128 cycles.
 Requested convergence on MAX density matrix=1.00D-06.
 Requested convergence on             energy=1.00D-06.
 No special actions if energy rises.

 Cycle   1  Pass 1  IDiag  1:
 E= -338.666267480120    
 DIIS: error= 5.19D-03 at cycle   1 NSaved=   1.
 NSaved= 1 IEnMin= 1 EnMin= -338.666267480120     IErMin= 1 ErrMin= 5.19D-03
 ErrMax= 5.19D-03  0.00D+00 EMaxC= 1.00D-01 BMatC= 8.28D-03 BMatP= 8.28D-03
 IDIUse=3 WtCom= 9.48D-01 WtEn= 5.19D-02
 Coeff-Com:  0.100D+01
 Coeff-En:   0.100D+01
 Coeff:      0.100D+01
 Gap=     0.478 Goal=   None    Shift=    0.000
 GapD=    0.478 DampG=2.000 DampE=1.000 DampFc=2.0000 IDamp=-1.
 RMSDP=1.59D-03 MaxDP=6.92D-02              OVMax= 3.36D-02

 Cycle   2  Pass 1  IDiag  1:
 E= -338.673294948499     Delta-E=       -0.007027468378 Rises=F Damp=F
 DIIS: error= 6.74D-03 at cycle   2 NSaved=   2.
 NSaved= 2 IEnMin= 2 EnMin= -338.673294948499     IErMin= 1 ErrMin= 5.19D-03
 ErrMax= 6.74D-03  0.00D+00 EMaxC= 1.00D-01 BMatC= 3.10D-03 BMatP= 8.28D-03
 IDIUse=3 WtCom= 9.33D-01 WtEn= 6.74D-02
 Coeff-Com:  0.314D+00 0.686D+00
 Coeff-En:   0.000D+00 0.100D+01
 Coeff:      0.292D+00 0.708D+00
 Gap=     0.114 Goal=   None    Shift=    0.000
 RMSDP=9.24D-04 MaxDP=1.88D-02 DE=-7.03D-03 OVMax= 9.22D-02

 Cycle   3  Pass 1  IDiag  1:
 E= -338.664776050697     Delta-E=        0.008518897801 Rises=F Damp=F
 DIIS: error= 1.62D-02 at cycle   3 NSaved=   3.
 NSaved= 3 IEnMin= 2 EnMin= -338.673294948499     IErMin= 1 ErrMin= 5.19D-03
 ErrMax= 1.62D-02  0.00D+00 EMaxC= 1.00D-01 BMatC= 1.08D-02 BMatP= 3.10D-03
 IDIUse=2 WtCom= 0.00D+00 WtEn= 1.00D+00
 Coeff-En:   0.000D+00 0.709D+00 0.291D+00
 Coeff:      0.000D+00 0.709D+00 0.291D+00
 Gap=     0.104 Goal=   None    Shift=    0.000
 RMSDP=5.21D-04 MaxDP=1.11D-02 DE= 8.52D-03 OVMax= 4.83D-02

 Cycle   4  Pass 1  IDiag  1:
 E= -338.675917573536     Delta-E=       -0.011141522838 Rises=F Damp=F
 DIIS: error= 2.69D-03 at cycle   4 NSaved=   4.
 NSaved= 4 IEnMin= 4 EnMin= -338.675917573536     IErMin= 4 ErrMin= 2.69D-03
 ErrMax= 2.69D-03  0.00D+00 EMaxC= 1.00D-01 BMatC= 6.79D-04 BMatP= 3.10D-03
 IDIUse=3 WtCom= 9.73D-01 WtEn= 2.69D-02
 Coeff-Com: -0.160D-01 0.415D+00 0.129D+00 0.472D+00
 Coeff-En:   0.000D+00 0.224D+00 0.000D+00 0.776D+00
 Coeff:     -0.156D-01 0.410D+00 0.125D+00 0.481D+00
 Gap=     0.101 Goal=   None    Shift=    0.000
 RMSDP=1.66D-04 MaxDP=4.09D-03 DE=-1.11D-02 OVMax= 8.86D-03

 Cycle   5  Pass 1  IDiag  1:
 E= -338.676565854497     Delta-E=       -0.000648280961 Rises=F Damp=F
 DIIS: error= 6.94D-04 at cycle   5 NSaved=   5.
 NSaved= 5 IEnMin= 5 EnMin= -338.676565854497     IErMin= 5 ErrMin= 6.94D-04
 ErrMax= 6.94D-04  0.00D+00 EMaxC= 1.00D-01 BMatC= 4.40D-05 BMatP= 6.79D-04
 IDIUse=3 WtCom= 9.93D-01 WtEn= 6.94D-03
 Coeff-Com: -0.999D-02 0.151D+00 0.272D-01 0.302D+00 0.530D+00
 Coeff-En:   0.000D+00 0.000D+00 0.000D+00 0.000D+00 0.100D+01
 Coeff:     -0.992D-02 0.150D+00 0.270D-01 0.300D+00 0.533D+00
 Gap=     0.101 Goal=   None    Shift=    0.000
 RMSDP=4.85D-05 MaxDP=1.71D-03 DE=-6.48D-04 OVMax= 2.09D-03

 Cycle   6  Pass 1  IDiag  1:
 E= -338.676599621733     Delta-E=       -0.000033767236 Rises=F Damp=F
 DIIS: error= 2.78D-04 at cycle   6 NSaved=   6.
 NSaved= 6 IEnMin= 6 EnMin= -338.676599621733     IErMin= 6 ErrMin= 2.78D-04
 ErrMax= 2.78D-04  0.00D+00 EMaxC= 1.00D-01 BMatC= 4.80D-06 BMatP= 4.40D-05
 IDIUse=3 WtCom= 9.97D-01 WtEn= 2.78D-03
 Coeff-Com: -0.279D-02 0.329D-01-0.373D-02 0.116D+00 0.318D+00 0.540D+00
 Coeff-En:   0.000D+00 0.000D+00 0.000D+00 0.000D+00 0.437D-01 0.956D+00
 Coeff:     -0.279D-02 0.328D-01-0.372D-02 0.115D+00 0.317D+00 0.541D+00
 Gap=     0.101 Goal=   None    Shift=    0.000
 RMSDP=1.42D-05 MaxDP=2.81D-04 DE=-3.38D-05 OVMax= 9.27D-04

 Cycle   7  Pass 1  IDiag  1:
 E= -338.676603387623     Delta-E=       -0.000003765890 Rises=F Damp=F
 DIIS: error= 1.02D-04 at cycle   7 NSaved=   7.
 NSaved= 7 IEnMin= 7 EnMin= -338.676603387623     IErMin= 7 ErrMin= 1.02D-04
 ErrMax= 1.02D-04  0.00D+00 EMaxC= 1.00D-01 BMatC= 9.05D-07 BMatP= 4.80D-06
 IDIUse=3 WtCom= 9.99D-01 WtEn= 1.02D-03
 Coeff-Com: -0.401D-03 0.667D-04-0.890D-02 0.359D-01 0.133D+00 0.335D+00
 Coeff-Com:  0.506D+00
 Coeff-En:   0.000D+00 0.000D+00 0.000D+00 0.000D+00 0.000D+00 0.724D-01
 Coeff-En:   0.928D+00
 Coeff:     -0.401D-03 0.666D-04-0.889D-02 0.359D-01 0.133D+00 0.334D+00
 Coeff:      0.506D+00
 Gap=     0.101 Goal=   None    Shift=    0.000
 RMSDP=5.33D-06 MaxDP=1.23D-04 DE=-3.77D-06 OVMax= 3.50D-04

 Cycle   8  Pass 1  IDiag  1:
 E= -338.676604108597     Delta-E=       -0.000000720975 Rises=F Damp=F
 DIIS: error= 7.36D-05 at cycle   8 NSaved=   8.
 NSaved= 8 IEnMin= 8 EnMin= -338.676604108597     IErMin= 8 ErrMin= 7.36D-05
 ErrMax= 7.36D-05  0.00D+00 EMaxC= 1.00D-01 BMatC= 2.09D-07 BMatP= 9.05D-07
 IDIUse=1 WtCom= 1.00D+00 WtEn= 0.00D+00
 Coeff-Com:  0.260D-03-0.479D-02-0.687D-02 0.640D-02 0.354D-01 0.125D+00
 Coeff-Com:  0.303D+00 0.542D+00
 Coeff:      0.260D-03-0.479D-02-0.687D-02 0.640D-02 0.354D-01 0.125D+00
 Coeff:      0.303D+00 0.542D+00
 Gap=     0.101 Goal=   None    Shift=    0.000
 RMSDP=2.65D-06 MaxDP=4.79D-05 DE=-7.21D-07 OVMax= 1.87D-04

 Cycle   9  Pass 1  IDiag  1:
 E= -338.676604270238     Delta-E=       -0.000000161641 Rises=F Damp=F
 DIIS: error= 3.06D-05 at cycle   9 NSaved=   9.
 NSaved= 9 IEnMin= 9 EnMin= -338.676604270238     IErMin= 9 ErrMin= 3.06D-05
 ErrMax= 3.06D-05  0.00D+00 EMaxC= 1.00D-01 BMatC= 5.37D-08 BMatP= 2.09D-07
 IDIUse=1 WtCom= 1.00D+00 WtEn= 0.00D+00
 Coeff-Com:  0.225D-03-0.325D-02-0.366D-02-0.274D-02-0.610D-02 0.499D-02
 Coeff-Com:  0.762D-01 0.357D+00 0.578D+00
 Coeff:      0.225D-03-0.325D-02-0.366D-02-0.274D-02-0.610D-02 0.499D-02
 Coeff:      0.762D-01 0.357D+00 0.578D+00
 Gap=     0.101 Goal=   None    Shift=    0.000
 RMSDP=1.21D-06 MaxDP=2.78D-05 DE=-1.62D-07 OVMax= 9.79D-05

 Cycle  10  Pass 1  IDiag  1:
 E= -338.676604328099     Delta-E=       -0.000000057860 Rises=F Damp=F
 DIIS: error= 6.50D-06 at cycle  10 NSaved=  10.
 NSaved=10 IEnMin=10 EnMin= -338.676604328099     IErMin=10 ErrMin= 6.50D-06
 ErrMax= 6.50D-06  0.00D+00 EMaxC= 1.00D-01 BMatC= 1.94D-09 BMatP= 5.37D-08
 IDIUse=1 WtCom= 1.00D+00 WtEn= 0.00D+00
 Coeff-Com:  0.439D-04-0.235D-03-0.601D-03-0.123D-02-0.585D-02-0.160D-01
 Coeff-Com: -0.156D-01 0.618D-01 0.209D+00 0.768D+00
 Coeff:      0.439D-04-0.235D-03-0.601D-03-0.123D-02-0.585D-02-0.160D-01
 Coeff:     -0.156D-01 0.618D-01 0.209D+00 0.768D+00
 Gap=     0.101 Goal=   None    Shift=    0.000
 RMSDP=4.07D-07 MaxDP=6.31D-06 DE=-5.79D-08 OVMax= 3.69D-05

 Cycle  11  Pass 1  IDiag  1:
 E= -338.676604329786     Delta-E=       -0.000000001687 Rises=F Damp=F
 DIIS: error= 1.75D-06 at cycle  11 NSaved=  11.
 NSaved=11 IEnMin=11 EnMin= -338.676604329786     IErMin=11 ErrMin= 1.75D-06
 ErrMax= 1.75D-06  0.00D+00 EMaxC= 1.00D-01 BMatC= 4.92D-10 BMatP= 1.94D-09
 IDIUse=1 WtCom= 1.00D+00 WtEn= 0.00D+00
 Coeff-Com:  0.826D-05 0.150D-03-0.482D-05-0.597D-03-0.322D-02-0.115D-01
 Coeff-Com: -0.183D-01 0.728D-03 0.773D-01 0.501D+00 0.454D+00
 Coeff:      0.826D-05 0.150D-03-0.482D-05-0.597D-03-0.322D-02-0.115D-01
 Coeff:     -0.183D-01 0.728D-03 0.773D-01 0.501D+00 0.454D+00
 Gap=     0.101 Goal=   None    Shift=    0.000
 RMSDP=1.40D-07 MaxDP=3.16D-06 DE=-1.69D-09 OVMax= 1.20D-05

 Cycle  12  Pass 1  IDiag  1:
 E= -338.676604330257     Delta-E=       -0.000000000472 Rises=F Damp=F
 DIIS: error= 4.95D-07 at cycle  12 NSaved=  12.
 NSaved=12 IEnMin=12 EnMin= -338.676604330257     IErMin=12 ErrMin= 4.95D-07
 ErrMax= 4.95D-07  0.00D+00 EMaxC= 1.00D-01 BMatC= 2.46D-11 BMatP= 4.92D-10
 IDIUse=1 WtCom= 1.00D+00 WtEn= 0.00D+00
 Coeff-Com: -0.139D-05 0.591D-04 0.656D-04-0.708D-04-0.334D-03-0.221D-02
 Coeff-Com: -0.347D-02-0.564D-02 0.102D-01 0.735D-01 0.154D+00 0.774D+00
 Coeff:     -0.139D-05 0.591D-04 0.656D-04-0.708D-04-0.334D-03-0.221D-02
 Coeff:     -0.347D-02-0.564D-02 0.102D-01 0.735D-01 0.154D+00 0.774D+00
 Gap=     0.101 Goal=   None    Shift=    0.000
 RMSDP=4.20D-08 MaxDP=1.12D-06 DE=-4.72D-10 OVMax= 3.76D-06

 Cycle  13  Pass 1  IDiag  1:
 E= -338.676604330283     Delta-E=       -0.000000000026 Rises=F Damp=F
 DIIS: error= 9.63D-08 at cycle  13 NSaved=  13.
 NSaved=13 IEnMin=13 EnMin= -338.676604330283     IErMin=13 ErrMin= 9.63D-08
 ErrMax= 9.63D-08  0.00D+00 EMaxC= 1.00D-01 BMatC= 1.77D-12 BMatP= 2.46D-11
 IDIUse=1 WtCom= 1.00D+00 WtEn= 0.00D+00
 Coeff-Com: -0.131D-05 0.184D-04 0.376D-04 0.452D-05 0.467D-04-0.340D-03
 Coeff-Com: -0.508D-03-0.342D-02-0.396D-03-0.713D-02 0.460D-01 0.343D+00
 Coeff-Com:  0.623D+00
 Coeff:     -0.131D-05 0.184D-04 0.376D-04 0.452D-05 0.467D-04-0.340D-03
 Coeff:     -0.508D-03-0.342D-02-0.396D-03-0.713D-02 0.460D-01 0.343D+00
 Coeff:      0.623D+00
 Gap=     0.101 Goal=   None    Shift=    0.000
 RMSDP=8.73D-09 MaxDP=2.82D-07 DE=-2.59D-11 OVMax= 6.59D-07

 SCF Done:  E(RB3LYP) =  -338.676604330     A.U. after   13 cycles
            NFock= 13  Conv=0.87D-08     -V/T= 2.0041
 KE= 3.372819611055D+02 PE=-1.320033171043D+03 EE= 3.737577590106D+02
 Leave Link  502 at Fri Oct 21 08:01:00 2022, MaxMem=  8053063680 cpu:              86.2 elap:               3.5
 (Enter /public3/home/scg5914/software-scg5914/g16/l701.exe)
 ... and contract with generalized density number  0.
 Compute integral first derivatives.
 R6Disp: Adding Grimme-D3(BJ) dispersion energy 1st derivatives to the gradient.
 Leave Link  701 at Fri Oct 21 08:01:00 2022, MaxMem=  8053063680 cpu:               2.6 elap:               0.1
 (Enter /public3/home/scg5914/software-scg5914/g16/l702.exe)
 L702 exits ... SP integral derivatives will be done elsewhere.
 Leave Link  702 at Fri Oct 21 08:01:00 2022, MaxMem=  8053063680 cpu:               0.2 elap:               0.0
 (Enter /public3/home/scg5914/software-scg5914/g16/l703.exe)
 Integral derivatives from FoFJK, PRISM(SPDF).
 Compute integral first derivatives, UseDBF=F ICtDFT=           0.
 Calling FoFJK, ICntrl=      2127 FMM=F ISym2X=0 I1Cent= 0 IOpClX= 0 NMat=1 NMatS=1 NMatT=0.
 FoFJK:  IHMeth= 1 ICntrl=    2127 DoSepK=F KAlg= 0 I1Cent=           0 FoldK=F
 IRaf=         0 NMat=       1 IRICut=       1 DoRegI=T DoRafI=F ISym2E= 0 IDoP0=0 IntGTp=1.
 FoFCou: FMM=F IPFlag=           0 FMFlag=      100000 FMFlg1=         800
         NFxFlg=           0 DoJE=F BraDBF=F KetDBF=F FulRan=T
         wScrn=  0.000000 ICntrl=      2127 IOpCl=  0 I1Cent=           0 NGrid=           0
         NMat0=    1 NMatS0=      1 NMatT0=    0 NMatD0=    1 NMtDS0=    0 NMtDT0=    0
 Symmetry not used in FoFCou.
 Leave Link  703 at Fri Oct 21 08:01:00 2022, MaxMem=  8053063680 cpu:              20.9 elap:               0.7
 (Enter /public3/home/scg5914/software-scg5914/g16/l716.exe)
 Dipole        = 1.21004904D+00-2.84933442D-01 8.83482319D-08
 ***** Axes restored to original set *****
 -------------------------------------------------------------------
 Center     Atomic                   Forces (Hartrees/Bohr)
 Number     Number              X              Y              Z
 -------------------------------------------------------------------
      1        8           0.006845114    0.017921551    0.000009128
      2        6          -0.026912393   -0.017015738    0.000253130
      3        7           0.004748942    0.011835623    0.000001854
      4        6          -0.027788069   -0.013084803    0.000304106
      5        7           0.075853054   -0.013653233   -0.001079386
      6        6          -0.087822375   -0.008333691    0.001129346
      7        6           0.058255204    0.024928462   -0.000646332
      8        1          -0.001816061   -0.000022026    0.000024280
      9        1           0.001742436    0.000747381   -0.000019888
     10        1          -0.003105851   -0.003323525    0.000023761
 -------------------------------------------------------------------
 Cartesian Forces:  Max     0.087822375 RMS     0.025984539
 Leave Link  716 at Fri Oct 21 08:01:00 2022, MaxMem=  8053063680 cpu:               0.2 elap:               0.0
 (Enter /public3/home/scg5914/software-scg5914/g16/l103.exe)

 GradGradGradGradGradGradGradGradGradGradGradGradGradGradGradGradGradGrad
 Berny optimization.
 Using GEDIIS/GDIIS optimizer.
 FormGI is forming the generalized inverse of G from B-inverse, IUseBI=4.
 Internal  Forces:  Max     0.057554182 RMS     0.013987436
 Search for a local minimum.
 Step number   2 out of a maximum of   51
 All quantities printed in internal units (Hartrees-Bohrs-Radians)
 RMS Force = .13987D-01 SwitMx=.10000D-02 MixMth= 1
 Mixed Optimization -- RFO/linear search
 Update second derivatives using D2CorX and points    1    2
 DE= -3.56D-02 DEPred=-3.02D-02 R= 1.18D+00
 TightC=F SS=  1.41D+00  RLast= 3.00D-01 DXNew= 5.0454D-01 8.9951D-01
 Trust test= 1.18D+00 RLast= 3.00D-01 DXMaxT set to 5.05D-01
 ITU=  1  0
 Use linear search instead of GDIIS.
     Eigenvalues ---    0.01444   0.01648   0.01815   0.01930   0.02288
     Eigenvalues ---    0.02478   0.02616   0.15556   0.16000   0.16027
     Eigenvalues ---    0.17839   0.22754   0.24480   0.25782   0.35086
     Eigenvalues ---    0.35665   0.35952   0.40117   0.44802   0.45634
     Eigenvalues ---    0.50634   0.53366   0.66314   0.97104
 RFO step:  Lambda=-2.35623692D-03 EMin= 1.44434013D-02
 Quartic linear search produced a step of  0.92155.
 Iteration  1 RMS(Cart)=  0.04108675 RMS(Int)=  0.00292655
 Iteration  2 RMS(Cart)=  0.00278903 RMS(Int)=  0.00161294
 Iteration  3 RMS(Cart)=  0.00000315 RMS(Int)=  0.00161293
 Iteration  4 RMS(Cart)=  0.00000000 RMS(Int)=  0.00161293
 ITry= 1 IFail=0 DXMaxC= 1.45D-01 DCOld= 1.00D+10 DXMaxT= 5.05D-01 DXLimC= 3.00D+00 Rises=F
 Variable       Old X    -DE/DX   Delta X   Delta X   Delta X     New X
                                 (Linear)    (Quad)   (Total)
    R1        2.27207  -0.01807  -0.02145  -0.00554  -0.02699   2.24508
    R2        2.69194   0.00585   0.01008   0.01754   0.02565   2.71759
    R3        2.77605   0.01833   0.03539   0.03401   0.07003   2.84608
    R4        2.54526  -0.00841  -0.01286  -0.00598  -0.02125   2.52401
    R5        1.91844   0.00158   0.00545  -0.00200   0.00346   1.92189
    R6        2.46374   0.01749   0.01306   0.02911   0.04167   2.50541
    R7        2.05201  -0.00121  -0.00288  -0.00174  -0.00462   2.04740
    R8        2.44596  -0.05755  -0.14139  -0.00763  -0.14697   2.29899
    R9        2.51220  -0.01993  -0.05209   0.00335  -0.04623   2.46598
   R10        2.04968  -0.00132   0.00374  -0.01331  -0.00957   2.04010
    A1        2.14289   0.00590   0.03875  -0.03866   0.00088   2.14377
    A2        2.18338  -0.00873  -0.05774   0.02980  -0.02715   2.15623
    A3        1.95691   0.00283   0.01900   0.00886   0.02627   1.98318
    A4        2.17591  -0.00138   0.00853   0.00543   0.00957   2.18548
    A5        2.01753   0.00155   0.00540  -0.01393  -0.00633   2.01120
    A6        2.08975  -0.00017  -0.01393   0.00850  -0.00324   2.08651
    A7        2.12793  -0.01311  -0.03839  -0.02214  -0.06371   2.06422
    A8        2.05473   0.00805   0.02903   0.00701   0.03763   2.09236
    A9        2.10053   0.00506   0.00935   0.01514   0.02608   2.12660
   A10        1.98324  -0.00192  -0.02626   0.02093  -0.00392   1.97932
   A11        2.34340   0.04097   0.15112   0.00530   0.16113   2.50453
   A12        1.97898  -0.02739  -0.11400  -0.01838  -0.12934   1.84964
   A13        2.09364   0.00923   0.04076  -0.00768   0.03157   2.12520
   A14        2.21057   0.01816   0.07323   0.02606   0.09777   2.30834
    D1       -3.14149  -0.00000  -0.00004   0.00011   0.00006  -3.14142
    D2        0.00012  -0.00000  -0.00005   0.00010   0.00005   0.00018
    D3       -0.00008   0.00000   0.00003  -0.00007  -0.00003  -0.00011
    D4        3.14154   0.00000   0.00003  -0.00008  -0.00004   3.14149
    D5        3.14150   0.00000   0.00007  -0.00021  -0.00014   3.14136
    D6       -0.00011   0.00000   0.00007  -0.00018  -0.00012  -0.00023
    D7        0.00009  -0.00000  -0.00003  -0.00002  -0.00004   0.00005
    D8       -3.14152  -0.00000  -0.00003   0.00000  -0.00002  -3.14154
    D9        0.00001  -0.00000  -0.00003   0.00012   0.00009   0.00010
   D10       -3.14156  -0.00000  -0.00001  -0.00002  -0.00003  -3.14159
   D11        3.14159  -0.00000  -0.00002   0.00013   0.00010  -3.14150
   D12        0.00001  -0.00000  -0.00000  -0.00001  -0.00001  -0.00000
   D13        0.00003  -0.00000   0.00000  -0.00007  -0.00007  -0.00004
   D14       -3.14158  -0.00000  -0.00002   0.00007   0.00005  -3.14153
   D15       -0.00000   0.00000   0.00002  -0.00003  -0.00002  -0.00002
   D16       -0.00007   0.00000  -0.00000   0.00008   0.00008   0.00001
   D17        3.14155   0.00000   0.00000   0.00005   0.00005  -3.14158
         Item               Value     Threshold  Converged?
 Maximum Force            0.057554     0.000450     NO 
 RMS     Force            0.013987     0.000300     NO 
 Maximum Displacement     0.145061     0.001800     NO 
 RMS     Displacement     0.041637     0.001200     NO 
 Predicted change in Energy=-1.658008D-02
 Lowest energy point so far.  Saving SCF results.
 GradGradGradGradGradGradGradGradGradGradGradGradGradGradGradGradGradGrad

 Leave Link  103 at Fri Oct 21 08:01:01 2022, MaxMem=  8053063680 cpu:               0.8 elap:               0.0
 (Enter /public3/home/scg5914/software-scg5914/g16/l202.exe)
                          Input orientation:                          
 ---------------------------------------------------------------------
 Center     Atomic      Atomic             Coordinates (Angstroms)
 Number     Number       Type             X           Y           Z
 ---------------------------------------------------------------------
      1          8           0       -0.004536   -0.042793    0.003270
      2          6           0        0.019069    1.145005    0.009139
      3          7           0       -1.173505    1.948408    0.029033
      4          6           0       -1.202661    3.283719    0.036182
      5          7           0       -0.049094    3.937088    0.024062
      6          6           0        0.921505    3.203803    0.007413
      7          6           0        1.290520    1.952178   -0.003794
      8          1           0       -2.047016    1.427607    0.037994
      9          1           0       -2.153520    3.802820    0.051432
     10          1           0        2.262146    1.481869   -0.019131
 ---------------------------------------------------------------------
                    Distance matrix (angstroms):
                    1          2          3          4          5
     1  O    0.000000
     2  C    1.188047   0.000000
     3  N    2.309119   1.438084   0.000000
     4  C    3.535854   2.463220   1.335648   0.000000
     5  N    3.980184   2.792955   2.284551   1.325803   0.000000
     6  C    3.376086   2.247897   2.442448   2.125863   1.216571
     7  C    2.378472   1.506082   2.464247   2.826756   2.394829
     8  H    2.516943   2.085523   1.017023   2.039140   3.207707
     9  H    4.405586   3.433062   2.097564   1.083435   2.108883
    10  H    2.731838   2.268406   3.467517   3.905714   3.372209
                    6          7          8          9         10
     6  C    0.000000
     7  C    1.304938   0.000000
     8  H    3.459469   3.378767   0.000000
     9  H    3.133136   3.910158   2.377638   0.000000
    10  H    2.182448   1.079575   4.309882   4.988978   0.000000
 Stoichiometry    C4H3N2O(1+)
 Framework group  C1[X(C4H3N2O)]
 Deg. of freedom    24
 Full point group                 C1      NOp   1
 RotChk:  IX=0 Diff= 5.04D-02
 Largest Abelian subgroup         C1      NOp   1
 Largest concise Abelian subgroup C1      NOp   1
                         Standard orientation:                         
 ---------------------------------------------------------------------
 Center     Atomic      Atomic             Coordinates (Angstroms)
 Number     Number       Type             X           Y           Z
 ---------------------------------------------------------------------
      1          8           0       -2.172005   -0.271274    0.000069
      2          6           0       -1.003739   -0.055382   -0.000098
      3          7           0       -0.017490   -1.101995   -0.000021
      4          6           0        1.304897   -0.914248   -0.000016
      5          7           0        1.762488    0.330085    0.000034
      6          6           0        0.881440    1.169013    0.000027
      7          6           0       -0.413502    1.330223   -0.000027
      8          1           0       -0.389699   -2.048460    0.000026
      9          1           0        1.971390   -1.768425    0.000042
     10          1           0       -1.035217    2.212806   -0.000027
 ---------------------------------------------------------------------
 Rotational constants (GHZ):           6.3633104           3.0031684           2.0402643
 Leave Link  202 at Fri Oct 21 08:01:01 2022, MaxMem=  8053063680 cpu:               0.1 elap:               0.0
 (Enter /public3/home/scg5914/software-scg5914/g16/l301.exe)
 Standard basis: 6-311+G(d,p) (5D, 7F)
 Ernie: Thresh=  0.10000D-02 Tol=  0.10000D-05 Strict=F.
 There are   179 symmetry adapted cartesian basis functions of A   symmetry.
 There are   172 symmetry adapted basis functions of A   symmetry.
   172 basis functions,   276 primitive gaussians,   179 cartesian basis functions
    24 alpha electrons       24 beta electrons
       nuclear repulsion energy       272.3937511491 Hartrees.
 IExCor=  402 DFT=T Ex+Corr=B3LYP ExCW=0 ScaHFX=  0.200000
 ScaDFX=  0.800000  0.720000  1.000000  0.810000 ScalE2=  1.000000  1.000000
 IRadAn=      5 IRanWt=     -1 IRanGd=            0 ICorTp=0 IEmpDi=141
 NAtoms=   10 NActive=   10 NUniq=   10 SFac= 1.00D+00 NAtFMM=   60 NAOKFM=F Big=F
 Integral buffers will be    131072 words long.
 Raffenetti 2 integral format.
 Two-electron integral symmetry is turned on.
 R6Disp:  Grimme-D3(BJ) Dispersion energy=       -0.0162887654 Hartrees.
 Nuclear repulsion after empirical dispersion term =      272.3774623838 Hartrees.
 Leave Link  301 at Fri Oct 21 08:01:01 2022, MaxMem=  8053063680 cpu:               0.6 elap:               0.0
 (Enter /public3/home/scg5914/software-scg5914/g16/l302.exe)
 NPDir=0 NMtPBC=     1 NCelOv=     1 NCel=       1 NClECP=     1 NCelD=      1
         NCelK=      1 NCelE2=     1 NClLst=     1 CellRange=     0.0.
 One-electron integrals computed using PRISM.
 One-electron integral symmetry used in STVInt
 NBasis=   172 RedAO= T EigKep=  2.49D-05  NBF=   172
 NBsUse=   172 1.00D-06 EigRej= -1.00D+00 NBFU=   172
 Precomputing XC quadrature grid using
 IXCGrd= 4 IRadAn=           5 IRanWt=          -1 IRanGd=           0 AccXCQ= 0.00D+00.
 Generated NRdTot=       0 NPtTot=           0 NUsed=           0 NTot=          32
 NSgBfM=   179   179   179   179   179 MxSgAt=    10 MxSgA2=    10.
 Leave Link  302 at Fri Oct 21 08:01:01 2022, MaxMem=  8053063680 cpu:               2.9 elap:               0.1
 (Enter /public3/home/scg5914/software-scg5914/g16/l303.exe)
 DipDrv:  MaxL=1.
 Leave Link  303 at Fri Oct 21 08:01:01 2022, MaxMem=  8053063680 cpu:               0.3 elap:               0.0
 (Enter /public3/home/scg5914/software-scg5914/g16/l401.exe)
 Initial guess from the checkpoint file:  "dsgdb9nsd_000923-3.chk"
 B after Tr=    -0.000000   -0.000000   -0.000000
         Rot=    0.999840   -0.000000    0.000000   -0.017907 Ang=  -2.05 deg.
 Guess basis will be translated and rotated to current coordinates.
 JPrj=2 DoOrth=T DoCkMO=T.
 Generating alternative initial guess.
 ExpMin= 4.38D-02 ExpMax= 8.59D+03 ExpMxC= 1.30D+03 IAcc=3 IRadAn=         5 AccDes= 0.00D+00
 Harris functional with IExCor=  402 and IRadAn=       5 diagonalized for initial guess.
 HarFok:  IExCor=  402 AccDes= 0.00D+00 IRadAn=         5 IDoV= 1 UseB2=F ITyADJ=14
 ICtDFT=  3500011 ScaDFX=  1.000000  1.000000  1.000000  1.000000
 FoFCou: FMM=F IPFlag=           0 FMFlag=      100000 FMFlg1=           0
         NFxFlg=           0 DoJE=T BraDBF=F KetDBF=T FulRan=T
         wScrn=  0.000000 ICntrl=       500 IOpCl=  0 I1Cent=   200000004 NGrid=           0
         NMat0=    1 NMatS0=      1 NMatT0=    0 NMatD0=    1 NMtDS0=    0 NMtDT0=    0
 Petite list used in FoFCou.
 Harris En= -338.760226941330    
 Leave Link  401 at Fri Oct 21 08:01:01 2022, MaxMem=  8053063680 cpu:               9.0 elap:               0.3
 (Enter /public3/home/scg5914/software-scg5914/g16/l502.exe)
 Keep R1 ints in memory in canonical form, NReq=142859929.
 FoFCou: FMM=F IPFlag=           0 FMFlag=           0 FMFlg1=           0
         NFxFlg=           0 DoJE=F BraDBF=F KetDBF=F FulRan=T
[...]
  23. LP (   2) O   1                /162. BD*(   1) C   2 - C   7           25.56    0.59    0.115
  24. LP (   1) N   3                / 44. RY*(   3) C   2                    0.72    1.90    0.037
  24. LP (   1) N   3                / 47. RY*(   6) C   2                    1.01    1.59    0.041
  24. LP (   1) N   3                / 61. RY*(   3) N   3                    0.70    0.96    0.026
  24. LP (   1) N   3                / 78. RY*(   3) C   4                    1.71    2.00    0.060
  24. LP (   1) N   3                / 80. RY*(   5) C   4                    1.59    1.08    0.042
  24. LP (   1) N   3                /146. RY*(   3) H   8                    0.67    1.86    0.036
  24. LP (   1) N   3                /160. BD*(   2) O   1 - C   2           35.04    0.31    0.097
  24. LP (   1) N   3                /166. BD*(   2) C   4 - N   5           77.43    0.24    0.125
 160. BD*(   2) O   1 - C   2        / 26. RY*(   2) O   1                    2.42    0.72    0.100
 160. BD*(   2) O   1 - C   2        / 38. RY*(  14) O   1                    0.58    3.10    0.103
 160. BD*(   2) O   1 - C   2        / 44. RY*(   3) C   2                    2.65    1.59    0.155
 160. BD*(   2) O   1 - C   2        / 56. RY*(  15) C   2                    0.61    0.56    0.045
 160. BD*(   2) O   1 - C   2        /171. BD*(   2) C   6 - C   7           77.19    0.01    0.057
 161. BD*(   1) C   2 - N   3        / 27. RY*(   3) O   1                    0.59    0.92    0.088
 161. BD*(   1) C   2 - N   3        / 43. RY*(   2) C   2                    1.23    1.37    0.150
 161. BD*(   1) C   2 - N   3        / 50. RY*(   9) C   2                    0.55    1.49    0.108
 161. BD*(   1) C   2 - N   3        / 60. RY*(   2) N   3                    0.57    0.78    0.079
 161. BD*(   1) C   2 - N   3        / 62. RY*(   4) N   3                    0.57    0.88    0.085
 161. BD*(   1) C   2 - N   3        / 65. RY*(   7) N   3                    0.54    1.83    0.118
 161. BD*(   1) C   2 - N   3        /162. BD*(   1) C   2 - C   7            4.59    0.02    0.030
 161. BD*(   1) C   2 - N   3        /163. BD*(   1) N   3 - C   4            1.76    0.15    0.056
 161. BD*(   1) C   2 - N   3        /165. BD*(   1) C   4 - N   5            2.97    0.12    0.060
 161. BD*(   1) C   2 - N   3        /167. BD*(   1) C   4 - H   9            3.55    0.07    0.053
 161. BD*(   1) C   2 - N   3        /170. BD*(   1) C   6 - C   7            0.60    0.33    0.049
 161. BD*(   1) C   2 - N   3        /172. BD*(   1) C   7 - H  10            1.15    0.11    0.040
 166. BD*(   2) C   4 - N   5        / 78. RY*(   3) C   4                    0.96    1.76    0.086
 166. BD*(   2) C   4 - N   5        / 80. RY*(   5) C   4                    2.67    0.84    0.099
 166. BD*(   2) C   4 - N   5        / 94. RY*(   2) N   5                    0.88    0.62    0.049
 166. BD*(   2) C   4 - N   5        / 99. RY*(   7) N   5                    0.66    1.98    0.076
 166. BD*(   2) C   4 - N   5        /171. BD*(   2) C   6 - C   7           29.31    0.08    0.079
 169. BD*(   2) N   5 - C   6        /110. RY*(   1) C   6                    1.48    1.11    0.105
 169. BD*(   2) N   5 - C   6        /112. RY*(   3) C   6                    1.35    1.26    0.109
 169. BD*(   2) N   5 - C   6        /113. RY*(   4) C   6                    1.22    0.98    0.091
 169. BD*(   2) N   5 - C   6        /123. RY*(  14) C   6                    0.51    2.37    0.092
 169. BD*(   2) N   5 - C   6        /162. BD*(   1) C   2 - C   7            5.62    0.33    0.097
 169. BD*(   2) N   5 - C   6        /165. BD*(   1) C   4 - N   5            4.96    0.42    0.110
 169. BD*(   2) N   5 - C   6        /168. BD*(   1) N   5 - C   6           13.34    0.56    0.211
 169. BD*(   2) N   5 - C   6        /170. BD*(   1) C   6 - C   7            1.89    0.63    0.088
 169. BD*(   2) N   5 - C   6        /172. BD*(   1) C   7 - H  10            2.82    0.41    0.088
 171. BD*(   2) C   6 - C   7        / 94. RY*(   2) N   5                    0.57    0.55    0.048
 171. BD*(   2) C   6 - C   7        /118. RY*(   9) C   6                    1.06    0.73    0.076
 171. BD*(   2) C   6 - C   7        /130. RY*(   4) C   7                    1.69    0.52    0.081
 171. BD*(   2) C   6 - C   7        /141. RY*(  15) C   7                    0.59    0.98    0.066


 Natural Bond Orbitals (Summary):

                                                            Principal Delocalizations
           NBO                        Occupancy    Energy   (geminal,vicinal,remote)
 ====================================================================================
 Molecular unit  1  (C4H3N2O)
     1. BD (   1) O   1 - C   2          1.99289    -1.35250  42(g),162(g),163(v),161(g)
     2. BD (   2) O   1 - C   2          1.98952    -0.61691  171(v),160(g)
     3. BD (   1) C   2 - N   3          1.98669    -1.03946  76(v),167(v),169(r),163(g)
                                                    79(v),159(g),172(v),127(v)
     4. BD (   1) C   2 - C   7          1.85494    -0.87220  169(v),168(v),170(g),113(v)
                                                    25(v),164(v),59(v)
     5. BD (   1) N   3 - C   4          1.99216    -1.14458  45(v),159(v),165(g),164(g)
                                                    168(v),42(v),161(g)
     6. BD (   1) N   3 - H   8          1.97840    -0.91950  165(v),162(v),77(v),167(v)
                                                    42(v)
     7. BD (   1) C   4 - N   5          1.97821    -1.12957  169(g),170(v),110(v),164(v)
                                                    168(g),112(v),62(v)
     8. BD (   2) C   4 - N   5          1.78240    -0.58165  171(v),111(v),166(g),61(v)
     9. BD (   1) C   4 - H   9          1.97829    -0.80647  161(v),168(v),93(v),59(v)
                                                    164(v)
    10. BD (   1) N   5 - C   6          1.98795    -1.20191  169(g),77(v),170(g),128(v)
                                                    167(v)
    11. BD (   2) N   5 - C   6          1.91918    -0.64158  165(g),167(v),163(v),76(v)
                                                    169(g),172(v),168(g),162(v)
                                                    128(v),79(v),170(g),164(r)
                                                    127(v),159(r)
    12. BD (   1) C   6 - C   7          1.98733    -1.06657  168(g),172(g),159(v),95(v)
                                                    165(v),45(v),93(v)
    13. BD (   2) C   6 - C   7          1.81953    -0.54947  160(v),166(v),94(v),171(g)
                                                    44(v)
    14. BD (   1) C   7 - H  10          1.96356    -0.78949  168(v),170(g),161(v),169(v)
                                                    110(v),42(v),112(v),120(v)
    15. CR (   1) O   1                  1.99973   -19.06205  42(v),162(v),161(v)
    16. CR (   1) C   2                  1.99941   -10.43122  163(v),128(v),28(v)
    17. CR (   1) N   3                  1.99930   -14.46119  77(v),45(v),76(v),43(v)
                                                    144(v)
    18. CR (   1) C   4                  1.99931   -10.41593  168(v),161(v),149(v),95(v)
    19. CR (   1) N   5                  1.99886   -14.42234  169(g),170(v),110(v),113(v)
                                                    76(v),81(v)
    20. CR (   1) C   6                  1.99859   -10.39052  127(v),165(v),95(v),172(v)
                                                    169(g)
    21. CR (   1) C   7                  1.99883   -10.31803  168(v),110(v),169(v),154(v)
                                                    170(g),45(v)
    22. LP (   1) O   1                  1.97462    -0.90763  42(v),161(v),54(v),162(v)
    23. LP (   2) O   1                  1.72977    -0.48262  161(v),162(v),43(v),45(v)
                                                    48(v)
    24. LP (   1) N   3                  1.53904    -0.52206  166(v),160(v),78(v),80(v)
                                                    47(v),44(v),61(g),146(v)
    25. RY*(   1) O   1                  0.00309     0.54728   
    26. RY*(   2) O   1                  0.00128     0.50102   
    27. RY*(   3) O   1                  0.00088     1.01028   
    28. RY*(   4) O   1                  0.00011     1.09832   
    29. RY*(   5) O   1                  0.00009     1.18680   
    30. RY*(   6) O   1                  0.00004     2.81536   
    31. RY*(   7) O   1                  0.00002     2.69500   
    32. RY*(   8) O   1                  0.00000     2.40769   
    33. RY*(   9) O   1                  0.00000     3.84476   
    34. RY*(  10) O   1                  0.00000    49.06733   
    35. RY*(  11) O   1                  0.00001     2.21329   
    36. RY*(  12) O   1                  0.00000     3.11902   
    37. RY*(  13) O   1                  0.00000     2.97978   
    38. RY*(  14) O   1                  0.00000     2.88941   
    39. RY*(  15) O   1                  0.00001     2.62990   
    40. RY*(  16) O   1                  0.00000     3.09852   
    41. RY*(  17) O   1                  0.00000     2.65432   
    42. RY*(   1) C   2                  0.01697     0.73618   
    43. RY*(   2) C   2                  0.00916     1.46161   
    44. RY*(   3) C   2                  0.00549     1.37348   
    45. RY*(   4) C   2                  0.00230     1.37910   
    46. RY*(   5) C   2                  0.00204     0.86697   
    47. RY*(   6) C   2                  0.00075     1.06768   
    48. RY*(   7) C   2                  0.00024     0.89253   
    49. RY*(   8) C   2                  0.00019     2.72639   
    50. RY*(   9) C   2                  0.00015     1.57661   
    51. RY*(  10) C   2                  0.00006     0.51028   
    52. RY*(  11) C   2                  0.00003     0.72424   
    53. RY*(  12) C   2                  0.00003     6.59277   
    54. RY*(  13) C   2                  0.00000     3.00855   
    55. RY*(  14) C   2                  0.00001     1.51070   
    56. RY*(  15) C   2                  0.00000     0.34763   
    57. RY*(  16) C   2                  0.00000    15.32144   
    58. RY*(  17) C   2                  0.00000     2.19876   
    59. RY*(   1) N   3                  0.00336     0.96253   
    60. RY*(   2) N   3                  0.00126     0.86723   
    61. RY*(   3) N   3                  0.00110     0.44067   
    62. RY*(   4) N   3                  0.00101     0.97062   
    63. RY*(   5) N   3                  0.00033     1.31418   
    64. RY*(   6) N   3                  0.00029     1.92746   
    65. RY*(   7) N   3                  0.00027     1.91674   
    66. RY*(   8) N   3                  0.00009     2.13768   
    67. RY*(   9) N   3                  0.00007     1.25594   
    68. RY*(  10) N   3                  0.00005     1.75533   
    69. RY*(  11) N   3                  0.00002     1.81235   
    70. RY*(  12) N   3                  0.00000     3.53399   
    71. RY*(  13) N   3                  0.00000    34.73846   
    72. RY*(  14) N   3                  0.00000     3.73478   
    73. RY*(  15) N   3                  0.00000     0.88398   
    74. RY*(  16) N   3                  0.00000     2.42906   
    75. RY*(  17) N   3                  0.00001     2.17828   
    76. RY*(   1) C   4                  0.00718     0.88769   
    77. RY*(   2) C   4                  0.00437     0.84321   
    78. RY*(   3) C   4                  0.00301     1.47891   
    79. RY*(   4) C   4                  0.00167     0.85542   
    80. RY*(   5) C   4                  0.00080     0.55697   
    81. RY*(   6) C   4                  0.00036     0.86243   
    82. RY*(   7) C   4                  0.00031     2.76810   
    83. RY*(   8) C   4                  0.00006     0.87182   
    84. RY*(   9) C   4                  0.00004     2.12868   
    85. RY*(  10) C   4                  0.00002     0.85212   
    86. RY*(  11) C   4                  0.00001     2.36645   
    87. RY*(  12) C   4                  0.00000     2.37005   
    88. RY*(  13) C   4                  0.00001     0.49399   
    89. RY*(  14) C   4                  0.00000     0.35375   
    90. RY*(  15) C   4                  0.00000    21.54154   
    91. RY*(  16) C   4                  0.00001     1.58252   
    92. RY*(  17) C   4                  0.00000     1.92119   
    93. RY*(   1) N   5                  0.00330     0.45272   
    94. RY*(   2) N   5                  0.00276     0.34505   
    95. RY*(   3) N   5                  0.00193     1.14389   
    96. RY*(   4) N   5                  0.00030     1.24949   
    97. RY*(   5) N   5                  0.00012     1.83242   
    98. RY*(   6) N   5                  0.00010     1.56468   
    99. RY*(   7) N   5                  0.00009     1.69883   
   100. RY*(   8) N   5                  0.00004     1.70025   
   101. RY*(   9) N   5                  0.00003     0.92578   
   102. RY*(  10) N   5                  0.00002     2.08420   
   103. RY*(  11) N   5                  0.00000     0.67676   
   104. RY*(  12) N   5                  0.00000     3.31559   
   105. RY*(  13) N   5                  0.00000     2.30281   
   106. RY*(  14) N   5                  0.00000     1.72140   
   107. RY*(  15) N   5                  0.00000     3.65961   
   108. RY*(  16) N   5                  0.00001     1.90467   
   109. RY*(  17) N   5                  0.00000    34.81304   
   110. RY*(   1) C   6                  0.00735     0.89230   
   111. RY*(   2) C   6                  0.00328     1.43878   
   112. RY*(   3) C   6                  0.00173     1.04676   
   113. RY*(   4) C   6                  0.00138     0.76897   
   114. RY*(   5) C   6                  0.00054     1.94325   
   115. RY*(   6) C   6                  0.00018     1.01727   
   116. RY*(   7) C   6                  0.00017     1.30929   
   117. RY*(   8) C   6                  0.00011     1.52506   
   118. RY*(   9) C   6                  0.00007     0.52333   
   119. RY*(  10) C   6                  0.00006     1.76996   
   120. RY*(  11) C   6                  0.00002     4.74464   
   121. RY*(  12) C   6                  0.00000     2.39306   
   122. RY*(  13) C   6                  0.00001     1.95750   
   123. RY*(  14) C   6                  0.00000     2.15428   
   124. RY*(  15) C   6                  0.00001    16.88190   
   125. RY*(  16) C   6                  0.00000     0.47193   
   126. RY*(  17) C   6                  0.00000     1.85213   
   127. RY*(   1) C   7                  0.00256     0.80870   
   128. RY*(   2) C   7                  0.00235     0.81299   
   129. RY*(   3) C   7                  0.00110     0.58330   
   130. RY*(   4) C   7                  0.00110     0.31441   
   131. RY*(   5) C   7                  0.00045     1.48403   
   132. RY*(   6) C   7                  0.00025     1.11474   
   133. RY*(   7) C   7                  0.00013     1.84483   
   134. RY*(   8) C   7                  0.00013     0.56703   
   135. RY*(   9) C   7                  0.00004     0.92619   
   136. RY*(  10) C   7                  0.00003     1.07041   
   137. RY*(  11) C   7                  0.00001     5.05813   
   138. RY*(  12) C   7                  0.00002     1.68750   
   139. RY*(  13) C   7                  0.00001     1.70276   
   140. RY*(  14) C   7                  0.00000    20.49044   
   141. RY*(  15) C   7                  0.00000     0.77512   
   142. RY*(  16) C   7                  0.00000     2.39828   
   143. RY*(  17) C   7                  0.00001     1.92673   
   144. RY*(   1) H   8                  0.00059     1.53453   
   145. RY*(   2) H   8                  0.00029     1.33398   
   146. RY*(   3) H   8                  0.00027     1.33546   
   147. RY*(   4) H   8                  0.00013     1.78629   
   148. RY*(   5) H   8                  0.00004     2.12623   
   149. RY*(   1) H   9                  0.00022     1.49569   
   150. RY*(   2) H   9                  0.00010     1.35139   
   151. RY*(   3) H   9                  0.00009     2.32467   
   152. RY*(   4) H   9                  0.00007     0.81168   
   153. RY*(   5) H   9                  0.00005     1.82294   
   154. RY*(   1) H  10                  0.00054     1.07634   
   155. RY*(   2) H  10                  0.00031     1.58278   
   156. RY*(   3) H  10                  0.00009     1.38357   
   157. RY*(   4) H  10                  0.00006     1.89212   
   158. RY*(   5) H  10                  0.00003     1.88513   
   159. BD*(   1) O   1 - C   2          0.00729     0.42634   
   160. BD*(   2) O   1 - C   2          0.27216    -0.21477  171(v),44(g),26(g),56(g)
                                                    38(g)
   161. BD*(   1) C   2 - N   3          0.11115     0.08772  167(v),162(g),165(v),163(g)
                                                    43(g),172(v),27(v),62(g)
                                                    60(g),50(g),65(g),170(v)
   162. BD*(   1) C   2 - C   7          0.08475     0.11113   
   163. BD*(   1) N   3 - C   4          0.02140     0.23650   
   164. BD*(   1) N   3 - H   8          0.01024     0.16018   
   165. BD*(   1) C   4 - N   5          0.04846     0.20814   
   166. BD*(   2) C   4 - N   5          0.36325    -0.27926  171(v),80(g),78(g),94(g)
                                                    99(g)
   167. BD*(   1) C   4 - H   9          0.02056     0.15323   
   168. BD*(   1) N   5 - C   6          0.03865     0.34074   
   169. BD*(   2) N   5 - C   6          0.22757    -0.21549  168(g),162(v),165(g),172(v)
                                                    170(g),110(g),112(g),113(g)
                                                    123(g)
   170. BD*(   1) C   6 - C   7          0.01895     0.41923   
   171. BD*(   2) C   6 - C   7          0.21300    -0.20194  160(v),166(v),130(g),118(g)
                                                    141(g),94(v)
   172. BD*(   1) C   7 - H  10          0.01072     0.19358   
       -------------------------------
              Total Lewis   46.44848  ( 96.7677%)
        Valence non-Lewis    1.44814  (  3.0170%)
        Rydberg non-Lewis    0.10337  (  0.2154%)
       -------------------------------
            Total unit  1   48.00000  (100.0000%)
           Charge unit  1    1.00000
 Leave Link  607 at Fri Oct 21 08:01:54 2022, MaxMem=  8053063680 cpu:              55.9 elap:               1.8
 (Enter /public3/home/scg5914/software-scg5914/g16/l9999.exe)
 Unable to Open any file for archive entry.
 1\1\GINC-F0708\SP\RB3LYP\Gen\C4H3N2O1(1+)\SCG5914\21-Oct-2022\0\\#p b3
 lyp/chkbas pop=nbo geom=allcheck guess=tcheck em=gd3bj\\dsgdb9nsd_0009
 23-3\\1,1\O,0,0.0003835741,-0.0398520336,0.003313873\C,0,0.0206741893,
 1.1454973806,0.0089899792\N,0,-1.1800611032,1.9548134504,0.029117498\C
 ,0,-1.2169059901,3.2880509023,0.0363619208\N,0,-0.063607772,3.95712912
 45,0.0243786207\C,0,0.9058750747,3.1847488553,0.0075580839\C,0,1.32648
 61415,1.9584731491,-0.0042546212\H,0,-2.0469238777,1.4221533507,0.0379
 8781\H,0,-2.1628650478,3.8154264352,0.0516492958\H,0,2.2798525338,1.45
 32626078,-0.0195029587\\Version=ES64L-G16RevC.01\State=1-A\HF=-338.692
 1919\RMSD=4.243e-09\Dipole=-0.5241678,1.0872435,0.0124844\Quadrupole=9
 .3180347,-4.3535179,-4.9645169,-1.3523018,-0.197184,0.0212588\PG=C01 [
 X(C4H3N2O1)]\\@
 The archive entry for this job was punched.


 MICRO CREDO - NEVER TRUST A COMPUTER BIGGER
               BIGGER THAN YOU CAN LIFT.
 Job cpu time:       0 days  0 hours  1 minutes 26.7 seconds.
 Elapsed time:       0 days  0 hours  0 minutes  2.9 seconds.
 File lengths (MBytes):  RWF=     14 Int=      0 D2E=      0 Chk=      3 Scr=      1
 Normal termination of Gaussian 16 at Fri Oct 21 08:01:54 2022.
