 Entering Gaussian System, Link 0=/public3/home/scg5914/software-scg5914/g16/g16
 Input=dsgdb9nsd_131200.gjf
 Output=dsgdb9nsd_131200.log
 Initial command:
 /public3/home/scg5914/software-scg5914/g16/l1.exe "/public3/home/scg5914/software-scg5914/test/tmp/dsgdb9nsd_131200/Gau-239177.inp" -scrdir="/public3/home/scg5914/software-scg5914/test/tmp/dsgdb9nsd_131200/"
 Entering Link 1 = /public3/home/scg5914/software-scg5914/g16/l1.exe PID=    239178.
  
 Copyright (c) 1988-2019, Gaussian, Inc.  All Rights Reserved.
  
 This is part of the Gaussian(R) 16 program.  It is based on
 the Gaussian(R) 09 system (copyright 2009, Gaussian, Inc.),
 the Gaussian(R) 03 system (copyright 2003, Gaussian, Inc.),
 the Gaussian(R) 98 system (copyright 1998, Gaussian, Inc.),
 the Gaussian(R) 94 system (copyright 1995, Gaussian, Inc.),
 the Gaussian 92(TM) system (copyright 1992, Gaussian, Inc.),
 the Gaussian 90(TM) system (copyright 1990, Gaussian, Inc.),
 the Gaussian 88(TM) system (copyright 1988, Gaussian, Inc.),
 the Gaussian 86(TM) system (copyright 1986, Carnegie Mellon
 University), and the Gaussian 82(TM) system (copyright 1983,
 Carnegie Mellon University). Gaussian is a federally registered
 trademark of Gaussian, Inc.
  
 This software contains proprietary and confidential information,
 including trade secrets, belonging to Gaussian, Inc.
  
 This software is provided under written license and may be
 used, copied, transmitted, or stored only in accord with that
 written license.
  
 The following legend is applicable only to US Government
 contracts under FAR:
  
                    RESTRICTED RIGHTS LEGEND
  
 Use, reproduction and disclosure by the US Government is
 subject to restrictions as set forth in subparagraphs (a)
 and (c) of the Commercial Computer Software - Restricted
 Rights clause in FAR 52.227-19.
  
 Gaussian, Inc.
 340 Quinnipiac St., Bldg. 40, Wallingford CT 06492
  
  
 ---------------------------------------------------------------
 Warning -- This program may not be used in any manner that
 competes with the business of Gaussian, Inc. or will provide
 assistance to any competitor of Gaussian, Inc.  The licensee
 of this program is prohibited from giving any competitor of
 Gaussian, Inc. access to this program.  By using this program,
 the user acknowledges that Gaussian, Inc. is engaged in the
 business of creating and licensing software in the field of
 computational chemistry and represents and warrants to the
 licensee that it is not a competitor of Gaussian, Inc. and that
 it will not use this program in any manner prohibited above.
 ---------------------------------------------------------------
  

 Cite this work as:
 Gaussian 16, Revision C.01,
 M. J. Frisch, G. W. Trucks, H. B. Schlegel, G. E. Scuseria, 
 M. A. Robb, J. R. Cheeseman, G. Scalmani, V. Barone, 
 G. A. Petersson, H. Nakatsuji, X. Li, M. Caricato, A. V. Marenich, 
 J. Bloino, B. G. Janesko, R. Gomperts, B. Mennucci, H. P. Hratchian, 
 J. V. Ortiz, A. F. Izmaylov, J. L. Sonnenberg, D. Williams-Young, 
 F. Ding, F. Lipparini, F. Egidi, J. Goings, B. Peng, A. Petrone, 
 T. Henderson, D. Ranasinghe, V. G. Zakrzewski, J. Gao, N. Rega, 
 G. Zheng, W. Liang, M. Hada, M. Ehara, K. Toyota, R. Fukuda, 
 J. Hasegawa, M. Ishida, T. Nakajima, Y. Honda, O. Kitao, H. Nakai, 
 T. Vreven, K. Throssell, J. A. Montgomery, Jr., J. E. Peralta, 
 F. Ogliaro, M. J. Bearpark, J. J. Heyd, E. N. Brothers, K. N. Kudin, 
 V. N. Staroverov, T. A. Keith, R. Kobayashi, J. Normand, 
 K. Raghavachari, A. P. Rendell, J. C. Burant, S. S. Iyengar, 
 J. Tomasi, M. Cossi, J. M. Millam, M. Klene, C. Adamo, R. Cammi, 
 J. W. Ochterski, R. L. Martin, K. Morokuma, O. Farkas, 
 J. B. Foresman, and D. J. Fox, Gaussian, Inc., Wallingford CT, 2019.
 
 ******************************************
 Gaussian 16:  ES64L-G16RevC.01  3-Jul-2019
                 4-Nov-2022 
 ******************************************
 %chk=dsgdb9nsd_131200.chk
 %mem=60GB
 %nprocshared=32
 Will use up to   32 processors via shared memory.
 ------------------------------------
 #p opt freq b3lyp/6-311+g** em=gd3bj
 ------------------------------------
 1/18=20,19=15,26=3,38=1/1,3;
 2/9=110,12=2,17=6,18=5,40=1/2;
 3/5=4,6=6,7=111,11=2,25=1,30=1,71=1,74=-5,124=41/1,2,3;
 4//1;
 5/5=2,38=5/2;
 6/7=2,8=2,9=2,10=2,28=1/1;
 7//1,2,3,16;
 1/18=20,19=15,26=3/3(2);
 2/9=110/2;
 99//99;
 2/9=110/2;
 3/5=4,6=6,7=111,11=2,25=1,30=1,71=1,74=-5,124=41/1,2,3;
 4/5=5,16=3,69=1/1;
 5/5=2,38=5/2;
 7//1,2,3,16;
 1/18=20,19=15,26=3/3(-5);
 2/9=110/2;
 6/7=2,8=2,9=2,10=2,19=2,28=1/1;
 99/9=1/99;
 Leave Link    1 at Fri Nov  4 03:06:36 2022, MaxMem=  8053063680 cpu:               0.9 elap:               0.0
 (Enter /public3/home/scg5914/software-scg5914/g16/l101.exe)
 ----------------
 dsgdb9nsd_131200
 ----------------
 Symbolic Z-matrix:
 Charge =  0 Multiplicity = 1
 O                     0.08059   0.04148   0.07223 
 C                    -0.06257   1.2446    0.04468 
 C                    -1.16665   2.14025  -0.01962 
 C                    -2.63517   2.16592  -0.02245 
 N                    -2.86741   3.62052   0.50695 
 H                    -3.76793   4.01229   0.22262 
 H                    -2.83752   3.58024   1.52572 
 C                    -1.67892   4.47222   0.0313 
 C                    -0.61518   3.42202   0.00274 
 N                     0.68438   3.48476   0.07468 
 O                     1.06155   2.11707   0.07145 
 H                    -3.14944   2.14778  -0.9985 
 H                    -3.15977   1.47765   0.64908 
 H                    -1.95073   4.86862  -0.95266 
 H                    -1.53284   5.29879   0.72925 
 
 ITRead=  0  0  0  0  0  0  0  0  0  0  0  0  0  0  0
 MicOpt= -1 -1 -1 -1 -1 -1 -1 -1 -1 -1 -1 -1 -1 -1 -1
 NAtoms=     15 NQM=       15 NQMF=       0 NMMI=      0 NMMIF=      0
                NMic=       0 NMicF=      0.
                    Isotopes and Nuclear Properties:
 (Nuclear quadrupole moments (NQMom) in fm**2, nuclear magnetic moments (NMagM)
  in nuclear magnetons)

  Atom         1           2           3           4           5           6           7           8           9          10
 IAtWgt=          16          12          12          12          14           1           1          12          12          14
 AtmWgt=  15.9949146  12.0000000  12.0000000  12.0000000  14.0030740   1.0078250   1.0078250  12.0000000  12.0000000  14.0030740
 NucSpn=           0           0           0           0           2           1           1           0           0           2
 AtZEff=  -0.0000000  -0.0000000  -0.0000000  -0.0000000  -0.0000000  -0.0000000  -0.0000000  -0.0000000  -0.0000000  -0.0000000
 NQMom=    0.0000000   0.0000000   0.0000000   0.0000000   2.0440000   0.0000000   0.0000000   0.0000000   0.0000000   2.0440000
 NMagM=    0.0000000   0.0000000   0.0000000   0.0000000   0.4037610   2.7928460   2.7928460   0.0000000   0.0000000   0.4037610
 AtZNuc=   8.0000000   6.0000000   6.0000000   6.0000000   7.0000000   1.0000000   1.0000000   6.0000000   6.0000000   7.0000000

  Atom        11          12          13          14          15
 IAtWgt=          16           1           1           1           1
 AtmWgt=  15.9949146   1.0078250   1.0078250   1.0078250   1.0078250
 NucSpn=           0           1           1           1           1
 AtZEff=  -0.0000000  -0.0000000  -0.0000000  -0.0000000  -0.0000000
 NQMom=    0.0000000   0.0000000   0.0000000   0.0000000   0.0000000
 NMagM=    0.0000000   2.7928460   2.7928460   2.7928460   2.7928460
 AtZNuc=   8.0000000   1.0000000   1.0000000   1.0000000   1.0000000
 Leave Link  101 at Fri Nov  4 03:06:36 2022, MaxMem=  8053063680 cpu:               4.4 elap:               0.2
 (Enter /public3/home/scg5914/software-scg5914/g16/l103.exe)

 GradGradGradGradGradGradGradGradGradGradGradGradGradGradGradGradGradGrad
 Berny optimization.
 Initialization pass.
                           ----------------------------
                           !    Initial Parameters    !
                           ! (Angstroms and Degrees)  !
 --------------------------                            --------------------------
 ! Name  Definition              Value          Derivative Info.                !
 --------------------------------------------------------------------------------
 ! R1    R(1,2)                  1.2119         estimate D2E/DX2                !
 ! R2    R(2,3)                  1.4231         estimate D2E/DX2                !
 ! R3    R(2,11)                 1.4232         estimate D2E/DX2                !
 ! R4    R(3,4)                  1.4687         estimate D2E/DX2                !
 ! R5    R(3,9)                  1.3955         estimate D2E/DX2                !
 ! R6    R(4,5)                  1.5653         estimate D2E/DX2                !
 ! R7    R(4,12)                 1.1034         estimate D2E/DX2                !
 ! R8    R(4,13)                 1.0954         estimate D2E/DX2                !
 ! R9    R(5,6)                  1.0224         estimate D2E/DX2                !
 ! R10   R(5,7)                  1.02           estimate D2E/DX2                !
 ! R11   R(5,8)                  1.5376         estimate D2E/DX2                !
 ! R12   R(8,9)                  1.4951         estimate D2E/DX2                !
 ! R13   R(8,14)                 1.0951         estimate D2E/DX2                !
 ! R14   R(8,15)                 1.0916         estimate D2E/DX2                !
 ! R15   R(9,10)                 1.3031         estimate D2E/DX2                !
 ! R16   R(10,11)                1.4187         estimate D2E/DX2                !
 ! A1    A(1,2,3)              135.8436         estimate D2E/DX2                !
 ! A2    A(1,2,11)             120.9874         estimate D2E/DX2                !
 ! A3    A(3,2,11)             103.1684         estimate D2E/DX2                !
 ! A4    A(2,3,4)              141.8854         estimate D2E/DX2                !
 ! A5    A(2,3,9)              105.7085         estimate D2E/DX2                !
 ! A6    A(4,3,9)              112.2765         estimate D2E/DX2                !
 ! A7    A(3,4,5)               99.4356         estimate D2E/DX2                !
 ! A8    A(3,4,12)             117.8676         estimate D2E/DX2                !
 ! A9    A(3,4,13)             117.8192         estimate D2E/DX2                !
 ! A10   A(5,4,12)             104.2            estimate D2E/DX2                !
 ! A11   A(5,4,13)             107.7884         estimate D2E/DX2                !
 ! A12   A(12,4,13)            107.9841         estimate D2E/DX2                !
 ! A13   A(4,5,6)              113.1245         estimate D2E/DX2                !
 ! A14   A(4,5,7)              107.2631         estimate D2E/DX2                !
 ! A15   A(4,5,8)              107.1843         estimate D2E/DX2                !
 ! A16   A(6,5,7)              108.5851         estimate D2E/DX2                !
 ! A17   A(6,5,8)              112.4909         estimate D2E/DX2                !
 ! A18   A(7,5,8)              107.9508         estimate D2E/DX2                !
 ! A19   A(5,8,9)               99.6001         estimate D2E/DX2                !
 ! A20   A(5,8,14)             106.6556         estimate D2E/DX2                !
 ! A21   A(5,8,15)             108.9699         estimate D2E/DX2                !
 ! A22   A(9,8,14)             114.4374         estimate D2E/DX2                !
 ! A23   A(9,8,15)             116.6713         estimate D2E/DX2                !
 ! A24   A(14,8,15)            109.4882         estimate D2E/DX2                !
 ! A25   A(3,9,8)              111.3658         estimate D2E/DX2                !
 ! A26   A(3,9,10)             116.0533         estimate D2E/DX2                !
 ! A27   A(8,9,10)             132.4311         estimate D2E/DX2                !
 ! A28   A(9,10,11)            102.6264         estimate D2E/DX2                !
 ! A29   A(2,11,10)            112.3972         estimate D2E/DX2                !
 ! D1    D(1,2,3,4)              3.923          estimate D2E/DX2                !
 ! D2    D(1,2,3,9)            179.1141         estimate D2E/DX2                !
 ! D3    D(11,2,3,4)          -176.3731         estimate D2E/DX2                !
 ! D4    D(11,2,3,9)            -1.182          estimate D2E/DX2                !
 ! D5    D(1,2,11,10)         -178.1358         estimate D2E/DX2                !
 ! D6    D(3,2,11,10)            2.1047         estimate D2E/DX2                !
 ! D7    D(2,3,4,5)            155.8726         estimate D2E/DX2                !
 ! D8    D(2,3,4,12)           -92.4632         estimate D2E/DX2                !
 ! D9    D(2,3,4,13)            39.9056         estimate D2E/DX2                !
 ! D10   D(9,3,4,5)            -19.1241         estimate D2E/DX2                !
 ! D11   D(9,3,4,12)            92.54           estimate D2E/DX2                !
 ! D12   D(9,3,4,13)          -135.0912         estimate D2E/DX2                !
 ! D13   D(2,3,9,8)           -176.2344         estimate D2E/DX2                !
 ! D14   D(2,3,9,10)            -0.1253         estimate D2E/DX2                !
 ! D15   D(4,3,9,8)              0.56           estimate D2E/DX2                !
 ! D16   D(4,3,9,10)           176.6692         estimate D2E/DX2                !
 ! D17   D(3,4,5,6)            155.1962         estimate D2E/DX2                !
 ! D18   D(3,4,5,7)            -85.0936         estimate D2E/DX2                !
 ! D19   D(3,4,5,8)             30.6231         estimate D2E/DX2                !
 ! D20   D(12,4,5,6)            33.1349         estimate D2E/DX2                !
 ! D21   D(12,4,5,7)           152.8451         estimate D2E/DX2                !
 ! D22   D(12,4,5,8)           -91.4382         estimate D2E/DX2                !
 ! D23   D(13,4,5,6)           -81.4261         estimate D2E/DX2                !
 ! D24   D(13,4,5,7)            38.2841         estimate D2E/DX2                !
 ! D25   D(13,4,5,8)           154.0009         estimate D2E/DX2                !
 ! D26   D(4,5,8,9)            -30.2073         estimate D2E/DX2                !
 ! D27   D(4,5,8,14)            89.0381         estimate D2E/DX2                !
 ! D28   D(4,5,8,15)          -152.859          estimate D2E/DX2                !
 ! D29   D(6,5,8,9)           -155.1642         estimate D2E/DX2                !
 ! D30   D(6,5,8,14)           -35.9188         estimate D2E/DX2                !
 ! D31   D(6,5,8,15)            82.1841         estimate D2E/DX2                !
 ! D32   D(7,5,8,9)             85.0517         estimate D2E/DX2                !
 ! D33   D(7,5,8,14)          -155.703          estimate D2E/DX2                !
 ! D34   D(7,5,8,15)           -37.6            estimate D2E/DX2                !
 ! D35   D(5,8,9,3)             18.651          estimate D2E/DX2                !
 ! D36   D(5,8,9,10)          -156.6114         estimate D2E/DX2                !
 ! D37   D(14,8,9,3)           -94.6869         estimate D2E/DX2                !
 ! D38   D(14,8,9,10)           90.0508         estimate D2E/DX2                !
 ! D39   D(15,8,9,3)           135.6456         estimate D2E/DX2                !
 ! D40   D(15,8,9,10)          -39.6167         estimate D2E/DX2                !
 ! D41   D(3,9,10,11)            1.3693         estimate D2E/DX2                !
 ! D42   D(8,9,10,11)          176.4578         estimate D2E/DX2                !
 ! D43   D(9,10,11,2)           -2.161          estimate D2E/DX2                !
 --------------------------------------------------------------------------------
 Trust Radius=3.00D-01 FncErr=1.00D-07 GrdErr=1.00D-06 EigMax=2.50D+02 EigMin=1.00D-04
 Number of steps in this run=     98 maximum allowed number of steps=    100.
 GradGradGradGradGradGradGradGradGradGradGradGradGradGradGradGradGradGrad

 Leave Link  103 at Fri Nov  4 03:06:36 2022, MaxMem=  8053063680 cpu:               0.2 elap:               0.0
 (Enter /public3/home/scg5914/software-scg5914/g16/l202.exe)
                          Input orientation:                          
 ---------------------------------------------------------------------
 Center     Atomic      Atomic             Coordinates (Angstroms)
 Number     Number       Type             X           Y           Z
 ---------------------------------------------------------------------
      1          8           0        0.080585    0.041485    0.072233
      2          6           0       -0.062565    1.244604    0.044685
      3          6           0       -1.166650    2.140248   -0.019618
      4          6           0       -2.635169    2.165919   -0.022453
      5          7           0       -2.867411    3.620520    0.506950
      6          1           0       -3.767927    4.012291    0.222624
      7          1           0       -2.837518    3.580236    1.525721
      8          6           0       -1.678923    4.472219    0.031299
      9          6           0       -0.615185    3.422019    0.002735
     10          7           0        0.684379    3.484761    0.074679
     11          8           0        1.061552    2.117071    0.071450
     12          1           0       -3.149440    2.147780   -0.998502
     13          1           0       -3.159775    1.477652    0.649077
     14          1           0       -1.950729    4.868617   -0.952664
     15          1           0       -1.532838    5.298788    0.729248
 ---------------------------------------------------------------------
                    Distance matrix (angstroms):
                    1          2          3          4          5
     1  O    0.000000
     2  C    1.211919   0.000000
     3  C    2.443120   1.423135   0.000000
     4  C    3.449276   2.733426   1.468747   0.000000
     5  N    4.657161   3.704837   2.315398   1.565269   0.000000
     6  H    5.531814   4.628332   3.214011   2.179976   1.022377
     7  H    4.811519   3.917781   2.693222   2.106676   1.020006
     8  C    4.767489   3.609749   2.388118   2.497262   1.537575
     9  C    3.452091   2.246838   1.395547   2.378815   2.316497
    10  N    3.495815   2.361594   2.289741   3.573259   3.580572
    11  O    2.295725   1.423220   2.230183   3.698237   4.229275
    12  H    4.002001   3.381236   2.211273   1.103392   2.124826
    13  H    3.590997   3.164223   2.204254   1.095388   2.167385
    14  H    5.336465   4.206344   2.988202   2.939103   2.128033
    15  H    5.538415   4.366547   3.266691   3.405152   2.155710
                    6          7          8          9         10
     6  H    0.000000
     7  H    1.658431   0.000000
     8  C    2.147574   2.090759   0.000000
     9  C    3.215051   2.698756   1.495084   0.000000
    10  N    4.485889   3.810301   2.561670   1.303065   0.000000
    11  O    5.190239   4.411180   3.613660   2.125808   1.418748
    12  H    2.313023   2.919063   2.936992   3.008091   4.199691
    13  H    2.641232   2.300699   3.397352   3.266995   4.374464
    14  H    2.327403   2.930651   1.095077   2.188404   3.148696
    15  H    2.628186   2.299996   1.091646   2.211825   2.938573
                   11         12         13         14         15
    11  O    0.000000
    12  H    4.344905   0.000000
    13  H    4.308377   1.778677   0.000000
    14  H    4.206382   2.973544   3.940306   0.000000
    15  H    4.157750   3.940479   4.153845   1.785639   0.000000
 Stoichiometry    C5H6N2O2
 Framework group  C1[X(C5H6N2O2)]
 Deg. of freedom    39
 Full point group                 C1      NOp   1
 Largest Abelian subgroup         C1      NOp   1
 Largest concise Abelian subgroup C1      NOp   1
                         Standard orientation:                         
 ---------------------------------------------------------------------
 Center     Atomic      Atomic             Coordinates (Angstroms)
 Number     Number       Type             X           Y           Z
 ---------------------------------------------------------------------
      1          8           0       -2.405170   -1.235943   -0.057636
      2          6           0       -1.502206   -0.429426   -0.003492
      3          6           0       -0.086074   -0.489242    0.124208
      4          6           0        1.028845   -1.442979    0.191731
      5          7           0        2.189540   -0.516275   -0.302309
      6          1           0        3.109938   -0.814926    0.027737
      7          1           0        2.185303   -0.543277   -1.321949
      8          6           0        1.844273    0.916725    0.135229
      9          6           0        0.351822    0.835591    0.099443
     10          7           0       -0.575148    1.742458   -0.028223
     11          8           0       -1.763487    0.968268   -0.064649
     12          1           0        1.358430   -1.781360    1.188900
     13          1           0        0.994615   -2.316926   -0.467753
     14          1           0        2.266871    1.049537    1.136711
     15          1           0        2.313391    1.621064   -0.554354
 ---------------------------------------------------------------------
 Rotational constants (GHZ):           3.2638539           1.5292973           1.0740905
 Leave Link  202 at Fri Nov  4 03:06:37 2022, MaxMem=  8053063680 cpu:               0.2 elap:               0.0
 (Enter /public3/home/scg5914/software-scg5914/g16/l301.exe)
 Standard basis: 6-311+G(d,p) (5D, 7F)
 Ernie: Thresh=  0.10000D-02 Tol=  0.10000D-05 Strict=F.
 There are   243 symmetry adapted cartesian basis functions of A   symmetry.
 There are   234 symmetry adapted basis functions of A   symmetry.
   234 basis functions,   372 primitive gaussians,   243 cartesian basis functions
    33 alpha electrons       33 beta electrons
       nuclear repulsion energy       448.3645098089 Hartrees.
 IExCor=  402 DFT=T Ex+Corr=B3LYP ExCW=0 ScaHFX=  0.200000
 ScaDFX=  0.800000  0.720000  1.000000  0.810000 ScalE2=  1.000000  1.000000
 IRadAn=      5 IRanWt=     -1 IRanGd=            0 ICorTp=0 IEmpDi=141
 NAtoms=   15 NActive=   15 NUniq=   15 SFac= 1.00D+00 NAtFMM=   60 NAOKFM=F Big=F
 Integral buffers will be    131072 words long.
 Raffenetti 2 integral format.
 Two-electron integral symmetry is turned on.
 R6Disp:  Grimme-D3(BJ) Dispersion energy=       -0.0252916662 Hartrees.
 Nuclear repulsion after empirical dispersion term =      448.3392181427 Hartrees.
 Leave Link  301 at Fri Nov  4 03:06:37 2022, MaxMem=  8053063680 cpu:               0.9 elap:               0.0
 (Enter /public3/home/scg5914/software-scg5914/g16/l302.exe)
 NPDir=0 NMtPBC=     1 NCelOv=     1 NCel=       1 NClECP=     1 NCelD=      1
         NCelK=      1 NCelE2=     1 NClLst=     1 CellRange=     0.0.
 One-electron integrals computed using PRISM.
 One-electron integral symmetry used in STVInt
 NBasis=   234 RedAO= T EigKep=  6.26D-06  NBF=   234
 NBsUse=   234 1.00D-06 EigRej= -1.00D+00 NBFU=   234
 Precomputing XC quadrature grid using
 IXCGrd= 4 IRadAn=           5 IRanWt=          -1 IRanGd=           0 AccXCQ= 0.00D+00.
 Generated NRdTot=       0 NPtTot=           0 NUsed=           0 NTot=          32
 NSgBfM=   243   243   243   243   243 MxSgAt=    15 MxSgA2=    15.
 Leave Link  302 at Fri Nov  4 03:06:37 2022, MaxMem=  8053063680 cpu:               4.9 elap:               0.2
 (Enter /public3/home/scg5914/software-scg5914/g16/l303.exe)
 DipDrv:  MaxL=1.
 Leave Link  303 at Fri Nov  4 03:06:37 2022, MaxMem=  8053063680 cpu:               0.8 elap:               0.0
 (Enter /public3/home/scg5914/software-scg5914/g16/l401.exe)
 ExpMin= 4.38D-02 ExpMax= 8.59D+03 ExpMxC= 1.30D+03 IAcc=3 IRadAn=         5 AccDes= 0.00D+00
 Harris functional with IExCor=  402 and IRadAn=       5 diagonalized for initial guess.
 HarFok:  IExCor=  402 AccDes= 0.00D+00 IRadAn=         5 IDoV= 1 UseB2=F ITyADJ=14
 ICtDFT=  3500011 ScaDFX=  1.000000  1.000000  1.000000  1.000000
 FoFCou: FMM=F IPFlag=           0 FMFlag=      100000 FMFlg1=           0
         NFxFlg=           0 DoJE=T BraDBF=F KetDBF=T FulRan=T
         wScrn=  0.000000 ICntrl=       500 IOpCl=  0 I1Cent=   200000004 NGrid=           0
         NMat0=    1 NMatS0=      1 NMatT0=    0 NMatD0=    1 NMtDS0=    0 NMtDT0=    0
 Petite list used in FoFCou.
 Harris En= -454.175002012817    
 JPrj=0 DoOrth=F DoCkMO=F.
 Leave Link  401 at Fri Nov  4 03:06:37 2022, MaxMem=  8053063680 cpu:              12.1 elap:               0.4
 (Enter /public3/home/scg5914/software-scg5914/g16/l502.exe)
 Integral symmetry usage will be decided dynamically.
 Closed shell SCF:
 Using DIIS extrapolation, IDIIS=  1040.
 NGot=  8053063680 LenX=  8052935060 LenY=  8052875570
 Requested convergence on RMS density matrix=1.00D-08 within 128 cycles.
 Requested convergence on MAX density matrix=1.00D-06.
 Requested convergence on             energy=1.00D-06.
 No special actions if energy rises.
 Fock matrices will be formed incrementally for  20 cycles.

 Cycle   1  Pass 1  IDiag  1:
 FoFJK:  IHMeth= 1 ICntrl=       0 DoSepK=F KAlg= 0 I1Cent=           0 FoldK=F
 IRaf= 960000000 NMat=       1 IRICut=       1 DoRegI=T DoRafI=F ISym2E= 0 IDoP0=0 IntGTp=1.
 FoFCou: FMM=F IPFlag=           0 FMFlag=      100000 FMFlg1=           0
         NFxFlg=           0 DoJE=F BraDBF=F KetDBF=F FulRan=T
         wScrn=  0.000000 ICntrl=         0 IOpCl=  0 I1Cent=           0 NGrid=           0
         NMat0=    1 NMatS0=      1 NMatT0=    0 NMatD0=    1 NMtDS0=    0 NMtDT0=    0
 Symmetry not used in FoFCou.
 E= -453.912699948453    
 DIIS: error= 2.33D-02 at cycle   1 NSaved=   1.
 NSaved= 1 IEnMin= 1 EnMin= -453.912699948453     IErMin= 1 ErrMin= 2.33D-02
 ErrMax= 2.33D-02  0.00D+00 EMaxC= 1.00D-01 BMatC= 2.66D-01 BMatP= 2.66D-01
 IDIUse=3 WtCom= 7.67D-01 WtEn= 2.33D-01
 Coeff-Com:  0.100D+01
 Coeff-En:   0.100D+01
 Coeff:      0.100D+01
 Gap=     0.170 Goal=   None    Shift=    0.000
 GapD=    0.170 DampG=1.000 DampE=0.500 DampFc=0.5000 IDamp=-1.
 Damping current iteration by 5.00D-01
 RMSDP=5.65D-01 MaxDP=5.23D+01              OVMax= 9.76D-01

 Cycle   2  Pass 1  IDiag  1:
 RMSU=  2.75D-01    CP:  3.00D+00
 E= -453.278869347306     Delta-E=        0.633830601147 Rises=F Damp=T
 DIIS: error= 3.25D-02 at cycle   2 NSaved=   2.
 NSaved= 2 IEnMin= 1 EnMin= -453.912699948453     IErMin= 1 ErrMin= 2.33D-02
 ErrMax= 3.25D-02  0.00D+00 EMaxC= 1.00D-01 BMatC= 2.71D-01 BMatP= 2.66D-01
 IDIUse=3 WtCom= 6.75D-01 WtEn= 3.25D-01
 Coeff-Com:  0.503D+00 0.497D+00
 Coeff-En:   0.831D+00 0.169D+00
 Coeff:      0.610D+00 0.390D+00
 Gap=     0.018 Goal=   None    Shift=    0.000
 RMSDP=2.79D-01 MaxDP=2.52D+01 DE= 6.34D-01 OVMax= 6.48D-01

 Cycle   3  Pass 1  IDiag  1:
 RMSU=  9.11D-03    CP:  1.35D+00  6.39D-03
 E= -454.004987890835     Delta-E=       -0.726118543529 Rises=F Damp=F
 DIIS: error= 1.85D-02 at cycle   3 NSaved=   3.
 NSaved= 3 IEnMin= 3 EnMin= -454.004987890835     IErMin= 3 ErrMin= 1.85D-02
 ErrMax= 1.85D-02  0.00D+00 EMaxC= 1.00D-01 BMatC= 1.11D-01 BMatP= 2.66D-01
 IDIUse=3 WtCom= 8.15D-01 WtEn= 1.85D-01
 EnCoef did     3 forward-backward iterations
 Coeff-Com:  0.211D+00 0.338D+00 0.451D+00
 Coeff-En:   0.171D+00 0.739D-01 0.755D+00
 Coeff:      0.204D+00 0.289D+00 0.507D+00
 Gap=     0.154 Goal=   None    Shift=    0.000
 RMSDP=4.81D-03 MaxDP=1.84D-01 DE=-7.26D-01 OVMax= 1.77D-01

 Cycle   4  Pass 1  IDiag  1:
 RMSU=  4.46D-03    CP:  1.39D+00  9.42D-03  8.94D-01
 E= -454.108582093622     Delta-E=       -0.103594202787 Rises=F Damp=F
 DIIS: error= 8.41D-03 at cycle   4 NSaved=   4.
 NSaved= 4 IEnMin= 4 EnMin= -454.108582093622     IErMin= 4 ErrMin= 8.41D-03
 ErrMax= 8.41D-03  0.00D+00 EMaxC= 1.00D-01 BMatC= 2.04D-02 BMatP= 1.11D-01
 IDIUse=3 WtCom= 9.16D-01 WtEn= 8.41D-02
 Coeff-Com: -0.261D-01 0.163D+00 0.248D+00 0.615D+00
 Coeff-En:   0.000D+00 0.000D+00 0.000D+00 0.100D+01
 Coeff:     -0.239D-01 0.149D+00 0.227D+00 0.648D+00
 Gap=     0.127 Goal=   None    Shift=    0.000
 RMSDP=3.37D-03 MaxDP=1.42D-01 DE=-1.04D-01 OVMax= 3.90D-02

 Cycle   5  Pass 1  IDiag  1:
 RMSU=  3.14D-03    CP:  1.38D+00  1.18D-02  1.00D+00  9.47D-01
 E= -454.122853757632     Delta-E=       -0.014271664010 Rises=F Damp=F
 DIIS: error= 5.38D-03 at cycle   5 NSaved=   5.
 NSaved= 5 IEnMin= 5 EnMin= -454.122853757632     IErMin= 5 ErrMin= 5.38D-03
 ErrMax= 5.38D-03  0.00D+00 EMaxC= 1.00D-01 BMatC= 6.41D-03 BMatP= 2.04D-02
 IDIUse=3 WtCom= 9.46D-01 WtEn= 5.38D-02
 Coeff-Com: -0.640D-01 0.716D-01-0.123D-01 0.311D+00 0.693D+00
 Coeff-En:   0.000D+00 0.000D+00 0.000D+00 0.484D-01 0.952D+00
 Coeff:     -0.605D-01 0.677D-01-0.117D-01 0.297D+00 0.707D+00
 Gap=     0.120 Goal=   None    Shift=    0.000
 RMSDP=2.05D-03 MaxDP=1.35D-01 DE=-1.43D-02 OVMax= 2.77D-02

 Cycle   6  Pass 1  IDiag  1:
 RMSU=  5.94D-04    CP:  1.42D+00  1.44D-02  1.06D+00  1.23D+00  1.17D+00
 E= -454.127986864869     Delta-E=       -0.005133107237 Rises=F Damp=F
 DIIS: error= 2.68D-03 at cycle   6 NSaved=   6.
 NSaved= 6 IEnMin= 6 EnMin= -454.127986864869     IErMin= 6 ErrMin= 2.68D-03
 ErrMax= 2.68D-03  0.00D+00 EMaxC= 1.00D-01 BMatC= 2.02D-03 BMatP= 6.41D-03
 IDIUse=3 WtCom= 9.73D-01 WtEn= 2.68D-02
 Coeff-Com: -0.440D-01 0.230D-01-0.980D-01 0.374D-01 0.530D+00 0.552D+00
 Coeff-En:   0.000D+00 0.000D+00 0.000D+00 0.000D+00 0.000D+00 0.100D+01
 Coeff:     -0.428D-01 0.224D-01-0.954D-01 0.364D-01 0.516D+00 0.564D+00
 Gap=     0.115 Goal=   None    Shift=    0.000
 RMSDP=1.40D-03 MaxDP=9.23D-02 DE=-5.13D-03 OVMax= 1.35D-02

 Cycle   7  Pass 1  IDiag  1:
 RMSU=  5.13D-04    CP:  1.45D+00  1.56D-02  1.13D+00  1.30D+00  1.39D+00
                    CP:  1.02D+00
 E= -454.129561950502     Delta-E=       -0.001575085633 Rises=F Damp=F
 DIIS: error= 8.28D-04 at cycle   7 NSaved=   7.
 NSaved= 7 IEnMin= 7 EnMin= -454.129561950502     IErMin= 7 ErrMin= 8.28D-04
 ErrMax= 8.28D-04  0.00D+00 EMaxC= 1.00D-01 BMatC= 1.57D-04 BMatP= 2.02D-03
 IDIUse=3 WtCom= 9.92D-01 WtEn= 8.28D-03
 Coeff-Com: -0.112D-01 0.606D-02-0.450D-01-0.262D-01 0.103D+00 0.263D+00
 Coeff-Com:  0.711D+00
 Coeff-En:   0.000D+00 0.000D+00 0.000D+00 0.000D+00 0.000D+00 0.000D+00
 Coeff-En:   0.100D+01
 Coeff:     -0.111D-01 0.601D-02-0.447D-01-0.260D-01 0.102D+00 0.261D+00
 Coeff:      0.713D+00
 Gap=     0.113 Goal=   None    Shift=    0.000
 RMSDP=5.61D-04 MaxDP=3.60D-02 DE=-1.58D-03 OVMax= 4.15D-03

 Cycle   8  Pass 1  IDiag  1:
 RMSU=  1.36D-04    CP:  1.46D+00  1.65D-02  1.16D+00  1.34D+00  1.46D+00
                    CP:  1.24D+00  1.19D+00
 E= -454.129697737486     Delta-E=       -0.000135786984 Rises=F Damp=F
 DIIS: error= 4.24D-04 at cycle   8 NSaved=   8.
 NSaved= 8 IEnMin= 8 EnMin= -454.129697737486     IErMin= 8 ErrMin= 4.24D-04
 ErrMax= 4.24D-04  0.00D+00 EMaxC= 1.00D-01 BMatC= 3.20D-05 BMatP= 1.57D-04
 IDIUse=3 WtCom= 9.96D-01 WtEn= 4.24D-03
 Coeff-Com: -0.146D-02 0.117D-02-0.143D-01-0.211D-01-0.222D-01 0.700D-01
 Coeff-Com:  0.426D+00 0.562D+00
 Coeff-En:   0.000D+00 0.000D+00 0.000D+00 0.000D+00 0.000D+00 0.000D+00
 Coeff-En:   0.000D+00 0.100D+01
 Coeff:     -0.145D-02 0.117D-02-0.142D-01-0.210D-01-0.221D-01 0.697D-01
 Coeff:      0.424D+00 0.564D+00
 Gap=     0.113 Goal=   None    Shift=    0.000
 RMSDP=1.51D-04 MaxDP=8.68D-03 DE=-1.36D-04 OVMax= 2.20D-03

 Cycle   9  Pass 1  IDiag  1:
 RMSU=  6.01D-05    CP:  1.46D+00  1.65D-02  1.16D+00  1.36D+00  1.48D+00
                    CP:  1.27D+00  1.21D+00  6.67D-01
 E= -454.129724978017     Delta-E=       -0.000027240531 Rises=F Damp=F
 DIIS: error= 5.49D-05 at cycle   9 NSaved=   9.
 NSaved= 9 IEnMin= 9 EnMin= -454.129724978017     IErMin= 9 ErrMin= 5.49D-05
 ErrMax= 5.49D-05  0.00D+00 EMaxC= 1.00D-01 BMatC= 1.68D-06 BMatP= 3.20D-05
 IDIUse=1 WtCom= 1.00D+00 WtEn= 0.00D+00
 Coeff-Com:  0.101D-03 0.303D-03-0.372D-02-0.792D-02-0.206D-01 0.139D-01
 Coeff-Com:  0.162D+00 0.286D+00 0.570D+00
 Coeff:      0.101D-03 0.303D-03-0.372D-02-0.792D-02-0.206D-01 0.139D-01
 Coeff:      0.162D+00 0.286D+00 0.570D+00
 Gap=     0.113 Goal=   None    Shift=    0.000
 RMSDP=7.56D-05 MaxDP=4.23D-03 DE=-2.72D-05 OVMax= 5.75D-04

 Cycle  10  Pass 1  IDiag  1:
 RMSU=  1.70D-05    CP:  1.47D+00  1.66D-02  1.17D+00  1.36D+00  1.49D+00
                    CP:  1.29D+00  1.26D+00  8.43D-01  7.76D-01
 E= -454.129726455167     Delta-E=       -0.000001477150 Rises=F Damp=F
 DIIS: error= 2.92D-05 at cycle  10 NSaved=  10.
 NSaved=10 IEnMin=10 EnMin= -454.129726455167     IErMin=10 ErrMin= 2.92D-05
 ErrMax= 2.92D-05  0.00D+00 EMaxC= 1.00D-01 BMatC= 2.69D-07 BMatP= 1.68D-06
 IDIUse=1 WtCom= 1.00D+00 WtEn= 0.00D+00
 Coeff-Com:  0.156D-03 0.173D-04-0.219D-04-0.119D-02-0.800D-02-0.314D-02
 Coeff-Com:  0.253D-01 0.655D-01 0.307D+00 0.614D+00
 Coeff:      0.156D-03 0.173D-04-0.219D-04-0.119D-02-0.800D-02-0.314D-02
 Coeff:      0.253D-01 0.655D-01 0.307D+00 0.614D+00
 Gap=     0.113 Goal=   None    Shift=    0.000
 RMSDP=1.06D-05 MaxDP=4.54D-04 DE=-1.48D-06 OVMax= 2.71D-04

 Cycle  11  Pass 1  IDiag  1:
 RMSU=  5.79D-06    CP:  1.47D+00  1.66D-02  1.17D+00  1.36D+00  1.49D+00
                    CP:  1.29D+00  1.27D+00  8.23D-01  8.38D-01  1.08D+00
 E= -454.129726651862     Delta-E=       -0.000000196694 Rises=F Damp=F
 DIIS: error= 1.47D-05 at cycle  11 NSaved=  11.
 NSaved=11 IEnMin=11 EnMin= -454.129726651862     IErMin=11 ErrMin= 1.47D-05
 ErrMax= 1.47D-05  0.00D+00 EMaxC= 1.00D-01 BMatC= 3.97D-08 BMatP= 2.69D-07
 IDIUse=1 WtCom= 1.00D+00 WtEn= 0.00D+00
 Coeff-Com:  0.886D-04-0.110D-04 0.184D-03-0.275D-03-0.373D-02-0.248D-02
 Coeff-Com:  0.712D-02 0.238D-01 0.154D+00 0.384D+00 0.437D+00
 Coeff:      0.886D-04-0.110D-04 0.184D-03-0.275D-03-0.373D-02-0.248D-02
 Coeff:      0.712D-02 0.238D-01 0.154D+00 0.384D+00 0.437D+00
 Gap=     0.113 Goal=   None    Shift=    0.000
 RMSDP=5.72D-06 MaxDP=4.16D-04 DE=-1.97D-07 OVMax= 1.12D-04

 Cycle  12  Pass 1  IDiag  1:
 RMSU=  2.39D-06    CP:  1.47D+00  1.66D-02  1.17D+00  1.36D+00  1.49D+00
                    CP:  1.29D+00  1.27D+00  8.33D-01  8.43D-01  1.14D+00
                    CP:  8.46D-01
 E= -454.129726682455     Delta-E=       -0.000000030593 Rises=F Damp=F
 DIIS: error= 4.73D-06 at cycle  12 NSaved=  12.
 NSaved=12 IEnMin=12 EnMin= -454.129726682455     IErMin=12 ErrMin= 4.73D-06
 ErrMax= 4.73D-06  0.00D+00 EMaxC= 1.00D-01 BMatC= 6.27D-09 BMatP= 3.97D-08
 IDIUse=1 WtCom= 1.00D+00 WtEn= 0.00D+00
 Coeff-Com:  0.218D-04-0.879D-05 0.111D-03 0.119D-03-0.431D-03-0.599D-03
 Coeff-Com: -0.685D-03 0.362D-03 0.244D-01 0.100D+00 0.290D+00 0.587D+00
 Coeff:      0.218D-04-0.879D-05 0.111D-03 0.119D-03-0.431D-03-0.599D-03
 Coeff:     -0.685D-03 0.362D-03 0.244D-01 0.100D+00 0.290D+00 0.587D+00
 Gap=     0.113 Goal=   None    Shift=    0.000
 RMSDP=1.85D-06 MaxDP=1.28D-04 DE=-3.06D-08 OVMax= 4.45D-05

 Cycle  13  Pass 1  IDiag  1:
 RMSU=  9.43D-07    CP:  1.47D+00  1.66D-02  1.17D+00  1.36D+00  1.49D+00
                    CP:  1.29D+00  1.27D+00  8.38D-01  8.48D-01  1.17D+00
                    CP:  9.28D-01  8.48D-01
 E= -454.129726687923     Delta-E=       -0.000000005468 Rises=F Damp=F
 DIIS: error= 1.22D-06 at cycle  13 NSaved=  13.
 NSaved=13 IEnMin=13 EnMin= -454.129726687923     IErMin=13 ErrMin= 1.22D-06
 ErrMax= 1.22D-06  0.00D+00 EMaxC= 1.00D-01 BMatC= 4.19D-10 BMatP= 6.27D-09
 IDIUse=1 WtCom= 1.00D+00 WtEn= 0.00D+00
 Coeff-Com:  0.721D-05-0.661D-05 0.452D-04 0.943D-04 0.856D-04-0.782D-04
 Coeff-Com: -0.812D-03-0.143D-02 0.609D-03 0.224D-01 0.109D+00 0.276D+00
 Coeff-Com:  0.595D+00
 Coeff:      0.721D-05-0.661D-05 0.452D-04 0.943D-04 0.856D-04-0.782D-04
 Coeff:     -0.812D-03-0.143D-02 0.609D-03 0.224D-01 0.109D+00 0.276D+00
 Coeff:      0.595D+00
 Gap=     0.113 Goal=   None    Shift=    0.000
 RMSDP=7.14D-07 MaxDP=6.60D-05 DE=-5.47D-09 OVMax= 1.15D-05

 Cycle  14  Pass 1  IDiag  1:
 RMSU=  2.33D-07    CP:  1.47D+00  1.66D-02  1.17D+00  1.36D+00  1.49D+00
                    CP:  1.29D+00  1.27D+00  8.39D-01  8.50D-01  1.18D+00
                    CP:  9.47D-01  9.61D-01  1.02D+00
 E= -454.129726688300     Delta-E=       -0.000000000377 Rises=F Damp=F
 DIIS: error= 5.87D-07 at cycle  14 NSaved=  14.
 NSaved=14 IEnMin=14 EnMin= -454.129726688300     IErMin=14 ErrMin= 5.87D-07
 ErrMax= 5.87D-07  0.00D+00 EMaxC= 1.00D-01 BMatC= 7.28D-11 BMatP= 4.19D-10
 IDIUse=1 WtCom= 1.00D+00 WtEn= 0.00D+00
 Coeff-Com:  0.905D-06-0.170D-05-0.193D-06 0.261D-04 0.130D-03 0.119D-03
 Coeff-Com: -0.127D-03-0.479D-03-0.407D-02-0.778D-02-0.317D-02 0.160D-01
 Coeff-Com:  0.286D+00 0.713D+00
 Coeff:      0.905D-06-0.170D-05-0.193D-06 0.261D-04 0.130D-03 0.119D-03
 Coeff:     -0.127D-03-0.479D-03-0.407D-02-0.778D-02-0.317D-02 0.160D-01
 Coeff:      0.286D+00 0.713D+00
 Gap=     0.113 Goal=   None    Shift=    0.000
 RMSDP=4.71D-07 MaxDP=3.18D-05 DE=-3.77D-10 OVMax= 6.24D-06

 Cycle  15  Pass 1  IDiag  1:
 RMSU=  6.45D-08    CP:  1.47D+00  1.66D-02  1.17D+00  1.36D+00  1.49D+00
                    CP:  1.29D+00  1.27D+00  8.39D-01  8.50D-01  1.19D+00
                    CP:  9.66D-01  9.85D-01  1.16D+00  1.07D+00
 E= -454.129726688387     Delta-E=       -0.000000000088 Rises=F Damp=F
 DIIS: error= 8.63D-08 at cycle  15 NSaved=  15.
 NSaved=15 IEnMin=15 EnMin= -454.129726688387     IErMin=15 ErrMin= 8.63D-08
 ErrMax= 8.63D-08  0.00D+00 EMaxC= 1.00D-01 BMatC= 2.93D-12 BMatP= 7.28D-11
 IDIUse=1 WtCom= 1.00D+00 WtEn= 0.00D+00
 Coeff-Com:  0.247D-06-0.225D-06-0.233D-05 0.279D-05 0.323D-04 0.455D-04
 Coeff-Com:  0.266D-04 0.109D-04-0.994D-03-0.312D-02-0.719D-02-0.108D-01
 Coeff-Com:  0.454D-01 0.224D+00 0.753D+00
 Coeff:      0.247D-06-0.225D-06-0.233D-05 0.279D-05 0.323D-04 0.455D-04
 Coeff:      0.266D-04 0.109D-04-0.994D-03-0.312D-02-0.719D-02-0.108D-01
 Coeff:      0.454D-01 0.224D+00 0.753D+00
 Gap=     0.113 Goal=   None    Shift=    0.000
 RMSDP=1.49D-07 MaxDP=1.25D-05 DE=-8.77D-11 OVMax= 1.43D-06

 Cycle  16  Pass 1  IDiag  1:
 RMSU=  1.55D-08    CP:  1.47D+00  1.66D-02  1.17D+00  1.36D+00  1.49D+00
                    CP:  1.29D+00  1.27D+00  8.40D-01  8.50D-01  1.19D+00
                    CP:  9.70D-01  9.98D-01  1.18D+00  1.19D+00  1.14D+00
 E= -454.129726688391     Delta-E=       -0.000000000003 Rises=F Damp=F
 DIIS: error= 4.58D-08 at cycle  16 NSaved=  16.
 NSaved=16 IEnMin=16 EnMin= -454.129726688391     IErMin=16 ErrMin= 4.58D-08
 ErrMax= 4.58D-08  0.00D+00 EMaxC= 1.00D-01 BMatC= 5.17D-13 BMatP= 2.93D-12
 IDIUse=1 WtCom= 1.00D+00 WtEn= 0.00D+00
 Coeff-Com: -0.912D-07-0.287D-07-0.980D-06-0.141D-05 0.160D-05 0.763D-05
 Coeff-Com:  0.166D-04 0.472D-04 0.960D-05-0.556D-03-0.311D-02-0.693D-02
 Coeff-Com: -0.177D-01 0.956D-02 0.392D+00 0.627D+00
 Coeff:     -0.912D-07-0.287D-07-0.980D-06-0.141D-05 0.160D-05 0.763D-05
 Coeff:      0.166D-04 0.472D-04 0.960D-05-0.556D-03-0.311D-02-0.693D-02
 Coeff:     -0.177D-01 0.956D-02 0.392D+00 0.627D+00
 Gap=     0.113 Goal=   None    Shift=    0.000
 RMSDP=2.95D-08 MaxDP=1.83D-06 DE=-3.30D-12 OVMax= 5.23D-07

 Cycle  17  Pass 1  IDiag  1:
 RMSU=  5.98D-09    CP:  1.47D+00  1.66D-02  1.17D+00  1.36D+00  1.49D+00
                    CP:  1.29D+00  1.27D+00  8.40D-01  8.51D-01  1.19D+00
                    CP:  9.70D-01  1.00D+00  1.19D+00  1.22D+00  1.19D+00
                    CP:  1.04D+00
 E= -454.129726688392     Delta-E=       -0.000000000002 Rises=F Damp=F
 DIIS: error= 5.47D-09 at cycle  17 NSaved=  17.
 NSaved=17 IEnMin=17 EnMin= -454.129726688392     IErMin=17 ErrMin= 5.47D-09
 ErrMax= 5.47D-09  0.00D+00 EMaxC= 1.00D-01 BMatC= 1.21D-14 BMatP= 5.17D-13
 IDIUse=1 WtCom= 1.00D+00 WtEn= 0.00D+00
 Coeff-Com: -0.454D-07 0.893D-08-0.194D-06-0.729D-06-0.110D-05 0.315D-06
 Coeff-Com:  0.466D-05 0.158D-04 0.599D-04-0.338D-04-0.748D-03-0.177D-02
 Coeff-Com: -0.787D-02-0.802D-02 0.970D-01 0.215D+00 0.706D+00
 Coeff:     -0.454D-07 0.893D-08-0.194D-06-0.729D-06-0.110D-05 0.315D-06
 Coeff:      0.466D-05 0.158D-04 0.599D-04-0.338D-04-0.748D-03-0.177D-02
 Coeff:     -0.787D-02-0.802D-02 0.970D-01 0.215D+00 0.706D+00
 Gap=     0.113 Goal=   None    Shift=    0.000
 RMSDP=5.55D-09 MaxDP=3.01D-07 DE=-1.59D-12 OVMax= 7.82D-08

 SCF Done:  E(RB3LYP) =  -454.129726688     A.U. after   17 cycles
            NFock= 17  Conv=0.56D-08     -V/T= 2.0037
 KE= 4.524585908411D+02 PE=-1.958881019642D+03 EE= 6.039534839702D+02
 Leave Link  502 at Fri Nov  4 03:06:47 2022, MaxMem=  8053063680 cpu:             312.9 elap:               9.8
 (Enter /public3/home/scg5914/software-scg5914/g16/l601.exe)
 Copying SCF densities to generalized density rwf, IOpCl= 0 IROHF=0.

 **********************************************************************

            Population analysis using the SCF Density.

 **********************************************************************

 Orbital symmetries:
       Occupied  (A) (A) (A) (A) (A) (A) (A) (A) (A) (A) (A) (A)
                 (A) (A) (A) (A) (A) (A) (A) (A) (A) (A) (A) (A)
                 (A) (A) (A) (A) (A) (A) (A) (A) (A)
       Virtual   (A) (A) (A) (A) (A) (A) (A) (A) (A) (A) (A) (A)
                 (A) (A) (A) (A) (A) (A) (A) (A) (A) (A) (A) (A)
                 (A) (A) (A) (A) (A) (A) (A) (A) (A) (A) (A) (A)
                 (A) (A) (A) (A) (A) (A) (A) (A) (A) (A) (A) (A)
                 (A) (A) (A) (A) (A) (A) (A) (A) (A) (A) (A) (A)
                 (A) (A) (A) (A) (A) (A) (A) (A) (A) (A) (A) (A)
                 (A) (A) (A) (A) (A) (A) (A) (A) (A) (A) (A) (A)
                 (A) (A) (A) (A) (A) (A) (A) (A) (A) (A) (A) (A)
                 (A) (A) (A) (A) (A) (A) (A) (A) (A) (A) (A) (A)
                 (A) (A) (A) (A) (A) (A) (A) (A) (A) (A) (A) (A)
                 (A) (A) (A) (A) (A) (A) (A) (A) (A) (A) (A) (A)
                 (A) (A) (A) (A) (A) (A) (A) (A) (A) (A) (A) (A)
                 (A) (A) (A) (A) (A) (A) (A) (A) (A) (A) (A) (A)
                 (A) (A) (A) (A) (A) (A) (A) (A) (A) (A) (A) (A)
                 (A) (A) (A) (A) (A) (A) (A) (A) (A) (A) (A) (A)
                 (A) (A) (A) (A) (A) (A) (A) (A) (A) (A) (A) (A)
                 (A) (A) (A) (A) (A) (A) (A) (A) (A)
 The electronic state is 1-A.
 Alpha  occ. eigenvalues --  -19.14700 -19.05535 -14.48935 -14.32589 -10.28560
 Alpha  occ. eigenvalues --  -10.27902 -10.25399 -10.20627 -10.15723  -1.08487
 Alpha  occ. eigenvalues --   -1.05962  -0.98945  -0.85734  -0.80802  -0.77449
 Alpha  occ. eigenvalues --   -0.70180  -0.65578  -0.60413  -0.57977  -0.52958
 Alpha  occ. eigenvalues --   -0.50708  -0.47997  -0.47153  -0.46392  -0.45256
 Alpha  occ. eigenvalues --   -0.42280  -0.38778  -0.34335  -0.32763  -0.30428
 Alpha  occ. eigenvalues --   -0.27237  -0.23114  -0.18528
 Alpha virt. eigenvalues --   -0.07258  -0.02954  -0.01669  -0.00750   0.00839
 Alpha virt. eigenvalues --    0.01649   0.03018   0.04273   0.05701   0.05870
 Alpha virt. eigenvalues --    0.05989   0.07065   0.07149   0.09138   0.09503
 Alpha virt. eigenvalues --    0.10556   0.10687   0.10925   0.11295   0.12546
 Alpha virt. eigenvalues --    0.13342   0.14012   0.14799   0.15602   0.16809
 Alpha virt. eigenvalues --    0.17024   0.18138   0.18774   0.19128   0.19374
 Alpha virt. eigenvalues --    0.20320   0.20825   0.21564   0.22388   0.23352
 Alpha virt. eigenvalues --    0.24849   0.25545   0.26505   0.27643   0.28308
 Alpha virt. eigenvalues --    0.29253   0.29889   0.31889   0.31994   0.33869
 Alpha virt. eigenvalues --    0.34998   0.35925   0.37135   0.38172   0.40794
 Alpha virt. eigenvalues --    0.42411   0.43441   0.44051   0.46825   0.47305
 Alpha virt. eigenvalues --    0.48665   0.50954   0.51000   0.52914   0.55310
 Alpha virt. eigenvalues --    0.56856   0.58692   0.59922   0.62496   0.63422
 Alpha virt. eigenvalues --    0.63551   0.64411   0.66217   0.67713   0.69903
 Alpha virt. eigenvalues --    0.70967   0.71503   0.74924   0.77175   0.77776
 Alpha virt. eigenvalues --    0.82248   0.85800   0.86802   0.88756   0.91081
 Alpha virt. eigenvalues --    0.91818   0.94969   0.97283   0.98757   1.01169
 Alpha virt. eigenvalues --    1.05275   1.07269   1.09438   1.12422   1.16499
 Alpha virt. eigenvalues --    1.20105   1.20858   1.23053   1.23856   1.26587
 Alpha virt. eigenvalues --    1.27727   1.29329   1.31978   1.33625   1.36252
 Alpha virt. eigenvalues --    1.39380   1.43876   1.45279   1.47421   1.49926
 Alpha virt. eigenvalues --    1.52896   1.55459   1.56914   1.58832   1.60816
 Alpha virt. eigenvalues --    1.63401   1.67557   1.69620   1.71576   1.73362
 Alpha virt. eigenvalues --    1.75048   1.77616   1.79060   1.80454   1.84022
 Alpha virt. eigenvalues --    1.86240   1.88453   1.91056   1.92905   1.96002
 Alpha virt. eigenvalues --    1.97840   2.00740   2.05538   2.09886   2.12470
 Alpha virt. eigenvalues --    2.13865   2.14676   2.19584   2.21268   2.32728
 Alpha virt. eigenvalues --    2.35469   2.40251   2.41795   2.43094   2.46366
 Alpha virt. eigenvalues --    2.47704   2.51975   2.53660   2.59065   2.64788
 Alpha virt. eigenvalues --    2.68676   2.69514   2.71864   2.75585   2.77037
 Alpha virt. eigenvalues --    2.81314   2.83424   2.84231   2.86826   2.89288
 Alpha virt. eigenvalues --    2.91980   2.94246   2.95745   2.97886   3.03205
 Alpha virt. eigenvalues --    3.04302   3.05727   3.11743   3.15434   3.17668
 Alpha virt. eigenvalues --    3.28844   3.31810   3.36919   3.40056   3.43485
 Alpha virt. eigenvalues --    3.44001   3.56925   3.63111   3.67072   3.70226
 Alpha virt. eigenvalues --    3.76391   3.94111   3.94809   4.10141   4.23046
 Alpha virt. eigenvalues --    4.30975   4.37326   4.57675   4.60083   4.64516
 Alpha virt. eigenvalues --    4.71931   5.01356   5.10990   5.20585   5.41521
 Alpha virt. eigenvalues --    5.71977   5.91250  23.71190  23.81075  23.82137
 Alpha virt. eigenvalues --   24.00048  24.13055  35.40858  35.61547  49.91764
 Alpha virt. eigenvalues --   50.10247
          Condensed to atoms (all electrons):
               1          2          3          4          5          6
     1  O    8.215227   0.352600  -0.159683  -0.056053  -0.009088  -0.000027
     2  C    0.352600  10.194069  -1.931096  -3.257279  -0.078775  -0.032170
     3  C   -0.159683  -1.931096  14.252841  -2.211857   0.006725  -0.062620
     4  C   -0.056053  -3.257279  -2.211857  12.061714   0.168518   0.079299
     5  N   -0.009088  -0.078775   0.006725   0.168518   6.621281   0.304495
     6  H   -0.000027  -0.032170  -0.062620   0.079299   0.304495   0.440868
     7  H    0.000321  -0.019794  -0.010665   0.009406   0.341999  -0.012676
     8  C    0.041230   0.213516   0.617046  -1.250087  -0.156241  -0.065026
     9  C    0.095309   0.300000  -5.195585   0.480745   0.148004   0.053742
    10  N   -0.006681  -0.138748   1.165839   0.058349  -0.015410  -0.000532
    11  O   -0.085216   0.389948  -0.823368  -0.103267  -0.006826  -0.000091
    12  H    0.000467  -0.125857  -0.144101   0.565561  -0.037116   0.011025
    13  H    0.003614   0.153248   0.028059   0.222571  -0.024441  -0.007492
    14  H    0.000022  -0.013237   0.024806   0.010124  -0.033107  -0.001047
    15  H    0.000069   0.027147  -0.028982  -0.028461  -0.031032  -0.004798
               7          8          9         10         11         12
     1  O    0.000321   0.041230   0.095309  -0.006681  -0.085216   0.000467
     2  C   -0.019794   0.213516   0.300000  -0.138748   0.389948  -0.125857
     3  C   -0.010665   0.617046  -5.195585   1.165839  -0.823368  -0.144101
     4  C    0.009406  -1.250087   0.480745   0.058349  -0.103267   0.565561
     5  N    0.341999  -0.156241   0.148004  -0.015410  -0.006826  -0.037116
     6  H   -0.012676  -0.065026   0.053742  -0.000532  -0.000091   0.011025
     7  H    0.394192   0.028706  -0.029756   0.001612  -0.000128   0.006699
     8  C    0.028706   8.550873  -2.439452  -0.036204   0.067022  -0.033536
     9  C   -0.029756  -2.439452  12.931695  -1.072635   0.490249   0.063094
    10  N    0.001612  -0.036204  -1.072635   7.613448  -0.114036   0.001751
    11  O   -0.000128   0.067022   0.490249  -0.114036   8.111076  -0.000816
    12  H    0.006699  -0.033536   0.063094   0.001751  -0.000816   0.562056
    13  H   -0.010641   0.046718  -0.075509   0.000687   0.000664  -0.049924
    14  H    0.006316   0.459204  -0.126390  -0.000181  -0.000528   0.004666
    15  H   -0.010975   0.392239   0.021757   0.004057   0.001393  -0.001772
              13         14         15
     1  O    0.003614   0.000022   0.000069
     2  C    0.153248  -0.013237   0.027147
     3  C    0.028059   0.024806  -0.028982
     4  C    0.222571   0.010124  -0.028461
     5  N   -0.024441  -0.033107  -0.031032
     6  H   -0.007492  -0.001047  -0.004798
     7  H   -0.010641   0.006316  -0.010975
     8  C    0.046718   0.459204   0.392239
     9  C   -0.075509  -0.126390   0.021757
    10  N    0.000687  -0.000181   0.004057
    11  O    0.000664  -0.000528   0.001393
    12  H   -0.049924   0.004666  -0.001772
    13  H    0.520770  -0.000952   0.000889
    14  H   -0.000952   0.501346  -0.029984
    15  H    0.000889  -0.029984   0.489396
 Mulliken charges:
               1
     1  O   -0.392112
     2  C   -0.033572
     3  C    0.472641
     4  C   -0.749282
     5  N   -0.198985
     6  H    0.297051
     7  H    0.305385
     8  C   -0.436007
     9  C    0.354731
    10  N   -0.461317
    11  O    0.073923
    12  H    0.177804
    13  H    0.191738
    14  H    0.198945
    15  H    0.199057
 Sum of Mulliken charges =  -0.00000
 Mulliken charges with hydrogens summed into heavy atoms:
               1
     1  O   -0.392112
     2  C   -0.033572
     3  C    0.472641
     4  C   -0.379739
     5  N    0.403451
     8  C   -0.038005
     9  C    0.354731
    10  N   -0.461317
    11  O    0.073923
 Electronic spatial extent (au):  <R**2>=           1053.6140
 Charge=             -0.0000 electrons
 Dipole moment (field-independent basis, Debye):
    X=             13.7283    Y=             -2.4826    Z=             -0.6554  Tot=             13.9664
 Quadrupole moment (field-independent basis, Debye-Ang):
   XX=            -48.4455   YY=            -58.6158   ZZ=            -49.7488
   XY=             -5.3403   XZ=             -2.7757   YZ=              0.8390
 Traceless Quadrupole moment (field-independent basis, Debye-Ang):
   XX=              3.8245   YY=             -6.3458   ZZ=              2.5212
   XY=             -5.3403   XZ=             -2.7757   YZ=              0.8390
 Octapole moment (field-independent basis, Debye-Ang**2):
  XXX=             87.1908  YYY=            -18.0082  ZZZ=             -4.4891  XYY=             24.8289
  XXY=              5.1186  XXZ=             -4.0494  XZZ=              7.4794  YZZ=             -2.7263
  YYZ=             -0.6154  XYZ=              1.6595
 Hexadecapole moment (field-independent basis, Debye-Ang**3):
 XXXX=           -799.6861 YYYY=           -472.2158 ZZZZ=            -72.2880 XXXY=            -60.6272
 XXXZ=            -16.2393 YYYX=             -6.4204 YYYZ=              2.5431 ZZZX=             -8.6987
 ZZZY=              3.1520 XXYY=           -224.6164 XXZZ=           -136.9153 YYZZ=            -84.9836
 XXYZ=              2.2457 YYXZ=             -3.5816 ZZXY=             -2.4959
 N-N= 4.483392181427D+02 E-N=-1.958881020805D+03  KE= 4.524585908411D+02
 No NMR shielding tensors so no spin-rotation constants.
 Leave Link  601 at Fri Nov  4 03:06:48 2022, MaxMem=  8053063680 cpu:               2.7 elap:               0.1
 (Enter /public3/home/scg5914/software-scg5914/g16/l701.exe)
 ... and contract with generalized density number  0.
 Compute integral first derivatives.
 R6Disp: Adding Grimme-D3(BJ) dispersion energy 1st derivatives to the gradient.
 Leave Link  701 at Fri Nov  4 03:06:48 2022, MaxMem=  8053063680 cpu:               3.1 elap:               0.1
 (Enter /public3/home/scg5914/software-scg5914/g16/l702.exe)
 L702 exits ... SP integral derivatives will be done elsewhere.
 Leave Link  702 at Fri Nov  4 03:06:48 2022, MaxMem=  8053063680 cpu:               0.2 elap:               0.0
 (Enter /public3/home/scg5914/software-scg5914/g16/l703.exe)
 Integral derivatives from FoFJK, PRISM(SPDF).
 Compute integral first derivatives, UseDBF=F ICtDFT=           0.
 Calling FoFJK, ICntrl=      2127 FMM=F ISym2X=0 I1Cent= 0 IOpClX= 0 NMat=1 NMatS=1 NMatT=0.
 FoFJK:  IHMeth= 1 ICntrl=    2127 DoSepK=F KAlg= 0 I1Cent=           0 FoldK=F
 IRaf=         0 NMat=       1 IRICut=       1 DoRegI=T DoRafI=F ISym2E= 0 IDoP0=0 IntGTp=1.
 FoFCou: FMM=F IPFlag=           0 FMFlag=      100000 FMFlg1=         800
         NFxFlg=           0 DoJE=F BraDBF=F KetDBF=F FulRan=T
         wScrn=  0.000000 ICntrl=      2127 IOpCl=  0 I1Cent=           0 NGrid=           0
         NMat0=    1 NMatS0=      1 NMatT0=    0 NMatD0=    1 NMtDS0=    0 NMtDT0=    0
 Symmetry not used in FoFCou.
 Leave Link  703 at Fri Nov  4 03:06:49 2022, MaxMem=  8053063680 cpu:              42.3 elap:               1.3
 (Enter /public3/home/scg5914/software-scg5914/g16/l716.exe)
 Dipole        = 5.40113935D+00-9.76748462D-01-2.57844975D-01
 ***** Axes restored to original set *****
 -------------------------------------------------------------------
 Center     Atomic                   Forces (Hartrees/Bohr)
 Number     Number              X              Y              Z
 -------------------------------------------------------------------
      1        8           0.000029689   -0.004157484    0.000034066
      2        6          -0.002726288    0.003809427    0.000015955
      3        6           0.002009680   -0.001215253   -0.000345986
      4        6          -0.004682121   -0.000114356   -0.000006758
      5        7           0.000316632   -0.000309223    0.000418310
      6        1           0.000272343   -0.000301993    0.000036887
      7        1          -0.000302705    0.000057111    0.000364166
      8        6          -0.001401656    0.002394747    0.000032878
      9        6          -0.000747346    0.002601601   -0.000544880
     10        7          -0.001781336    0.001959771   -0.000213499
     11        8           0.003092965   -0.002245248    0.000115887
     12        1           0.002210251   -0.000493665    0.000625542
     13        1           0.001720025    0.000416612   -0.000627401
     14        1           0.001326291   -0.001066164    0.000717589
     15        1           0.000663575   -0.001335883   -0.000622757
 -------------------------------------------------------------------
 Cartesian Forces:  Max     0.004682121 RMS     0.001630550
 Leave Link  716 at Fri Nov  4 03:06:49 2022, MaxMem=  8053063680 cpu:               0.8 elap:               0.0
 (Enter /public3/home/scg5914/software-scg5914/g16/l103.exe)

 GradGradGradGradGradGradGradGradGradGradGradGradGradGradGradGradGradGrad
 Berny optimization.
 FormGI is forming the generalized inverse of G from B-inverse, IUseBI=4.
 Internal  Forces:  Max     0.004131788 RMS     0.000797660
 Search for a local minimum.
 Step number   1 out of a maximum of   98
 All quantities printed in internal units (Hartrees-Bohrs-Radians)
 RMS Force = .79766D-03 SwitMx=.10000D-02 MixMth= 2
 Mixed Optimization -- En-DIIS/RFO-DIIS
 Second derivative matrix not updated -- first step.
 ITU=  0
     Eigenvalues ---    0.00482   0.01258   0.01362   0.01541   0.01686
     Eigenvalues ---    0.01812   0.03330   0.03519   0.05255   0.05532
     Eigenvalues ---    0.06532   0.06691   0.06903   0.07153   0.07235
     Eigenvalues ---    0.07433   0.08773   0.10861   0.21429   0.22998
     Eigenvalues ---    0.24783   0.24986   0.25000   0.25688   0.27701
     Eigenvalues ---    0.31547   0.33310   0.34197   0.34232   0.34623
     Eigenvalues ---    0.34691   0.38286   0.39845   0.42273   0.43376
     Eigenvalues ---    0.43961   0.44337   0.63287   0.99055
 RFO step:  Lambda=-2.24897441D-04 EMin= 4.81978033D-03
 Linear search not attempted -- first point.
 Iteration  1 RMS(Cart)=  0.00580349 RMS(Int)=  0.00003755
 Iteration  2 RMS(Cart)=  0.00003170 RMS(Int)=  0.00002170
 Iteration  3 RMS(Cart)=  0.00000000 RMS(Int)=  0.00002170
 ITry= 1 IFail=0 DXMaxC= 2.32D-02 DCOld= 1.00D+10 DXMaxT= 3.00D-01 DXLimC= 3.00D+00 Rises=F
 Variable       Old X    -DE/DX   Delta X   Delta X   Delta X     New X
                                 (Linear)    (Quad)   (Total)
    R1        2.29019   0.00413   0.00000   0.00417   0.00417   2.29437
    R2        2.68934  -0.00106   0.00000  -0.00278  -0.00278   2.68656
    R3        2.68950   0.00152   0.00000   0.00378   0.00378   2.69328
    R4        2.77553   0.00018   0.00000   0.00028   0.00028   2.77581
    R5        2.63720   0.00067   0.00000   0.00113   0.00113   2.63833
    R6        2.95793   0.00023   0.00000   0.00086   0.00085   2.95878
    R7        2.08511  -0.00158   0.00000  -0.00473  -0.00473   2.08038
    R8        2.06998  -0.00147   0.00000  -0.00430  -0.00430   2.06569
    R9        1.93201  -0.00037   0.00000  -0.00083  -0.00083   1.93118
   R10        1.92753   0.00035   0.00000   0.00079   0.00079   1.92833
   R11        2.90560   0.00078   0.00000   0.00284   0.00284   2.90844
   R12        2.82530  -0.00074   0.00000  -0.00206  -0.00206   2.82324
   R13        2.06940  -0.00136   0.00000  -0.00397  -0.00397   2.06542
   R14        2.06291  -0.00132   0.00000  -0.00381  -0.00381   2.05910
   R15        2.46244  -0.00023   0.00000  -0.00032  -0.00032   2.46212
   R16        2.68104   0.00312   0.00000   0.00765   0.00765   2.68870
    A1        2.37092  -0.00065   0.00000  -0.00249  -0.00249   2.36843
    A2        2.11163   0.00041   0.00000   0.00176   0.00176   2.11339
    A3        1.80063   0.00024   0.00000   0.00071   0.00071   1.80133
    A4        2.47637  -0.00116   0.00000  -0.00417  -0.00416   2.47221
    A5        1.84496   0.00132   0.00000   0.00443   0.00443   1.84939
    A6        1.95960  -0.00016   0.00000  -0.00023  -0.00024   1.95936
    A7        1.73548  -0.00002   0.00000  -0.00004  -0.00003   1.73545
    A8        2.05718  -0.00097   0.00000  -0.01292  -0.01294   2.04424
    A9        2.05633  -0.00046   0.00000  -0.00707  -0.00709   2.04924
   A10        1.81863   0.00083   0.00000   0.01069   0.01068   1.82932
   A11        1.88126   0.00042   0.00000   0.00629   0.00628   1.88754
   A12        1.88468   0.00050   0.00000   0.00711   0.00696   1.89164
   A13        1.97440  -0.00012   0.00000  -0.00268  -0.00267   1.97172
   A14        1.87209   0.00008   0.00000   0.00155   0.00155   1.87364
   A15        1.87072  -0.00005   0.00000   0.00071   0.00069   1.87141
   A16        1.89517  -0.00008   0.00000  -0.00119  -0.00119   1.89398
   A17        1.96334   0.00004   0.00000  -0.00047  -0.00046   1.96287
   A18        1.88410   0.00015   0.00000   0.00243   0.00243   1.88653
   A19        1.73835  -0.00001   0.00000   0.00042   0.00043   1.73877
   A20        1.86149   0.00051   0.00000   0.00635   0.00635   1.86784
   A21        1.90188   0.00037   0.00000   0.00561   0.00561   1.90749
   A22        1.99731  -0.00073   0.00000  -0.01008  -0.01009   1.98722
   A23        2.03630  -0.00036   0.00000  -0.00580  -0.00581   2.03048
   A24        1.91093   0.00034   0.00000   0.00530   0.00521   1.91614
   A25        1.94370   0.00026   0.00000   0.00162   0.00161   1.94531
   A26        2.02551  -0.00080   0.00000  -0.00389  -0.00390   2.02162
   A27        2.31136   0.00053   0.00000   0.00204   0.00204   2.31340
   A28        1.79117   0.00070   0.00000   0.00360   0.00360   1.79477
   A29        1.96170  -0.00145   0.00000  -0.00485  -0.00484   1.95686
    D1        0.06847   0.00002   0.00000   0.00074   0.00074   0.06921
    D2        3.12613  -0.00001   0.00000   0.00160   0.00160   3.12773
    D3       -3.07829  -0.00008   0.00000  -0.00280  -0.00280  -3.08109
    D4       -0.02063  -0.00011   0.00000  -0.00194  -0.00194  -0.02257
    D5       -3.10906  -0.00007   0.00000  -0.00218  -0.00220  -3.11125
    D6        0.03673   0.00001   0.00000   0.00071   0.00071   0.03744
    D7        2.72049  -0.00006   0.00000  -0.00127  -0.00127   2.71922
    D8       -1.61379   0.00053   0.00000   0.00646   0.00643  -1.60736
    D9        0.69648  -0.00035   0.00000  -0.00575  -0.00573   0.69076
   D10       -0.33378  -0.00007   0.00000  -0.00229  -0.00228  -0.33606
   D11        1.61513   0.00052   0.00000   0.00545   0.00542   1.62055
   D12       -2.35779  -0.00036   0.00000  -0.00677  -0.00674  -2.36452
   D13       -3.07587   0.00017   0.00000   0.00564   0.00563  -3.07024
   D14       -0.00219   0.00012   0.00000   0.00266   0.00266   0.00048
   D15        0.00977   0.00007   0.00000   0.00592   0.00592   0.01569
   D16        3.08346   0.00003   0.00000   0.00294   0.00295   3.08640
   D17        2.70868  -0.00011   0.00000  -0.00413  -0.00413   2.70455
   D18       -1.48516  -0.00023   0.00000  -0.00618  -0.00618  -1.49134
   D19        0.53447  -0.00004   0.00000  -0.00225  -0.00226   0.53222
   D20        0.57831   0.00067   0.00000   0.00619   0.00621   0.58453
   D21        2.66765   0.00055   0.00000   0.00414   0.00417   2.67182
   D22       -1.59590   0.00073   0.00000   0.00806   0.00809  -1.58781
   D23       -1.42115  -0.00047   0.00000  -0.00954  -0.00957  -1.43073
   D24        0.66818  -0.00059   0.00000  -0.01159  -0.01162   0.65656
   D25        2.68782  -0.00040   0.00000  -0.00767  -0.00770   2.68013
   D26       -0.52722   0.00005   0.00000   0.00526   0.00526  -0.52196
   D27        1.55401  -0.00057   0.00000  -0.00340  -0.00341   1.55060
   D28       -2.66789   0.00031   0.00000   0.00928   0.00930  -2.65860
   D29       -2.70813   0.00021   0.00000   0.00846   0.00847  -2.69966
   D30       -0.62690  -0.00041   0.00000  -0.00019  -0.00020  -0.62711
   D31        1.43438   0.00047   0.00000   0.01249   0.01250   1.44689
   D32        1.48443   0.00019   0.00000   0.00861   0.00861   1.49305
   D33       -2.71753  -0.00044   0.00000  -0.00004  -0.00006  -2.71759
   D34       -0.65624   0.00044   0.00000   0.01264   0.01265  -0.64359
   D35        0.32552  -0.00009   0.00000  -0.00675  -0.00675   0.31877
   D36       -2.73338   0.00003   0.00000  -0.00281  -0.00280  -2.73619
   D37       -1.65260  -0.00040   0.00000  -0.01054  -0.01053  -1.66312
   D38        1.57168  -0.00028   0.00000  -0.00660  -0.00658   1.56510
   D39        2.36746   0.00019   0.00000  -0.00230  -0.00232   2.36514
   D40       -0.69144   0.00031   0.00000   0.00164   0.00163  -0.68982
   D41        0.02390  -0.00009   0.00000  -0.00203  -0.00203   0.02187
   D42        3.07977  -0.00017   0.00000  -0.00590  -0.00589   3.07388
   D43       -0.03772   0.00004   0.00000   0.00070   0.00071  -0.03701
         Item               Value     Threshold  Converged?
 Maximum Force            0.004132     0.000450     NO 
 RMS     Force            0.000798     0.000300     NO 
 Maximum Displacement     0.023221     0.001800     NO 
 RMS     Displacement     0.005804     0.001200     NO 
 Predicted change in Energy=-1.129092D-04
 Lowest energy point so far.  Saving SCF results.
 GradGradGradGradGradGradGradGradGradGradGradGradGradGradGradGradGradGrad

 Leave Link  103 at Fri Nov  4 03:06:49 2022, MaxMem=  8053063680 cpu:               1.7 elap:               0.1
 (Enter /public3/home/scg5914/software-scg5914/g16/l202.exe)
                          Input orientation:                          
 ---------------------------------------------------------------------
 Center     Atomic      Atomic             Coordinates (Angstroms)
 Number     Number       Type             X           Y           Z
 ---------------------------------------------------------------------
      1          8           0        0.070984    0.039747    0.075044
      2          6           0       -0.066444    1.245726    0.046230
      3          6           0       -1.167167    2.143103   -0.019007
      4          6           0       -2.635876    2.166371   -0.020769
      5          7           0       -2.870129    3.621238    0.508354
      6          1           0       -3.770035    4.010395    0.220117
      7          1           0       -2.845594    3.581967    1.527730
      8          6           0       -1.680978    4.475587    0.034250
      9          6           0       -0.617850    3.426509   -0.000530
     10          7           0        0.681907    3.486766    0.066838
     11          8           0        1.062222    2.115741    0.067201
     12          1           0       -3.137152    2.139103   -1.000534
     13          1           0       -3.150994    1.473267    0.649424
     14          1           0       -1.943789    4.871486   -0.950022
     15          1           0       -1.526719    5.297202    0.733137
 ---------------------------------------------------------------------
                    Distance matrix (angstroms):
                    1          2          3          4          5
     1  O    0.000000
     2  C    1.214126   0.000000
     3  C    2.442533   1.421666   0.000000
     4  C    3.443661   2.730213   1.468894   0.000000
     5  N    4.654566   3.703683   2.315831   1.565722   0.000000
     6  H    5.526348   4.624957   3.212302   2.178249   1.021937
     7  H    4.812904   3.921293   2.698118   2.108492   1.020426
     8  C    4.769456   3.610937   2.389000   2.499467   1.539080
     9  C    3.456929   2.249900   1.396146   2.379241   2.317249
    10  N    3.500748   2.362777   2.287330   3.571947   3.581896
    11  O    2.300514   1.425220   2.231224   3.699491   4.233737
    12  H    3.981997   3.364979   2.200966   1.100891   2.131847
    13  H    3.572958   3.151201   2.197964   1.093114   2.170845
    14  H    5.334395   4.202746   2.985633   2.942812   2.132624
    15  H    5.534128   4.361044   3.262413   3.405980   2.159660
                    6          7          8          9         10
     6  H    0.000000
     7  H    1.657707   0.000000
     8  C    2.148281   2.094127   0.000000
     9  C    3.213391   2.706028   1.493993   0.000000
    10  N    4.485251   3.819232   2.561651   1.302896   0.000000
    11  O    5.192669   4.421989   3.618716   2.131981   1.422797
    12  H    2.322125   2.925573   2.941152   3.000718   4.188161
    13  H    2.646609   2.304627   3.399016   3.264110   4.368606
    14  H    2.333640   2.935194   1.092975   2.178900   3.137791
    15  H    2.636575   2.304960   1.089629   2.205403   2.932518
                   11         12         13         14         15
    11  O    0.000000
    12  H    4.333053   0.000000
    13  H    4.301505   1.779295   0.000000
    14  H    4.202972   2.982043   3.945055   0.000000
    15  H    4.155452   3.946226   4.155449   1.785554   0.000000
 Stoichiometry    C5H6N2O2
 Framework group  C1[X(C5H6N2O2)]
 Deg. of freedom    39
 Full point group                 C1      NOp   1
 RotChk:  IX=0 Diff= 4.60D-03
 Largest Abelian subgroup         C1      NOp   1
 Largest concise Abelian subgroup C1      NOp   1
                         Standard orientation:                         
 ---------------------------------------------------------------------
 Center     Atomic      Atomic             Coordinates (Angstroms)
 Number     Number       Type             X           Y           Z
 ---------------------------------------------------------------------
      1          8           0       -2.403480   -1.238485   -0.059154
      2          6           0       -1.501463   -0.427575   -0.005387
      3          6           0       -0.086936   -0.486192    0.124272
      4          6           0        1.024727   -1.443796    0.193919
      5          7           0        2.189182   -0.521680   -0.301290
      6          1           0        3.106417   -0.822697    0.034007
      7          1           0        2.190307   -0.554092   -1.321201
      8          6           0        1.847647    0.915474    0.130807
      9          6           0        0.355994    0.837617    0.100427
     10          7           0       -0.571170    1.744258   -0.025688
     11          8           0       -1.765342    0.971745   -0.064759
     12          1           0        1.337044   -1.778375    1.195156
     13          1           0        0.978956   -2.316652   -0.462530
     14          1           0        2.262733    1.055652    1.132131
     15          1           0        2.309229    1.618867   -0.561631
 ---------------------------------------------------------------------
 Rotational constants (GHZ):           3.2559060           1.5301074           1.0736158
 Leave Link  202 at Fri Nov  4 03:06:49 2022, MaxMem=  8053063680 cpu:               0.1 elap:               0.0
 (Enter /public3/home/scg5914/software-scg5914/g16/l301.exe)
 Standard basis: 6-311+G(d,p) (5D, 7F)
 Ernie: Thresh=  0.10000D-02 Tol=  0.10000D-05 Strict=F.
 There are   243 symmetry adapted cartesian basis functions of A   symmetry.
 There are   234 symmetry adapted basis functions of A   symmetry.
   234 basis functions,   372 primitive gaussians,   243 cartesian basis functions
    33 alpha electrons       33 beta electrons
       nuclear repulsion energy       448.1843153329 Hartrees.
 IExCor=  402 DFT=T Ex+Corr=B3LYP ExCW=0 ScaHFX=  0.200000
 ScaDFX=  0.800000  0.720000  1.000000  0.810000 ScalE2=  1.000000  1.000000
 IRadAn=      5 IRanWt=     -1 IRanGd=            0 ICorTp=0 IEmpDi=141
 NAtoms=   15 NActive=   15 NUniq=   15 SFac= 1.00D+00 NAtFMM=   60 NAOKFM=F Big=F
 Integral buffers will be    131072 words long.
 Raffenetti 2 integral format.
 Two-electron integral symmetry is turned on.
 R6Disp:  Grimme-D3(BJ) Dispersion energy=       -0.0253078208 Hartrees.
 Nuclear repulsion after empirical dispersion term =      448.1590075121 Hartrees.
 Leave Link  301 at Fri Nov  4 03:06:49 2022, MaxMem=  8053063680 cpu:               0.6 elap:               0.0
 (Enter /public3/home/scg5914/software-scg5914/g16/l302.exe)
 NPDir=0 NMtPBC=     1 NCelOv=     1 NCel=       1 NClECP=     1 NCelD=      1
         NCelK=      1 NCelE2=     1 NClLst=     1 CellRange=     0.0.
 One-electron integrals computed using PRISM.
 One-electron integral symmetry used in STVInt
 NBasis=   234 RedAO= T EigKep=  6.28D-06  NBF=   234
 NBsUse=   234 1.00D-06 EigRej= -1.00D+00 NBFU=   234
 Precomputing XC quadrature grid using
 IXCGrd= 4 IRadAn=           5 IRanWt=          -1 IRanGd=           0 AccXCQ= 0.00D+00.
 Generated NRdTot=       0 NPtTot=           0 NUsed=           0 NTot=          32
 NSgBfM=   243   243   243   243   243 MxSgAt=    15 MxSgA2=    15.
 Leave Link  302 at Fri Nov  4 03:06:50 2022, MaxMem=  8053063680 cpu:               3.7 elap:               0.1
 (Enter /public3/home/scg5914/software-scg5914/g16/l303.exe)
 DipDrv:  MaxL=1.
 Leave Link  303 at Fri Nov  4 03:06:50 2022, MaxMem=  8053063680 cpu:               0.4 elap:               0.0
 (Enter /public3/home/scg5914/software-scg5914/g16/l401.exe)
 Initial guess from the checkpoint file:  "dsgdb9nsd_131200.chk"
 B after Tr=     0.000000   -0.000000    0.000000
         Rot=    1.000000    0.000434    0.000150    0.000616 Ang=   0.09 deg.
 Guess basis will be translated and rotated to current coordinates.
 JPrj=2 DoOrth=T DoCkMO=T.
 Generating alternative initial guess.
 ExpMin= 4.38D-02 ExpMax= 8.59D+03 ExpMxC= 1.30D+03 IAcc=3 IRadAn=         5 AccDes= 0.00D+00
 Harris functional with IExCor=  402 and IRadAn=       5 diagonalized for initial guess.
 HarFok:  IExCor=  402 AccDes= 0.00D+00 IRadAn=         5 IDoV= 1 UseB2=F ITyADJ=14
 ICtDFT=  3500011 ScaDFX=  1.000000  1.000000  1.000000  1.000000
 FoFCou: FMM=F IPFlag=           0 FMFlag=      100000 FMFlg1=           0
         NFxFlg=           0 DoJE=T BraDBF=F KetDBF=T FulRan=T
         wScrn=  0.000000 ICntrl=       500 IOpCl=  0 I1Cent=   200000004 NGrid=           0
         NMat0=    1 NMatS0=      1 NMatT0=    0 NMatD0=    1 NMtDS0=    0 NMtDT0=    0
 Petite list used in FoFCou.
 Harris En= -454.176214017846    
 Leave Link  401 at Fri Nov  4 03:06:50 2022, MaxMem=  8053063680 cpu:              15.7 elap:               0.5
 (Enter /public3/home/scg5914/software-scg5914/g16/l502.exe)
 Integral symmetry usage will be decided dynamically.
 Closed shell SCF:
 Using DIIS extrapolation, IDIIS=  1040.
 NGot=  8053063680 LenX=  8052935060 LenY=  8052875570
 Requested convergence on RMS density matrix=1.00D-08 within 128 cycles.
 Requested convergence on MAX density matrix=1.00D-06.
 Requested convergence on             energy=1.00D-06.
 No special actions if energy rises.
 Fock matrices will be formed incrementally for  20 cycles.

 Cycle   1  Pass 1  IDiag  1:
 FoFJK:  IHMeth= 1 ICntrl=       0 DoSepK=F KAlg= 0 I1Cent=           0 FoldK=F
 IRaf= 960000000 NMat=       1 IRICut=       1 DoRegI=T DoRafI=F ISym2E= 0 IDoP0=0 IntGTp=1.
 FoFCou: FMM=F IPFlag=           0 FMFlag=      100000 FMFlg1=           0
         NFxFlg=           0 DoJE=F BraDBF=F KetDBF=F FulRan=T
         wScrn=  0.000000 ICntrl=         0 IOpCl=  0 I1Cent=           0 NGrid=           0
         NMat0=    1 NMatS0=      1 NMatT0=    0 NMatD0=    1 NMtDS0=    0 NMtDT0=    0
 Symmetry not used in FoFCou.
 E= -454.129749034324    
 DIIS: error= 3.45D-04 at cycle   1 NSaved=   1.
 NSaved= 1 IEnMin= 1 EnMin= -454.129749034324     IErMin= 1 ErrMin= 3.45D-04
 ErrMax= 3.45D-04  0.00D+00 EMaxC= 1.00D-01 BMatC= 7.88D-05 BMatP= 7.88D-05
 IDIUse=3 WtCom= 9.97D-01 WtEn= 3.45D-03
 Coeff-Com:  0.100D+01
 Coeff-En:   0.100D+01
 Coeff:      0.100D+01
 Gap=     0.359 Goal=   None    Shift=    0.000
 RMSDP=6.21D-04 MaxDP=5.63D-02              OVMax= 2.67D-03

 Cycle   2  Pass 1  IDiag  1:
 RMSU=  4.66D-04    CP:  1.01D+00
 E= -454.129844184818     Delta-E=       -0.000095150493 Rises=F Damp=F
 DIIS: error= 1.28D-04 at cycle   2 NSaved=   2.
 NSaved= 2 IEnMin= 2 EnMin= -454.129844184818     IErMin= 2 ErrMin= 1.28D-04
 ErrMax= 1.28D-04  0.00D+00 EMaxC= 1.00D-01 BMatC= 4.17D-06 BMatP= 7.88D-05
 IDIUse=3 WtCom= 9.99D-01 WtEn= 1.28D-03
 Coeff-Com:  0.438D-01 0.956D+00
 Coeff-En:   0.000D+00 0.100D+01
 Coeff:      0.437D-01 0.956D+00
 Gap=     0.112 Goal=   None    Shift=    0.000
 RMSDP=1.46D-04 MaxDP=9.47D-03 DE=-9.52D-05 OVMax= 1.62D-03

 Cycle   3  Pass 1  IDiag  1:
 RMSU=  9.28D-05    CP:  1.01D+00  1.06D+00
 E= -454.129837763048     Delta-E=        0.000006421770 Rises=F Damp=F
 DIIS: error= 2.59D-04 at cycle   3 NSaved=   3.
 NSaved= 3 IEnMin= 2 EnMin= -454.129844184818     IErMin= 2 ErrMin= 1.28D-04
 ErrMax= 2.59D-04  0.00D+00 EMaxC= 1.00D-01 BMatC= 1.28D-05 BMatP= 4.17D-06
 IDIUse=3 WtCom= 3.83D-01 WtEn= 6.17D-01
 Coeff-Com: -0.162D-01 0.656D+00 0.360D+00
 Coeff-En:   0.000D+00 0.706D+00 0.294D+00
 Coeff:     -0.620D-02 0.687D+00 0.319D+00
 Gap=     0.112 Goal=   None    Shift=    0.000
 RMSDP=6.70D-05 MaxDP=3.71D-03 DE= 6.42D-06 OVMax= 1.20D-03

 Cycle   4  Pass 1  IDiag  1:
 RMSU=  3.81D-05    CP:  1.01D+00  1.11D+00  4.80D-01
 E= -454.129847789969     Delta-E=       -0.000010026921 Rises=F Damp=F
 DIIS: error= 3.06D-05 at cycle   4 NSaved=   4.
 NSaved= 4 IEnMin= 4 EnMin= -454.129847789969     IErMin= 4 ErrMin= 3.06D-05
 ErrMax= 3.06D-05  0.00D+00 EMaxC= 1.00D-01 BMatC= 2.72D-07 BMatP= 4.17D-06
 IDIUse=1 WtCom= 1.00D+00 WtEn= 0.00D+00
 Coeff-Com: -0.134D-01 0.270D+00 0.149D+00 0.594D+00
 Coeff:     -0.134D-01 0.270D+00 0.149D+00 0.594D+00
 Gap=     0.112 Goal=   None    Shift=    0.000
 RMSDP=1.25D-05 MaxDP=5.98D-04 DE=-1.00D-05 OVMax= 1.99D-04

 Cycle   5  Pass 1  IDiag  1:
 RMSU=  9.56D-06    CP:  1.01D+00  1.13D+00  5.24D-01  9.22D-01
 E= -454.129847981479     Delta-E=       -0.000000191510 Rises=F Damp=F
 DIIS: error= 1.07D-05 at cycle   5 NSaved=   5.
 NSaved= 5 IEnMin= 5 EnMin= -454.129847981479     IErMin= 5 ErrMin= 1.07D-05
 ErrMax= 1.07D-05  0.00D+00 EMaxC= 1.00D-01 BMatC= 5.35D-08 BMatP= 2.72D-07
 IDIUse=1 WtCom= 1.00D+00 WtEn= 0.00D+00
 Coeff-Com: -0.558D-02 0.860D-01 0.485D-01 0.336D+00 0.535D+00
 Coeff:     -0.558D-02 0.860D-01 0.485D-01 0.336D+00 0.535D+00
 Gap=     0.112 Goal=   None    Shift=    0.000
 RMSDP=5.37D-06 MaxDP=3.57D-04 DE=-1.92D-07 OVMax= 9.72D-05

 Cycle   6  Pass 1  IDiag  1:
 RMSU=  3.35D-06    CP:  1.01D+00  1.12D+00  4.92D-01  8.77D-01  8.25D-01
 E= -454.129848024695     Delta-E=       -0.000000043216 Rises=F Damp=F
 DIIS: error= 3.66D-06 at cycle   6 NSaved=   6.
 NSaved= 6 IEnMin= 6 EnMin= -454.129848024695     IErMin= 6 ErrMin= 3.66D-06
 ErrMax= 3.66D-06  0.00D+00 EMaxC= 1.00D-01 BMatC= 4.76D-09 BMatP= 5.35D-08
 IDIUse=1 WtCom= 1.00D+00 WtEn= 0.00D+00
 Coeff-Com: -0.172D-02 0.204D-01 0.122D-01 0.131D+00 0.291D+00 0.547D+00
 Coeff:     -0.172D-02 0.204D-01 0.122D-01 0.131D+00 0.291D+00 0.547D+00
 Gap=     0.112 Goal=   None    Shift=    0.000
 RMSDP=2.06D-06 MaxDP=1.72D-04 DE=-4.32D-08 OVMax= 4.06D-05

 Cycle   7  Pass 1  IDiag  1:
 RMSU=  9.66D-07    CP:  1.01D+00  1.12D+00  4.99D-01  8.81D-01  8.24D-01
                    CP:  7.09D-01
 E= -454.129848027492     Delta-E=       -0.000000002797 Rises=F Damp=F
 DIIS: error= 2.60D-06 at cycle   7 NSaved=   7.
 NSaved= 7 IEnMin= 7 EnMin= -454.129848027492     IErMin= 7 ErrMin= 2.60D-06
 ErrMax= 2.60D-06  0.00D+00 EMaxC= 1.00D-01 BMatC= 1.62D-09 BMatP= 4.76D-09
 IDIUse=1 WtCom= 1.00D+00 WtEn= 0.00D+00
 Coeff-Com: -0.992D-04-0.384D-02-0.188D-02 0.199D-01 0.852D-01 0.394D+00
 Coeff-Com:  0.507D+00
 Coeff:     -0.992D-04-0.384D-02-0.188D-02 0.199D-01 0.852D-01 0.394D+00
 Coeff:      0.507D+00
 Gap=     0.112 Goal=   None    Shift=    0.000
 RMSDP=1.44D-06 MaxDP=1.15D-04 DE=-2.80D-09 OVMax= 1.60D-05

 Cycle   8  Pass 1  IDiag  1:
 RMSU=  2.61D-07    CP:  1.01D+00  1.12D+00  5.01D-01  8.91D-01  8.30D-01
                    CP:  7.85D-01  7.31D-01
 E= -454.129848028874     Delta-E=       -0.000000001382 Rises=F Damp=F
 DIIS: error= 2.89D-07 at cycle   8 NSaved=   8.
 NSaved= 8 IEnMin= 8 EnMin= -454.129848028874     IErMin= 8 ErrMin= 2.89D-07
 ErrMax= 2.89D-07  0.00D+00 EMaxC= 1.00D-01 BMatC= 4.97D-11 BMatP= 1.62D-09
 IDIUse=1 WtCom= 1.00D+00 WtEn= 0.00D+00
 Coeff-Com:  0.728D-04-0.334D-02-0.189D-02 0.861D-03 0.218D-01 0.164D+00
 Coeff-Com:  0.245D+00 0.574D+00
 Coeff:      0.728D-04-0.334D-02-0.189D-02 0.861D-03 0.218D-01 0.164D+00
 Coeff:      0.245D+00 0.574D+00
 Gap=     0.112 Goal=   None    Shift=    0.000
 RMSDP=2.10D-07 MaxDP=1.75D-05 DE=-1.38D-09 OVMax= 2.59D-06

 Cycle   9  Pass 1  IDiag  1:
 RMSU=  1.02D-07    CP:  1.01D+00  1.12D+00  5.01D-01  8.93D-01  8.35D-01
                    CP:  7.98D-01  7.22D-01  9.74D-01
 E= -454.129848028917     Delta-E=       -0.000000000043 Rises=F Damp=F
 DIIS: error= 1.01D-07 at cycle   9 NSaved=   9.
 NSaved= 9 IEnMin= 9 EnMin= -454.129848028917     IErMin= 9 ErrMin= 1.01D-07
 ErrMax= 1.01D-07  0.00D+00 EMaxC= 1.00D-01 BMatC= 5.88D-12 BMatP= 4.97D-11
 IDIUse=1 WtCom= 1.00D+00 WtEn= 0.00D+00
 Coeff-Com:  0.442D-04-0.119D-02-0.714D-03-0.133D-02 0.187D-02 0.371D-01
 Coeff-Com:  0.594D-01 0.293D+00 0.612D+00
 Coeff:      0.442D-04-0.119D-02-0.714D-03-0.133D-02 0.187D-02 0.371D-01
 Coeff:      0.594D-01 0.293D+00 0.612D+00
 Gap=     0.112 Goal=   None    Shift=    0.000
 RMSDP=7.12D-08 MaxDP=4.83D-06 DE=-4.33D-11 OVMax= 7.73D-07

 Cycle  10  Pass 1  IDiag  1:
 RMSU=  3.62D-08    CP:  1.01D+00  1.12D+00  5.00D-01  8.92D-01  8.35D-01
                    CP:  8.09D-01  7.19D-01  9.85D-01  1.21D+00
 E= -454.129848028922     Delta-E=       -0.000000000005 Rises=F Damp=F
 DIIS: error= 1.83D-08 at cycle  10 NSaved=  10.
 NSaved=10 IEnMin=10 EnMin= -454.129848028922     IErMin=10 ErrMin= 1.83D-08
 ErrMax= 1.83D-08  0.00D+00 EMaxC= 1.00D-01 BMatC= 1.55D-13 BMatP= 5.88D-12
 IDIUse=1 WtCom= 1.00D+00 WtEn= 0.00D+00
 Coeff-Com:  0.648D-05-0.762D-04-0.549D-04-0.548D-03-0.165D-02-0.270D-02
 Coeff-Com: -0.205D-02 0.488D-01 0.179D+00 0.779D+00
 Coeff:      0.648D-05-0.762D-04-0.549D-04-0.548D-03-0.165D-02-0.270D-02
 Coeff:     -0.205D-02 0.488D-01 0.179D+00 0.779D+00
 Gap=     0.112 Goal=   None    Shift=    0.000
 RMSDP=1.85D-08 MaxDP=1.33D-06 DE=-5.34D-12 OVMax= 4.11D-07

 Cycle  11  Pass 1  IDiag  1:
 RMSU=  9.14D-09    CP:  1.01D+00  1.12D+00  5.00D-01  8.92D-01  8.35D-01
                    CP:  8.09D-01  7.24D-01  1.01D+00  1.25D+00  9.39D-01
 E= -454.129848028920     Delta-E=        0.000000000003 Rises=F Damp=F
 DIIS: error= 1.22D-08 at cycle  11 NSaved=  11.
 NSaved=11 IEnMin=10 EnMin= -454.129848028922     IErMin=11 ErrMin= 1.22D-08
 ErrMax= 1.22D-08  0.00D+00 EMaxC= 1.00D-01 BMatC= 5.71D-14 BMatP= 1.55D-13
 IDIUse=1 WtCom= 1.00D+00 WtEn= 0.00D+00
[...]
 ====================================================================================
 Molecular unit  1  (C5H6N2O2)
     1. BD (   1) O   1 - C   2          1.99427    -1.02198  219(g),51(g),234(v)
     2. BD (   2) O   1 - C   2          1.99285    -0.33654  30(v),218(g)
     3. BD (   1) C   2 - C   3          1.97173    -0.67661  229(v),222(g),221(g),217(g)
                                                    34(v),146(v),148(v)
     4. BD (   1) C   2 - O  11          1.98800    -0.79443  221(v),165(v),229(r),234(g)
     5. BD (   1) C   3 - C   4          1.98001    -0.68931  219(g),222(g),232(v),226(v)
                                                    225(g),51(v),224(g),59(v)
                                                    102(v),149(v),55(v)
     6. BD (   1) C   3 - C   9          1.95388    -0.67704  217(v),232(g),221(g),219(g)
                                                    223(v),229(g),228(v),163(v)
                                                    234(v),220(v),225(v),231(v)
                                                    54(v),85(v)
     7. BD (   1) C   4 - N   5          1.98982    -0.75769  219(v),30(v),131(v),231(v)
     8. BD (   1) C   4 - H  12          1.98073    -0.56849  30(v),227(v),68(v),219(v)
                                                    223(g),221(g)
     9. BD (   1) C   4 - H  13          1.98309    -0.57578  30(v),228(v),222(v),70(v)
                                                    68(v),221(g)
    10. BD (   1) N   5 - H   6          1.99242    -0.76277  132(v),229(v)
    11. BD (   1) N   5 - H   7          1.99036    -0.75317  130(v),85(v),230(v),224(v)
                                                    231(v)
    12. BD (   1) N   5 - C   8          1.99081    -0.78148  232(v),233(v),225(v)
    13. BD (   1) C   8 - C   9          1.97961    -0.69015  232(g),219(v),234(v),226(v)
                                                    222(g),71(v),231(g),230(g)
                                                    102(v)
    14. BD (   1) C   8 - H  14          1.97750    -0.58473  233(v),227(v),232(v),150(v)
                                                    229(g)
    15. BD (   1) C   8 - H  15          1.98206    -0.59028  233(v),223(v),222(v),229(g)
    16. BD (   1) C   9 - N  10          1.98810    -0.86763  222(g),229(g),221(v),70(v)
                                                    184(v)
    17. BD (   2) C   9 - N  10          1.95490    -0.31040  30(v),230(v),231(v),181(v)
                                                    228(v),68(v)
    18. BD (   1) N  10 - O  11          1.97523    -0.75253  229(v),217(v),55(v),149(v)
                                                    52(v),222(v)
    19. CR (   1) O   1                  1.99974   -18.79135  51(v),219(v)
    20. CR (   1) C   2                  1.99913   -10.13404  221(v),70(v),219(g),220(g)
    21. CR (   1) C   3                  1.99875   -10.01443  149(v),222(g),217(v),52(v)
                                                    55(v),229(v),88(v)
    22. CR (   1) C   4                  1.99923   -10.14175  219(v),223(g),72(v),70(v)
                                                    203(v)
    23. CR (   1) N   5                  1.99951   -14.31928  124(v)
    24. CR (   1) C   8                  1.99919   -10.15026  232(v),228(g),148(v)
    25. CR (   1) C   9                  1.99899   -10.06354  222(g),71(v),165(v),131(v)
                                                    69(v),221(v)
    26. CR (   1) N  10                  1.99928   -14.15014  146(v),234(g),229(v),148(v)
                                                    222(v)
    27. CR (   1) O  11                  1.99978   -18.96577  52(v),54(v)
    28. LP (   1) O   1                  1.97959    -0.64548  51(v),219(v),220(v),60(v)
                                                    36(g),64(v)
    29. LP (   2) O   1                  1.81415    -0.21080  220(v),219(v),52(v),55(v)
                                                    54(v),49(g)
    30. LP (   1) C   3                  1.32215    -0.11737  233(v),218(v),224(v),225(v)
                                                    223(v),56(v),147(v),53(v)
                                                    86(v),148(v),68(g)
    31. LP (   1) N  10                  1.95495    -0.42182  146(v),222(v),220(v),180(v)
                                                    148(v)
    32. LP (   1) O  11                  1.97910    -0.59490  232(v),219(v),54(v),52(v)
                                                    163(v)
    33. LP (   2) O  11                  1.78114    -0.28509  218(v),233(v),53(v),166(v)
                                                    164(v),58(v),56(v)
    34. RY*(   1) O   1                  0.00255     0.73605   
    35. RY*(   2) O   1                  0.00138     0.74322   
    36. RY*(   3) O   1                  0.00093     1.03225   
    37. RY*(   4) O   1                  0.00013     1.46822   
    38. RY*(   5) O   1                  0.00009     1.25198   
    39. RY*(   6) O   1                  0.00006     4.06474   
    40. RY*(   7) O   1                  0.00007     1.32119   
    41. RY*(   8) O   1                  0.00003     1.30754   
    42. RY*(   9) O   1                  0.00003     1.89245   
    43. RY*(  10) O   1                  0.00000    49.47710   
    44. RY*(  11) O   1                  0.00000     4.31080   
    45. RY*(  12) O   1                  0.00000     5.04168   
    46. RY*(  13) O   1                  0.00000     4.64855   
    47. RY*(  14) O   1                  0.00000     2.60611   
    48. RY*(  15) O   1                  0.00000     2.94551   
    49. RY*(  16) O   1                  0.00000     3.12533   
    50. RY*(  17) O   1                  0.00000     3.00773   
    51. RY*(   1) C   2                  0.01431     1.16125   
    52. RY*(   2) C   2                  0.01094     1.57466   
    53. RY*(   3) C   2                  0.00783     1.68400   
    54. RY*(   4) C   2                  0.00466     1.56268   
    55. RY*(   5) C   2                  0.00276     1.56320   
    56. RY*(   6) C   2                  0.00168     1.32993   
    57. RY*(   7) C   2                  0.00053     2.29419   
    58. RY*(   8) C   2                  0.00021     1.10453   
    59. RY*(   9) C   2                  0.00010     5.99519   
    60. RY*(  10) C   2                  0.00004     2.24990   
    61. RY*(  11) C   2                  0.00004     0.88593   
    62. RY*(  12) C   2                  0.00005     1.27546   
    63. RY*(  13) C   2                  0.00001    14.03807   
    64. RY*(  14) C   2                  0.00001     2.47272   
    65. RY*(  15) C   2                  0.00001     1.24095   
    66. RY*(  16) C   2                  0.00001     3.48148   
    67. RY*(  17) C   2                  0.00000     2.53899   
    68. RY*(   1) C   3                  0.00536     0.60258   
    69. RY*(   2) C   3                  0.00355     0.65396   
    70. RY*(   3) C   3                  0.00238     1.81626   
    71. RY*(   4) C   3                  0.00207     1.03066   
    72. RY*(   5) C   3                  0.00078     0.92792   
    73. RY*(   6) C   3                  0.00045     2.18162   
    74. RY*(   7) C   3                  0.00031     1.66898   
    75. RY*(   8) C   3                  0.00023     1.58809   
    76. RY*(   9) C   3                  0.00017     1.95002   
    77. RY*(  10) C   3                  0.00016     1.15425   
    78. RY*(  11) C   3                  0.00012     3.18820   
    79. RY*(  12) C   3                  0.00008     2.28903   
    80. RY*(  13) C   3                  0.00005     1.33656   
    81. RY*(  14) C   3                  0.00002     1.79111   
    82. RY*(  15) C   3                  0.00002     1.82982   
    83. RY*(  16) C   3                  0.00000     2.79327   
    84. RY*(  17) C   3                  0.00001    22.26484   
    85. RY*(   1) C   4                  0.00405     0.75153   
    86. RY*(   2) C   4                  0.00239     0.94085   
    87. RY*(   3) C   4                  0.00139     0.84644   
    88. RY*(   4) C   4                  0.00112     0.94278   
    89. RY*(   5) C   4                  0.00046     0.94422   
    90. RY*(   6) C   4                  0.00037     1.14891   
    91. RY*(   7) C   4                  0.00026     2.28331   
    92. RY*(   8) C   4                  0.00017     0.96336   
    93. RY*(   9) C   4                  0.00012     1.45305   
    94. RY*(  10) C   4                  0.00007     2.38246   
    95. RY*(  11) C   4                  0.00003     1.88593   
    96. RY*(  12) C   4                  0.00001     2.89157   
    97. RY*(  13) C   4                  0.00000    21.94004   
    98. RY*(  14) C   4                  0.00001     1.72439   
    99. RY*(  15) C   4                  0.00001     2.32406   
   100. RY*(  16) C   4                  0.00001     1.57840   
   101. RY*(  17) C   4                  0.00001     1.23511   
   102. RY*(   1) N   5                  0.00276     0.81191   
   103. RY*(   2) N   5                  0.00162     0.84122   
   104. RY*(   3) N   5                  0.00085     0.90122   
   105. RY*(   4) N   5                  0.00053     1.58861   
   106. RY*(   5) N   5                  0.00041     1.84470   
   107. RY*(   6) N   5                  0.00037     1.49570   
   108. RY*(   7) N   5                  0.00029     1.51726   
   109. RY*(   8) N   5                  0.00009     1.49420   
   110. RY*(   9) N   5                  0.00006     1.17551   
   111. RY*(  10) N   5                  0.00003     1.08451   
   112. RY*(  11) N   5                  0.00001     1.21179   
   113. RY*(  12) N   5                  0.00002     1.50945   
   114. RY*(  13) N   5                  0.00001     3.93333   
   115. RY*(  14) N   5                  0.00000     2.30031   
   116. RY*(  15) N   5                  0.00000    34.61471   
   117. RY*(  16) N   5                  0.00000     4.08818   
   118. RY*(  17) N   5                  0.00000     4.15884   
   119. RY*(   1) H   6                  0.00211     0.71126   
   120. RY*(   2) H   6                  0.00033     1.65922   
   121. RY*(   3) H   6                  0.00019     1.96914   
   122. RY*(   4) H   6                  0.00016     1.87632   
   123. RY*(   5) H   6                  0.00002     2.48467   
   124. RY*(   1) H   7                  0.00086     0.95486   
   125. RY*(   2) H   7                  0.00033     1.66965   
   126. RY*(   3) H   7                  0.00027     2.24435   
   127. RY*(   4) H   7                  0.00015     1.57979   
   128. RY*(   5) H   7                  0.00003     2.37931   
   129. RY*(   1) C   8                  0.00690     0.50460   
   130. RY*(   2) C   8                  0.00337     0.71358   
   131. RY*(   3) C   8                  0.00137     0.74740   
   132. RY*(   4) C   8                  0.00130     0.76197   
   133. RY*(   5) C   8                  0.00064     1.44166   
   134. RY*(   6) C   8                  0.00043     1.33394   
   135. RY*(   7) C   8                  0.00027     1.20372   
   136. RY*(   8) C   8                  0.00019     0.93415   
   137. RY*(   9) C   8                  0.00013     2.30385   
   138. RY*(  10) C   8                  0.00009     2.90631   
   139. RY*(  11) C   8                  0.00004     1.69497   
   140. RY*(  12) C   8                  0.00004     0.69120   
   141. RY*(  13) C   8                  0.00001     1.56074   
   142. RY*(  14) C   8                  0.00000    22.18443   
   143. RY*(  15) C   8                  0.00001     2.30939   
   144. RY*(  16) C   8                  0.00000     3.05978   
   145. RY*(  17) C   8                  0.00000     1.72253   
   146. RY*(   1) C   9                  0.01122     0.81923   
   147. RY*(   2) C   9                  0.00357     1.43273   
   148. RY*(   3) C   9                  0.00300     0.98835   
   149. RY*(   4) C   9                  0.00259     1.16287   
   150. RY*(   5) C   9                  0.00191     0.93472   
   151. RY*(   6) C   9                  0.00090     0.92198   
   152. RY*(   7) C   9                  0.00027     2.12323   
   153. RY*(   8) C   9                  0.00025     1.46659   
   154. RY*(   9) C   9                  0.00018     2.90927   
   155. RY*(  10) C   9                  0.00011     2.31309   
   156. RY*(  11) C   9                  0.00007     2.52665   
   157. RY*(  12) C   9                  0.00005     6.29821   
   158. RY*(  13) C   9                  0.00003     5.12752   
   159. RY*(  14) C   9                  0.00001    12.16795   
   160. RY*(  15) C   9                  0.00001     0.59755   
   161. RY*(  16) C   9                  0.00000     2.76708   
   162. RY*(  17) C   9                  0.00001     2.75073   
   163. RY*(   1) N  10                  0.00358     0.93906   
   164. RY*(   2) N  10                  0.00277     0.68293   
   165. RY*(   3) N  10                  0.00164     1.10083   
   166. RY*(   4) N  10                  0.00109     1.87392   
   167. RY*(   5) N  10                  0.00058     1.53586   
   168. RY*(   6) N  10                  0.00045     1.18311   
   169. RY*(   7) N  10                  0.00008     2.10756   
   170. RY*(   8) N  10                  0.00005     1.72221   
   171. RY*(   9) N  10                  0.00002     0.84033   
   172. RY*(  10) N  10                  0.00002     2.38878   
   173. RY*(  11) N  10                  0.00002     2.90274   
   174. RY*(  12) N  10                  0.00000     3.83904   
   175. RY*(  13) N  10                  0.00000     4.17197   
   176. RY*(  14) N  10                  0.00000     2.76587   
   177. RY*(  15) N  10                  0.00000     2.19055   
   178. RY*(  16) N  10                  0.00000    35.18819   
   179. RY*(  17) N  10                  0.00000     0.98659   
   180. RY*(   1) O  11                  0.00431     0.73332   
   181. RY*(   2) O  11                  0.00135     1.33592   
   182. RY*(   3) O  11                  0.00124     1.82843   
   183. RY*(   4) O  11                  0.00099     0.71742   
   184. RY*(   5) O  11                  0.00045     2.02960   
   185. RY*(   6) O  11                  0.00026     1.77912   
   186. RY*(   7) O  11                  0.00023     2.66652   
   187. RY*(   8) O  11                  0.00009     1.87004   
   188. RY*(   9) O  11                  0.00008     2.15476   
   189. RY*(  10) O  11                  0.00002     1.56470   
   190. RY*(  11) O  11                  0.00000    49.60781   
   191. RY*(  12) O  11                  0.00000     4.90359   
   192. RY*(  13) O  11                  0.00001     2.94790   
   193. RY*(  14) O  11                  0.00001     4.72760   
   194. RY*(  15) O  11                  0.00001     4.43336   
   195. RY*(  16) O  11                  0.00000     1.41467   
   196. RY*(  17) O  11                  0.00001     3.18015   
   197. RY*(   1) H  12                  0.00246     0.74882   
   198. RY*(   2) H  12                  0.00021     1.96335   
   199. RY*(   3) H  12                  0.00010     2.16746   
   200. RY*(   4) H  12                  0.00008     1.88683   
   201. RY*(   5) H  12                  0.00005     2.15600   
   202. RY*(   1) H  13                  0.00207     0.53266   
   203. RY*(   2) H  13                  0.00024     2.07673   
   204. RY*(   3) H  13                  0.00010     1.82518   
   205. RY*(   4) H  13                  0.00010     1.99627   
   206. RY*(   5) H  13                  0.00003     2.35394   
   207. RY*(   1) H  14                  0.00116     0.94658   
   208. RY*(   2) H  14                  0.00055     1.75660   
   209. RY*(   3) H  14                  0.00011     1.93044   
   210. RY*(   4) H  14                  0.00007     1.75472   
   211. RY*(   5) H  14                  0.00007     2.45280   
   212. RY*(   1) H  15                  0.00158     0.49949   
   213. RY*(   2) H  15                  0.00068     2.03448   
   214. RY*(   3) H  15                  0.00017     1.83140   
   215. RY*(   4) H  15                  0.00008     1.83449   
   216. RY*(   5) H  15                  0.00004     2.47271   
   217. BD*(   1) O   1 - C   2          0.01625     0.65145   
   218. BD*(   2) O   1 - C   2          0.42258     0.05443  30(v),53(g),35(g),217(g)
                                                    58(g)
   219. BD*(   1) C   2 - C   3          0.06354     0.53799   
   220. BD*(   1) C   2 - O  11          0.13958     0.31506  234(g),221(v),222(v),52(g)
                                                    183(g),59(g)
   221. BD*(   1) C   3 - C   4          0.01907     0.42648   
   222. BD*(   1) C   3 - C   9          0.02861     0.56892   
   223. BD*(   1) C   4 - N   5          0.03594     0.14282   
   224. BD*(   1) C   4 - H  12          0.03997     0.33089   
   225. BD*(   1) C   4 - H  13          0.02070     0.34525   
   226. BD*(   1) N   5 - H   6          0.01877     0.27726   
   227. BD*(   1) N   5 - H   7          0.01302     0.27748   
   228. BD*(   1) N   5 - C   8          0.01929     0.15720   
   229. BD*(   1) C   8 - C   9          0.02995     0.37997   
   230. BD*(   1) C   8 - H  14          0.01976     0.32507   
   231. BD*(   1) C   8 - H  15          0.01326     0.33323   
   232. BD*(   1) C   9 - N  10          0.01759     0.58975   
   233. BD*(   2) C   9 - N  10          0.41331     0.02175  30(v),230(v),164(g),231(v)
                                                    150(g),228(v),147(g),153(g)
                                                    166(g)
   234. BD*(   1) N  10 - O  11          0.02426     0.23992   
       -------------------------------
              Total Lewis   64.49007  ( 97.7122%)
        Valence non-Lewis    1.35544  (  2.0537%)
        Rydberg non-Lewis    0.15448  (  0.2341%)
       -------------------------------
            Total unit  1   66.00000  (100.0000%)
           Charge unit  1    0.00000
 Leave Link  607 at Fri Nov  4 03:08:24 2022, MaxMem=  8053063680 cpu:              56.7 elap:               1.8
 (Enter /public3/home/scg5914/software-scg5914/g16/l9999.exe)
 Unable to Open any file for archive entry.
 1\1\GINC-E0807\SP\RB3LYP\Gen\C5H6N2O2\SCG5914\04-Nov-2022\0\\#p b3lyp/
 chkbas pop=nbo geom=allcheck guess=tcheck em=gd3bj\\dsgdb9nsd_131200\\
 0,1\O,0,0.0665895448,0.039441047,0.0751044617\C,0,-0.0683792675,1.2465
 898188,0.0442184956\C,0,-1.1657815944,2.1442910802,-0.0196537476\C,0,-
 2.6362877511,2.1660764787,-0.0194060917\N,0,-2.8701609999,3.6204429688
 ,0.5061910339\H,0,-3.7693347805,4.0092454618,0.2149443629\H,0,-2.84939
 32929,3.5832697596,1.525669905\C,0,-1.6808988159,4.4757926122,0.034719
 5617\C,0,-0.6163687248,3.4270798962,-0.0005759233\N,0,0.6833151166,3.4
 890600605,0.0662007183\O,0,1.0629752373,2.1148004307,0.0656064159\H,0,
 -3.1363282246,2.1379998895,-0.9988028237\H,0,-3.1467645807,1.473935674
 9,0.6546145244\H,0,-1.9435516745,4.8724084269,-0.9489895891\H,0,-1.527
 2430817,5.2937750842,0.737621486\\Version=ES64L-G16RevC.01\State=1-A\H
 F=-454.1298649\RMSD=5.946e-09\Dipole=-4.6929413,2.8607659,0.5141206\Qu
 adrupole=3.2750025,-5.4056713,2.1306688,-3.2062481,-2.0585883,0.951946
 2\PG=C01 [X(C5H6N2O2)]\\@
 The archive entry for this job was punched.


 I FIND THAT THE THREE TRULY GREAT TIMES FOR THINKING THOUGHTS
 ARE WHEN I AM STANDING IN THE SHOWER, SITTING ON THE JOHN, OR WALKING.

                                    -- COLIN FLETCHER
 Job cpu time:       0 days  0 hours  1 minutes 33.4 seconds.
 Elapsed time:       0 days  0 hours  0 minutes  3.0 seconds.
 File lengths (MBytes):  RWF=     34 Int=      0 D2E=      0 Chk=      5 Scr=      1
 Normal termination of Gaussian 16 at Fri Nov  4 03:08:24 2022.
