 Entering Gaussian System, Link 0=/public3/home/scg5914/software-scg5914/g16/g16
 Input=dsgdb9nsd_002924-8-.gjf
 Output=dsgdb9nsd_002924-8-.log
 Initial command:
 /public3/home/scg5914/software-scg5914/g16/l1.exe "/public3/home/scg5914/software-scg5914/test/tmp/dsgdb9nsd_002924-8-/Gau-249959.inp" -scrdir="/public3/home/scg5914/software-scg5914/test/tmp/dsgdb9nsd_002924-8-/"
 Entering Link 1 = /public3/home/scg5914/software-scg5914/g16/l1.exe PID=    249960.
  
 Copyright (c) 1988-2019, Gaussian, Inc.  All Rights Reserved.
  
 This is part of the Gaussian(R) 16 program.  It is based on
 the Gaussian(R) 09 system (copyright 2009, Gaussian, Inc.),
 the Gaussian(R) 03 system (copyright 2003, Gaussian, Inc.),
 the Gaussian(R) 98 system (copyright 1998, Gaussian, Inc.),
 the Gaussian(R) 94 system (copyright 1995, Gaussian, Inc.),
 the Gaussian 92(TM) system (copyright 1992, Gaussian, Inc.),
 the Gaussian 90(TM) system (copyright 1990, Gaussian, Inc.),
 the Gaussian 88(TM) system (copyright 1988, Gaussian, Inc.),
 the Gaussian 86(TM) system (copyright 1986, Carnegie Mellon
 University), and the Gaussian 82(TM) system (copyright 1983,
 Carnegie Mellon University). Gaussian is a federally registered
 trademark of Gaussian, Inc.
  
 This software contains proprietary and confidential information,
 including trade secrets, belonging to Gaussian, Inc.
  
 This software is provided under written license and may be
 used, copied, transmitted, or stored only in accord with that
 written license.
  
 The following legend is applicable only to US Government
 contracts under FAR:
  
                    RESTRICTED RIGHTS LEGEND
  
 Use, reproduction and disclosure by the US Government is
 subject to restrictions as set forth in subparagraphs (a)
 and (c) of the Commercial Computer Software - Restricted
 Rights clause in FAR 52.227-19.
  
 Gaussian, Inc.
 340 Quinnipiac St., Bldg. 40, Wallingford CT 06492
  
  
 ---------------------------------------------------------------
 Warning -- This program may not be used in any manner that
 competes with the business of Gaussian, Inc. or will provide
 assistance to any competitor of Gaussian, Inc.  The licensee
 of this program is prohibited from giving any competitor of
 Gaussian, Inc. access to this program.  By using this program,
 the user acknowledges that Gaussian, Inc. is engaged in the
 business of creating and licensing software in the field of
 computational chemistry and represents and warrants to the
 licensee that it is not a competitor of Gaussian, Inc. and that
 it will not use this program in any manner prohibited above.
 ---------------------------------------------------------------
  

 Cite this work as:
 Gaussian 16, Revision C.01,
 M. J. Frisch, G. W. Trucks, H. B. Schlegel, G. E. Scuseria, 
 M. A. Robb, J. R. Cheeseman, G. Scalmani, V. Barone, 
 G. A. Petersson, H. Nakatsuji, X. Li, M. Caricato, A. V. Marenich, 
 J. Bloino, B. G. Janesko, R. Gomperts, B. Mennucci, H. P. Hratchian, 
 J. V. Ortiz, A. F. Izmaylov, J. L. Sonnenberg, D. Williams-Young, 
 F. Ding, F. Lipparini, F. Egidi, J. Goings, B. Peng, A. Petrone, 
 T. Henderson, D. Ranasinghe, V. G. Zakrzewski, J. Gao, N. Rega, 
 G. Zheng, W. Liang, M. Hada, M. Ehara, K. Toyota, R. Fukuda, 
 J. Hasegawa, M. Ishida, T. Nakajima, Y. Honda, O. Kitao, H. Nakai, 
 T. Vreven, K. Throssell, J. A. Montgomery, Jr., J. E. Peralta, 
 F. Ogliaro, M. J. Bearpark, J. J. Heyd, E. N. Brothers, K. N. Kudin, 
 V. N. Staroverov, T. A. Keith, R. Kobayashi, J. Normand, 
 K. Raghavachari, A. P. Rendell, J. C. Burant, S. S. Iyengar, 
 J. Tomasi, M. Cossi, J. M. Millam, M. Klene, C. Adamo, R. Cammi, 
 J. W. Ochterski, R. L. Martin, K. Morokuma, O. Farkas, 
 J. B. Foresman, and D. J. Fox, Gaussian, Inc., Wallingford CT, 2019.
 
 ******************************************
 Gaussian 16:  ES64L-G16RevC.01  3-Jul-2019
                26-Oct-2022 
 ******************************************
 %chk=dsgdb9nsd_002924-8.chk
 %mem=60GB
 %nprocshared=32
 Will use up to   32 processors via shared memory.
 ------------------------------------
 #p opt freq b3lyp/6-311+g** em=gd3bj
 ------------------------------------
 1/18=20,19=15,26=3,38=1/1,3;
 2/9=110,12=2,17=6,18=5,40=1/2;
 3/5=4,6=6,7=111,11=2,25=1,30=1,71=1,74=-5,124=41/1,2,3;
 4//1;
 5/5=2,38=5/2;
 6/7=2,8=2,9=2,10=2,28=1/1;
 7//1,2,3,16;
 1/18=20,19=15,26=3/3(2);
 2/9=110/2;
 99//99;
 2/9=110/2;
 3/5=4,6=6,7=111,11=2,25=1,30=1,71=1,74=-5,124=41/1,2,3;
 4/5=5,16=3,69=1/1;
 5/5=2,38=5/2;
 7//1,2,3,16;
 1/18=20,19=15,26=3/3(-5);
 2/9=110/2;
 6/7=2,8=2,9=2,10=2,19=2,28=1/1;
 99/9=1/99;
 Leave Link    1 at Wed Oct 26 08:16:15 2022, MaxMem=  8053063680 cpu:               1.6 elap:               0.1
 (Enter /public3/home/scg5914/software-scg5914/g16/l101.exe)
 ------------------
 dsgdb9nsd_002924-8
 ------------------
 Symbolic Z-matrix:
 Charge = -1 Multiplicity = 1
 C                     0.00638   1.35975  -0.04774 
 O                    -0.04647  -0.06188   0.09838 
 C                    -1.27485  -0.58365   0.10769 
 N                    -2.37407   0.05587  -0.00978 
 C                    -3.42761  -0.9661    0.0833 
 C                    -2.70233  -2.33567  -0.0666 
 N                    -1.33084  -1.95927   0.29977 
 H                     1.0657    1.61891  -0.04469 
 H                    -0.46318   1.66824  -0.98566 
 H                    -0.51254   1.8502    0.77996 
 H                    -3.92791  -0.89389   1.05846 
 H                    -4.1921   -0.81492  -0.68437 
 H                    -3.09801  -3.10853   0.59752 
 H                    -2.75711  -2.70659  -1.09991 
 
 ITRead=  0  0  0  0  0  0  0  0  0  0  0  0  0  0
 MicOpt= -1 -1 -1 -1 -1 -1 -1 -1 -1 -1 -1 -1 -1 -1
 NAtoms=     14 NQM=       14 NQMF=       0 NMMI=      0 NMMIF=      0
                NMic=       0 NMicF=      0.
                    Isotopes and Nuclear Properties:
 (Nuclear quadrupole moments (NQMom) in fm**2, nuclear magnetic moments (NMagM)
  in nuclear magnetons)

  Atom         1           2           3           4           5           6           7           8           9          10
 IAtWgt=          12          16          12          14          12          12          14           1           1           1
 AtmWgt=  12.0000000  15.9949146  12.0000000  14.0030740  12.0000000  12.0000000  14.0030740   1.0078250   1.0078250   1.0078250
 NucSpn=           0           0           0           2           0           0           2           1           1           1
 AtZEff=  -0.0000000  -0.0000000  -0.0000000  -0.0000000  -0.0000000  -0.0000000  -0.0000000  -0.0000000  -0.0000000  -0.0000000
 NQMom=    0.0000000   0.0000000   0.0000000   2.0440000   0.0000000   0.0000000   2.0440000   0.0000000   0.0000000   0.0000000
 NMagM=    0.0000000   0.0000000   0.0000000   0.4037610   0.0000000   0.0000000   0.4037610   2.7928460   2.7928460   2.7928460
 AtZNuc=   6.0000000   8.0000000   6.0000000   7.0000000   6.0000000   6.0000000   7.0000000   1.0000000   1.0000000   1.0000000

  Atom        11          12          13          14
 IAtWgt=           1           1           1           1
 AtmWgt=   1.0078250   1.0078250   1.0078250   1.0078250
 NucSpn=           1           1           1           1
 AtZEff=  -0.0000000  -0.0000000  -0.0000000  -0.0000000
 NQMom=    0.0000000   0.0000000   0.0000000   0.0000000
 NMagM=    2.7928460   2.7928460   2.7928460   2.7928460
 AtZNuc=   1.0000000   1.0000000   1.0000000   1.0000000
 Leave Link  101 at Wed Oct 26 08:16:15 2022, MaxMem=  8053063680 cpu:               4.1 elap:               0.1
 (Enter /public3/home/scg5914/software-scg5914/g16/l103.exe)

 GradGradGradGradGradGradGradGradGradGradGradGradGradGradGradGradGradGrad
 Berny optimization.
 Initialization pass.
                           ----------------------------
                           !    Initial Parameters    !
                           ! (Angstroms and Degrees)  !
 --------------------------                            --------------------------
 ! Name  Definition              Value          Derivative Info.                !
 --------------------------------------------------------------------------------
 ! R1    R(1,2)                  1.4301         estimate D2E/DX2                !
 ! R2    R(1,8)                  1.0906         estimate D2E/DX2                !
 ! R3    R(1,9)                  1.0933         estimate D2E/DX2                !
 ! R4    R(1,10)                 1.0931         estimate D2E/DX2                !
 ! R5    R(2,3)                  1.3346         estimate D2E/DX2                !
 ! R6    R(3,4)                  1.2771         estimate D2E/DX2                !
 ! R7    R(3,7)                  1.3901         estimate D2E/DX2                !
 ! R8    R(4,5)                  1.4707         estimate D2E/DX2                !
 ! R9    R(5,6)                  1.557          estimate D2E/DX2                !
 ! R10   R(5,11)                 1.0984         estimate D2E/DX2                !
 ! R11   R(5,12)                 1.0939         estimate D2E/DX2                !
 ! R12   R(6,7)                  1.4686         estimate D2E/DX2                !
 ! R13   R(6,13)                 1.0931         estimate D2E/DX2                !
 ! R14   R(6,14)                 1.0992         estimate D2E/DX2                !
 ! A1    A(2,1,8)              105.7736         estimate D2E/DX2                !
 ! A2    A(2,1,9)              110.6263         estimate D2E/DX2                !
 ! A3    A(2,1,10)             110.5549         estimate D2E/DX2                !
 ! A4    A(8,1,9)              110.6422         estimate D2E/DX2                !
 ! A5    A(8,1,10)             110.6327         estimate D2E/DX2                !
 ! A6    A(9,1,10)             108.6078         estimate D2E/DX2                !
 ! A7    A(1,2,3)              115.0468         estimate D2E/DX2                !
 ! A8    A(2,3,4)              126.5672         estimate D2E/DX2                !
 ! A9    A(2,3,7)              115.1451         estimate D2E/DX2                !
 ! A10   A(4,3,7)              118.2665         estimate D2E/DX2                !
 ! A11   A(3,4,5)              105.2347         estimate D2E/DX2                !
 ! A12   A(4,5,6)              105.751          estimate D2E/DX2                !
 ! A13   A(4,5,11)             109.6817         estimate D2E/DX2                !
 ! A14   A(4,5,12)             111.1114         estimate D2E/DX2                !
 ! A15   A(6,5,11)             110.8223         estimate D2E/DX2                !
 ! A16   A(6,5,12)             112.3057         estimate D2E/DX2                !
 ! A17   A(11,5,12)            107.1951         estimate D2E/DX2                !
 ! A18   A(5,6,7)              100.693          estimate D2E/DX2                !
 ! A19   A(5,6,13)             113.2543         estimate D2E/DX2                !
 ! A20   A(5,6,14)             111.3527         estimate D2E/DX2                !
 ! A21   A(7,6,13)             111.5717         estimate D2E/DX2                !
 ! A22   A(7,6,14)             111.5625         estimate D2E/DX2                !
 ! A23   A(13,6,14)            108.3305         estimate D2E/DX2                !
 ! A24   A(3,7,6)              104.8782         estimate D2E/DX2                !
 ! D1    D(8,1,2,3)           -179.5232         estimate D2E/DX2                !
 ! D2    D(9,1,2,3)            -59.6727         estimate D2E/DX2                !
 ! D3    D(10,1,2,3)            60.6763         estimate D2E/DX2                !
 ! D4    D(1,2,3,4)              0.5867         estimate D2E/DX2                !
 ! D5    D(1,2,3,7)           -177.6972         estimate D2E/DX2                !
 ! D6    D(2,3,4,5)           -179.2074         estimate D2E/DX2                !
 ! D7    D(7,3,4,5)             -0.9712         estimate D2E/DX2                !
 ! D8    D(2,3,7,6)           -165.9898         estimate D2E/DX2                !
 ! D9    D(4,3,7,6)             15.5751         estimate D2E/DX2                !
 ! D10   D(3,4,5,6)            -13.2593         estimate D2E/DX2                !
 ! D11   D(3,4,5,11)           106.2879         estimate D2E/DX2                !
 ! D12   D(3,4,5,12)          -135.3748         estimate D2E/DX2                !
 ! D13   D(4,5,6,7)             21.2177         estimate D2E/DX2                !
 ! D14   D(4,5,6,13)           140.4524         estimate D2E/DX2                !
 ! D15   D(4,5,6,14)           -97.1675         estimate D2E/DX2                !
 ! D16   D(11,5,6,7)           -97.5757         estimate D2E/DX2                !
 ! D17   D(11,5,6,13)           21.659          estimate D2E/DX2                !
 ! D18   D(11,5,6,14)          144.0391         estimate D2E/DX2                !
 ! D19   D(12,5,6,7)           142.5642         estimate D2E/DX2                !
 ! D20   D(12,5,6,13)          -98.2011         estimate D2E/DX2                !
 ! D21   D(12,5,6,14)           24.179          estimate D2E/DX2                !
 ! D22   D(5,6,7,3)            -21.0951         estimate D2E/DX2                !
 ! D23   D(13,6,7,3)          -141.5397         estimate D2E/DX2                !
 ! D24   D(14,6,7,3)            97.137          estimate D2E/DX2                !
 --------------------------------------------------------------------------------
 Trust Radius=3.00D-01 FncErr=1.00D-07 GrdErr=1.00D-06 EigMax=2.50D+02 EigMin=1.00D-04
 Number of steps in this run=     72 maximum allowed number of steps=    100.
 GradGradGradGradGradGradGradGradGradGradGradGradGradGradGradGradGradGrad

 Leave Link  103 at Wed Oct 26 08:16:15 2022, MaxMem=  8053063680 cpu:               1.0 elap:               0.0
 (Enter /public3/home/scg5914/software-scg5914/g16/l202.exe)
                          Input orientation:                          
 ---------------------------------------------------------------------
 Center     Atomic      Atomic             Coordinates (Angstroms)
 Number     Number       Type             X           Y           Z
 ---------------------------------------------------------------------
      1          6           0        0.006381    1.359754   -0.047743
      2          8           0       -0.046467   -0.061875    0.098378
      3          6           0       -1.274850   -0.583649    0.107689
      4          7           0       -2.374074    0.055869   -0.009777
      5          6           0       -3.427606   -0.966096    0.083297
      6          6           0       -2.702334   -2.335669   -0.066598
      7          7           0       -1.330839   -1.959268    0.299773
      8          1           0        1.065697    1.618908   -0.044687
      9          1           0       -0.463180    1.668244   -0.985659
     10          1           0       -0.512540    1.850202    0.779957
     11          1           0       -3.927914   -0.893893    1.058456
     12          1           0       -4.192097   -0.814919   -0.684371
     13          1           0       -3.098005   -3.108525    0.597523
     14          1           0       -2.757106   -2.706594   -1.099910
 ---------------------------------------------------------------------
                    Distance matrix (angstroms):
                    1          2          3          4          5
     1  C    0.000000
     2  O    1.430095   0.000000
     3  C    2.332923   1.334639   0.000000
     4  N    2.714429   2.333092   1.277135   0.000000
     5  C    4.149580   3.499992   2.186600   1.470716   0.000000
     6  C    4.581882   3.500141   2.266640   2.414630   1.556990
     7  N    3.595112   2.300059   1.390093   2.290183   2.330168
     8  H    1.090560   2.020498   3.217552   3.778404   5.185403
     9  H    1.093317   2.083770   2.631586   2.683956   4.107340
    10  H    1.093117   2.082741   2.637554   2.703446   4.112722
    11  H    4.667042   4.084071   2.835305   2.111300   1.098388
    12  H    4.770924   4.285560   3.031695   2.125690   1.093899
    13  H    5.478969   4.340865   3.152591   3.302466   2.227795
    14  H    5.027833   3.972153   2.856969   2.994379   2.208819
                    6          7          8          9         10
     6  C    0.000000
     7  N    1.468640   0.000000
     8  H    5.462346   4.320346   0.000000
     9  H    4.678654   3.945125   1.795920   0.000000
    10  H    4.799309   3.925844   1.795652   1.775653   0.000000
    11  H    2.201479   2.907821   5.698004   4.769417   4.390034
    12  H    2.216692   3.234946   5.828989   4.490178   4.773496
    13  H    1.093124   2.128925   6.332257   5.680343   5.595256
    14  H    1.099236   2.133506   5.868330   4.941089   5.416305
                   11         12         13         14
    11  H    0.000000
    12  H    1.764504   0.000000
    13  H    2.409523   2.846212   0.000000
    14  H    3.052084   2.410458   1.777369   0.000000
 Stoichiometry    C4H7N2O(1-)
 Framework group  C1[X(C4H7N2O)]
 Deg. of freedom    36
 Full point group                 C1      NOp   1
 Largest Abelian subgroup         C1      NOp   1
 Largest concise Abelian subgroup C1      NOp   1
                         Standard orientation:                         
 ---------------------------------------------------------------------
 Center     Atomic      Atomic             Coordinates (Angstroms)
 Number     Number       Type             X           Y           Z
 ---------------------------------------------------------------------
      1          6           0       -2.506390    0.316811    0.059109
      2          8           0       -1.488093   -0.684587   -0.014685
      3          6           0       -0.237881   -0.218212   -0.041614
      4          7           0        0.118072    1.007531    0.002271
      5          6           0        1.586561    0.986552   -0.075855
      6          6           0        2.001870   -0.493512    0.171428
      7          7           0        0.751455   -1.187051   -0.163786
      8          1           0       -3.453083   -0.224119    0.081195
      9          1           0       -2.386972    0.921736    0.961964
     10          1           0       -2.459847    0.976385   -0.811352
     11          1           0        1.908892    1.321465   -1.071040
     12          1           0        2.029781    1.669717    0.654527
     13          1           0        2.827092   -0.822391   -0.465570
     14          1           0        2.287225   -0.659301    1.219953
 ---------------------------------------------------------------------
 Rotational constants (GHZ):           7.1150321           2.0323818           1.6399416
 Leave Link  202 at Wed Oct 26 08:16:15 2022, MaxMem=  8053063680 cpu:               0.2 elap:               0.0
 (Enter /public3/home/scg5914/software-scg5914/g16/l301.exe)
 Standard basis: 6-311+G(d,p) (5D, 7F)
 Ernie: Thresh=  0.10000D-02 Tol=  0.10000D-05 Strict=F.
 There are   203 symmetry adapted cartesian basis functions of A   symmetry.
 There are   196 symmetry adapted basis functions of A   symmetry.
   196 basis functions,   308 primitive gaussians,   203 cartesian basis functions
    27 alpha electrons       27 beta electrons
       nuclear repulsion energy       303.5329086697 Hartrees.
 IExCor=  402 DFT=T Ex+Corr=B3LYP ExCW=0 ScaHFX=  0.200000
 ScaDFX=  0.800000  0.720000  1.000000  0.810000 ScalE2=  1.000000  1.000000
 IRadAn=      5 IRanWt=     -1 IRanGd=            0 ICorTp=0 IEmpDi=141
 NAtoms=   14 NActive=   14 NUniq=   14 SFac= 1.00D+00 NAtFMM=   60 NAOKFM=F Big=F
 Integral buffers will be    131072 words long.
 Raffenetti 2 integral format.
 Two-electron integral symmetry is turned on.
 R6Disp:  Grimme-D3(BJ) Dispersion energy=       -0.0185474016 Hartrees.
 Nuclear repulsion after empirical dispersion term =      303.5143612681 Hartrees.
 Leave Link  301 at Wed Oct 26 08:16:15 2022, MaxMem=  8053063680 cpu:               1.0 elap:               0.0
 (Enter /public3/home/scg5914/software-scg5914/g16/l302.exe)
 NPDir=0 NMtPBC=     1 NCelOv=     1 NCel=       1 NClECP=     1 NCelD=      1
         NCelK=      1 NCelE2=     1 NClLst=     1 CellRange=     0.0.
 One-electron integrals computed using PRISM.
 One-electron integral symmetry used in STVInt
 NBasis=   196 RedAO= T EigKep=  5.30D-05  NBF=   196
 NBsUse=   196 1.00D-06 EigRej= -1.00D+00 NBFU=   196
 Precomputing XC quadrature grid using
 IXCGrd= 4 IRadAn=           5 IRanWt=          -1 IRanGd=           0 AccXCQ= 0.00D+00.
 Generated NRdTot=       0 NPtTot=           0 NUsed=           0 NTot=          32
 NSgBfM=   203   203   203   203   203 MxSgAt=    14 MxSgA2=    14.
 Leave Link  302 at Wed Oct 26 08:16:15 2022, MaxMem=  8053063680 cpu:               3.7 elap:               0.1
 (Enter /public3/home/scg5914/software-scg5914/g16/l303.exe)
 DipDrv:  MaxL=1.
 Leave Link  303 at Wed Oct 26 08:16:15 2022, MaxMem=  8053063680 cpu:               0.7 elap:               0.0
 (Enter /public3/home/scg5914/software-scg5914/g16/l401.exe)
 ExpMin= 4.38D-02 ExpMax= 8.59D+03 ExpMxC= 1.30D+03 IAcc=3 IRadAn=         5 AccDes= 0.00D+00
 Harris functional with IExCor=  402 and IRadAn=       5 diagonalized for initial guess.
 HarFok:  IExCor=  402 AccDes= 0.00D+00 IRadAn=         5 IDoV= 1 UseB2=F ITyADJ=14
 ICtDFT=  3500011 ScaDFX=  1.000000  1.000000  1.000000  1.000000
 FoFCou: FMM=F IPFlag=           0 FMFlag=      100000 FMFlg1=           0
         NFxFlg=           0 DoJE=T BraDBF=F KetDBF=T FulRan=T
         wScrn=  0.000000 ICntrl=       500 IOpCl=  0 I1Cent=   200000004 NGrid=           0
         NMat0=    1 NMatS0=      1 NMatT0=    0 NMatD0=    1 NMtDS0=    0 NMtDT0=    0
 Petite list used in FoFCou.
 Harris En= -341.646623951719    
 JPrj=0 DoOrth=F DoCkMO=F.
 Leave Link  401 at Wed Oct 26 08:16:16 2022, MaxMem=  8053063680 cpu:              11.4 elap:               0.4
 (Enter /public3/home/scg5914/software-scg5914/g16/l502.exe)
 Integral symmetry usage will be decided dynamically.
 Closed shell SCF:
 Using DIIS extrapolation, IDIIS=  1040.
 NGot=  8053063680 LenX=  8052972360 LenY=  8052930710
 Requested convergence on RMS density matrix=1.00D-08 within 128 cycles.
 Requested convergence on MAX density matrix=1.00D-06.
 Requested convergence on             energy=1.00D-06.
 No special actions if energy rises.
 Fock matrices will be formed incrementally for  20 cycles.

 Cycle   1  Pass 1  IDiag  1:
 FoFJK:  IHMeth= 1 ICntrl=       0 DoSepK=F KAlg= 0 I1Cent=           0 FoldK=F
 IRaf= 960000000 NMat=       1 IRICut=       1 DoRegI=T DoRafI=F ISym2E= 0 IDoP0=0 IntGTp=1.
 FoFCou: FMM=F IPFlag=           0 FMFlag=      100000 FMFlg1=           0
         NFxFlg=           0 DoJE=F BraDBF=F KetDBF=F FulRan=T
         wScrn=  0.000000 ICntrl=         0 IOpCl=  0 I1Cent=           0 NGrid=           0
         NMat0=    1 NMatS0=      1 NMatT0=    0 NMatD0=    1 NMtDS0=    0 NMtDT0=    0
 Symmetry not used in FoFCou.
 E= -341.187702455585    
 DIIS: error= 3.70D-02 at cycle   1 NSaved=   1.
 NSaved= 1 IEnMin= 1 EnMin= -341.187702455585     IErMin= 1 ErrMin= 3.70D-02
 ErrMax= 3.70D-02  0.00D+00 EMaxC= 1.00D-01 BMatC= 2.96D-01 BMatP= 2.96D-01
 IDIUse=3 WtCom= 6.30D-01 WtEn= 3.70D-01
 Coeff-Com:  0.100D+01
 Coeff-En:   0.100D+01
 Coeff:      0.100D+01
 Gap=     0.148 Goal=   None    Shift=    0.000
 GapD=    0.148 DampG=1.000 DampE=0.500 DampFc=0.5000 IDamp=-1.
 Damping current iteration by 5.00D-01
 RMSDP=2.90D-01 MaxDP=2.50D+01              OVMax= 9.91D-01

 Cycle   2  Pass 1  IDiag  1:
 RMSU=  1.44D-01    CP:  2.00D+00
 E= -340.770619483271     Delta-E=        0.417082972313 Rises=F Damp=T
 DIIS: error= 2.86D-02 at cycle   2 NSaved=   2.
 NSaved= 2 IEnMin= 1 EnMin= -341.187702455585     IErMin= 2 ErrMin= 2.86D-02
 ErrMax= 2.86D-02  0.00D+00 EMaxC= 1.00D-01 BMatC= 1.94D-01 BMatP= 2.96D-01
 IDIUse=3 WtCom= 7.14D-01 WtEn= 2.86D-01
 Coeff-Com:  0.431D+00 0.569D+00
 Coeff-En:   0.748D+00 0.252D+00
 Coeff:      0.522D+00 0.478D+00
 Gap=     0.094 Goal=   None    Shift=    0.000
 RMSDP=1.44D-01 MaxDP=1.24D+01 DE= 4.17D-01 OVMax= 9.25D-01

 Cycle   3  Pass 1  IDiag  1:
 RMSU=  4.28D-03    CP:  1.03D+00  6.65D-03
 E= -341.353743247358     Delta-E=       -0.583123764086 Rises=F Damp=F
 DIIS: error= 2.31D-02 at cycle   3 NSaved=   3.
 NSaved= 3 IEnMin= 3 EnMin= -341.353743247358     IErMin= 3 ErrMin= 2.31D-02
 ErrMax= 2.31D-02  0.00D+00 EMaxC= 1.00D-01 BMatC= 1.11D-01 BMatP= 1.94D-01
 IDIUse=3 WtCom= 7.69D-01 WtEn= 2.31D-01
 EnCoef did     1 forward-backward iterations
 Coeff-Com:  0.200D+00 0.386D+00 0.414D+00
 Coeff-En:   0.137D-01 0.518D-01 0.934D+00
 Coeff:      0.157D+00 0.309D+00 0.534D+00
 Gap=     0.147 Goal=   None    Shift=    0.000
 RMSDP=2.92D-03 MaxDP=9.21D-02 DE=-5.83D-01 OVMax= 1.42D-01

 Cycle   4  Pass 1  IDiag  1:
 RMSU=  2.61D-03    CP:  1.01D+00  4.71D-03  7.05D-01
 E= -341.439426725844     Delta-E=       -0.085683478486 Rises=F Damp=F
 DIIS: error= 9.43D-03 at cycle   4 NSaved=   4.
 NSaved= 4 IEnMin= 4 EnMin= -341.439426725844     IErMin= 4 ErrMin= 9.43D-03
 ErrMax= 9.43D-03  0.00D+00 EMaxC= 1.00D-01 BMatC= 2.49D-02 BMatP= 1.11D-01
 IDIUse=3 WtCom= 9.06D-01 WtEn= 9.43D-02
 Coeff-Com: -0.146D-02 0.177D+00 0.292D+00 0.533D+00
 Coeff-En:   0.000D+00 0.000D+00 0.101D+00 0.899D+00
 Coeff:     -0.132D-02 0.160D+00 0.274D+00 0.567D+00
 Gap=     0.132 Goal=   None    Shift=    0.000
 RMSDP=1.55D-03 MaxDP=5.29D-02 DE=-8.57D-02 OVMax= 7.86D-02

 Cycle   5  Pass 1  IDiag  1:
 RMSU=  1.10D-03    CP:  1.02D+00  6.44D-03  8.79D-01  7.07D-01
 E= -341.453323959623     Delta-E=       -0.013897233780 Rises=F Damp=F
 DIIS: error= 7.46D-03 at cycle   5 NSaved=   5.
 NSaved= 5 IEnMin= 5 EnMin= -341.453323959623     IErMin= 5 ErrMin= 7.46D-03
 ErrMax= 7.46D-03  0.00D+00 EMaxC= 1.00D-01 BMatC= 9.40D-03 BMatP= 2.49D-02
 IDIUse=3 WtCom= 9.25D-01 WtEn= 7.46D-02
 Coeff-Com: -0.481D-01 0.832D-01 0.678D-01 0.391D+00 0.507D+00
 Coeff-En:   0.000D+00 0.000D+00 0.000D+00 0.253D+00 0.747D+00
 Coeff:     -0.445D-01 0.770D-01 0.627D-01 0.380D+00 0.524D+00
 Gap=     0.108 Goal=   None    Shift=    0.000
 RMSDP=8.65D-04 MaxDP=2.19D-02 DE=-1.39D-02 OVMax= 4.38D-02

 Cycle   6  Pass 1  IDiag  1:
 RMSU=  4.27D-04    CP:  1.01D+00  6.17D-03  8.33D-01  9.78D-01  8.56D-01
 E= -341.461628345985     Delta-E=       -0.008304386361 Rises=F Damp=F
 DIIS: error= 1.67D-03 at cycle   6 NSaved=   6.
 NSaved= 6 IEnMin= 6 EnMin= -341.461628345985     IErMin= 6 ErrMin= 1.67D-03
 ErrMax= 1.67D-03  0.00D+00 EMaxC= 1.00D-01 BMatC= 8.52D-04 BMatP= 9.40D-03
 IDIUse=3 WtCom= 9.83D-01 WtEn= 1.67D-02
 Coeff-Com: -0.262D-01 0.182D-01-0.638D-01 0.602D-01 0.281D+00 0.731D+00
 Coeff-En:   0.000D+00 0.000D+00 0.000D+00 0.000D+00 0.000D+00 0.100D+01
 Coeff:     -0.258D-01 0.179D-01-0.627D-01 0.591D-01 0.276D+00 0.735D+00
 Gap=     0.101 Goal=   None    Shift=    0.000
 RMSDP=3.72D-04 MaxDP=1.18D-02 DE=-8.30D-03 OVMax= 8.57D-03

 Cycle   7  Pass 1  IDiag  1:
 RMSU=  1.94D-04    CP:  1.02D+00  6.74D-03  8.66D-01  1.02D+00  1.08D+00
                    CP:  1.03D+00
 E= -341.462421598042     Delta-E=       -0.000793252057 Rises=F Damp=F
 DIIS: error= 5.89D-04 at cycle   7 NSaved=   7.
 NSaved= 7 IEnMin= 7 EnMin= -341.462421598042     IErMin= 7 ErrMin= 5.89D-04
 ErrMax= 5.89D-04  0.00D+00 EMaxC= 1.00D-01 BMatC= 9.41D-05 BMatP= 8.52D-04
 IDIUse=3 WtCom= 9.94D-01 WtEn= 5.89D-03
 Coeff-Com: -0.101D-01 0.520D-02-0.423D-01-0.200D-02 0.929D-01 0.388D+00
 Coeff-Com:  0.568D+00
 Coeff-En:   0.000D+00 0.000D+00 0.000D+00 0.000D+00 0.000D+00 0.000D+00
 Coeff-En:   0.100D+01
 Coeff:     -0.101D-01 0.517D-02-0.420D-01-0.199D-02 0.923D-01 0.386D+00
 Coeff:      0.570D+00
 Gap=     0.100 Goal=   None    Shift=    0.000
 RMSDP=8.63D-05 MaxDP=3.28D-03 DE=-7.93D-04 OVMax= 2.75D-03

 Cycle   8  Pass 1  IDiag  1:
 RMSU=  4.20D-05    CP:  1.02D+00  6.80D-03  8.66D-01  1.05D+00  1.09D+00
                    CP:  1.14D+00  1.07D+00
 E= -341.462497399205     Delta-E=       -0.000075801164 Rises=F Damp=F
 DIIS: error= 2.09D-04 at cycle   8 NSaved=   8.
 NSaved= 8 IEnMin= 8 EnMin= -341.462497399205     IErMin= 8 ErrMin= 2.09D-04
 ErrMax= 2.09D-04  0.00D+00 EMaxC= 1.00D-01 BMatC= 1.05D-05 BMatP= 9.41D-05
 IDIUse=3 WtCom= 9.98D-01 WtEn= 2.09D-03
 Coeff-Com: -0.341D-03 0.957D-03-0.100D-01-0.101D-01-0.590D-02 0.610D-01
 Coeff-Com:  0.290D+00 0.674D+00
 Coeff-En:   0.000D+00 0.000D+00 0.000D+00 0.000D+00 0.000D+00 0.000D+00
 Coeff-En:   0.000D+00 0.100D+01
 Coeff:     -0.340D-03 0.955D-03-0.100D-01-0.101D-01-0.589D-02 0.609D-01
 Coeff:      0.289D+00 0.675D+00
 Gap=     0.100 Goal=   None    Shift=    0.000
 RMSDP=3.50D-05 MaxDP=1.06D-03 DE=-7.58D-05 OVMax= 1.01D-03

 Cycle   9  Pass 1  IDiag  1:
 RMSU=  1.67D-05    CP:  1.02D+00  6.79D-03  8.64D-01  1.05D+00  1.11D+00
                    CP:  1.18D+00  1.15D+00  8.88D-01
 E= -341.462504896837     Delta-E=       -0.000007497631 Rises=F Damp=F
 DIIS: error= 6.41D-05 at cycle   9 NSaved=   9.
 NSaved= 9 IEnMin= 9 EnMin= -341.462504896837     IErMin= 9 ErrMin= 6.41D-05
 ErrMax= 6.41D-05  0.00D+00 EMaxC= 1.00D-01 BMatC= 9.09D-07 BMatP= 1.05D-05
 IDIUse=1 WtCom= 1.00D+00 WtEn= 0.00D+00
 Coeff-Com:  0.175D-03 0.147D-03-0.349D-02-0.529D-02-0.774D-02 0.122D-01
 Coeff-Com:  0.120D+00 0.360D+00 0.524D+00
 Coeff:      0.175D-03 0.147D-03-0.349D-02-0.529D-02-0.774D-02 0.122D-01
 Coeff:      0.120D+00 0.360D+00 0.524D+00
 Gap=     0.100 Goal=   None    Shift=    0.000
 RMSDP=1.20D-05 MaxDP=4.21D-04 DE=-7.50D-06 OVMax= 2.98D-04

 Cycle  10  Pass 1  IDiag  1:
 RMSU=  6.22D-06    CP:  1.02D+00  6.80D-03  8.65D-01  1.05D+00  1.11D+00
                    CP:  1.19D+00  1.18D+00  9.80D-01  8.78D-01
 E= -341.462505756057     Delta-E=       -0.000000859220 Rises=F Damp=F
 DIIS: error= 1.76D-05 at cycle  10 NSaved=  10.
 NSaved=10 IEnMin=10 EnMin= -341.462505756057     IErMin=10 ErrMin= 1.76D-05
 ErrMax= 1.76D-05  0.00D+00 EMaxC= 1.00D-01 BMatC= 5.68D-08 BMatP= 9.09D-07
 IDIUse=1 WtCom= 1.00D+00 WtEn= 0.00D+00
 Coeff-Com:  0.657D-04-0.435D-04 0.829D-04-0.542D-03-0.205D-02-0.443D-02
 Coeff-Com:  0.608D-02 0.453D-01 0.227D+00 0.729D+00
 Coeff:      0.657D-04-0.435D-04 0.829D-04-0.542D-03-0.205D-02-0.443D-02
 Coeff:      0.608D-02 0.453D-01 0.227D+00 0.729D+00
 Gap=     0.099 Goal=   None    Shift=    0.000
 RMSDP=4.92D-06 MaxDP=1.85D-04 DE=-8.59D-07 OVMax= 1.43D-04

 Cycle  11  Pass 1  IDiag  1:
 RMSU=  1.85D-06    CP:  1.02D+00  6.80D-03  8.65D-01  1.05D+00  1.11D+00
                    CP:  1.19D+00  1.19D+00  1.01D+00  9.86D-01  9.95D-01
 E= -341.462505814989     Delta-E=       -0.000000058932 Rises=F Damp=F
 DIIS: error= 3.73D-06 at cycle  11 NSaved=  11.
 NSaved=11 IEnMin=11 EnMin= -341.462505814989     IErMin=11 ErrMin= 3.73D-06
 ErrMax= 3.73D-06  0.00D+00 EMaxC= 1.00D-01 BMatC= 2.86D-09 BMatP= 5.68D-08
 IDIUse=1 WtCom= 1.00D+00 WtEn= 0.00D+00
 Coeff-Com:  0.190D-04-0.260D-04 0.153D-03 0.559D-04-0.124D-05-0.123D-02
 Coeff-Com: -0.173D-02-0.190D-02 0.318D-01 0.176D+00 0.797D+00
 Coeff:      0.190D-04-0.260D-04 0.153D-03 0.559D-04-0.124D-05-0.123D-02
 Coeff:     -0.173D-02-0.190D-02 0.318D-01 0.176D+00 0.797D+00
 Gap=     0.099 Goal=   None    Shift=    0.000
 RMSDP=1.15D-06 MaxDP=3.25D-05 DE=-5.89D-08 OVMax= 3.51D-05

 Cycle  12  Pass 1  IDiag  1:
 RMSU=  3.38D-07    CP:  1.02D+00  6.80D-03  8.65D-01  1.05D+00  1.11D+00
                    CP:  1.19D+00  1.20D+00  1.02D+00  1.02D+00  1.08D+00
                    CP:  1.14D+00
 E= -341.462505817750     Delta-E=       -0.000000002761 Rises=F Damp=F
 DIIS: error= 1.46D-06 at cycle  12 NSaved=  12.
 NSaved=12 IEnMin=12 EnMin= -341.462505817750     IErMin=12 ErrMin= 1.46D-06
 ErrMax= 1.46D-06  0.00D+00 EMaxC= 1.00D-01 BMatC= 4.29D-10 BMatP= 2.86D-09
 IDIUse=1 WtCom= 1.00D+00 WtEn= 0.00D+00
 Coeff-Com:  0.932D-05-0.119D-04 0.399D-04 0.289D-04 0.124D-03-0.333D-04
 Coeff-Com: -0.313D-03-0.128D-02 0.380D-03 0.210D-01 0.193D+00 0.787D+00
 Coeff:      0.932D-05-0.119D-04 0.399D-04 0.289D-04 0.124D-03-0.333D-04
 Coeff:     -0.313D-03-0.128D-02 0.380D-03 0.210D-01 0.193D+00 0.787D+00
 Gap=     0.099 Goal=   None    Shift=    0.000
 RMSDP=3.87D-07 MaxDP=9.28D-06 DE=-2.76D-09 OVMax= 1.07D-05

 Cycle  13  Pass 1  IDiag  1:
 RMSU=  1.10D-07    CP:  1.02D+00  6.80D-03  8.65D-01  1.05D+00  1.11D+00
                    CP:  1.19D+00  1.20D+00  1.02D+00  1.02D+00  1.11D+00
                    CP:  1.24D+00  1.23D+00
 E= -341.462505818186     Delta-E=       -0.000000000436 Rises=F Damp=F
 DIIS: error= 5.74D-07 at cycle  13 NSaved=  13.
 NSaved=13 IEnMin=13 EnMin= -341.462505818186     IErMin=13 ErrMin= 5.74D-07
 ErrMax= 5.74D-07  0.00D+00 EMaxC= 1.00D-01 BMatC= 9.16D-11 BMatP= 4.29D-10
 IDIUse=1 WtCom= 1.00D+00 WtEn= 0.00D+00
 Coeff-Com:  0.421D-05-0.383D-05 0.284D-05 0.158D-04 0.934D-04 0.212D-03
 Coeff-Com:  0.790D-04-0.483D-03-0.538D-02-0.185D-01-0.308D-01 0.441D+00
 Coeff-Com:  0.613D+00
 Coeff:      0.421D-05-0.383D-05 0.284D-05 0.158D-04 0.934D-04 0.212D-03
 Coeff:      0.790D-04-0.483D-03-0.538D-02-0.185D-01-0.308D-01 0.441D+00
 Coeff:      0.613D+00
 Gap=     0.099 Goal=   None    Shift=    0.000
 RMSDP=1.71D-07 MaxDP=5.17D-06 DE=-4.36D-10 OVMax= 4.77D-06

 Cycle  14  Pass 1  IDiag  1:
 RMSU=  3.08D-08    CP:  1.02D+00  6.80D-03  8.65D-01  1.05D+00  1.11D+00
                    CP:  1.19D+00  1.20D+00  1.02D+00  1.03D+00  1.12D+00
                    CP:  1.28D+00  1.38D+00  1.15D+00
 E= -341.462505818273     Delta-E=       -0.000000000087 Rises=F Damp=F
 DIIS: error= 1.38D-07 at cycle  14 NSaved=  14.
 NSaved=14 IEnMin=14 EnMin= -341.462505818273     IErMin=14 ErrMin= 1.38D-07
 ErrMax= 1.38D-07  0.00D+00 EMaxC= 1.00D-01 BMatC= 3.76D-12 BMatP= 9.16D-11
 IDIUse=1 WtCom= 1.00D+00 WtEn= 0.00D+00
 Coeff-Com:  0.270D-06-0.306D-06-0.181D-05 0.239D-05 0.117D-04 0.384D-04
 Coeff-Com:  0.438D-04 0.898D-04-0.360D-03-0.328D-02-0.172D-01-0.118D-01
 Coeff-Com:  0.846D-01 0.948D+00
 Coeff:      0.270D-06-0.306D-06-0.181D-05 0.239D-05 0.117D-04 0.384D-04
 Coeff:      0.438D-04 0.898D-04-0.360D-03-0.328D-02-0.172D-01-0.118D-01
 Coeff:      0.846D-01 0.948D+00
 Gap=     0.099 Goal=   None    Shift=    0.000
 RMSDP=5.83D-08 MaxDP=1.95D-06 DE=-8.66D-11 OVMax= 1.39D-06

 Cycle  15  Pass 1  IDiag  1:
 RMSU=  7.18D-09    CP:  1.02D+00  6.80D-03  8.65D-01  1.05D+00  1.11D+00
                    CP:  1.19D+00  1.20D+00  1.02D+00  1.03D+00  1.12D+00
                    CP:  1.30D+00  1.44D+00  1.30D+00  1.23D+00
 E= -341.462505818279     Delta-E=       -0.000000000006 Rises=F Damp=F
 DIIS: error= 1.93D-08 at cycle  15 NSaved=  15.
 NSaved=15 IEnMin=15 EnMin= -341.462505818279     IErMin=15 ErrMin= 1.93D-08
 ErrMax= 1.93D-08  0.00D+00 EMaxC= 1.00D-01 BMatC= 7.75D-14 BMatP= 3.76D-12
 IDIUse=1 WtCom= 1.00D+00 WtEn= 0.00D+00
 Coeff-Com: -0.469D-07-0.547D-08-0.654D-06 0.681D-06 0.197D-05 0.725D-05
 Coeff-Com:  0.984D-05 0.423D-04 0.644D-04-0.572D-03-0.534D-02-0.222D-01
 Coeff-Com:  0.109D-01 0.384D+00 0.633D+00
 Coeff:     -0.469D-07-0.547D-08-0.654D-06 0.681D-06 0.197D-05 0.725D-05
 Coeff:      0.984D-05 0.423D-04 0.644D-04-0.572D-03-0.534D-02-0.222D-01
 Coeff:      0.109D-01 0.384D+00 0.633D+00
 Gap=     0.099 Goal=   None    Shift=    0.000
 RMSDP=6.99D-09 MaxDP=1.65D-07 DE=-6.14D-12 OVMax= 1.60D-07

 SCF Done:  E(RB3LYP) =  -341.462505818     A.U. after   15 cycles
            NFock= 15  Conv=0.70D-08     -V/T= 2.0037
 KE= 3.401942789088D+02 PE=-1.415205222148D+03 EE= 4.300340761528D+02
 Leave Link  502 at Wed Oct 26 08:16:23 2022, MaxMem=  8053063680 cpu:             223.0 elap:               7.0
 (Enter /public3/home/scg5914/software-scg5914/g16/l601.exe)
 Copying SCF densities to generalized density rwf, IOpCl= 0 IROHF=0.

 **********************************************************************

            Population analysis using the SCF Density.

 **********************************************************************

 Orbital symmetries:
       Occupied  (A) (A) (A) (A) (A) (A) (A) (A) (A) (A) (A) (A)
                 (A) (A) (A) (A) (A) (A) (A) (A) (A) (A) (A) (A)
                 (A) (A) (A)
       Virtual   (A) (A) (A) (A) (A) (A) (A) (A) (A) (A) (A) (A)
                 (A) (A) (A) (A) (A) (A) (A) (A) (A) (A) (A) (A)
                 (A) (A) (A) (A) (A) (A) (A) (A) (A) (A) (A) (A)
                 (A) (A) (A) (A) (A) (A) (A) (A) (A) (A) (A) (A)
                 (A) (A) (A) (A) (A) (A) (A) (A) (A) (A) (A) (A)
                 (A) (A) (A) (A) (A) (A) (A) (A) (A) (A) (A) (A)
                 (A) (A) (A) (A) (A) (A) (A) (A) (A) (A) (A) (A)
                 (A) (A) (A) (A) (A) (A) (A) (A) (A) (A) (A) (A)
                 (A) (A) (A) (A) (A) (A) (A) (A) (A) (A) (A) (A)
                 (A) (A) (A) (A) (A) (A) (A) (A) (A) (A) (A) (A)
                 (A) (A) (A) (A) (A) (A) (A) (A) (A) (A) (A) (A)
                 (A) (A) (A) (A) (A) (A) (A) (A) (A) (A) (A) (A)
                 (A) (A) (A) (A) (A) (A) (A) (A) (A) (A) (A) (A)
                 (A) (A) (A) (A) (A) (A) (A) (A) (A) (A) (A) (A)
                 (A)
 The electronic state is 1-A.
 Alpha  occ. eigenvalues --  -18.98481 -14.07135 -14.04647 -10.07415 -10.06299
 Alpha  occ. eigenvalues --  -10.01128 -10.00200  -0.91121  -0.74709  -0.61082
 Alpha  occ. eigenvalues --   -0.57404  -0.51827  -0.41825  -0.39012  -0.31751
 Alpha  occ. eigenvalues --   -0.30413  -0.28514  -0.26961  -0.23901  -0.20895
 Alpha  occ. eigenvalues --   -0.19654  -0.19139  -0.17449  -0.08839  -0.08404
 Alpha  occ. eigenvalues --   -0.03399   0.02127
 Alpha virt. eigenvalues --    0.12075   0.14049   0.15598   0.16008   0.16381
 Alpha virt. eigenvalues --    0.16938   0.17646   0.19830   0.20141   0.21489
 Alpha virt. eigenvalues --    0.21701   0.23252   0.25000   0.25260   0.26547
 Alpha virt. eigenvalues --    0.27305   0.28766   0.29427   0.29999   0.32959
 Alpha virt. eigenvalues --    0.33490   0.34132   0.34787   0.36088   0.36682
 Alpha virt. eigenvalues --    0.37641   0.38052   0.38817   0.39611   0.40101
 Alpha virt. eigenvalues --    0.41687   0.42249   0.42651   0.44270   0.44817
 Alpha virt. eigenvalues --    0.46350   0.47444   0.48813   0.50767   0.53291
 Alpha virt. eigenvalues --    0.55480   0.57134   0.60397   0.62228   0.62757
 Alpha virt. eigenvalues --    0.64814   0.65780   0.70174   0.72637   0.73625
 Alpha virt. eigenvalues --    0.75181   0.78148   0.79723   0.80250   0.82651
 Alpha virt. eigenvalues --    0.83576   0.84897   0.85738   0.87709   0.88461
 Alpha virt. eigenvalues --    0.91323   0.95636   1.00732   1.05992   1.08277
 Alpha virt. eigenvalues --    1.09458   1.10784   1.13082   1.14934   1.15677
 Alpha virt. eigenvalues --    1.16752   1.19329   1.19966   1.29032   1.31880
 Alpha virt. eigenvalues --    1.36666   1.39553   1.41297   1.42666   1.46712
 Alpha virt. eigenvalues --    1.50870   1.55033   1.57201   1.57873   1.61073
 Alpha virt. eigenvalues --    1.68804   1.69323   1.70865   1.73041   1.76228
 Alpha virt. eigenvalues --    1.77588   1.78963   1.80916   1.81239   1.83885
 Alpha virt. eigenvalues --    1.84737   1.85200   1.86818   1.91117   1.94004
 Alpha virt. eigenvalues --    1.95361   2.04392   2.05568   2.11564   2.16150
 Alpha virt. eigenvalues --    2.19497   2.24187   2.25182   2.31009   2.32383
 Alpha virt. eigenvalues --    2.35541   2.38523   2.48025   2.50313   2.54975
 Alpha virt. eigenvalues --    2.56234   2.61454   2.63281   2.65300   2.66087
 Alpha virt. eigenvalues --    2.68097   2.70596   2.73719   2.76085   2.79357
 Alpha virt. eigenvalues --    2.80201   2.85583   2.87233   2.89533   2.92532
 Alpha virt. eigenvalues --    2.95474   2.98720   3.04114   3.06257   3.07696
 Alpha virt. eigenvalues --    3.09948   3.12345   3.22443   3.23993   3.34270
 Alpha virt. eigenvalues --    3.39347   3.42526   3.56105   3.71647   3.74136
 Alpha virt. eigenvalues --    3.78132   3.80513   3.91965   3.96032   4.06211
 Alpha virt. eigenvalues --    4.16843   4.18666   4.19506   4.23012   4.35411
 Alpha virt. eigenvalues --    4.63019   4.80483   4.94736   5.17532   5.27386
 Alpha virt. eigenvalues --    5.59189   5.96303  24.00297  24.05046  24.07471
 Alpha virt. eigenvalues --   24.09136  35.73080  35.92127  50.10936
          Condensed to atoms (all electrons):
               1          2          3          4          5          6
     1  C    5.109075   0.152106  -0.113057  -0.117660  -0.007207  -0.055834
     2  O    0.152106   8.431921   0.298190  -0.354617   0.057039  -0.045780
     3  C   -0.113057   0.298190   6.109966  -0.024799  -0.231006  -0.471074
     4  N   -0.117660  -0.354617  -0.024799   7.794440   0.291166   0.010793
     5  C   -0.007207   0.057039  -0.231006   0.291166   5.804009  -0.293925
     6  C   -0.055834  -0.045780  -0.471074   0.010793  -0.293925   6.014352
     7  N   -0.025716  -0.242084   0.264143  -0.024188  -0.063674   0.386690
     8  H    0.394208  -0.098164   0.032102   0.010523   0.001294   0.003057
     9  H    0.425085  -0.029982  -0.004706  -0.011333  -0.008421   0.001642
    10  H    0.427344  -0.031537  -0.012136  -0.008581   0.004318  -0.007973
    11  H    0.001884   0.005029   0.013101  -0.155210   0.447061  -0.017036
    12  H    0.004414   0.001948   0.068571  -0.104721   0.399275  -0.099948
    13  H   -0.000186  -0.003422   0.057880   0.032036  -0.102448   0.411554
    14  H    0.003484   0.011822   0.016894  -0.032030  -0.002419   0.397130
               7          8          9         10         11         12
     1  C   -0.025716   0.394208   0.425085   0.427344   0.001884   0.004414
     2  O   -0.242084  -0.098164  -0.029982  -0.031537   0.005029   0.001948
     3  C    0.264143   0.032102  -0.004706  -0.012136   0.013101   0.068571
     4  N   -0.024188   0.010523  -0.011333  -0.008581  -0.155210  -0.104721
     5  C   -0.063674   0.001294  -0.008421   0.004318   0.447061   0.399275
     6  C    0.386690   0.003057   0.001642  -0.007973  -0.017036  -0.099948
     7  N    7.401042  -0.000169   0.000133   0.001701   0.000177   0.017181
     8  H   -0.000169   0.630480  -0.038108  -0.038248  -0.000005  -0.000009
     9  H    0.000133  -0.038108   0.576534  -0.045526   0.000128  -0.000348
    10  H    0.001701  -0.038248  -0.045526   0.578437  -0.000485   0.000226
    11  H    0.000177  -0.000005   0.000128  -0.000485   0.708574  -0.069589
    12  H    0.017181  -0.000009  -0.000348   0.000226  -0.069589   0.710046
    13  H   -0.111916  -0.000007   0.000020  -0.000005  -0.021530   0.009998
    14  H   -0.135213  -0.000012  -0.000087   0.000014   0.017519  -0.016843
              13         14
     1  C   -0.000186   0.003484
     2  O   -0.003422   0.011822
     3  C    0.057880   0.016894
     4  N    0.032036  -0.032030
     5  C   -0.102448  -0.002419
     6  C    0.411554   0.397130
     7  N   -0.111916  -0.135213
     8  H   -0.000007  -0.000012
     9  H    0.000020  -0.000087
    10  H   -0.000005   0.000014
    11  H   -0.021530   0.017519
    12  H    0.009998  -0.016843
    13  H    0.745381  -0.095676
    14  H   -0.095676   0.777290
 Mulliken charges:
               1
     1  C   -0.197941
     2  O   -0.152466
     3  C   -0.004069
     4  N   -0.305819
     5  C   -0.295061
     6  C   -0.233648
     7  N   -0.468107
     8  H    0.103058
     9  H    0.134971
    10  H    0.132450
    11  H    0.070381
    12  H    0.079801
    13  H    0.078321
    14  H    0.058128
 Sum of Mulliken charges =  -1.00000
 Mulliken charges with hydrogens summed into heavy atoms:
               1
     1  C    0.172539
     2  O   -0.152466
     3  C   -0.004069
     4  N   -0.305819
     5  C   -0.144878
     6  C   -0.097199
     7  N   -0.468107
 Electronic spatial extent (au):  <R**2>=            779.3485
 Charge=             -1.0000 electrons
 Dipole moment (field-independent basis, Debye):
    X=             -2.0288    Y=              2.3605    Z=              0.4985  Tot=              3.1523
 Quadrupole moment (field-independent basis, Debye-Ang):
   XX=            -48.9089   YY=            -61.5377   ZZ=            -47.7039
   XY=              1.1709   XZ=              0.0938   YZ=             -1.1126
 Traceless Quadrupole moment (field-independent basis, Debye-Ang):
   XX=              3.8079   YY=             -8.8209   ZZ=              5.0129
   XY=              1.1709   XZ=              0.0938   YZ=             -1.1126
 Octapole moment (field-independent basis, Debye-Ang**2):
  XXX=            -22.3282  YYY=              5.3409  ZZZ=              0.7016  XYY=             -7.8464
  XXY=              3.4622  XXZ=             -0.8124  XZZ=             -5.5031  YZZ=              0.9189
  YYZ=              1.6036  XYZ=             -0.0189
 Hexadecapole moment (field-independent basis, Debye-Ang**3):
 XXXX=           -811.6736 YYYY=           -314.7906 ZZZZ=            -88.5367 XXXY=              4.3691
 XXXZ=             -5.7824 YYYX=             12.3868 YYYZ=             -2.6176 ZZZX=             -0.3612
 ZZZY=             -2.2550 XXYY=           -187.0081 XXZZ=           -150.3663 YYZZ=            -63.4655
 XXYZ=              1.7311 YYXZ=              1.9048 ZZXY=              2.3761
 N-N= 3.035143612681D+02 E-N=-1.415205222565D+03  KE= 3.401942789088D+02
 No NMR shielding tensors so no spin-rotation constants.
 Leave Link  601 at Wed Oct 26 08:16:23 2022, MaxMem=  8053063680 cpu:               2.6 elap:               0.1
 (Enter /public3/home/scg5914/software-scg5914/g16/l701.exe)
 ... and contract with generalized density number  0.
 Compute integral first derivatives.
 R6Disp: Adding Grimme-D3(BJ) dispersion energy 1st derivatives to the gradient.
 Leave Link  701 at Wed Oct 26 08:16:23 2022, MaxMem=  8053063680 cpu:               3.5 elap:               0.1
 (Enter /public3/home/scg5914/software-scg5914/g16/l702.exe)
 L702 exits ... SP integral derivatives will be done elsewhere.
 Leave Link  702 at Wed Oct 26 08:16:23 2022, MaxMem=  8053063680 cpu:               0.2 elap:               0.0
 (Enter /public3/home/scg5914/software-scg5914/g16/l703.exe)
 Integral derivatives from FoFJK, PRISM(SPDF).
 Compute integral first derivatives, UseDBF=F ICtDFT=           0.
 Calling FoFJK, ICntrl=      2127 FMM=F ISym2X=0 I1Cent= 0 IOpClX= 0 NMat=1 NMatS=1 NMatT=0.
 FoFJK:  IHMeth= 1 ICntrl=    2127 DoSepK=F KAlg= 0 I1Cent=           0 FoldK=F
 IRaf=         0 NMat=       1 IRICut=       1 DoRegI=T DoRafI=F ISym2E= 0 IDoP0=0 IntGTp=1.
 FoFCou: FMM=F IPFlag=           0 FMFlag=      100000 FMFlg1=         800
         NFxFlg=           0 DoJE=F BraDBF=F KetDBF=F FulRan=T
         wScrn=  0.000000 ICntrl=      2127 IOpCl=  0 I1Cent=           0 NGrid=           0
         NMat0=    1 NMatS0=      1 NMatT0=    0 NMatD0=    1 NMtDS0=    0 NMtDT0=    0
 Symmetry not used in FoFCou.
 Leave Link  703 at Wed Oct 26 08:16:25 2022, MaxMem=  8053063680 cpu:              31.9 elap:               1.0
 (Enter /public3/home/scg5914/software-scg5914/g16/l716.exe)
 Dipole        =-7.98200634D-01 9.28709418D-01 1.96125298D-01
 ***** Axes restored to original set *****
 -------------------------------------------------------------------
 Center     Atomic                   Forces (Hartrees/Bohr)
 Number     Number              X              Y              Z
 -------------------------------------------------------------------
      1        6          -0.001330215   -0.008048038    0.001908903
      2        8           0.019012866    0.025012258   -0.001135924
      3        6          -0.010823897   -0.099876762    0.016411102
      4        7          -0.032446286    0.039215542   -0.015075899
      5        6          -0.003161617    0.000476512   -0.003865335
      6        6           0.016352810    0.025777653    0.013509300
      7        7           0.020985014    0.015788032   -0.009282261
      8        1           0.001132431    0.000709719   -0.000004031
      9        1          -0.000444732    0.001080539    0.000084732
     10        1          -0.000437430    0.001796990   -0.000118793
     11        1          -0.001719604    0.000318653    0.004450129
     12        1          -0.002894459    0.002761382   -0.001044902
     13        1          -0.002358696   -0.002377144    0.000523916
     14        1          -0.001866185   -0.002635335   -0.006360938
 -------------------------------------------------------------------
 Cartesian Forces:  Max     0.099876762 RMS     0.019677529
 Leave Link  716 at Wed Oct 26 08:16:25 2022, MaxMem=  8053063680 cpu:               0.3 elap:               0.0
 (Enter /public3/home/scg5914/software-scg5914/g16/l103.exe)

 GradGradGradGradGradGradGradGradGradGradGradGradGradGradGradGradGradGrad
 Berny optimization.
 FormGI is forming the generalized inverse of G from B-inverse, IUseBI=4.
 Internal  Forces:  Max     0.044308035 RMS     0.010542381
 Search for a local minimum.
 Step number   1 out of a maximum of   72
 All quantities printed in internal units (Hartrees-Bohrs-Radians)
 RMS Force = .10542D-01 SwitMx=.10000D-02 MixMth= 1
 Mixed Optimization -- RFO/linear search
 Second derivative matrix not updated -- first step.
 ITU=  0
     Eigenvalues ---    0.00532   0.01294   0.01833   0.02556   0.02637
     Eigenvalues ---    0.04562   0.05114   0.05708   0.06028   0.09987
     Eigenvalues ---    0.10208   0.10491   0.10628   0.10917   0.11768
     Eigenvalues ---    0.16000   0.16000   0.16000   0.22374   0.24239
     Eigenvalues ---    0.24994   0.25000   0.26540   0.33767   0.33861
     Eigenvalues ---    0.34086   0.34366   0.34432   0.34454   0.34455
     Eigenvalues ---    0.34748   0.35374   0.40976   0.45034   0.58423
     Eigenvalues ---    0.69966
 RFO step:  Lambda=-1.93665456D-02 EMin= 5.31639001D-03
 Linear search not attempted -- first point.
 Iteration  1 RMS(Cart)=  0.06404223 RMS(Int)=  0.00227573
 Iteration  2 RMS(Cart)=  0.00352624 RMS(Int)=  0.00096885
 Iteration  3 RMS(Cart)=  0.00000321 RMS(Int)=  0.00096884
 Iteration  4 RMS(Cart)=  0.00000001 RMS(Int)=  0.00096884
 ITry= 1 IFail=0 DXMaxC= 1.68D-01 DCOld= 1.00D+10 DXMaxT= 3.00D-01 DXLimC= 3.00D+00 Rises=F
 Variable       Old X    -DE/DX   Delta X   Delta X   Delta X     New X
                                 (Linear)    (Quad)   (Total)
    R1        2.70249  -0.00467   0.00000  -0.01088  -0.01088   2.69161
    R2        2.06086   0.00127   0.00000   0.00346   0.00346   2.06432
    R3        2.06607   0.00042   0.00000   0.00116   0.00116   2.06723
    R4        2.06569   0.00092   0.00000   0.00254   0.00254   2.06823
    R5        2.52210   0.02454   0.00000   0.04065   0.04065   2.56275
    R6        2.41344   0.04431   0.00000   0.06175   0.06172   2.47515
    R7        2.62690  -0.03553   0.00000  -0.07021  -0.07029   2.55660
    R8        2.77925  -0.00970   0.00000  -0.02325  -0.02311   2.75614
    R9        2.94229   0.00504   0.00000   0.01097   0.01078   2.95307
   R10        2.07565   0.00475   0.00000   0.01328   0.01328   2.08893
   R11        2.06717   0.00314   0.00000   0.00864   0.00864   2.07582
   R12        2.77533  -0.00175   0.00000  -0.01026  -0.01009   2.76523
   R13        2.06570   0.00285   0.00000   0.00784   0.00784   2.07354
   R14        2.07725   0.00696   0.00000   0.01950   0.01950   2.09675
    A1        1.84610   0.00020   0.00000   0.00132   0.00131   1.84741
    A2        1.93079   0.00088   0.00000   0.00469   0.00468   1.93547
    A3        1.92955   0.00199   0.00000   0.01108   0.01106   1.94061
    A4        1.93107  -0.00053   0.00000  -0.00299  -0.00300   1.92808
    A5        1.93090  -0.00079   0.00000  -0.00401  -0.00402   1.92688
    A6        1.89556  -0.00167   0.00000  -0.00963  -0.00965   1.88591
    A7        2.00795  -0.00116   0.00000  -0.00432  -0.00432   2.00362
    A8        2.20901  -0.02692   0.00000  -0.10521  -0.10490   2.10411
    A9        2.00966   0.00357   0.00000   0.00823   0.00857   2.01823
   A10        2.06414   0.02337   0.00000   0.09735   0.09662   2.16076
   A11        1.83669  -0.01562   0.00000  -0.03950  -0.04004   1.79665
   A12        1.84570  -0.00893   0.00000  -0.04089  -0.04072   1.80498
   A13        1.91431   0.00370   0.00000   0.00525   0.00508   1.91939
   A14        1.93926   0.00078   0.00000   0.00202   0.00228   1.94154
   A15        1.93421   0.00122   0.00000   0.00655   0.00485   1.93906
   A16        1.96010   0.00500   0.00000   0.02669   0.02797   1.98807
   A17        1.87091  -0.00161   0.00000   0.00042   0.00018   1.87109
   A18        1.75742   0.02168   0.00000   0.08463   0.08337   1.84079
   A19        1.97666  -0.00406   0.00000  -0.01188  -0.01316   1.96350
   A20        1.94347  -0.00658   0.00000  -0.03050  -0.03005   1.91342
   A21        1.94729  -0.00750   0.00000  -0.00761  -0.00771   1.93958
   A22        1.94713  -0.00485   0.00000  -0.01116  -0.01051   1.93663
   A23        1.89072   0.00173   0.00000  -0.01884  -0.01979   1.87094
   A24        1.83047  -0.01960   0.00000  -0.08342  -0.08507   1.74540
    D1       -3.13327   0.00015   0.00000   0.00240   0.00241  -3.13086
    D2       -1.04148   0.00011   0.00000   0.00215   0.00214  -1.03934
    D3        1.05900  -0.00010   0.00000   0.00042   0.00042   1.05942
    D4        0.01024   0.00188   0.00000   0.03804   0.03837   0.04861
    D5       -3.10140   0.00079   0.00000   0.02146   0.02113  -3.08027
    D6       -3.12776   0.00172   0.00000   0.06442   0.06684  -3.06092
    D7       -0.01695   0.00250   0.00000   0.07997   0.08383   0.06688
    D8       -2.89707  -0.00538   0.00000  -0.08717  -0.08496  -2.98202
    D9        0.27184  -0.00548   0.00000  -0.09873  -0.09909   0.17275
   D10       -0.23142   0.00081   0.00000  -0.03071  -0.02749  -0.25891
   D11        1.85507  -0.00089   0.00000  -0.04352  -0.04198   1.81309
   D12       -2.36274  -0.00007   0.00000  -0.03845  -0.03711  -2.39984
   D13        0.37032   0.00183   0.00000  -0.00256  -0.00310   0.36722
   D14        2.45136   0.00408   0.00000   0.03365   0.03291   2.48427
   D15       -1.69589  -0.00161   0.00000  -0.02292  -0.02298  -1.71888
   D16       -1.70302   0.00202   0.00000   0.01178   0.01191  -1.69111
   D17        0.37802   0.00427   0.00000   0.04799   0.04792   0.42594
   D18        2.51396  -0.00142   0.00000  -0.00858  -0.00798   2.50598
   D19        2.48821  -0.00014   0.00000  -0.01127  -0.01130   2.47691
   D20       -1.71393   0.00212   0.00000   0.02494   0.02471  -1.68922
   D21        0.42200  -0.00358   0.00000  -0.03163  -0.03118   0.39082
   D22       -0.36818   0.00250   0.00000   0.05707   0.05574  -0.31244
   D23       -2.47033  -0.00172   0.00000   0.02616   0.02537  -2.44497
   D24        1.69536   0.00474   0.00000   0.06357   0.06287   1.75823
         Item               Value     Threshold  Converged?
 Maximum Force            0.044308     0.000450     NO 
 RMS     Force            0.010542     0.000300     NO 
 Maximum Displacement     0.167791     0.001800     NO 
 RMS     Displacement     0.066225     0.001200     NO 
 Predicted change in Energy=-1.063820D-02
 Lowest energy point so far.  Saving SCF results.
 GradGradGradGradGradGradGradGradGradGradGradGradGradGradGradGradGradGrad

 Leave Link  103 at Wed Oct 26 08:16:25 2022, MaxMem=  8053063680 cpu:               0.9 elap:               0.1
 (Enter /public3/home/scg5914/software-scg5914/g16/l202.exe)
                          Input orientation:                          
 ---------------------------------------------------------------------
 Center     Atomic      Atomic             Coordinates (Angstroms)
 Number     Number       Type             X           Y           Z
 ---------------------------------------------------------------------
      1          6           0       -0.042577    1.330369   -0.026731
      2          8           0       -0.029519   -0.089345    0.087219
      3          6           0       -1.253828   -0.672440    0.072781
      4          7           0       -2.333564    0.050068   -0.093694
      5          6           0       -3.406674   -0.924506    0.066987
      6          6           0       -2.669392   -2.297681   -0.046270
      7          7           0       -1.265852   -2.013057    0.254248
      8          1           0        1.004715    1.640592   -0.010659
      9          1           0       -0.519747    1.642461   -0.960323
     10          1           0       -0.589085    1.788835    0.803317
     11          1           0       -3.878189   -0.806686    1.059830
     12          1           0       -4.193233   -0.778120   -0.685702
     13          1           0       -3.076151   -3.050591    0.640519
     14          1           0       -2.781837   -2.697409   -1.075193
 ---------------------------------------------------------------------
                    Distance matrix (angstroms):
                    1          2          3          4          5
     1  C    0.000000
     2  O    1.424339   0.000000
     3  C    2.342707   1.356150   0.000000
     4  N    2.625314   2.315338   1.309794   0.000000
     5  C    4.050974   3.478948   2.167560   1.458485   0.000000
     6  C    4.479206   3.444343   2.158565   2.372120   1.562697
     7  N    3.571253   2.292834   1.352896   2.348947   2.408968
     8  H    1.092391   2.017896   3.233899   3.698752   5.103539
     9  H    1.093931   2.082503   2.639118   2.564506   3.997378
    10  H    1.094460   2.086498   2.652064   2.621287   3.980353
    11  H    4.523223   4.033958   2.807055   2.109624   1.105416
    12  H    4.701906   4.290494   3.037526   2.120080   1.098474
    13  H    5.370345   4.284518   3.049392   3.271787   2.226752
    14  H    4.982551   3.965912   2.784449   2.951766   2.199587
                    6          7          8          9         10
     6  C    0.000000
     7  N    1.463299   0.000000
     8  H    5.386124   4.309850   0.000000
     9  H    4.580522   3.923604   1.796065   0.000000
    10  H    4.663592   3.900497   1.795754   1.771061   0.000000
    11  H    2.215336   2.988076   5.565777   4.621523   4.197706
    12  H    2.245002   3.313327   5.772739   4.407849   4.668653
    13  H    1.097272   2.121996   6.251776   5.578767   5.443533
    14  H    1.109554   2.129310   5.855721   4.895378   5.335106
                   11         12         13         14
    11  H    0.000000
    12  H    1.773965   0.000000
    13  H    2.419545   2.858472   0.000000
    14  H    3.055347   2.414004   1.776240   0.000000
 Stoichiometry    C4H7N2O(1-)
 Framework group  C1[X(C4H7N2O)]
 Deg. of freedom    36
 Full point group                 C1      NOp   1
 RotChk:  IX=0 Diff= 1.24D-02
 Largest Abelian subgroup         C1      NOp   1
 Largest concise Abelian subgroup C1      NOp   1
                         Standard orientation:                         
 ---------------------------------------------------------------------
 Center     Atomic      Atomic             Coordinates (Angstroms)
 Number     Number       Type             X           Y           Z
 ---------------------------------------------------------------------
      1          6           0       -2.448356    0.344662    0.025357
      2          8           0       -1.477948   -0.697383   -0.009199
      3          6           0       -0.189389   -0.274658   -0.016924
      4          7           0        0.093100    1.001921    0.061210
      5          6           0        1.543235    1.025560   -0.092823
      6          6           0        1.955793   -0.465306    0.128849
      7          7           0        0.745032   -1.247105   -0.124315
      8          1           0       -3.420533   -0.153346    0.038682
      9          1           0       -2.323707    0.964409    0.918139
     10          1           0       -2.363868    0.993153   -0.852233
     11          1           0        1.809346    1.364988   -1.110624
     12          1           0        2.007277    1.725836    0.614937
     13          1           0        2.773721   -0.777464   -0.532631
     14          1           0        2.306727   -0.603777    1.172296
 ---------------------------------------------------------------------
 Rotational constants (GHZ):           6.8019867           2.1191499           1.6741425
 Leave Link  202 at Wed Oct 26 08:16:25 2022, MaxMem=  8053063680 cpu:               0.3 elap:               0.0
 (Enter /public3/home/scg5914/software-scg5914/g16/l301.exe)
 Standard basis: 6-311+G(d,p) (5D, 7F)
 Ernie: Thresh=  0.10000D-02 Tol=  0.10000D-05 Strict=F.
 There are   203 symmetry adapted cartesian basis functions of A   symmetry.
 There are   196 symmetry adapted basis functions of A   symmetry.
   196 basis functions,   308 primitive gaussians,   203 cartesian basis functions
    27 alpha electrons       27 beta electrons
       nuclear repulsion energy       304.5830534168 Hartrees.
 IExCor=  402 DFT=T Ex+Corr=B3LYP ExCW=0 ScaHFX=  0.200000
 ScaDFX=  0.800000  0.720000  1.000000  0.810000 ScalE2=  1.000000  1.000000
 IRadAn=      5 IRanWt=     -1 IRanGd=            0 ICorTp=0 IEmpDi=141
 NAtoms=   14 NActive=   14 NUniq=   14 SFac= 1.00D+00 NAtFMM=   60 NAOKFM=F Big=F
 Integral buffers will be    131072 words long.
 Raffenetti 2 integral format.
 Two-electron integral symmetry is turned on.
 R6Disp:  Grimme-D3(BJ) Dispersion energy=       -0.0185188653 Hartrees.
 Nuclear repulsion after empirical dispersion term =      304.5645345515 Hartrees.
 Leave Link  301 at Wed Oct 26 08:16:25 2022, MaxMem=  8053063680 cpu:               0.6 elap:               0.0
 (Enter /public3/home/scg5914/software-scg5914/g16/l302.exe)
 NPDir=0 NMtPBC=     1 NCelOv=     1 NCel=       1 NClECP=     1 NCelD=      1
         NCelK=      1 NCelE2=     1 NClLst=     1 CellRange=     0.0.
 One-electron integrals computed using PRISM.
 One-electron integral symmetry used in STVInt
 NBasis=   196 RedAO= T EigKep=  4.64D-05  NBF=   196
 NBsUse=   196 1.00D-06 EigRej= -1.00D+00 NBFU=   196
 Precomputing XC quadrature grid using
 IXCGrd= 4 IRadAn=           5 IRanWt=          -1 IRanGd=           0 AccXCQ= 0.00D+00.
 Generated NRdTot=       0 NPtTot=           0 NUsed=           0 NTot=          32
 NSgBfM=   203   203   203   203   203 MxSgAt=    14 MxSgA2=    14.
 Leave Link  302 at Wed Oct 26 08:16:25 2022, MaxMem=  8053063680 cpu:               7.6 elap:               0.3
 (Enter /public3/home/scg5914/software-scg5914/g16/l303.exe)
 DipDrv:  MaxL=1.
 Leave Link  303 at Wed Oct 26 08:16:25 2022, MaxMem=  8053063680 cpu:               0.4 elap:               0.0
 (Enter /public3/home/scg5914/software-scg5914/g16/l401.exe)
 Initial guess from the checkpoint file:  "dsgdb9nsd_002924-8.chk"
 B after Tr=     0.000000    0.000000   -0.000000
         Rot=    0.999993    0.003428   -0.000771   -0.001438 Ang=   0.44 deg.
 Guess basis will be translated and rotated to current coordinates.
 JPrj=2 DoOrth=T DoCkMO=T.
 Generating alternative initial guess.
 ExpMin= 4.38D-02 ExpMax= 8.59D+03 ExpMxC= 1.30D+03 IAcc=3 IRadAn=         5 AccDes= 0.00D+00
 Harris functional with IExCor=  402 and IRadAn=       5 diagonalized for initial guess.
 HarFok:  IExCor=  402 AccDes= 0.00D+00 IRadAn=         5 IDoV= 1 UseB2=F ITyADJ=14
 ICtDFT=  3500011 ScaDFX=  1.000000  1.000000  1.000000  1.000000
 FoFCou: FMM=F IPFlag=           0 FMFlag=      100000 FMFlg1=           0
         NFxFlg=           0 DoJE=T BraDBF=F KetDBF=T FulRan=T
         wScrn=  0.000000 ICntrl=       500 IOpCl=  0 I1Cent=   200000004 NGrid=           0
         NMat0=    1 NMatS0=      1 NMatT0=    0 NMatD0=    1 NMtDS0=    0 NMtDT0=    0
 Petite list used in FoFCou.
 Harris En= -341.648368594099    
 Leave Link  401 at Wed Oct 26 08:16:25 2022, MaxMem=  8053063680 cpu:              11.9 elap:               0.4
 (Enter /public3/home/scg5914/software-scg5914/g16/l502.exe)
 Integral symmetry usage will be decided dynamically.
 Closed shell SCF:
 Using DIIS extrapolation, IDIIS=  1040.
 NGot=  8053063680 LenX=  8052972360 LenY=  8052930710
 Requested convergence on RMS density matrix=1.00D-08 within 128 cycles.
 Requested convergence on MAX density matrix=1.00D-06.
 Requested convergence on             energy=1.00D-06.
 No special actions if energy rises.
 Fock matrices will be formed incrementally for  20 cycles.

 Cycle   1  Pass 1  IDiag  1:
 FoFJK:  IHMeth= 1 ICntrl=       0 DoSepK=F KAlg= 0 I1Cent=           0 FoldK=F
 IRaf= 960000000 NMat=       1 IRICut=       1 DoRegI=T DoRafI=F ISym2E= 0 IDoP0=0 IntGTp=1.
 FoFCou: FMM=F IPFlag=           0 FMFlag=      100000 FMFlg1=           0
         NFxFlg=           0 DoJE=F BraDBF=F KetDBF=F FulRan=T
         wScrn=  0.000000 ICntrl=         0 IOpCl=  0 I1Cent=           0 NGrid=           0
         NMat0=    1 NMatS0=      1 NMatT0=    0 NMatD0=    1 NMtDS0=    0 NMtDT0=    0
 Symmetry not used in FoFCou.
 E= -341.461776452690    
 DIIS: error= 3.31D-03 at cycle   1 NSaved=   1.
 NSaved= 1 IEnMin= 1 EnMin= -341.461776452690     IErMin= 1 ErrMin= 3.31D-03
 ErrMax= 3.31D-03  0.00D+00 EMaxC= 1.00D-01 BMatC= 7.21D-03 BMatP= 7.21D-03
 IDIUse=3 WtCom= 9.67D-01 WtEn= 3.31D-02
 Coeff-Com:  0.100D+01
 Coeff-En:   0.100D+01
 Coeff:      0.100D+01
 Gap=     0.402 Goal=   None    Shift=    0.000
 GapD=    0.402 DampG=2.000 DampE=1.000 DampFc=2.0000 IDamp=-1.
 RMSDP=1.43D-03 MaxDP=3.04D-02              OVMax= 3.77D-02

 Cycle   2  Pass 1  IDiag  1:
 RMSU=  1.42D-03    CP:  9.96D-01
 E= -341.472288375028     Delta-E=       -0.010511922338 Rises=F Damp=F
 DIIS: error= 1.58D-03 at cycle   2 NSaved=   2.
 NSaved= 2 IEnMin= 2 EnMin= -341.472288375028     IErMin= 2 ErrMin= 1.58D-03
 ErrMax= 1.58D-03  0.00D+00 EMaxC= 1.00D-01 BMatC= 6.20D-04 BMatP= 7.21D-03
 IDIUse=3 WtCom= 9.84D-01 WtEn= 1.58D-02
 Coeff-Com:  0.740D-01 0.926D+00
 Coeff-En:   0.000D+00 0.100D+01
 Coeff:      0.728D-01 0.927D+00
 Gap=     0.106 Goal=   None    Shift=    0.000
 RMSDP=3.80D-04 MaxDP=1.03D-02 DE=-1.05D-02 OVMax= 2.41D-02

 Cycle   3  Pass 1  IDiag  1:
 RMSU=  3.67D-04    CP:  1.00D+00  1.02D+00
 E= -341.471407353059     Delta-E=        0.000881021969 Rises=F Damp=F
 DIIS: error= 3.15D-03 at cycle   3 NSaved=   3.
 NSaved= 3 IEnMin= 2 EnMin= -341.472288375028     IErMin= 2 ErrMin= 1.58D-03
 ErrMax= 3.15D-03  0.00D+00 EMaxC= 1.00D-01 BMatC= 1.67D-03 BMatP= 6.20D-04
 IDIUse=3 WtCom= 1.51D-01 WtEn= 8.49D-01
 Coeff-Com: -0.312D-01 0.642D+00 0.389D+00
 Coeff-En:   0.000D+00 0.698D+00 0.302D+00
 Coeff:     -0.471D-02 0.690D+00 0.315D+00
 Gap=     0.111 Goal=   None    Shift=    0.000
 RMSDP=2.82D-04 MaxDP=7.21D-03 DE= 8.81D-04 OVMax= 1.47D-02

 Cycle   4  Pass 1  IDiag  1:
 RMSU=  1.57D-04    CP:  9.99D-01  1.06D+00  3.92D-01
 E= -341.472789399130     Delta-E=       -0.001382046072 Rises=F Damp=F
 DIIS: error= 2.55D-04 at cycle   4 NSaved=   4.
 NSaved= 4 IEnMin= 4 EnMin= -341.472789399130     IErMin= 4 ErrMin= 2.55D-04
 ErrMax= 2.55D-04  0.00D+00 EMaxC= 1.00D-01 BMatC= 3.11D-05 BMatP= 6.20D-04
 IDIUse=3 WtCom= 9.97D-01 WtEn= 2.55D-03
 Coeff-Com: -0.160D-01 0.270D+00 0.100D+00 0.646D+00
 Coeff-En:   0.000D+00 0.000D+00 0.000D+00 0.100D+01
 Coeff:     -0.159D-01 0.270D+00 0.999D-01 0.646D+00
 Gap=     0.112 Goal=   None    Shift=    0.000
 RMSDP=8.52D-05 MaxDP=4.53D-03 DE=-1.38D-03 OVMax= 2.06D-03

 Cycle   5  Pass 1  IDiag  1:
 RMSU=  5.94D-05    CP:  9.97D-01  1.07D+00  2.95D-01  7.53D-01
 E= -341.472809306595     Delta-E=       -0.000019907465 Rises=F Damp=F
 DIIS: error= 1.84D-04 at cycle   5 NSaved=   5.
 NSaved= 5 IEnMin= 5 EnMin= -341.472809306595     IErMin= 5 ErrMin= 1.84D-04
 ErrMax= 1.84D-04  0.00D+00 EMaxC= 1.00D-01 BMatC= 8.19D-06 BMatP= 3.11D-05
 IDIUse=3 WtCom= 9.98D-01 WtEn= 1.84D-03
 Coeff-Com: -0.577D-02 0.696D-01 0.453D-02 0.419D+00 0.512D+00
 Coeff-En:   0.000D+00 0.000D+00 0.000D+00 0.185D+00 0.815D+00
 Coeff:     -0.576D-02 0.695D-01 0.452D-02 0.419D+00 0.513D+00
 Gap=     0.112 Goal=   None    Shift=    0.000
 RMSDP=2.53D-05 MaxDP=8.40D-04 DE=-1.99D-05 OVMax= 6.81D-04

 Cycle   6  Pass 1  IDiag  1:
 RMSU=  1.39D-05    CP:  9.98D-01  1.07D+00  3.15D-01  8.43D-01  8.16D-01
 E= -341.472815964378     Delta-E=       -0.000006657783 Rises=F Damp=F
 DIIS: error= 2.84D-05 at cycle   6 NSaved=   6.
 NSaved= 6 IEnMin= 6 EnMin= -341.472815964378     IErMin= 6 ErrMin= 2.84D-05
 ErrMax= 2.84D-05  0.00D+00 EMaxC= 1.00D-01 BMatC= 2.23D-07 BMatP= 8.19D-06
 IDIUse=1 WtCom= 1.00D+00 WtEn= 0.00D+00
 Coeff-Com: -0.143D-02 0.110D-01-0.870D-02 0.153D+00 0.210D+00 0.636D+00
 Coeff:     -0.143D-02 0.110D-01-0.870D-02 0.153D+00 0.210D+00 0.636D+00
 Gap=     0.112 Goal=   None    Shift=    0.000
 RMSDP=6.45D-06 MaxDP=2.04D-04 DE=-6.66D-06 OVMax= 1.78D-04

 Cycle   7  Pass 1  IDiag  1:
 RMSU=  5.41D-06    CP:  9.98D-01  1.06D+00  3.10D-01  8.58D-01  8.48D-01
                    CP:  9.96D-01
 E= -341.472816106119     Delta-E=       -0.000000141740 Rises=F Damp=F
 DIIS: error= 1.87D-05 at cycle   7 NSaved=   7.
 NSaved= 7 IEnMin= 7 EnMin= -341.472816106119     IErMin= 7 ErrMin= 1.87D-05
 ErrMax= 1.87D-05  0.00D+00 EMaxC= 1.00D-01 BMatC= 7.74D-08 BMatP= 2.23D-07
 IDIUse=1 WtCom= 1.00D+00 WtEn= 0.00D+00
 Coeff-Com:  0.594D-04-0.505D-02-0.795D-02 0.329D-01 0.471D-01 0.396D+00
 Coeff-Com:  0.537D+00
 Coeff:      0.594D-04-0.505D-02-0.795D-02 0.329D-01 0.471D-01 0.396D+00
 Coeff:      0.537D+00
 Gap=     0.112 Goal=   None    Shift=    0.000
 RMSDP=2.78D-06 MaxDP=6.55D-05 DE=-1.42D-07 OVMax= 6.74D-05

 Cycle   8  Pass 1  IDiag  1:
 RMSU=  1.67D-06    CP:  9.98D-01  1.06D+00  3.08D-01  8.69D-01  8.47D-01
                    CP:  1.07D+00  1.03D+00
 E= -341.472816164837     Delta-E=       -0.000000058718 Rises=F Damp=F
 DIIS: error= 3.46D-06 at cycle   8 NSaved=   8.
 NSaved= 8 IEnMin= 8 EnMin= -341.472816164837     IErMin= 8 ErrMin= 3.46D-06
 ErrMax= 3.46D-06  0.00D+00 EMaxC= 1.00D-01 BMatC= 3.55D-09 BMatP= 7.74D-08
 IDIUse=1 WtCom= 1.00D+00 WtEn= 0.00D+00
 Coeff-Com:  0.104D-03-0.293D-02-0.369D-02 0.793D-02 0.850D-02 0.149D+00
 Coeff-Com:  0.256D+00 0.585D+00
 Coeff:      0.104D-03-0.293D-02-0.369D-02 0.793D-02 0.850D-02 0.149D+00
 Coeff:      0.256D+00 0.585D+00
 Gap=     0.112 Goal=   None    Shift=    0.000
 RMSDP=6.34D-07 MaxDP=1.36D-05 DE=-5.87D-08 OVMax= 1.23D-05

 Cycle   9  Pass 1  IDiag  1:
 RMSU=  3.89D-07    CP:  9.98D-01  1.06D+00  3.08D-01  8.72D-01  8.50D-01
                    CP:  1.08D+00  1.05D+00  9.28D-01
 E= -341.472816167465     Delta-E=       -0.000000002628 Rises=F Damp=F
 DIIS: error= 1.26D-06 at cycle   9 NSaved=   9.
 NSaved= 9 IEnMin= 9 EnMin= -341.472816167465     IErMin= 9 ErrMin= 1.26D-06
 ErrMax= 1.26D-06  0.00D+00 EMaxC= 1.00D-01 BMatC= 4.12D-10 BMatP= 3.55D-09
 IDIUse=1 WtCom= 1.00D+00 WtEn= 0.00D+00
 Coeff-Com:  0.465D-04-0.784D-03-0.972D-03 0.186D-03-0.224D-02 0.204D-01
 Coeff-Com:  0.523D-01 0.275D+00 0.656D+00
 Coeff:      0.465D-04-0.784D-03-0.972D-03 0.186D-03-0.224D-02 0.204D-01
 Coeff:      0.523D-01 0.275D+00 0.656D+00
 Gap=     0.112 Goal=   None    Shift=    0.000
 RMSDP=2.83D-07 MaxDP=8.78D-06 DE=-2.63D-09 OVMax= 6.09D-06

 Cycle  10  Pass 1  IDiag  1:
 RMSU=  9.15D-08    CP:  9.98D-01  1.06D+00  3.08D-01  8.72D-01  8.51D-01
                    CP:  1.09D+00  1.07D+00  9.80D-01  1.04D+00
 E= -341.472816167827     Delta-E=       -0.000000000362 Rises=F Damp=F
 DIIS: error= 2.35D-07 at cycle  10 NSaved=  10.
 NSaved=10 IEnMin=10 EnMin= -341.472816167827     IErMin=10 ErrMin= 2.35D-07
 ErrMax= 2.35D-07  0.00D+00 EMaxC= 1.00D-01 BMatC= 2.30D-11 BMatP= 4.12D-10
 IDIUse=1 WtCom= 1.00D+00 WtEn= 0.00D+00
 Coeff-Com:  0.102D-04-0.739D-04-0.113D-03-0.475D-03-0.167D-02-0.467D-02
 Coeff-Com: -0.229D-02 0.549D-01 0.255D+00 0.699D+00
 Coeff:      0.102D-04-0.739D-04-0.113D-03-0.475D-03-0.167D-02-0.467D-02
 Coeff:     -0.229D-02 0.549D-01 0.255D+00 0.699D+00
 Gap=     0.112 Goal=   None    Shift=    0.000
 RMSDP=1.35D-07 MaxDP=4.08D-06 DE=-3.62D-10 OVMax= 2.07D-06

 Cycle  11  Pass 1  IDiag  1:
 RMSU=  5.73D-08    CP:  9.98D-01  1.06D+00  3.08D-01  8.73D-01  8.51D-01
                    CP:  1.09D+00  1.09D+00  1.01D+00  1.06D+00  1.04D+00
 E= -341.472816167846     Delta-E=       -0.000000000019 Rises=F Damp=F
 DIIS: error= 6.61D-08 at cycle  11 NSaved=  11.
 NSaved=11 IEnMin=11 EnMin= -341.472816167846     IErMin=11 ErrMin= 6.61D-08
 ErrMax= 6.61D-08  0.00D+00 EMaxC= 1.00D-01 BMatC= 1.24D-12 BMatP= 2.30D-11
 IDIUse=1 WtCom= 1.00D+00 WtEn= 0.00D+00
 Coeff-Com:  0.130D-06 0.334D-04 0.320D-04-0.158D-03-0.413D-03-0.304D-02
 Coeff-Com: -0.508D-02-0.444D-02 0.293D-01 0.238D+00 0.746D+00
 Coeff:      0.130D-06 0.334D-04 0.320D-04-0.158D-03-0.413D-03-0.304D-02
 Coeff:     -0.508D-02-0.444D-02 0.293D-01 0.238D+00 0.746D+00
 Gap=     0.112 Goal=   None    Shift=    0.000
 RMSDP=2.42D-08 MaxDP=5.30D-07 DE=-1.90D-11 OVMax= 4.82D-07

 Cycle  12  Pass 1  IDiag  1:
 RMSU=  8.01D-09    CP:  9.98D-01  1.06D+00  3.08D-01  8.73D-01  8.51D-01
                    CP:  1.09D+00  1.09D+00  1.02D+00  1.09D+00  1.12D+00
                    CP:  9.17D-01
 E= -341.472816167848     Delta-E=       -0.000000000002 Rises=F Damp=F
 DIIS: error= 2.45D-08 at cycle  12 NSaved=  12.
 NSaved=12 IEnMin=12 EnMin= -341.472816167848     IErMin=12 ErrMin= 2.45D-08
 ErrMax= 2.45D-08  0.00D+00 EMaxC= 1.00D-01 BMatC= 1.05D-13 BMatP= 1.24D-12
 IDIUse=1 WtCom= 1.00D+00 WtEn= 0.00D+00
 Coeff-Com: -0.318D-06 0.170D-04 0.164D-04-0.435D-04-0.114D-03-0.109D-02
 Coeff-Com: -0.213D-02-0.395D-02 0.382D-02 0.803D-01 0.333D+00 0.590D+00
 Coeff:     -0.318D-06 0.170D-04 0.164D-04-0.435D-04-0.114D-03-0.109D-02
 Coeff:     -0.213D-02-0.395D-02 0.382D-02 0.803D-01 0.333D+00 0.590D+00
 Gap=     0.112 Goal=   None    Shift=    0.000
 RMSDP=3.05D-09 MaxDP=8.48D-08 DE=-2.39D-12 OVMax= 8.05D-08

 SCF Done:  E(RB3LYP) =  -341.472816168     A.U. after   12 cycles
            NFock= 12  Conv=0.31D-08     -V/T= 2.0038
 KE= 3.401834475319D+02 PE=-1.417373473941D+03 EE= 4.311526756899D+02
 Leave Link  502 at Wed Oct 26 08:16:31 2022, MaxMem=  8053063680 cpu:             173.0 elap:               5.4
 (Enter /public3/home/scg5914/software-scg5914/g16/l701.exe)
 ... and contract with generalized density number  0.
 Compute integral first derivatives.
 R6Disp: Adding Grimme-D3(BJ) dispersion energy 1st derivatives to the gradient.
 Leave Link  701 at Wed Oct 26 08:16:31 2022, MaxMem=  8053063680 cpu:               2.6 elap:               0.1
 (Enter /public3/home/scg5914/software-scg5914/g16/l702.exe)
 L702 exits ... SP integral derivatives will be done elsewhere.
 Leave Link  702 at Wed Oct 26 08:16:31 2022, MaxMem=  8053063680 cpu:               0.2 elap:               0.0
 (Enter /public3/home/scg5914/software-scg5914/g16/l703.exe)
 Integral derivatives from FoFJK, PRISM(SPDF).
 Compute integral first derivatives, UseDBF=F ICtDFT=           0.
 Calling FoFJK, ICntrl=      2127 FMM=F ISym2X=0 I1Cent= 0 IOpClX= 0 NMat=1 NMatS=1 NMatT=0.
 FoFJK:  IHMeth= 1 ICntrl=    2127 DoSepK=F KAlg= 0 I1Cent=           0 FoldK=F
 IRaf=         0 NMat=       1 IRICut=       1 DoRegI=T DoRafI=F ISym2E= 0 IDoP0=0 IntGTp=1.
 FoFCou: FMM=F IPFlag=           0 FMFlag=      100000 FMFlg1=         800
         NFxFlg=           0 DoJE=F BraDBF=F KetDBF=F FulRan=T
         wScrn=  0.000000 ICntrl=      2127 IOpCl=  0 I1Cent=           0 NGrid=           0
         NMat0=    1 NMatS0=      1 NMatT0=    0 NMatD0=    1 NMtDS0=    0 NMtDT0=    0
 Symmetry not used in FoFCou.
 Leave Link  703 at Wed Oct 26 08:16:32 2022, MaxMem=  8053063680 cpu:              40.0 elap:               1.3
 (Enter /public3/home/scg5914/software-scg5914/g16/l716.exe)
 Dipole        =-6.14995448D-01 8.90931683D-01 8.06154467D-02
 ***** Axes restored to original set *****
 -------------------------------------------------------------------
 Center     Atomic                   Forces (Hartrees/Bohr)
 Number     Number              X              Y              Z
 -------------------------------------------------------------------
      1        6           0.000983963   -0.004934053    0.000559550
      2        8           0.013266718    0.015204247   -0.000594935
      3        6           0.005655325   -0.034363025    0.008193854
      4        7          -0.007134926    0.010571146   -0.004795438
      5        6           0.001415108   -0.002547016   -0.000908798
      6        6          -0.004973786   -0.004669398    0.003078347
      7        7          -0.004635163    0.024521341   -0.006451906
      8        1           0.001054078    0.000332298    0.000040823
      9        1          -0.000125191    0.000849286    0.000385773
     10        1          -0.000142273    0.000550446   -0.000297958
     11        1          -0.001613993   -0.000731499    0.001782852
     12        1          -0.000867030   -0.001947016    0.000505040
     13        1          -0.002328968   -0.001775946   -0.000718668
     14        1          -0.000553862   -0.001060812   -0.000778536
 -------------------------------------------------------------------
 Cartesian Forces:  Max     0.034363025 RMS     0.007948134
 Leave Link  716 at Wed Oct 26 08:16:32 2022, MaxMem=  8053063680 cpu:               0.2 elap:               0.0
 (Enter /public3/home/scg5914/software-scg5914/g16/l103.exe)

 GradGradGradGradGradGradGradGradGradGradGradGradGradGradGradGradGradGrad
 Berny optimization.
 Using GEDIIS/GDIIS optimizer.
 FormGI is forming the generalized inverse of G from B-inverse, IUseBI=4.
 Internal  Forces:  Max     0.018737254 RMS     0.004445548
 Search for a local minimum.
 Step number   2 out of a maximum of   72
 All quantities printed in internal units (Hartrees-Bohrs-Radians)
 RMS Force = .44455D-02 SwitMx=.10000D-02 MixMth= 1
 Mixed Optimization -- RFO/linear search
 Update second derivatives using D2CorX and points    1    2
 DE= -1.03D-02 DEPred=-1.06D-02 R= 9.69D-01
 TightC=F SS=  1.41D+00  RLast= 3.17D-01 DXNew= 5.0454D-01 9.5105D-01
 Trust test= 9.69D-01 RLast= 3.17D-01 DXMaxT set to 5.05D-01
 ITU=  1  0
 Use linear search instead of GDIIS.
     Eigenvalues ---    0.00512   0.01294   0.01906   0.02553   0.02607
     Eigenvalues ---    0.04570   0.04878   0.05802   0.06060   0.10109
     Eigenvalues ---    0.10134   0.10584   0.10749   0.10868   0.11801
     Eigenvalues ---    0.15938   0.16000   0.16002   0.22833   0.23227
     Eigenvalues ---    0.24949   0.26409   0.29728   0.33493   0.33841
     Eigenvalues ---    0.34333   0.34410   0.34431   0.34453   0.34500
     Eigenvalues ---    0.34745   0.38191   0.40769   0.41363   0.55546
     Eigenvalues ---    0.66370
 RFO step:  Lambda=-3.60888424D-03 EMin= 5.11666345D-03
 Quartic linear search produced a step of  0.06005.
 Iteration  1 RMS(Cart)=  0.03765697 RMS(Int)=  0.00065446
 Iteration  2 RMS(Cart)=  0.00083959 RMS(Int)=  0.00023940
 Iteration  3 RMS(Cart)=  0.00000025 RMS(Int)=  0.00023939
 ITry= 1 IFail=0 DXMaxC= 1.14D-01 DCOld= 1.00D+10 DXMaxT= 5.05D-01 DXLimC= 3.00D+00 Rises=F
 Variable       Old X    -DE/DX   Delta X   Delta X   Delta X     New X
                                 (Linear)    (Quad)   (Total)
    R1        2.69161  -0.00326  -0.00065  -0.00955  -0.01021   2.68141
    R2        2.06432   0.00111   0.00021   0.00371   0.00392   2.06824
    R3        2.06723  -0.00003   0.00007   0.00003   0.00010   2.06733
    R4        2.06823   0.00008   0.00015   0.00051   0.00067   2.06890
    R5        2.56275   0.01874   0.00244   0.03825   0.04069   2.60344
    R6        2.47515   0.01378   0.00371   0.02675   0.03028   2.50543
    R7        2.55660  -0.01713  -0.00422  -0.04628  -0.05067   2.50593
    R8        2.75614   0.00726  -0.00139   0.01966   0.01838   2.77452
    R9        2.95307  -0.00212   0.00065  -0.00733  -0.00658   2.94649
   R10        2.08893   0.00221   0.00080   0.00830   0.00910   2.09803
   R11        2.07582   0.00002   0.00052   0.00102   0.00154   2.07735
   R12        2.76523   0.00460  -0.00061   0.01185   0.01134   2.77658
   R13        2.07354   0.00163   0.00047   0.00582   0.00629   2.07984
   R14        2.09675   0.00116   0.00117   0.00577   0.00694   2.10369
    A1        1.84741  -0.00024   0.00008  -0.00139  -0.00132   1.84609
    A2        1.93547   0.00119   0.00028   0.00831   0.00858   1.94405
    A3        1.94061   0.00059   0.00066   0.00479   0.00544   1.94605
    A4        1.92808  -0.00029  -0.00018  -0.00181  -0.00200   1.92608
    A5        1.92688  -0.00026  -0.00024  -0.00241  -0.00266   1.92422
    A6        1.88591  -0.00096  -0.00058  -0.00726  -0.00786   1.87805
[...]
  25. LP (   1) N   4                / 97. RY*(   2) C   5                    0.86    1.27    0.030
  25. LP (   1) N   4                /182. BD*(   1) C   1 - O   2            0.72    0.64    0.019
  25. LP (   1) N   4                /183. BD*(   1) C   1 - H   8            1.11    0.70    0.025
  25. LP (   1) N   4                /186. BD*(   1) O   2 - C   3            2.75    0.71    0.039
  25. LP (   1) N   4                /188. BD*(   1) C   3 - N   7            9.50    0.94    0.085
  25. LP (   1) N   4                /191. BD*(   1) C   5 - C   6            3.69    0.71    0.046
  25. LP (   1) N   4                /193. BD*(   1) C   5 - H  12            0.76    0.73    0.021
  26. LP (   2) N   4                / 63. RY*(   2) C   3                    2.01    1.43    0.054
  26. LP (   2) N   4                / 66. RY*(   5) C   3                    0.96    1.76    0.042
  26. LP (   2) N   4                / 93. RY*(  15) N   4                    0.67    2.35    0.040
  26. LP (   2) N   4                / 98. RY*(   3) C   5                    1.27    1.67    0.047
  26. LP (   2) N   4                /189. BD*(   2) C   3 - N   7          115.83    0.19    0.134
  26. LP (   2) N   4                /192. BD*(   1) C   5 - H  11            8.64    0.52    0.067
  26. LP (   2) N   4                /193. BD*(   1) C   5 - H  12            4.10    0.53    0.047
  27. LP (   1) N   7                / 62. RY*(   1) C   3                    5.32    1.29    0.075
  27. LP (   1) N   7                / 64. RY*(   3) C   3                    0.73    2.06    0.035
  27. LP (   1) N   7                / 65. RY*(   4) C   3                    0.66    1.83    0.032
  27. LP (   1) N   7                /113. RY*(   1) C   6                    2.13    1.25    0.047
  27. LP (   1) N   7                /114. RY*(   2) C   6                    0.57    1.23    0.024
  27. LP (   1) N   7                /186. BD*(   1) O   2 - C   3            2.68    0.70    0.039
  27. LP (   1) N   7                /187. BD*(   1) C   3 - N   4           10.57    0.91    0.088
  27. LP (   1) N   7                /191. BD*(   1) C   5 - C   6            3.75    0.70    0.046
  27. LP (   1) N   7                /195. BD*(   1) C   6 - H  13            0.86    0.73    0.023
 189. BD*(   2) C   3 - N   7        / 63. RY*(   2) C   3                    2.68    1.24    0.103
 189. BD*(   2) C   3 - N   7        / 66. RY*(   5) C   3                    0.72    1.57    0.061
 189. BD*(   2) C   3 - N   7        / 69. RY*(   8) C   3                    1.01    0.80    0.051
 189. BD*(   2) C   3 - N   7        / 80. RY*(   2) N   4                    0.74    0.49    0.035
 189. BD*(   2) C   3 - N   7        /130. RY*(   1) N   7                    0.79    0.53    0.037
 189. BD*(   2) C   3 - N   7        /132. RY*(   3) N   7                    0.62    0.65    0.036
 189. BD*(   2) C   3 - N   7        /188. BD*(   1) C   3 - N   7            0.56    0.55    0.031
 189. BD*(   2) C   3 - N   7        /196. BD*(   1) C   6 - H  14            1.08    0.33    0.033


 Natural Bond Orbitals (Summary):

                                                            Principal Delocalizations
           NBO                        Occupancy    Energy   (geminal,vicinal,remote)
 ====================================================================================
 Molecular unit  1  (C4H7N2O)
     1. BD (   1) C   1 - O   2          1.99227    -0.65302  188(v),62(v),67(v)
     2. BD (   1) C   1 - H   8          1.99240    -0.37383  186(v),49(v)
     3. BD (   1) C   1 - H   9          1.99514    -0.36699  46(v)
     4. BD (   1) C   1 - H  10          1.99542    -0.36793  46(v)
     5. BD (   1) O   2 - C   3          1.98854    -0.69761  194(v),190(v),30(v),183(v)
     6. BD (   1) C   3 - N   4          1.98881    -0.62279  188(g),97(v),193(v)
     7. BD (   1) C   3 - N   7          1.98490    -0.62145  187(g),182(v),195(v),114(v)
                                                    115(v)
     8. BD (   2) C   3 - N   7          1.94657    -0.08959  189(g),196(v),195(v),115(v)
                                                    80(v)
     9. BD (   1) N   4 - C   5          1.97088    -0.48193  186(v),62(v),194(v),195(v)
                                                    187(g),65(v)
    10. BD (   1) C   5 - C   6          1.99195    -0.40577  186(r)
    11. BD (   1) C   5 - H  11          1.98448    -0.31451  196(v),195(v)
    12. BD (   1) C   5 - H  12          1.98595    -0.32436  194(v),81(v),187(v),196(v)
    13. BD (   1) C   6 - N   7          1.96985    -0.47336  186(v),62(v),190(v),193(v)
                                                    63(v),64(v)
    14. BD (   1) C   6 - H  13          1.98600    -0.32247  190(v),132(v),188(v),189(v)
                                                    192(v)
    15. BD (   1) C   6 - H  14          1.98338    -0.31228  192(v),189(v),130(v),193(v)
    16. CR (   1) C   1                  1.99926    -9.94089  182(g),186(v),148(v)
    17. CR (   1) O   2                  1.99971   -18.77009  67(v),65(v),28(v),30(v)
    18. CR (   1) C   3                  1.99901    -9.93941  182(v),134(v),194(v),190(v)
                                                    186(g),84(v)
    19. CR (   1) N   4                  1.99940   -13.88563  62(v),188(v),96(v),97(v)
    20. CR (   1) C   5                  1.99935    -9.88123  114(v),187(v),84(v)
    21. CR (   1) C   6                  1.99933    -9.87986  97(v),188(v),173(v)
    22. CR (   1) N   7                  1.99939   -13.87893  62(v),187(v),113(v),65(v)
                                                    186(v),68(v)
    23. LP (   1) O   2                  1.96249    -0.37383  187(v),183(v),65(v),28(v)
                                                    62(v),184(v),185(v),188(v)
                                                    30(v)
    24. LP (   2) O   2                  1.86330    -0.13490  189(v),185(v),184(v),29(v)
                                                    66(v)
    25. LP (   1) N   4                  1.92201    -0.17316  188(v),62(v),191(v),96(v)
                                                    186(v),63(v),64(v),183(r)
                                                    97(v),193(v),182(r)
    26. LP (   2) N   4                  1.54136     0.02721  189(v),192(v),193(v),63(v)
                                                    98(v),66(v),93(g)
    27. LP (   1) N   7                  1.92218    -0.16392  187(v),62(v),191(v),186(v)
                                                    113(v),195(v),64(v),65(v)
                                                    114(v)
    28. RY*(   1) C   1                  0.00346     1.34597   
    29. RY*(   2) C   1                  0.00289     1.43613   
    30. RY*(   3) C   1                  0.00216     1.07791   
    31. RY*(   4) C   1                  0.00075     1.52409   
    32. RY*(   5) C   1                  0.00035     1.09649   
    33. RY*(   6) C   1                  0.00030     0.85028   
    34. RY*(   7) C   1                  0.00008     1.75709   
    35. RY*(   8) C   1                  0.00005     1.09305   
    36. RY*(   9) C   1                  0.00001     2.53279   
    37. RY*(  10) C   1                  0.00002     2.01606   
    38. RY*(  11) C   1                  0.00001     1.26007   
    39. RY*(  12) C   1                  0.00000     2.39798   
    40. RY*(  13) C   1                  0.00001     2.08582   
    41. RY*(  14) C   1                  0.00001     2.08281   
    42. RY*(  15) C   1                  0.00001     2.38662   
    43. RY*(  16) C   1                  0.00000    21.89149   
    44. RY*(  17) C   1                  0.00000     2.16753   
    45. RY*(   1) O   2                  0.00462     0.70085   
    46. RY*(   2) O   2                  0.00410     0.83655   
    47. RY*(   3) O   2                  0.00204     1.43231   
    48. RY*(   4) O   2                  0.00105     0.84793   
    49. RY*(   5) O   2                  0.00080     1.72026   
    50. RY*(   6) O   2                  0.00035     1.31565   
    51. RY*(   7) O   2                  0.00021     1.61763   
    52. RY*(   8) O   2                  0.00011     3.02619   
    53. RY*(   9) O   2                  0.00005     1.69900   
    54. RY*(  10) O   2                  0.00003     3.10969   
    55. RY*(  11) O   2                  0.00002     4.66606   
    56. RY*(  12) O   2                  0.00000     5.11329   
    57. RY*(  13) O   2                  0.00000    49.73764   
    58. RY*(  14) O   2                  0.00000     5.15217   
    59. RY*(  15) O   2                  0.00000     3.07285   
    60. RY*(  16) O   2                  0.00000     3.24850   
    61. RY*(  17) O   2                  0.00001     3.53598   
    62. RY*(   1) C   3                  0.01703     1.12685   
    63. RY*(   2) C   3                  0.01194     1.45509   
    64. RY*(   3) C   3                  0.00667     1.89151   
    65. RY*(   4) C   3                  0.00439     1.66794   
    66. RY*(   5) C   3                  0.00283     1.78380   
    67. RY*(   6) C   3                  0.00157     1.81034   
    68. RY*(   7) C   3                  0.00102     1.57320   
    69. RY*(   8) C   3                  0.00086     1.01495   
    70. RY*(   9) C   3                  0.00050     1.81648   
    71. RY*(  10) C   3                  0.00013     3.71412   
    72. RY*(  11) C   3                  0.00007     3.58490   
    73. RY*(  12) C   3                  0.00002    17.71996   
    74. RY*(  13) C   3                  0.00002     3.02541   
    75. RY*(  14) C   3                  0.00000     0.92247   
    76. RY*(  15) C   3                  0.00000     3.13343   
    77. RY*(  16) C   3                  0.00001     1.10227   
    78. RY*(  17) C   3                  0.00001     2.30097   
    79. RY*(   1) N   4                  0.00553     0.62160   
    80. RY*(   2) N   4                  0.00430     0.71052   
    81. RY*(   3) N   4                  0.00310     0.86738   
    82. RY*(   4) N   4                  0.00152     1.00496   
    83. RY*(   5) N   4                  0.00072     1.36787   
    84. RY*(   6) N   4                  0.00040     1.14029   
    85. RY*(   7) N   4                  0.00023     1.32379   
    86. RY*(   8) N   4                  0.00019     1.69965   
    87. RY*(   9) N   4                  0.00007     2.96178   
    88. RY*(  10) N   4                  0.00005     3.25492   
    89. RY*(  11) N   4                  0.00002     3.36434   
    90. RY*(  12) N   4                  0.00000     4.07525   
    91. RY*(  13) N   4                  0.00000    35.14476   
    92. RY*(  14) N   4                  0.00000     3.92827   
    93. RY*(  15) N   4                  0.00000     2.38015   
    94. RY*(  16) N   4                  0.00001     3.06211   
    95. RY*(  17) N   4                  0.00001     2.79329   
    96. RY*(   1) C   5                  0.00511     1.08957   
    97. RY*(   2) C   5                  0.00316     1.09228   
    98. RY*(   3) C   5                  0.00201     1.69463   
    99. RY*(   4) C   5                  0.00099     1.35613   
   100. RY*(   5) C   5                  0.00056     1.31982   
   101. RY*(   6) C   5                  0.00046     1.33591   
   102. RY*(   7) C   5                  0.00033     1.29616   
   103. RY*(   8) C   5                  0.00008     1.11841   
   104. RY*(   9) C   5                  0.00005     1.79054   
   105. RY*(  10) C   5                  0.00003     2.22886   
   106. RY*(  11) C   5                  0.00002     1.96959   
   107. RY*(  12) C   5                  0.00000     2.73808   
   108. RY*(  13) C   5                  0.00000    22.17349   
   109. RY*(  14) C   5                  0.00001     2.06786   
   110. RY*(  15) C   5                  0.00000     2.97337   
   111. RY*(  16) C   5                  0.00001     1.53907   
   112. RY*(  17) C   5                  0.00000     2.12765   
   113. RY*(   1) C   6                  0.00528     1.08521   
   114. RY*(   2) C   6                  0.00308     1.06978   
   115. RY*(   3) C   6                  0.00285     1.25657   
   116. RY*(   4) C   6                  0.00116     1.20771   
   117. RY*(   5) C   6                  0.00046     1.37178   
   118. RY*(   6) C   6                  0.00041     1.33617   
   119. RY*(   7) C   6                  0.00024     1.55929   
   120. RY*(   8) C   6                  0.00009     1.57336   
   121. RY*(   9) C   6                  0.00005     1.97246   
   122. RY*(  10) C   6                  0.00004     1.46641   
   123. RY*(  11) C   6                  0.00001     2.05114   
   124. RY*(  12) C   6                  0.00000     2.75935   
   125. RY*(  13) C   6                  0.00001     1.20463   
   126. RY*(  14) C   6                  0.00000     1.88168   
   127. RY*(  15) C   6                  0.00000    23.08422   
   128. RY*(  16) C   6                  0.00000     2.76690   
   129. RY*(  17) C   6                  0.00000     2.14727   
   130. RY*(   1) N   7                  0.00580     0.74697   
   131. RY*(   2) N   7                  0.00399     0.50553   
   132. RY*(   3) N   7                  0.00299     0.86353   
   133. RY*(   4) N   7                  0.00114     0.87790   
   134. RY*(   5) N   7                  0.00091     1.18180   
   135. RY*(   6) N   7                  0.00059     1.30321   
   136. RY*(   7) N   7                  0.00028     1.58006   
   137. RY*(   8) N   7                  0.00010     3.00873   
   138. RY*(   9) N   7                  0.00006     2.94267   
   139. RY*(  10) N   7                  0.00004     3.54186   
   140. RY*(  11) N   7                  0.00001     2.80918   
   141. RY*(  12) N   7                  0.00000     4.09138   
   142. RY*(  13) N   7                  0.00001     3.34099   
   143. RY*(  14) N   7                  0.00001     2.44964   
   144. RY*(  15) N   7                  0.00000     2.47118   
   145. RY*(  16) N   7                  0.00001     2.61949   
   146. RY*(  17) N   7                  0.00000    35.08778   
   147. RY*(   1) H   8                  0.00093     0.56465   
   148. RY*(   2) H   8                  0.00022     2.30981   
   149. RY*(   3) H   8                  0.00020     1.88108   
   150. RY*(   4) H   8                  0.00006     2.05353   
   151. RY*(   5) H   8                  0.00003     2.66174   
   152. RY*(   1) H   9                  0.00149     0.90604   
   153. RY*(   2) H   9                  0.00063     2.07712   
   154. RY*(   3) H   9                  0.00015     1.98181   
   155. RY*(   4) H   9                  0.00008     2.32916   
   156. RY*(   5) H   9                  0.00002     2.33540   
   157. RY*(   1) H  10                  0.00191     0.75091   
   158. RY*(   2) H  10                  0.00040     2.19059   
   159. RY*(   3) H  10                  0.00017     2.04831   
   160. RY*(   4) H  10                  0.00010     2.22038   
   161. RY*(   5) H  10                  0.00003     2.48999   
   162. RY*(   1) H  11                  0.00574     0.57015   
   163. RY*(   2) H  11                  0.00028     2.00993   
   164. RY*(   3) H  11                  0.00015     2.39810   
   165. RY*(   4) H  11                  0.00008     2.54452   
   166. RY*(   5) H  11                  0.00005     2.27803   
   167. RY*(   1) H  12                  0.00202     0.66900   
   168. RY*(   2) H  12                  0.00042     2.27500   
   169. RY*(   3) H  12                  0.00020     1.94424   
   170. RY*(   4) H  12                  0.00011     2.18206   
   171. RY*(   5) H  12                  0.00004     2.77621   
   172. RY*(   1) H  13                  0.00226     0.61025   
   173. RY*(   2) H  13                  0.00053     2.35077   
   174. RY*(   3) H  13                  0.00019     1.95306   
   175. RY*(   4) H  13                  0.00010     2.28578   
   176. RY*(   5) H  13                  0.00004     2.62271   
   177. RY*(   1) H  14                  0.00436     0.79852   
   178. RY*(   2) H  14                  0.00035     2.12266   
   179. RY*(   3) H  14                  0.00018     2.00772   
   180. RY*(   4) H  14                  0.00010     2.26619   
   181. RY*(   5) H  14                  0.00004     2.69579   
   182. BD*(   1) C   1 - O   2          0.01177     0.46322   
   183. BD*(   1) C   1 - H   8          0.01451     0.52724   
   184. BD*(   1) C   1 - H   9          0.02199     0.53657   
   185. BD*(   1) C   1 - H  10          0.02234     0.53062   
   186. BD*(   1) O   2 - C   3          0.06935     0.53490   
   187. BD*(   1) C   3 - N   4          0.04123     0.74853   
   188. BD*(   1) C   3 - N   7          0.03357     0.76499   
   189. BD*(   2) C   3 - N   7          0.48588     0.21801  63(g),69(g),196(v),130(g)
                                                    80(v),66(g),132(g),188(g)
   190. BD*(   1) N   4 - C   5          0.01165     0.56549   
   191. BD*(   1) C   5 - C   6          0.03424     0.53227   
   192. BD*(   1) C   5 - H  11          0.04119     0.54445   
   193. BD*(   1) C   5 - H  12          0.02219     0.56160   
   194. BD*(   1) C   6 - N   7          0.00951     0.57221   
   195. BD*(   1) C   6 - H  13          0.02250     0.56342   
   196. BD*(   1) C   6 - H  14          0.04190     0.54534   
       -------------------------------
              Total Lewis   52.96333  ( 98.0802%)
        Valence non-Lewis    0.88382  (  1.6367%)
        Rydberg non-Lewis    0.15285  (  0.2831%)
       -------------------------------
            Total unit  1   54.00000  (100.0000%)
           Charge unit  1   -1.00000
 Leave Link  607 at Wed Oct 26 08:17:55 2022, MaxMem=  8053063680 cpu:              56.0 elap:               1.8
 (Enter /public3/home/scg5914/software-scg5914/g16/l9999.exe)
 Unable to Open any file for archive entry.
 1\1\GINC-E1002\SP\RB3LYP\Gen\C4H7N2O1(1-)\SCG5914\26-Oct-2022\0\\#p b3
 lyp/chkbas pop=nbo geom=allcheck guess=tcheck em=gd3bj\\dsgdb9nsd_0029
 24-8\\-1,1\C,0,-0.026934581,1.3392987713,-0.0067659005\O,0,-0.00957242
 16,-0.074231837,0.0447455318\C,0,-1.2501914577,-0.6835712152,0.0337191
 903\N,0,-2.3392260561,0.0500526065,-0.1722133432\C,0,-3.4111501833,-0.
 9294024766,0.0435573742\C,0,-2.6860565732,-2.3078659134,-0.0285268123\
 N,0,-1.2755359055,-1.9907308017,0.2284830932\H,0,1.0219850183,1.652873
 2796,-0.0056152153\H,0,-0.5299302059,1.7040503408,-0.9078246701\H,0,-0
 .5468764027,1.768352411,0.857397259\H,0,-3.8710234319,-0.7854938057,1.
 0431538949\H,0,-4.2194889391,-0.8276244401,-0.693544335\H,0,-3.0833646
 699,-3.040017623,0.6880241455\H,0,-2.8075687242,-2.7532008777,-1.03826
 24862\\Version=ES64L-G16RevC.01\State=1-A\HF=-341.4748224\RMSD=2.521e-
 09\Dipole=-0.178068,0.8973327,-0.0553129\Quadrupole=-1.1258912,-2.5401
 842,3.6660754,3.8066135,-0.8603071,1.3307911\PG=C01 [X(C4H7N2O1)]\\@
 The archive entry for this job was punched.


      HUMANKIND PERIODICALLY GOES THROUGH A SPEEDUP OF ITS AFFAIRS, 
      THEREBY EXPERIENCING THE RACE BETWEEN THE RENEWABLE VITALITY
      OF THE LIVING, AND THE BECKONING VITIATION OF DECADENCE.
      IN THIS PERIODIC RACE, ANY PAUSE BECOMES A LUXURY.
      ONLY THEN CAN ONE REFLECT THAT ALL IS PERMITTED;
      ALL IS POSSIBLE.

                              -- THE APOCRYPHA OF MUAD'DIB
                                 CHILDREN OF DUNE, BY FRANK HERBERT
 Job cpu time:       0 days  0 hours  1 minutes 35.2 seconds.
 Elapsed time:       0 days  0 hours  0 minutes  3.1 seconds.
 File lengths (MBytes):  RWF=     26 Int=      0 D2E=      0 Chk=      4 Scr=      1
 Normal termination of Gaussian 16 at Wed Oct 26 08:17:55 2022.
