 Entering Gaussian System, Link 0=/home/gridsan/groups/RMG/Software/gaussian//g16/g16
 Input=r1_C8H9N3O2_sp_g16.com
 Output=r1_C8H9N3O2_sp_g16.log
 Initial command:
 /home/gridsan/groups/RMG/Software/gaussian//g16/l1.exe "/state/partition1/slurm_tmp/18070680.4294967291.0/tmpo3bc847u/Gau-88170.inp" -scrdir="/state/partition1/slurm_tmp/18070680.4294967291.0/tmpo3bc847u/"
 Entering Link 1 = /home/gridsan/groups/RMG/Software/gaussian//g16/l1.exe PID=     88172.
  
 Copyright (c) 1988-2017, Gaussian, Inc.  All Rights Reserved.
  
 This is part of the Gaussian(R) 16 program.  It is based on
 the Gaussian(R) 09 system (copyright 2009, Gaussian, Inc.),
 the Gaussian(R) 03 system (copyright 2003, Gaussian, Inc.),
 the Gaussian(R) 98 system (copyright 1998, Gaussian, Inc.),
 the Gaussian(R) 94 system (copyright 1995, Gaussian, Inc.),
 the Gaussian 92(TM) system (copyright 1992, Gaussian, Inc.),
 the Gaussian 90(TM) system (copyright 1990, Gaussian, Inc.),
 the Gaussian 88(TM) system (copyright 1988, Gaussian, Inc.),
 the Gaussian 86(TM) system (copyright 1986, Carnegie Mellon
 University), and the Gaussian 82(TM) system (copyright 1983,
 Carnegie Mellon University). Gaussian is a federally registered
 trademark of Gaussian, Inc.
  
 This software contains proprietary and confidential information,
 including trade secrets, belonging to Gaussian, Inc.
  
 This software is provided under written license and may be
 used, copied, transmitted, or stored only in accord with that
 written license.
  
 The following legend is applicable only to US Government
 contracts under FAR:
  
                    RESTRICTED RIGHTS LEGEND
  
 Use, reproduction and disclosure by the US Government is
 subject to restrictions as set forth in subparagraphs (a)
 and (c) of the Commercial Computer Software - Restricted
 Rights clause in FAR 52.227-19.
  
 Gaussian, Inc.
 340 Quinnipiac St., Bldg. 40, Wallingford CT 06492
  
  
 ---------------------------------------------------------------
 Warning -- This program may not be used in any manner that
 competes with the business of Gaussian, Inc. or will provide
 assistance to any competitor of Gaussian, Inc.  The licensee
 of this program is prohibited from giving any competitor of
 Gaussian, Inc. access to this program.  By using this program,
 the user acknowledges that Gaussian, Inc. is engaged in the
 business of creating and licensing software in the field of
 computational chemistry and represents and warrants to the
 licensee that it is not a competitor of Gaussian, Inc. and that
 it will not use this program in any manner prohibited above.
 ---------------------------------------------------------------
  

 Cite this work as:
 Gaussian 16, Revision B.01,
 M. J. Frisch, G. W. Trucks, H. B. Schlegel, G. E. Scuseria, 
 M. A. Robb, J. R. Cheeseman, G. Scalmani, V. Barone, 
 G. A. Petersson, H. Nakatsuji, X. Li, M. Caricato, A. V. Marenich, 
 J. Bloino, B. G. Janesko, R. Gomperts, B. Mennucci, H. P. Hratchian, 
 J. V. Ortiz, A. F. Izmaylov, J. L. Sonnenberg, D. Williams-Young, 
 F. Ding, F. Lipparini, F. Egidi, J. Goings, B. Peng, A. Petrone, 
 T. Henderson, D. Ranasinghe, V. G. Zakrzewski, J. Gao, N. Rega, 
 G. Zheng, W. Liang, M. Hada, M. Ehara, K. Toyota, R. Fukuda, 
 J. Hasegawa, M. Ishida, T. Nakajima, Y. Honda, O. Kitao, H. Nakai, 
 T. Vreven, K. Throssell, J. A. Montgomery, Jr., J. E. Peralta, 
 F. Ogliaro, M. J. Bearpark, J. J. Heyd, E. N. Brothers, K. N. Kudin, 
 V. N. Staroverov, T. A. Keith, R. Kobayashi, J. Normand, 
 K. Raghavachari, A. P. Rendell, J. C. Burant, S. S. Iyengar, 
 J. Tomasi, M. Cossi, J. M. Millam, M. Klene, C. Adamo, R. Cammi, 
 J. W. Ochterski, R. L. Martin, K. Morokuma, O. Farkas, 
 J. B. Foresman, and D. J. Fox, Gaussian, Inc., Wallingford CT, 2016.
 
 ******************************************
 Gaussian 16:  ES64L-G16RevB.01 20-Dec-2017
                12-Jun-2022 
 ******************************************
 %mem=15199MB
 %nprocshared=4
 Will use up to    4 processors via shared memory.
 ----------------------------------------------------------------------
 # B3LYP def2tzvp EmpiricalDispersion=GD3BJ IOp(2/9=2000) scrf=(smd,sol
 vent=Water)
 ----------------------------------------------------------------------
 1/38=1,172=1/1;
 2/9=2000,12=2,17=6,18=5,40=1/2;
 3/5=44,7=101,11=2,25=1,30=1,70=32201,72=1,74=-5,124=41/1,2,3;
 4//1;
 5/5=2,38=5,53=1/2;
 6/7=2,8=2,9=2,10=2,28=1/1;
 99/5=1,9=1/99;
 ------------------
 r1_C8H9N3O2_sp_g16
 ------------------
 Symbolic Z-matrix:
 Charge =  0 Multiplicity = 1
 C                    -4.63725   0.98654   0.02218 
 N                    -3.19176   0.92842   0.01688 
 C                    -2.53345  -0.25142  -0.03841 
 O                    -3.09705  -1.34755  -0.10473 
 N                    -1.14197  -0.03602  -0.01251 
 O                    -0.56991  -1.2415   -0.0595 
 N                     0.6964   -1.44004  -0.0536 
 C                     1.62178  -0.41919  -0.00181 
 C                     2.94658  -0.94301  -0.00684 
 C                     4.04424  -0.10055   0.03654 
 C                     3.85391   1.28893   0.08575 
 C                     2.55993   1.81926   0.09165 
 C                     1.44053   0.99098   0.04944 
 H                    -5.06039   0.4883    0.91034 
 H                    -5.05953   0.49679  -0.8699 
 H                    -4.95026   2.03753   0.02739 
 H                    -2.65135   1.78384   0.0914 
 H                     3.0688   -2.02633  -0.04662 
 H                     5.05299  -0.51789   0.03186 
 H                     4.71741   1.95692   0.11937 
 H                     2.41645   2.90112   0.13027 
 H                     0.44336   1.41112   0.05494 
 
                          Input orientation:                          
 ---------------------------------------------------------------------
 Center     Atomic      Atomic             Coordinates (Angstroms)
 Number     Number       Type             X           Y           Z
 ---------------------------------------------------------------------
      1          6           0       -4.637247    0.986540    0.022182
      2          7           0       -3.191762    0.928420    0.016882
      3          6           0       -2.533450   -0.251419   -0.038411
      4          8           0       -3.097045   -1.347546   -0.104734
      5          7           0       -1.141971   -0.036016   -0.012508
      6          8           0       -0.569907   -1.241505   -0.059502
      7          7           0        0.696401   -1.440040   -0.053602
      8          6           0        1.621778   -0.419188   -0.001809
      9          6           0        2.946576   -0.943013   -0.006842
     10          6           0        4.044240   -0.100549    0.036543
     11          6           0        3.853913    1.288933    0.085753
     12          6           0        2.559926    1.819259    0.091650
     13          6           0        1.440529    0.990983    0.049439
     14          1           0       -5.060391    0.488297    0.910340
     15          1           0       -5.059528    0.496785   -0.869899
     16          1           0       -4.950258    2.037525    0.027388
     17          1           0       -2.651346    1.783839    0.091397
     18          1           0        3.068798   -2.026329   -0.046615
     19          1           0        5.052992   -0.517891    0.031858
     20          1           0        4.717408    1.956918    0.119373
     21          1           0        2.416449    2.901120    0.130267
     22          1           0        0.443356    1.411118    0.054943
 ---------------------------------------------------------------------
                    Distance matrix (angstroms):
                    1          2          3          4          5
     1  C    0.000000
     2  N    1.446663   0.000000
     3  C    2.441757   1.352203   0.000000
     4  O    2.799337   2.281180   1.234315   0.000000
     5  N    3.641947   2.265534   1.408291   2.356041   0.000000
     6  O    4.638331   3.404193   2.199140   2.529766   1.335166
     7  N    5.860191   4.553283   3.441655   3.794918   2.313565
     8  C    6.414986   4.998656   4.158775   4.810378   2.790205
     9  C    7.825496   6.417322   5.523584   6.057936   4.187946
    10  C    8.749296   7.308823   6.579847   7.250718   5.186844
    11  C    8.496781   7.055228   6.571644   7.436607   5.169526
    12  C    7.245519   5.820747   5.499737   6.486027   4.142093
    13  C    6.077839   4.632828   4.164588   5.107060   2.779905
    14  H    1.102779   2.117487   2.798703   2.873225   4.059627
    15  H    1.101812   2.112165   2.762653   2.799710   4.045522
    16  H    1.096619   2.079070   3.329348   3.861419   4.336383
    17  H    2.141093   1.014566   2.042798   3.169020   2.366618
    18  H    8.274373   6.923091   5.876696   6.203366   4.657584
    19  H    9.806332   8.370664   7.591446   8.193295   6.213834
    20  H    9.405352   7.976420   7.581332   8.487366   6.190436
    21  H    7.309715   5.946127   5.870984   6.964553   4.616222
    22  H    5.098418   3.667224   3.410882   4.491120   2.147559
                    6          7          8          9         10
     6  O    0.000000
     7  N    1.281791   0.000000
     8  C    2.341584   1.378820   0.000000
     9  C    3.529522   2.304888   1.424608   0.000000
    10  C    4.754089   3.606992   2.443629   1.384375   0.000000
    11  C    5.098470   4.175715   2.812076   2.411103   1.403320
    12  C    4.380294   3.757240   2.428889   2.790940   2.427321
    13  C    3.006281   2.544448   1.422695   2.451874   2.823282
    14  H    4.908895   6.147221   6.804919   8.185438   9.165401
    15  H    4.882120   6.127671   6.799444   8.180195   9.168262
    16  H    5.472391   6.632102   7.016263   8.440661   9.245131
    17  H    3.675305   4.649928   4.808493   6.227528   6.955918
    18  H    3.722404   2.443778   2.163048   1.090914   2.160331
    19  H    5.670005   4.453936   3.432798   2.149236   1.091685
    20  H    6.182039   5.266663   3.904291   3.400202   2.166376
    21  H    5.110350   4.673119   3.416634   3.882936   3.415919
    22  H    2.841867   2.864422   2.177595   3.436839   3.905361
                   11         12         13         14         15
    11  C    0.000000
    12  C    1.398457   0.000000
    13  C    2.431978   1.393152   0.000000
    14  H    8.988091   7.778878   6.576915   0.000000
    15  H    8.999456   7.792919   6.583324   1.780259   0.000000
    16  H    8.836132   7.513630   6.475947   1.786572   1.786321
    17  H    6.524060   5.211392   4.168192   2.855275   2.894812
    18  H    3.409529   3.881574   3.429965   8.562875   8.550648
    19  H    2.169172   3.417780   3.914958  10.201209  10.203225
    20  H    1.092226   2.162047   3.416995   9.919064   9.934743
    21  H    2.160424   1.092017   2.146527   7.895148   7.916526
    22  H    3.412884   2.155875   1.082080   5.645754   5.654473
                   16         17         18         19         20
    16  H    0.000000
    17  H    2.313752   0.000000
    18  H    8.990308   6.874335   0.000000
    19  H   10.324494   8.041040   2.493706   0.000000
    20  H    9.668440   7.370839   4.314131   2.498991   0.000000
    21  H    7.417867   5.189641   4.973590   4.318643   2.487177
    22  H    5.429937   3.117279   4.326581   4.997034   4.309242
                   21         22
    21  H    0.000000
    22  H    2.473636   0.000000
 Stoichiometry    C8H9N3O2
 Framework group  C1[X(C8H9N3O2)]
 Deg. of freedom    60
 Full point group                 C1      NOp   1
 Largest Abelian subgroup         C1      NOp   1
 Largest concise Abelian subgroup C1      NOp   1
                         Standard orientation:                         
 ---------------------------------------------------------------------
 Center     Atomic      Atomic             Coordinates (Angstroms)
 Number     Number       Type             X           Y           Z
 ---------------------------------------------------------------------
      1          6           0       -4.596214    1.078502    0.015293
      2          7           0       -3.153164    0.977341    0.000887
      3          6           0       -2.530231   -0.222802   -0.007106
      4          8           0       -3.126280   -1.303585   -0.019955
      5          7           0       -1.132860   -0.047844   -0.002092
      6          8           0       -0.596807   -1.270673    0.000047
      7          7           0        0.663144   -1.506237    0.004536
      8          6           0        1.618463   -0.511999    0.003296
      9          6           0        2.927248   -1.074609    0.010885
     10          6           0        4.049470   -0.263990    0.007799
     11          6           0        3.900382    1.131343   -0.003415
     12          6           0        2.622591    1.699569   -0.010680
     13          6           0        1.479073    0.903814   -0.006878
     14          1           0       -5.025393    0.632869    0.928167
     15          1           0       -5.041027    0.562452   -0.850631
     16          1           0       -4.878253    2.137510   -0.023804
     17          1           0       -2.587255    1.818810    0.032833
     18          1           0        3.017317   -2.161773    0.018435
     19          1           0        5.045480   -0.710876    0.013549
     20          1           0        4.783344    1.774246   -0.006585
     21          1           0        2.511224    2.785859   -0.019148
     22          1           0        0.494726    1.353182   -0.012028
 ---------------------------------------------------------------------
 Rotational constants (GHZ):           2.3163341           0.3543638           0.3079495
 Standard basis: def2TZVP (5D, 7F)
 There are   522 symmetry adapted cartesian basis functions of A   symmetry.
 There are   457 symmetry adapted basis functions of A   symmetry.
   457 basis functions,   735 primitive gaussians,   522 cartesian basis functions
    47 alpha electrons       47 beta electrons
       nuclear repulsion energy       734.9771871848 Hartrees.
 NAtoms=   22 NActive=   22 NUniq=   22 SFac= 1.00D+00 NAtFMM=   60 NAOKFM=F Big=F
 Integral buffers will be    131072 words long.
 Raffenetti 2 integral format.
 Two-electron integral symmetry is turned on.
 Nuclear repulsion after empirical dispersion term =      734.9393484220 Hartrees.
 ------------------------------------------------------------------------------
 Polarizable Continuum Model (PCM)
 =================================
 Model                : PCM.
 Atomic radii         : SMD-Coulomb.
 Polarization charges : Total charges.
 Charge compensation  : None.
 Solution method      : On-the-fly selection.
 Cavity type          : VdW (van der Waals Surface) (Alpha=1.000).
 Cavity algorithm     : GePol (No added spheres)
                        Default sphere list used, NSphG=   22.
                        Lebedev-Laikov grids with approx.  5.0 points / Ang**2.
                        Smoothing algorithm: York/Karplus (Gamma=1.0000).
                        Polarization charges: spherical gaussians, with
                                              point-specific exponents (IZeta= 3).
                        Self-potential: point-specific (ISelfS= 7).
                        Self-field    : sphere-specific E.n sum rule (ISelfD= 2).
 Solvent              : Water, Eps=  78.355300 Eps(inf)=   1.777849
 ------------------------------------------------------------------------------
 ------------------------------------------------------------------------------
 Atomic radii for non-electrostatic terms: SMD-CDS.
 ------------------------------------------------------------------------------
 Nuclear repulsion after PCM non-electrostatic terms =      734.9477980815 Hartrees.
 One-electron integrals computed using PRISM.
   1 Symmetry operations used in ECPInt.
 ECPInt:  NShTT=   16110 NPrTT=   49768 LenC2=   14292 LenP2D=   32581.
 LDataN:  DoStor=T MaxTD1= 6 Len=  172
 NBasis=   457 RedAO= T EigKep=  9.26D-06  NBF=   457
 NBsUse=   457 1.00D-06 EigRej= -1.00D+00 NBFU=   457
 ExpMin= 9.52D-02 ExpMax= 2.70D+04 ExpMxC= 9.22D+02 IAcc=3 IRadAn=         5 AccDes= 0.00D+00
 Harris functional with IExCor=  402 and IRadAn=       5 diagonalized for initial guess.
 HarFok:  IExCor=  402 AccDes= 0.00D+00 IRadAn=         5 IDoV= 1 UseB2=F ITyADJ=14
 ICtDFT=  3500011 ScaDFX=  1.000000  1.000000  1.000000  1.000000
 FoFCou: FMM=F IPFlag=           0 FMFlag=      100000 FMFlg1=           0
         NFxFlg=           0 DoJE=T BraDBF=F KetDBF=T FulRan=T
         wScrn=  0.000000 ICntrl=       500 IOpCl=  0 I1Cent=   200000004 NGrid=           0
         NMat0=    1 NMatS0=      1 NMatT0=    0 NMatD0=    1 NMtDS0=    0 NMtDT0=    0
 Petite list used in FoFCou.
 Requested convergence on RMS density matrix=1.00D-08 within 128 cycles.
 Requested convergence on MAX density matrix=1.00D-06.
 Requested convergence on             energy=1.00D-06.
 No special actions if energy rises.
 Inv3:  Mode=1 IEnd=     9915372.
 Iteration    1 A*A^-1 deviation from unit magnitude is 2.89D-15 for    796.
 Iteration    1 A*A^-1 deviation from orthogonality  is 2.05D-15 for   1120    259.
 Iteration    1 A^-1*A deviation from unit magnitude is 3.33D-15 for   1626.
 Iteration    1 A^-1*A deviation from orthogonality  is 8.26D-15 for    599    558.
 Error on total polarization charges =  0.05214
 SCF Done:  E(RB3LYP) =  -625.122643250     A.U. after   14 cycles
            NFock= 14  Conv=0.57D-08     -V/T= 2.0052
 SMD-CDS (non-electrostatic) energy       (kcal/mol) =       5.30
 (included in total energy above)

 **********************************************************************

            Population analysis using the SCF Density.

 **********************************************************************

 Orbital symmetries:
       Occupied  (A) (A) (A) (A) (A) (A) (A) (A) (A) (A) (A) (A)
                 (A) (A) (A) (A) (A) (A) (A) (A) (A) (A) (A) (A)
                 (A) (A) (A) (A) (A) (A) (A) (A) (A) (A) (A) (A)
                 (A) (A) (A) (A) (A) (A) (A) (A) (A) (A) (A)
       Virtual   (A) (A) (A) (A) (A) (A) (A) (A) (A) (A) (A) (A)
                 (A) (A) (A) (A) (A) (A) (A) (A) (A) (A) (A) (A)
                 (A) (A) (A) (A) (A) (A) (A) (A) (A) (A) (A) (A)
                 (A) (A) (A) (A) (A) (A) (A) (A) (A) (A) (A) (A)
                 (A) (A) (A) (A) (A) (A) (A) (A) (A) (A) (A) (A)
                 (A) (A) (A) (A) (A) (A) (A) (A) (A) (A) (A) (A)
                 (A) (A) (A) (A) (A) (A) (A) (A) (A) (A) (A) (A)
                 (A) (A) (A) (A) (A) (A) (A) (A) (A) (A) (A) (A)
                 (A) (A) (A) (A) (A) (A) (A) (A) (A) (A) (A) (A)
                 (A) (A) (A) (A) (A) (A) (A) (A) (A) (A) (A) (A)
                 (A) (A) (A) (A) (A) (A) (A) (A) (A) (A) (A) (A)
                 (A) (A) (A) (A) (A) (A) (A) (A) (A) (A) (A) (A)
                 (A) (A) (A) (A) (A) (A) (A) (A) (A) (A) (A) (A)
                 (A) (A) (A) (A) (A) (A) (A) (A) (A) (A) (A) (A)
                 (A) (A) (A) (A) (A) (A) (A) (A) (A) (A) (A) (A)
                 (A) (A) (A) (A) (A) (A) (A) (A) (A) (A) (A) (A)
                 (A) (A) (A) (A) (A) (A) (A) (A) (A) (A) (A) (A)
                 (A) (A) (A) (A) (A) (A) (A) (A) (A) (A) (A) (A)
                 (A) (A) (A) (A) (A) (A) (A) (A) (A) (A) (A) (A)
                 (A) (A) (A) (A) (A) (A) (A) (A) (A) (A) (A) (A)
                 (A) (A) (A) (A) (A) (A) (A) (A) (A) (A) (A) (A)
                 (A) (A) (A) (A) (A) (A) (A) (A) (A) (A) (A) (A)
                 (A) (A) (A) (A) (A) (A) (A) (A) (A) (A) (A) (A)
                 (A) (A) (A) (A) (A) (A) (A) (A) (A) (A) (A) (A)
                 (A) (A) (A) (A) (A) (A) (A) (A) (A) (A) (A) (A)
                 (A) (A) (A) (A) (A) (A) (A) (A) (A) (A) (A) (A)
                 (A) (A) (A) (A) (A) (A) (A) (A) (A) (A) (A) (A)
                 (A) (A) (A) (A) (A) (A) (A) (A) (A) (A) (A) (A)
                 (A) (A) (A) (A) (A) (A) (A) (A) (A) (A) (A) (A)
                 (A) (A) (A) (A) (A) (A) (A) (A) (A) (A) (A) (A)
                 (A) (A) (A) (A) (A) (A) (A) (A) (A) (A) (A) (A)
                 (A) (A) (A) (A) (A) (A) (A) (A) (A) (A) (A) (A)
                 (A) (A) (A) (A) (A) (A) (A) (A) (A) (A) (A) (A)
                 (A) (A) (A) (A) (A) (A) (A) (A) (A) (A) (A) (A)
                 (A) (A)
 The electronic state is 1-A.
 Alpha  occ. eigenvalues --  -19.30058 -19.10171 -14.41530 -14.37182 -14.34667
 Alpha  occ. eigenvalues --  -10.29850 -10.23553 -10.19973 -10.19957 -10.19844
 Alpha  occ. eigenvalues --  -10.19713 -10.19040 -10.19012  -1.23049  -1.05515
 Alpha  occ. eigenvalues --   -0.94944  -0.92987  -0.87587  -0.81010  -0.76447
 Alpha  occ. eigenvalues --   -0.73265  -0.69048  -0.62868  -0.62570  -0.58375
 Alpha  occ. eigenvalues --   -0.57545  -0.53462  -0.53044  -0.50971  -0.47363
 Alpha  occ. eigenvalues --   -0.46805  -0.45682  -0.45133  -0.44572  -0.43582
 Alpha  occ. eigenvalues --   -0.40326  -0.39129  -0.38720  -0.38408  -0.37467
 Alpha  occ. eigenvalues --   -0.34109  -0.31557  -0.30643  -0.27885  -0.27599
 Alpha  occ. eigenvalues --   -0.27394  -0.23807
 Alpha virt. eigenvalues --   -0.12874  -0.02745  -0.00317   0.04337   0.05090
 Alpha virt. eigenvalues --    0.05646   0.06643   0.08267   0.09390   0.09709
 Alpha virt. eigenvalues --    0.10515   0.11306   0.12733   0.12791   0.13389
 Alpha virt. eigenvalues --    0.13801   0.15893   0.17502   0.17989   0.19171
 Alpha virt. eigenvalues --    0.19481   0.19507   0.20701   0.20890   0.22021
 Alpha virt. eigenvalues --    0.23255   0.23720   0.24026   0.24145   0.25282
 Alpha virt. eigenvalues --    0.25635   0.25909   0.27331   0.29064   0.30340
 Alpha virt. eigenvalues --    0.31174   0.31302   0.32072   0.33288   0.34126
 Alpha virt. eigenvalues --    0.35456   0.36135   0.36634   0.36846   0.38096
 Alpha virt. eigenvalues --    0.38733   0.38973   0.39411   0.40705   0.41005
 Alpha virt. eigenvalues --    0.41214   0.42271   0.43053   0.44228   0.44624
 Alpha virt. eigenvalues --    0.46601   0.46769   0.47110   0.47276   0.47638
 Alpha virt. eigenvalues --    0.49065   0.49310   0.50041   0.50407   0.52426
 Alpha virt. eigenvalues --    0.53667   0.55186   0.55206   0.55283   0.57343
 Alpha virt. eigenvalues --    0.57962   0.60562   0.61069   0.61431   0.62639
 Alpha virt. eigenvalues --    0.63760   0.66050   0.66187   0.66371   0.67359
 Alpha virt. eigenvalues --    0.68854   0.70502   0.72454   0.72999   0.74602
 Alpha virt. eigenvalues --    0.75585   0.76351   0.77535   0.78542   0.78879
 Alpha virt. eigenvalues --    0.81246   0.82222   0.83324   0.84335   0.86788
 Alpha virt. eigenvalues --    0.87676   0.88669   0.89352   0.90620   0.92751
 Alpha virt. eigenvalues --    0.95522   0.97477   0.98592   0.99882   1.00351
 Alpha virt. eigenvalues --    1.01368   1.01832   1.03934   1.05109   1.08574
 Alpha virt. eigenvalues --    1.11071   1.12130   1.12646   1.14184   1.17865
 Alpha virt. eigenvalues --    1.18040   1.19839   1.20015   1.20944   1.21267
 Alpha virt. eigenvalues --    1.23549   1.24749   1.27384   1.28165   1.28353
 Alpha virt. eigenvalues --    1.31466   1.32222   1.32639   1.35581   1.37322
 Alpha virt. eigenvalues --    1.37720   1.39349   1.43400   1.44363   1.44746
 Alpha virt. eigenvalues --    1.45857   1.46817   1.47102   1.49685   1.49900
 Alpha virt. eigenvalues --    1.51989   1.52471   1.52654   1.52918   1.54733
 Alpha virt. eigenvalues --    1.55258   1.55756   1.56984   1.57702   1.59680
 Alpha virt. eigenvalues --    1.60734   1.61237   1.64013   1.64627   1.67454
 Alpha virt. eigenvalues --    1.68284   1.69044   1.71750   1.72285   1.72885
 Alpha virt. eigenvalues --    1.73428   1.75911   1.78386   1.80925   1.82636
 Alpha virt. eigenvalues --    1.83373   1.83838   1.86965   1.88624   1.89638
 Alpha virt. eigenvalues --    1.91413   1.94473   1.94981   1.97864   1.99163
 Alpha virt. eigenvalues --    1.99377   2.00734   2.00930   2.04220   2.06398
 Alpha virt. eigenvalues --    2.08485   2.08701   2.10145   2.10301   2.14988
 Alpha virt. eigenvalues --    2.16579   2.17931   2.18923   2.19850   2.20953
 Alpha virt. eigenvalues --    2.22683   2.23534   2.24224   2.27805   2.28709
 Alpha virt. eigenvalues --    2.29464   2.30310   2.30832   2.34623   2.35505
 Alpha virt. eigenvalues --    2.36830   2.41643   2.43050   2.44365   2.47854
 Alpha virt. eigenvalues --    2.50196   2.50693   2.52108   2.52878   2.53561
 Alpha virt. eigenvalues --    2.55026   2.56485   2.57156   2.58580   2.60009
 Alpha virt. eigenvalues --    2.61401   2.62801   2.63462   2.64645   2.65979
 Alpha virt. eigenvalues --    2.66252   2.67159   2.69928   2.71711   2.72537
 Alpha virt. eigenvalues --    2.72658   2.73146   2.75900   2.77498   2.80761
 Alpha virt. eigenvalues --    2.80780   2.81326   2.82771   2.84632   2.85397
 Alpha virt. eigenvalues --    2.87825   2.87997   2.88013   2.90339   2.91213
 Alpha virt. eigenvalues --    2.92711   2.93649   2.96529   2.96903   2.99163
 Alpha virt. eigenvalues --    3.01895   3.04217   3.05231   3.06923   3.09166
 Alpha virt. eigenvalues --    3.09298   3.11016   3.11326   3.12527   3.12675
 Alpha virt. eigenvalues --    3.13560   3.14051   3.15087   3.15162   3.17327
 Alpha virt. eigenvalues --    3.18731   3.21195   3.21379   3.22258   3.22912
 Alpha virt. eigenvalues --    3.24525   3.25921   3.26763   3.27996   3.28216
 Alpha virt. eigenvalues --    3.31610   3.32068   3.32585   3.32847   3.34902
 Alpha virt. eigenvalues --    3.36658   3.37362   3.40789   3.43048   3.44171
 Alpha virt. eigenvalues --    3.46046   3.46516   3.48292   3.48726   3.49999
 Alpha virt. eigenvalues --    3.50669   3.54815   3.55674   3.58704   3.63318
 Alpha virt. eigenvalues --    3.65112   3.65367   3.66113   3.68125   3.68321
 Alpha virt. eigenvalues --    3.71328   3.76368   3.77298   3.80356   3.81200
 Alpha virt. eigenvalues --    3.85626   3.88579   3.89747   3.90157   3.93664
 Alpha virt. eigenvalues --    3.94851   3.96511   3.97811   3.99855   4.02422
 Alpha virt. eigenvalues --    4.05904   4.05977   4.07031   4.08318   4.09189
 Alpha virt. eigenvalues --    4.12344   4.16207   4.16845   4.17639   4.18466
 Alpha virt. eigenvalues --    4.19174   4.21972   4.22822   4.25727   4.30425
 Alpha virt. eigenvalues --    4.32292   4.33064   4.36820   4.46895   4.48112
 Alpha virt. eigenvalues --    4.48389   4.53136   4.54461   4.57133   4.60778
 Alpha virt. eigenvalues --    4.64510   4.68491   4.68994   4.69266   4.73810
 Alpha virt. eigenvalues --    4.77841   4.79586   4.79875   4.80282   4.84238
 Alpha virt. eigenvalues --    4.88693   4.90801   4.92793   4.93588   4.97780
 Alpha virt. eigenvalues --    4.99184   4.99438   5.04396   5.06647   5.08027
 Alpha virt. eigenvalues --    5.09103   5.11432   5.13143   5.14790   5.18192
 Alpha virt. eigenvalues --    5.21466   5.22440   5.27002   5.29939   5.32234
 Alpha virt. eigenvalues --    5.33787   5.35033   5.41288   5.42845   5.53247
 Alpha virt. eigenvalues --    5.54732   5.58857   5.59556   5.63399   5.67291
 Alpha virt. eigenvalues --    5.68747   5.85897   5.90056   5.93981   5.94845
 Alpha virt. eigenvalues --    6.12433   6.21598   6.29593   6.36747   6.52680
 Alpha virt. eigenvalues --    6.53435   6.55942   6.71561   6.80253   6.80331
 Alpha virt. eigenvalues --    6.81134   7.02128   7.03888   7.22762   7.30568
 Alpha virt. eigenvalues --    7.44121   7.84231  22.09791  22.35540  22.52056
 Alpha virt. eigenvalues --   22.52118  22.61995  22.73990  23.10729  23.36550
 Alpha virt. eigenvalues --   32.11305  32.23433  32.37956  43.84323  44.30394
          Condensed to atoms (all electrons):
               1          2          3          4          5          6
     1  C    4.854081   0.259337  -0.049696   0.002419   0.005002  -0.000069
     2  N    0.259337   6.626038   0.418528  -0.125273  -0.140251   0.003945
     3  C   -0.049696   0.418528   4.272922   0.667303   0.393096  -0.021118
     4  O    0.002419  -0.125273   0.667303   8.101733  -0.098066  -0.016010
     5  N    0.005002  -0.140251   0.393096  -0.098066   7.106035   0.095577
     6  O   -0.000069   0.003945  -0.021118  -0.016010   0.095577   7.742290
     7  N    0.000007  -0.000387  -0.007085  -0.000528  -0.080051   0.181940
     8  C   -0.000007   0.000535   0.002479   0.001013  -0.013694  -0.043201
     9  C   -0.000001   0.000030   0.000196   0.000043   0.006743  -0.002271
    10  C   -0.000000  -0.000003  -0.000097  -0.000002  -0.001934   0.000978
    11  C    0.000000   0.000004   0.000086   0.000001   0.002112  -0.000740
    12  C   -0.000001  -0.000137  -0.000706  -0.000027  -0.018959   0.004561
    13  C   -0.000036  -0.001229  -0.001740  -0.000409  -0.009514  -0.018522
    14  H    0.416685  -0.049617  -0.005589   0.005128   0.000252   0.000007
    15  H    0.413071  -0.046108  -0.008138   0.006665   0.000373   0.000006
    16  H    0.393931  -0.027273   0.009206   0.001806   0.000523   0.000007
    17  H   -0.029495   0.365588  -0.027711   0.004673   0.004136  -0.000059
    18  H   -0.000000   0.000001  -0.000001   0.000003   0.000318  -0.001342
    19  H    0.000000  -0.000000  -0.000000  -0.000000  -0.000005   0.000012
    20  H    0.000000   0.000000   0.000000   0.000000   0.000013  -0.000003
    21  H   -0.000000   0.000000  -0.000021  -0.000000  -0.000424   0.000037
    22  H    0.000028   0.000784  -0.000721   0.000190   0.024611  -0.005048
               7          8          9         10         11         12
     1  C    0.000007  -0.000007  -0.000001  -0.000000   0.000000  -0.000001
     2  N   -0.000387   0.000535   0.000030  -0.000003   0.000004  -0.000137
     3  C   -0.007085   0.002479   0.000196  -0.000097   0.000086  -0.000706
     4  O   -0.000528   0.001013   0.000043  -0.000002   0.000001  -0.000027
     5  N   -0.080051  -0.013694   0.006743  -0.001934   0.002112  -0.018959
     6  O    0.181940  -0.043201  -0.002271   0.000978  -0.000740   0.004561
     7  N    6.691068   0.413482  -0.040217   0.002396  -0.002478   0.014582
     8  C    0.413482   4.958544   0.307528   0.067695  -0.105660   0.104597
     9  C   -0.040217   0.307528   5.068974   0.408903   0.027921  -0.110218
    10  C    0.002396   0.067695   0.408903   5.028981   0.379114   0.048960
    11  C   -0.002478  -0.105660   0.027921   0.379114   4.975563   0.380290
    12  C    0.014582   0.104597  -0.110218   0.048960   0.380290   5.157131
    13  C   -0.082549   0.221342   0.091382  -0.132682   0.067673   0.251449
    14  H   -0.000001  -0.000002  -0.000000   0.000000  -0.000000   0.000000
    15  H    0.000000  -0.000002  -0.000000   0.000000  -0.000000   0.000000
    16  H   -0.000000  -0.000000   0.000000   0.000000  -0.000000   0.000001
    17  H   -0.000003  -0.000123  -0.000010   0.000000   0.000000   0.000043
    18  H    0.013849  -0.069852   0.438211  -0.048759   0.012147  -0.005871
    19  H   -0.000085   0.013571  -0.054148   0.442528  -0.052240   0.011760
    20  H    0.000002  -0.004899   0.011348  -0.051107   0.435368  -0.053406
    21  H   -0.000223   0.006413  -0.001799   0.008519  -0.043626   0.429692
    22  H   -0.006065  -0.028656   0.006015  -0.002655   0.006601  -0.038068
              13         14         15         16         17         18
     1  C   -0.000036   0.416685   0.413071   0.393931  -0.029495  -0.000000
     2  N   -0.001229  -0.049617  -0.046108  -0.027273   0.365588   0.000001
     3  C   -0.001740  -0.005589  -0.008138   0.009206  -0.027711  -0.000001
     4  O   -0.000409   0.005128   0.006665   0.001806   0.004673   0.000003
     5  N   -0.009514   0.000252   0.000373   0.000523   0.004136   0.000318
     6  O   -0.018522   0.000007   0.000006   0.000007  -0.000059  -0.001342
     7  N   -0.082549  -0.000001   0.000000  -0.000000  -0.000003   0.013849
     8  C    0.221342  -0.000002  -0.000002  -0.000000  -0.000123  -0.069852
     9  C    0.091382  -0.000000  -0.000000   0.000000  -0.000010   0.438211
    10  C   -0.132682   0.000000   0.000000   0.000000   0.000000  -0.048759
    11  C    0.067673  -0.000000  -0.000000  -0.000000   0.000000   0.012147
    12  C    0.251449   0.000000   0.000000   0.000001   0.000043  -0.005871
    13  C    5.351223   0.000004   0.000008   0.000001  -0.000119   0.017162
    14  H    0.000004   0.556409  -0.044819  -0.023091   0.002456  -0.000000
    15  H    0.000008  -0.044819   0.554845  -0.021889   0.003551  -0.000000
    16  H    0.000001  -0.023091  -0.021889   0.520425  -0.008216  -0.000000
    17  H   -0.000119   0.002456   0.003551  -0.008216   0.401895  -0.000000
    18  H    0.017162  -0.000000  -0.000000  -0.000000  -0.000000   0.493437
    19  H   -0.005699   0.000000   0.000000  -0.000000   0.000000  -0.007681
    20  H    0.014118  -0.000000  -0.000000  -0.000000   0.000000  -0.000064
    21  H   -0.043332   0.000000   0.000000   0.000000  -0.000004   0.000058
    22  H    0.418717   0.000001  -0.000009   0.000002   0.000558   0.000015
              19         20         21         22
     1  C    0.000000   0.000000  -0.000000   0.000028
     2  N   -0.000000   0.000000   0.000000   0.000784
     3  C   -0.000000   0.000000  -0.000021  -0.000721
     4  O   -0.000000   0.000000  -0.000000   0.000190
     5  N   -0.000005   0.000013  -0.000424   0.024611
     6  O    0.000012  -0.000003   0.000037  -0.005048
     7  N   -0.000085   0.000002  -0.000223  -0.006065
     8  C    0.013571  -0.004899   0.006413  -0.028656
     9  C   -0.054148   0.011348  -0.001799   0.006015
    10  C    0.442528  -0.051107   0.008519  -0.002655
    11  C   -0.052240   0.435368  -0.043626   0.006601
    12  C    0.011760  -0.053406   0.429692  -0.038068
    13  C   -0.005699   0.014118  -0.043332   0.418717
    14  H    0.000000  -0.000000   0.000000   0.000001
    15  H    0.000000  -0.000000   0.000000  -0.000009
    16  H   -0.000000  -0.000000   0.000000   0.000002
    17  H    0.000000   0.000000  -0.000004   0.000558
    18  H   -0.007681  -0.000064   0.000058   0.000015
    19  H    0.494716  -0.005797  -0.000145   0.000004
    20  H   -0.005797   0.492558  -0.005982   0.000021
    21  H   -0.000145  -0.005982   0.492547  -0.004270
    22  H    0.000004   0.000021  -0.004270   0.430178
 Mulliken charges:
               1
     1  C   -0.265256
     2  N   -0.284513
     3  C    0.358809
     4  O   -0.550661
     5  N   -0.275892
     6  O    0.079024
     7  N   -0.097654
     8  C    0.168895
     9  C   -0.158628
    10  C   -0.150833
    11  C   -0.082135
    12  C   -0.175670
    13  C   -0.137249
    14  H    0.142177
    15  H    0.142446
    16  H    0.154567
    17  H    0.282840
    18  H    0.158371
    19  H    0.163209
    20  H    0.167829
    21  H    0.162559
    22  H    0.197766
 Sum of Mulliken charges =  -0.00000
 Mulliken charges with hydrogens summed into heavy atoms:
               1
     1  C    0.173933
     2  N   -0.001673
     3  C    0.358809
     4  O   -0.550661
     5  N   -0.275892
     6  O    0.079024
     7  N   -0.097654
     8  C    0.168895
     9  C   -0.000257
    10  C    0.012376
    11  C    0.085694
    12  C   -0.013110
    13  C    0.060516
 Electronic spatial extent (au):  <R**2>=           3394.8758
 Charge=             -0.0000 electrons
 Dipole moment (field-independent basis, Debye):
    X=              5.4921    Y=              7.4911    Z=              0.1109  Tot=              9.2894
 Quadrupole moment (field-independent basis, Debye-Ang):
   XX=            -56.3457   YY=            -72.7313   ZZ=            -78.1774
   XY=            -16.4752   XZ=             -0.3301   YZ=             -0.0121
 Traceless Quadrupole moment (field-independent basis, Debye-Ang):
   XX=             12.7391   YY=             -3.6465   ZZ=             -9.0926
   XY=            -16.4752   XZ=             -0.3301   YZ=             -0.0121
 Octapole moment (field-independent basis, Debye-Ang**2):
  XXX=             55.8618  YYY=             32.7066  ZZZ=              0.1085  XYY=             12.7497
  XXY=             70.8077  XXZ=              1.1511  XZZ=            -17.2131  YZZ=             -4.7878
  YYZ=              0.2038  XYZ=             -0.3232
 Hexadecapole moment (field-independent basis, Debye-Ang**3):
 XXXX=          -3215.3487 YYYY=           -599.8420 ZZZZ=            -89.2645 XXXY=           -207.2393
 XXXZ=             -2.2117 YYYX=            -41.2643 YYYZ=             -0.3030 ZZZX=             -0.5260
 ZZZY=              0.2599 XXYY=           -677.1351 XXZZ=           -689.0135 YYZZ=           -129.0964
 XXYZ=             -0.4511 YYXZ=             -0.7841 ZZXY=             -0.5706
 N-N= 7.349477980815D+02 E-N=-2.929258985775D+03  KE= 6.219186023066D+02

 Test job not archived.
 1\1\GINC-D-18-4-4\SP\RB3LYP\def2TZVP\C8H9N3O2\TSTUYVER\12-Jun-2022\0\\
 # B3LYP def2tzvp EmpiricalDispersion=GD3BJ IOp(2/9=2000) scrf=(smd,sol
 vent=Water)\\r1_C8H9N3O2_sp_g16\\0,1\C,0,-4.63724712,0.98654049,0.0221
 8183\N,0,-3.19176212,0.92842049,0.01688183\C,0,-2.53345012,-0.25141851
 ,-0.03841117\O,0,-3.09704512,-1.34754551,-0.10473417\N,0,-1.14197112,-
 0.03601551,-0.01250817\O,0,-0.56990712,-1.24150451,-0.05950217\N,0,0.6
 9640088,-1.44003951,-0.05360217\C,0,1.62177788,-0.41918751,-0.00180917
 \C,0,2.94657588,-0.94301251,-0.00684217\C,0,4.04423988,-0.10054851,0.0
 3654283\C,0,3.85391288,1.28893349,0.08575283\C,0,2.55992588,1.81925949
 ,0.09164983\C,0,1.44052888,0.99098349,0.04943883\H,0,-5.06039112,0.488
 29749,0.91033983\H,0,-5.05952812,0.49678549,-0.86989917\H,0,-4.9502581
 2,2.03752549,0.02738783\H,0,-2.65134612,1.78383949,0.09139683\H,0,3.06
 879788,-2.02632851,-0.04661517\H,0,5.05299188,-0.51789051,0.03185783\H
 ,0,4.71740788,1.95691849,0.11937283\H,0,2.41644888,2.90112049,0.130266
 83\H,0,0.44335588,1.41111849,0.05494283\\Version=ES64L-G16RevB.01\Stat
 e=1-A\HF=-625.1226433\RMSD=5.664e-09\Dipole=2.071943,3.0043732,0.19447
 86\Quadrupole=10.1899027,-3.4235408,-6.7663618,-11.8489485,-0.6364939,
 0.0366186\PG=C01 [X(C8H9N3O2)]\\@


 We find comfort among those who agree with us -- growth among those who don't.
 -- Frank A. Clark
 Job cpu time:       0 days  0 hours 27 minutes 54.5 seconds.
 Elapsed time:       0 days  0 hours  6 minutes 59.1 seconds.
 File lengths (MBytes):  RWF=    167 Int=      0 D2E=      0 Chk=     14 Scr=      1
 Normal termination of Gaussian 16 at Sun Jun 12 15:50:46 2022.
