 Entering Gaussian System, Link 0=/home/gridsan/groups/RMG/Software/gaussian//g16/g16
 Input=TS_4cGKps_ll_ad_4-18_6-13_sp_g16.com
 Output=TS_4cGKps_ll_ad_4-18_6-13_sp_g16.log
 Initial command:
 /home/gridsan/groups/RMG/Software/gaussian//g16/l1.exe "/state/partition1/slurm_tmp/18070680.4294967291.0/tmpp9k3477s/Gau-56326.inp" -scrdir="/state/partition1/slurm_tmp/18070680.4294967291.0/tmpp9k3477s/"
 Entering Link 1 = /home/gridsan/groups/RMG/Software/gaussian//g16/l1.exe PID=     56328.
  
 Copyright (c) 1988-2017, Gaussian, Inc.  All Rights Reserved.
  
 This is part of the Gaussian(R) 16 program.  It is based on
 the Gaussian(R) 09 system (copyright 2009, Gaussian, Inc.),
 the Gaussian(R) 03 system (copyright 2003, Gaussian, Inc.),
 the Gaussian(R) 98 system (copyright 1998, Gaussian, Inc.),
 the Gaussian(R) 94 system (copyright 1995, Gaussian, Inc.),
 the Gaussian 92(TM) system (copyright 1992, Gaussian, Inc.),
 the Gaussian 90(TM) system (copyright 1990, Gaussian, Inc.),
 the Gaussian 88(TM) system (copyright 1988, Gaussian, Inc.),
 the Gaussian 86(TM) system (copyright 1986, Carnegie Mellon
 University), and the Gaussian 82(TM) system (copyright 1983,
 Carnegie Mellon University). Gaussian is a federally registered
 trademark of Gaussian, Inc.
  
 This software contains proprietary and confidential information,
 including trade secrets, belonging to Gaussian, Inc.
  
 This software is provided under written license and may be
 used, copied, transmitted, or stored only in accord with that
 written license.
  
 The following legend is applicable only to US Government
 contracts under FAR:
  
                    RESTRICTED RIGHTS LEGEND
  
 Use, reproduction and disclosure by the US Government is
 subject to restrictions as set forth in subparagraphs (a)
 and (c) of the Commercial Computer Software - Restricted
 Rights clause in FAR 52.227-19.
  
 Gaussian, Inc.
 340 Quinnipiac St., Bldg. 40, Wallingford CT 06492
  
  
 ---------------------------------------------------------------
 Warning -- This program may not be used in any manner that
 competes with the business of Gaussian, Inc. or will provide
 assistance to any competitor of Gaussian, Inc.  The licensee
 of this program is prohibited from giving any competitor of
 Gaussian, Inc. access to this program.  By using this program,
 the user acknowledges that Gaussian, Inc. is engaged in the
 business of creating and licensing software in the field of
 computational chemistry and represents and warrants to the
 licensee that it is not a competitor of Gaussian, Inc. and that
 it will not use this program in any manner prohibited above.
 ---------------------------------------------------------------
  

 Cite this work as:
 Gaussian 16, Revision B.01,
 M. J. Frisch, G. W. Trucks, H. B. Schlegel, G. E. Scuseria, 
 M. A. Robb, J. R. Cheeseman, G. Scalmani, V. Barone, 
 G. A. Petersson, H. Nakatsuji, X. Li, M. Caricato, A. V. Marenich, 
 J. Bloino, B. G. Janesko, R. Gomperts, B. Mennucci, H. P. Hratchian, 
 J. V. Ortiz, A. F. Izmaylov, J. L. Sonnenberg, D. Williams-Young, 
 F. Ding, F. Lipparini, F. Egidi, J. Goings, B. Peng, A. Petrone, 
 T. Henderson, D. Ranasinghe, V. G. Zakrzewski, J. Gao, N. Rega, 
 G. Zheng, W. Liang, M. Hada, M. Ehara, K. Toyota, R. Fukuda, 
 J. Hasegawa, M. Ishida, T. Nakajima, Y. Honda, O. Kitao, H. Nakai, 
 T. Vreven, K. Throssell, J. A. Montgomery, Jr., J. E. Peralta, 
 F. Ogliaro, M. J. Bearpark, J. J. Heyd, E. N. Brothers, K. N. Kudin, 
 V. N. Staroverov, T. A. Keith, R. Kobayashi, J. Normand, 
 K. Raghavachari, A. P. Rendell, J. C. Burant, S. S. Iyengar, 
 J. Tomasi, M. Cossi, J. M. Millam, M. Klene, C. Adamo, R. Cammi, 
 J. W. Ochterski, R. L. Martin, K. Morokuma, O. Farkas, 
 J. B. Foresman, and D. J. Fox, Gaussian, Inc., Wallingford CT, 2016.
 
 ******************************************
 Gaussian 16:  ES64L-G16RevB.01 20-Dec-2017
                30-May-2022 
 ******************************************
 %mem=15199MB
 %nprocshared=4
 Will use up to    4 processors via shared memory.
 ----------------------------------------------------------------------
 # B3LYP def2tzvp EmpiricalDispersion=GD3BJ IOp(2/9=2000) scrf=(smd,sol
 vent=Water)
 ----------------------------------------------------------------------
 1/38=1,172=1/1;
 2/9=2000,12=2,17=6,18=5,40=1/2;
 3/5=44,7=101,11=2,25=1,30=1,70=32201,72=1,74=-5,124=41/1,2,3;
 4//1;
 5/5=2,38=5,53=1/2;
 6/7=2,8=2,9=2,10=2,28=1/1;
 99/5=1,9=1/99;
 --------------------------------
 TS_4cGKps_ll_ad_4-18_6-13_sp_g16
 --------------------------------
 Symbolic Z-matrix:
 Charge =  0 Multiplicity = 1
 C                    -3.82588   2.81967   2.02109 
 N                    -2.50728   2.33917   1.64246 
 C                    -2.2989    1.75819   0.45865 
 O                    -3.1348    1.57336  -0.42266 
 C                    -0.9211    1.24344   0.25161 
 N                     0.21742   1.54303   0.06863 
 C                     1.46045   1.18465  -0.20664 
 C                     2.42295   1.15249   0.93039 
 C                     1.83116   1.26663   2.31075 
 O                     3.62259   1.01261   0.74304 
 C                     1.78899   1.16788  -1.66972 
 C                     3.21042   0.95652  -2.09966 
 O                     0.88334   1.33688  -2.47525 
 C                     0.52805  -1.2044   -0.0718 
 C                     1.70124  -2.06852  -0.23621 
 F                     2.65661  -1.80866   0.67383 
 F                     1.38007  -3.36877  -0.10322 
 F                     2.25498  -1.92465  -1.45492 
 C                    -0.68204  -0.99047   0.06688 
 C                    -2.09938  -1.29466   0.24482 
 O                    -2.6574   -1.27917   1.32282 
 O                    -2.68688  -1.55765  -0.91797 
 C                    -4.10974  -1.77608  -0.88166 
 H                    -3.79943   3.11751   3.07533 
 H                    -4.57322   2.02382   1.88683 
 H                    -4.12494   3.68493   1.40947 
 H                    -1.72355   2.46094   2.27953 
 H                     1.31416   2.2318    2.43328 
 H                     2.63214   1.17864   3.05503 
 H                     1.08352   0.47306   2.46889 
 H                     3.23073   0.83555  -3.19064 
 H                     3.66439   0.09151  -1.60229 
 H                     3.80645   1.83733  -1.81111 
 H                    -4.61363  -0.88457  -0.4831 
 H                    -4.40906  -1.95293  -1.92056 
 H                    -4.34776  -2.65021  -0.2598 
 
                          Input orientation:                          
 ---------------------------------------------------------------------
 Center     Atomic      Atomic             Coordinates (Angstroms)
 Number     Number       Type             X           Y           Z
 ---------------------------------------------------------------------
      1          6           0       -3.825876    2.819672    2.021092
      2          7           0       -2.507280    2.339171    1.642456
      3          6           0       -2.298897    1.758187    0.458648
      4          8           0       -3.134797    1.573361   -0.422663
      5          6           0       -0.921102    1.243442    0.251605
      6          7           0        0.217422    1.543025    0.068628
      7          6           0        1.460452    1.184653   -0.206640
      8          6           0        2.422951    1.152488    0.930390
      9          6           0        1.831163    1.266633    2.310745
     10          8           0        3.622593    1.012610    0.743040
     11          6           0        1.788993    1.167881   -1.669722
     12          6           0        3.210418    0.956518   -2.099661
     13          8           0        0.883336    1.336875   -2.475249
     14          6           0        0.528051   -1.204398   -0.071800
     15          6           0        1.701236   -2.068519   -0.236213
     16          9           0        2.656610   -1.808658    0.673834
     17          9           0        1.380071   -3.368773   -0.103218
     18          9           0        2.254979   -1.924652   -1.454917
     19          6           0       -0.682035   -0.990471    0.066875
     20          6           0       -2.099378   -1.294661    0.244815
     21          8           0       -2.657397   -1.279166    1.322822
     22          8           0       -2.686878   -1.557646   -0.917972
     23          6           0       -4.109739   -1.776077   -0.881656
     24          1           0       -3.799430    3.117509    3.075331
     25          1           0       -4.573218    2.023820    1.886825
     26          1           0       -4.124943    3.684929    1.409468
     27          1           0       -1.723546    2.460942    2.279530
     28          1           0        1.314157    2.231795    2.433283
     29          1           0        2.632138    1.178644    3.055028
     30          1           0        1.083518    0.473061    2.468888
     31          1           0        3.230731    0.835550   -3.190636
     32          1           0        3.664394    0.091514   -1.602292
     33          1           0        3.806451    1.837334   -1.811106
     34          1           0       -4.613628   -0.884572   -0.483099
     35          1           0       -4.409061   -1.952930   -1.920563
     36          1           0       -4.347764   -2.650209   -0.259803
 ---------------------------------------------------------------------
                    Distance matrix (angstroms):
                    1          2          3          4          5
     1  C    0.000000
     2  N    1.453596   0.000000
     3  C    2.428919   1.335053   0.000000
     4  O    2.828926   2.290188   1.228657   0.000000
     5  C    3.748773   2.377194   1.485311   2.337505   0.000000
     6  N    4.667998   3.245733   2.555440   3.388165   1.191414
     7  C    5.965010   4.527137   3.860603   4.616717   2.425952
     8  C    6.558733   5.120784   4.783854   5.735543   3.413460
     9  C    5.873493   4.518743   4.552942   5.676827   3.437377
    10  O    7.770366   6.335934   5.975015   6.880089   4.576020
    11  C    6.919341   5.549811   4.646425   5.095417   3.322924
    12  C    8.364292   6.971889   6.127003   6.592008   4.762377
    13  O    6.677758   5.427372   4.348777   4.518233   3.271156
    14  C    6.287290   4.970794   4.129155   4.610369   2.862963
    15  C    7.716139   6.377204   5.579209   6.056837   4.252494
    16  F    8.078315   6.693913   6.109479   6.795642   4.721611
    17  F    8.361305   7.123166   6.335315   6.701550   5.166607
    18  F    8.459790   7.103029   6.161398   6.507790   4.799638
    19  C    5.312240   4.111021   3.212919   3.581749   2.254251
    20  C    4.802467   3.914654   3.066825   3.121405   2.798276
    21  O    4.318958   3.635528   3.178181   3.378097   3.244345
    22  O    5.394101   4.666179   3.611144   3.201432   3.511690
    23  C    5.443109   5.086677   4.191251   3.518511   4.535326
    24  H    1.095822   2.080527   3.308532   3.880991   4.446384
    25  H    1.099967   2.104106   2.698664   2.757844   4.076872
    26  H    1.100997   2.117116   2.819723   2.965774   4.191193
    27  H    2.148318   1.017315   2.034823   3.175103   2.497739
    28  H    5.189936   3.903885   4.144593   5.327584   3.276117
    29  H    6.742992   5.454888   5.602871   6.745938   4.526466
    30  H    5.459785   4.130277   4.139244   5.231244   3.086800
    31  H    8.994140   7.651433   6.689194   6.980400   5.408615
    32  H    8.756478   7.325975   6.525804   7.058073   5.078449
    33  H    8.596694   7.214023   6.514086   7.083670   5.192036
    34  H    4.540149   4.398546   3.637175   2.869151   4.324694
    35  H    6.217273   5.893556   4.887313   4.037596   5.205859
    36  H    5.949323   5.647998   4.914060   4.397312   5.211916
                    6          7          8          9         10
     6  N    0.000000
     7  C    1.322621   0.000000
     8  C    2.399898   1.490059   0.000000
     9  C    2.776264   2.545854   1.506195   0.000000
    10  O    3.511604   2.367772   1.222214   2.394044   0.000000
    11  C    2.373274   1.499610   2.676326   3.981915   3.034406
    12  C    3.742124   2.588041   3.136832   4.631436   2.872975
    13  O    2.637660   2.345809   3.742030   4.879452   4.238639
    14  C    2.768491   2.568096   3.185897   3.671596   3.892978
    15  C    3.916361   3.262205   3.500960   4.198466   3.760838
    16  F    4.189235   3.341547   2.981410   3.580259   2.982862
    17  F    5.050450   4.555310   4.753709   5.245731   4.994154
    18  F    4.300885   3.443435   3.897011   4.954203   3.915213
    19  C    2.688425   3.065326   3.870254   4.055322   4.795764
    20  C    3.667569   4.361559   5.187486   5.126153   6.189724
    21  O    4.219283   5.036501   5.645961   5.253975   6.710191
    22  O    4.361479   5.022603   6.072201   6.230077   7.012460
    23  C    5.535684   6.344178   7.384852   7.398907   8.378865
    24  H    5.258742   6.494122   6.868778   5.976112   8.059566
    25  H    5.146575   6.441426   7.114799   6.462905   8.336792
    26  H    5.024116   6.329283   7.036881   6.491198   8.222514
    27  H    3.081885   4.236484   4.552545   3.750107   5.748014
    28  H    2.696076   2.843783   2.157085   1.101748   3.110018
    29  H    3.857747   3.465741   2.135071   1.096932   2.520686
    30  H    2.766983   2.794082   2.150041   1.101698   3.117141
    31  H    4.494814   3.487118   4.211391   5.692962   3.957109
    32  H    4.096398   2.828455   3.013524   4.478113   2.520069
    33  H    4.062160   2.916164   3.146250   4.606204   2.690285
    34  H    5.434765   6.422816   7.460631   7.346331   8.540378
    35  H    6.130492   6.872637   8.027948   8.198167   8.966419
    36  H    6.207415   6.960199   7.856185   7.754257   8.828846
                   11         12         13         14         15
    11  C    0.000000
    12  C    1.499990   0.000000
    13  O    1.223784   2.387687   0.000000
    14  C    3.125866   3.997108   3.515802   0.000000
    15  C    3.540753   3.860171   4.156796   1.466322   0.000000
    16  F    3.886489   3.955398   4.791201   2.334923   1.344787
    17  F    4.816885   5.103342   5.293052   2.326251   1.345918
    18  F    3.134812   3.103176   3.682396   2.326813   1.346317
    19  C    3.712173   4.861670   3.785409   1.236650   2.633255
    20  C    4.984877   6.225617   4.818746   2.647976   3.908313
    21  O    5.891837   7.151428   5.814276   3.478166   4.695886
    22  O    5.294058   6.518858   4.852813   3.343136   4.470048
    23  C    6.639501   7.907927   6.095966   4.742550   5.854020
    24  H    7.585977   8.977104   7.477158   6.878256   8.253395
    25  H    7.338895   8.810005   7.019513   6.346696   7.786097
    26  H    7.126821   8.577047   6.759234   6.910139   8.351933
    27  H    5.441188   6.766432   5.537805   4.902363   6.210806
    28  H    4.265212   5.076388   5.008011   4.324445   5.076292
    29  H    4.799403   5.191779   5.802354   4.459050   4.716239
    30  H    4.255416   5.062517   5.023021   3.094755   3.762815
    31  H    2.121846   1.097849   2.504669   4.603586   4.416060
    32  H    2.163387   1.096222   3.169742   3.722693   3.222717
    33  H    2.130327   1.101978   3.039103   4.798461   4.708281
    34  H    6.827459   8.198694   6.254606   5.168009   6.429634
    35  H    6.943937   8.158028   6.256194   5.324782   6.339253
    36  H    7.363794   8.574361   6.940421   5.089134   6.076950
                   16         17         18         19         20
    16  F    0.000000
    17  F    2.160398   0.000000
    18  F    2.169411   2.162878   0.000000
    19  C    3.490613   3.152385   3.437237   0.000000
    20  C    4.802882   4.065665   4.716609   1.460498   0.000000
    21  O    5.379611   4.764577   5.680134   2.358559   1.213971
    22  O    5.581193   4.525934   4.984471   2.304562   1.329056
    23  C    6.942916   5.768939   6.392209   3.642258   2.354198
    24  H    8.468457   8.888321   9.088586   5.970298   5.510829
    25  H    8.272221   8.275384   8.566326   5.247807   4.452909
    26  H    8.758431   9.074586   8.965239   5.959491   5.500513
    27  H    6.324042   7.021076   7.000585   4.229993   4.287875
    28  H    4.606854   6.148540   5.768821   4.468520   5.373779
    29  H    3.820295   5.676371   5.487467   4.961639   6.033389
    30  H    3.301981   4.632857   4.745271   3.320959   4.266400
    31  H    4.717582   5.534747   3.403458   5.408832   6.689558
    32  H    3.131618   4.408961   2.464365   4.779985   6.209215
    33  H    4.559640   5.992308   4.084908   5.627593   6.993927
    34  H    7.419487   6.499230   7.014553   3.971286   2.649431
    35  H    7.528308   6.230682   6.680348   4.332085   3.233700
    36  H    7.116259   5.774855   6.749144   4.037204   2.673460
                   21         22         23         24         25
    21  O    0.000000
    22  O    2.258225   0.000000
    23  C    2.686250   1.439988   0.000000
    24  H    4.868909   6.248305   6.300891   0.000000
    25  H    3.859817   4.924638   4.724248   1.790936   0.000000
    26  H    5.177204   5.913510   5.922167   1.789699   1.785526
    27  H    3.971873   5.225043   5.799943   2.318119   2.909626
    28  H    5.416014   6.449733   7.514686   5.229291   5.916338
    29  H    6.084451   7.180804   8.347500   6.717490   7.348209
    30  H    4.286982   5.459897   6.576829   5.586059   5.894261
    31  H    7.714491   6.775728   8.126160   9.689832   9.385852
    32  H    7.099303   6.597475   8.027724   9.313725   9.152376
    33  H    7.830416   7.381524   8.751382   9.130473   9.161240
    34  H    2.691448   2.086746   1.098878   5.416825   3.751922
    35  H    3.747243   2.031589   1.095536   7.144226   5.507966
    36  H    2.691060   2.094140   1.098847   6.685085   5.148338
                   26         27         28         29         30
    26  H    0.000000
    27  H    2.832289   0.000000
    28  H    5.722203   3.050211   0.000000
    29  H    7.392393   4.606264   1.797990   0.000000
    30  H    6.210196   3.444871   1.774150   1.799898   0.000000
    31  H    9.131586   7.557081   6.103378   6.283657   6.064003
    32  H    9.091595   7.050718   5.137147   4.892651   4.835391
    33  H    8.757438   6.906740   4.937810   5.048975   5.252995
    34  H    4.970006   5.213171   7.304496   8.323240   6.558572
    35  H    6.554028   6.658456   8.320043   9.172881   7.437818
    36  H    6.555157   6.281608   7.946321   8.623645   6.833696
                   31         32         33         34         35
    31  H    0.000000
    32  H    1.806790   0.000000
    33  H    1.799480   1.763993   0.000000
    34  H    8.474877   8.410172   8.948190   0.000000
    35  H    8.231350   8.334370   9.048355   1.802648   0.000000
    36  H    8.841600   8.574030   9.435879   1.799450   1.802243
                   36
    36  H    0.000000
 Stoichiometry    C13H13F3N2O5
 Framework group  C1[X(C13H13F3N2O5)]
 Deg. of freedom   102
 Full point group                 C1      NOp   1
 Largest Abelian subgroup         C1      NOp   1
 Largest concise Abelian subgroup C1      NOp   1
                         Standard orientation:                         
 ---------------------------------------------------------------------
 Center     Atomic      Atomic             Coordinates (Angstroms)
 Number     Number       Type             X           Y           Z
 ---------------------------------------------------------------------
      1          6           0       -4.492592   -2.292488   -0.652831
      2          7           0       -3.064240   -2.031600   -0.584344
      3          6           0       -2.555811   -1.217446    0.343568
      4          8           0       -3.181836   -0.625263    1.219359
      5          6           0       -1.093314   -0.983120    0.232473
      6          7           0       -0.012648   -1.466616    0.366111
      7          6           0        1.302934   -1.331170    0.381140
      8          6           0        2.046759   -1.815661   -0.815634
      9          6           0        1.216901   -2.159470   -2.024664
     10          8           0        3.266123   -1.899073   -0.814569
     11          6           0        1.874449   -0.998689    1.727118
     12          6           0        3.362979   -0.999390    1.912183
     13          8           0        1.104488   -0.743314    2.643410
     14          6           0        0.804561    1.080475   -0.347359
     15          6           0        2.124129    1.676437   -0.579025
     16          9           0        2.847547    0.979852   -1.473390
     17          9           0        2.023188    2.932055   -1.053082
     18          9           0        2.843256    1.743512    0.557164
     19          6           0       -0.429865    1.109648   -0.279194
     20          6           0       -1.778975    1.660286   -0.377957
     21          8           0       -2.506737    1.482031   -1.333108
     22          8           0       -2.102200    2.345918    0.713750
     23          6           0       -3.447803    2.854966    0.775300
     24          1           0       -4.700620   -2.858245   -1.567965
     25          1           0       -5.051097   -1.345149   -0.676248
     26          1           0       -4.832769   -2.875825    0.216762
     27          1           0       -2.435691   -2.488142   -1.241174
     28          1           0        0.522124   -2.983794   -1.797454
     29          1           0        1.881401   -2.451489   -2.847114
     30          1           0        0.607687   -1.291985   -2.324777
     31          1           0        3.590903   -0.600149    2.909143
     32          1           0        3.872732   -0.420055    1.133579
     33          1           0        3.733282   -2.034140    1.831401
     34          1           0       -4.163877    2.023449    0.717416
     35          1           0       -3.528446    3.363278    1.742417
     36          1           0       -3.628142    3.562335   -0.046023
 ---------------------------------------------------------------------
 Rotational constants (GHZ):           0.3416158           0.2015047           0.1642509
 Standard basis: def2TZVP (5D, 7F)
 There are   906 symmetry adapted cartesian basis functions of A   symmetry.
 There are   791 symmetry adapted basis functions of A   symmetry.
   791 basis functions,  1277 primitive gaussians,   906 cartesian basis functions
    86 alpha electrons       86 beta electrons
       nuclear repulsion energy      2099.2574643354 Hartrees.
 NAtoms=   36 NActive=   36 NUniq=   36 SFac= 1.00D+00 NAtFMM=   60 NAOKFM=F Big=F
 Integral buffers will be    131072 words long.
 Raffenetti 2 integral format.
 Two-electron integral symmetry is turned on.
 Nuclear repulsion after empirical dispersion term =     2099.1836739308 Hartrees.
 ------------------------------------------------------------------------------
 Polarizable Continuum Model (PCM)
 =================================
 Model                : PCM.
 Atomic radii         : SMD-Coulomb.
 Polarization charges : Total charges.
 Charge compensation  : None.
 Solution method      : On-the-fly selection.
 Cavity type          : VdW (van der Waals Surface) (Alpha=1.000).
 Cavity algorithm     : GePol (No added spheres)
                        Default sphere list used, NSphG=   36.
                        Lebedev-Laikov grids with approx.  5.0 points / Ang**2.
                        Smoothing algorithm: York/Karplus (Gamma=1.0000).
                        Polarization charges: spherical gaussians, with
                                              point-specific exponents (IZeta= 3).
                        Self-potential: point-specific (ISelfS= 7).
                        Self-field    : sphere-specific E.n sum rule (ISelfD= 2).
 Solvent              : Water, Eps=  78.355300 Eps(inf)=   1.777849
 ------------------------------------------------------------------------------
 ------------------------------------------------------------------------------
 Atomic radii for non-electrostatic terms: SMD-CDS.
 ------------------------------------------------------------------------------
 Nuclear repulsion after PCM non-electrostatic terms =     2099.2028273661 Hartrees.
 One-electron integrals computed using PRISM.
   1 Symmetry operations used in ECPInt.
 ECPInt:  NShTT=   46665 NPrTT=  145536 LenC2=   40066 LenP2D=   86506.
 LDataN:  DoStor=T MaxTD1= 6 Len=  172
 NBasis=   791 RedAO= T EigKep=  1.04D-05  NBF=   791
 NBsUse=   791 1.00D-06 EigRej= -1.00D+00 NBFU=   791
 ExpMin= 9.52D-02 ExpMax= 3.55D+04 ExpMxC= 1.21D+03 IAcc=3 IRadAn=         5 AccDes= 0.00D+00
 Harris functional with IExCor=  402 and IRadAn=       5 diagonalized for initial guess.
 HarFok:  IExCor=  402 AccDes= 0.00D+00 IRadAn=         5 IDoV= 1 UseB2=F ITyADJ=14
 ICtDFT=  3500011 ScaDFX=  1.000000  1.000000  1.000000  1.000000
 FoFCou: FMM=F IPFlag=           0 FMFlag=      100000 FMFlg1=           0
         NFxFlg=           0 DoJE=T BraDBF=F KetDBF=T FulRan=T
         wScrn=  0.000000 ICntrl=       500 IOpCl=  0 I1Cent=   200000004 NGrid=           0
         NMat0=    1 NMatS0=      1 NMatT0=    0 NMatD0=    1 NMtDS0=    0 NMtDT0=    0
 Petite list used in FoFCou.
 Requested convergence on RMS density matrix=1.00D-08 within 128 cycles.
 Requested convergence on MAX density matrix=1.00D-06.
 Requested convergence on             energy=1.00D-06.
 No special actions if energy rises.
 Inv3:  Mode=1 IEnd=    23218572.
 Iteration    1 A*A^-1 deviation from unit magnitude is 3.11D-15 for   1356.
 Iteration    1 A*A^-1 deviation from orthogonality  is 2.41D-15 for   2412     99.
 Iteration    1 A^-1*A deviation from unit magnitude is 3.11D-15 for    384.
 Iteration    1 A^-1*A deviation from orthogonality  is 3.05D-15 for   2105   1363.
 Error on total polarization charges =  0.05645
 SCF Done:  E(RB3LYP) =  -1288.84892011     A.U. after   14 cycles
            NFock= 14  Conv=0.73D-08     -V/T= 2.0047
 SMD-CDS (non-electrostatic) energy       (kcal/mol) =      12.02
 (included in total energy above)

 **********************************************************************

            Population analysis using the SCF Density.

 **********************************************************************

 Orbital symmetries:
       Occupied  (A) (A) (A) (A) (A) (A) (A) (A) (A) (A) (A) (A)
                 (A) (A) (A) (A) (A) (A) (A) (A) (A) (A) (A) (A)
                 (A) (A) (A) (A) (A) (A) (A) (A) (A) (A) (A) (A)
                 (A) (A) (A) (A) (A) (A) (A) (A) (A) (A) (A) (A)
                 (A) (A) (A) (A) (A) (A) (A) (A) (A) (A) (A) (A)
                 (A) (A) (A) (A) (A) (A) (A) (A) (A) (A) (A) (A)
                 (A) (A) (A) (A) (A) (A) (A) (A) (A) (A) (A) (A)
                 (A) (A)
       Virtual   (A) (A) (A) (A) (A) (A) (A) (A) (A) (A) (A) (A)
                 (A) (A) (A) (A) (A) (A) (A) (A) (A) (A) (A) (A)
                 (A) (A) (A) (A) (A) (A) (A) (A) (A) (A) (A) (A)
                 (A) (A) (A) (A) (A) (A) (A) (A) (A) (A) (A) (A)
                 (A) (A) (A) (A) (A) (A) (A) (A) (A) (A) (A) (A)
                 (A) (A) (A) (A) (A) (A) (A) (A) (A) (A) (A) (A)
                 (A) (A) (A) (A) (A) (A) (A) (A) (A) (A) (A) (A)
                 (A) (A) (A) (A) (A) (A) (A) (A) (A) (A) (A) (A)
                 (A) (A) (A) (A) (A) (A) (A) (A) (A) (A) (A) (A)
                 (A) (A) (A) (A) (A) (A) (A) (A) (A) (A) (A) (A)
                 (A) (A) (A) (A) (A) (A) (A) (A) (A) (A) (A) (A)
                 (A) (A) (A) (A) (A) (A) (A) (A) (A) (A) (A) (A)
                 (A) (A) (A) (A) (A) (A) (A) (A) (A) (A) (A) (A)
                 (A) (A) (A) (A) (A) (A) (A) (A) (A) (A) (A) (A)
                 (A) (A) (A) (A) (A) (A) (A) (A) (A) (A) (A) (A)
                 (A) (A) (A) (A) (A) (A) (A) (A) (A) (A) (A) (A)
                 (A) (A) (A) (A) (A) (A) (A) (A) (A) (A) (A) (A)
                 (A) (A) (A) (A) (A) (A) (A) (A) (A) (A) (A) (A)
                 (A) (A) (A) (A) (A) (A) (A) (A) (A) (A) (A) (A)
                 (A) (A) (A) (A) (A) (A) (A) (A) (A) (A) (A) (A)
                 (A) (A) (A) (A) (A) (A) (A) (A) (A) (A) (A) (A)
                 (A) (A) (A) (A) (A) (A) (A) (A) (A) (A) (A) (A)
                 (A) (A) (A) (A) (A) (A) (A) (A) (A) (A) (A) (A)
                 (A) (A) (A) (A) (A) (A) (A) (A) (A) (A) (A) (A)
                 (A) (A) (A) (A) (A) (A) (A) (A) (A) (A) (A) (A)
                 (A) (A) (A) (A) (A) (A) (A) (A) (A) (A) (A) (A)
                 (A) (A) (A) (A) (A) (A) (A) (A) (A) (A) (A) (A)
                 (A) (A) (A) (A) (A) (A) (A) (A) (A) (A) (A) (A)
                 (A) (A) (A) (A) (A) (A) (A) (A) (A) (A) (A) (A)
                 (A) (A) (A) (A) (A) (A) (A) (A) (A) (A) (A) (A)
                 (A) (A) (A) (A) (A) (A) (A) (A) (A) (A) (A) (A)
                 (A) (A) (A) (A) (A) (A) (A) (A) (A) (A) (A) (A)
                 (A) (A) (A) (A) (A) (A) (A) (A) (A) (A) (A) (A)
                 (A) (A) (A) (A) (A) (A) (A) (A) (A) (A) (A) (A)
                 (A) (A) (A) (A) (A) (A) (A) (A) (A) (A) (A) (A)
                 (A) (A) (A) (A) (A) (A) (A) (A) (A) (A) (A) (A)
                 (A) (A) (A) (A) (A) (A) (A) (A) (A) (A) (A) (A)
                 (A) (A) (A) (A) (A) (A) (A) (A) (A) (A) (A) (A)
                 (A) (A) (A) (A) (A) (A) (A) (A) (A) (A) (A) (A)
                 (A) (A) (A) (A) (A) (A) (A) (A) (A) (A) (A) (A)
                 (A) (A) (A) (A) (A) (A) (A) (A) (A) (A) (A) (A)
                 (A) (A) (A) (A) (A) (A) (A) (A) (A) (A) (A) (A)
                 (A) (A) (A) (A) (A) (A) (A) (A) (A) (A) (A) (A)
                 (A) (A) (A) (A) (A) (A) (A) (A) (A) (A) (A) (A)
                 (A) (A) (A) (A) (A) (A) (A) (A) (A) (A) (A) (A)
                 (A) (A) (A) (A) (A) (A) (A) (A) (A) (A) (A) (A)
                 (A) (A) (A) (A) (A) (A) (A) (A) (A) (A) (A) (A)
                 (A) (A) (A) (A) (A) (A) (A) (A) (A) (A) (A) (A)
                 (A) (A) (A) (A) (A) (A) (A) (A) (A) (A) (A) (A)
                 (A) (A) (A) (A) (A) (A) (A) (A) (A) (A) (A) (A)
                 (A) (A) (A) (A) (A) (A) (A) (A) (A) (A) (A) (A)
                 (A) (A) (A) (A) (A) (A) (A) (A) (A) (A) (A) (A)
                 (A) (A) (A) (A) (A) (A) (A) (A) (A) (A) (A) (A)
                 (A) (A) (A) (A) (A) (A) (A) (A) (A) (A) (A) (A)
                 (A) (A) (A) (A) (A) (A) (A) (A) (A) (A) (A) (A)
                 (A) (A) (A) (A) (A) (A) (A) (A) (A) (A) (A) (A)
                 (A) (A) (A) (A) (A) (A) (A) (A) (A) (A) (A) (A)
                 (A) (A) (A) (A) (A) (A) (A) (A) (A) (A) (A) (A)
                 (A) (A) (A) (A) (A) (A) (A) (A) (A)
 The electronic state is 1-A.
 Alpha  occ. eigenvalues --  -24.72948 -24.72878 -24.72802 -19.19445 -19.14046
 Alpha  occ. eigenvalues --  -19.13181 -19.13085 -19.13081 -14.41472 -14.37255
 Alpha  occ. eigenvalues --  -10.45635 -10.34226 -10.32521 -10.28994 -10.28681
 Alpha  occ. eigenvalues --  -10.28653 -10.25595 -10.22963 -10.22530 -10.22070
 Alpha  occ. eigenvalues --  -10.20792 -10.17434 -10.17128  -1.33275  -1.24417
 Alpha  occ. eigenvalues --   -1.24238  -1.13281  -1.07839  -1.06658  -1.05841
 Alpha  occ. eigenvalues --   -1.04570  -1.01711  -0.95481  -0.82814  -0.82662
 Alpha  occ. eigenvalues --   -0.76690  -0.75591  -0.75089  -0.72968  -0.72435
 Alpha  occ. eigenvalues --   -0.65825  -0.65196  -0.61628  -0.61466  -0.61345
 Alpha  occ. eigenvalues --   -0.61099  -0.60568  -0.59701  -0.56115  -0.51765
 Alpha  occ. eigenvalues --   -0.50558  -0.50497  -0.50306  -0.49385  -0.49035
 Alpha  occ. eigenvalues --   -0.49023  -0.48780  -0.47296  -0.45717  -0.45607
 Alpha  occ. eigenvalues --   -0.45222  -0.44803  -0.44594  -0.44319  -0.43865
 Alpha  occ. eigenvalues --   -0.43839  -0.43587  -0.42784  -0.41437  -0.41297
 Alpha  occ. eigenvalues --   -0.40245  -0.40020  -0.39837  -0.38906  -0.37489
 Alpha  occ. eigenvalues --   -0.37414  -0.37067  -0.33753  -0.32960  -0.31947
 Alpha  occ. eigenvalues --   -0.30868  -0.30222  -0.29177  -0.28795  -0.27276
 Alpha  occ. eigenvalues --   -0.26367
 Alpha virt. eigenvalues --   -0.10703  -0.07467  -0.05131  -0.04444  -0.02050
 Alpha virt. eigenvalues --    0.00832   0.03179   0.04858   0.05068   0.05818
 Alpha virt. eigenvalues --    0.06475   0.07343   0.08429   0.08693   0.10389
 Alpha virt. eigenvalues --    0.10560   0.10992   0.11077   0.11595   0.11696
 Alpha virt. eigenvalues --    0.11888   0.12467   0.13033   0.13784   0.14803
 Alpha virt. eigenvalues --    0.15129   0.15513   0.15964   0.16338   0.16841
 Alpha virt. eigenvalues --    0.17850   0.18065   0.18902   0.19269   0.19568
 Alpha virt. eigenvalues --    0.20699   0.20910   0.21231   0.21851   0.21913
 Alpha virt. eigenvalues --    0.22212   0.22893   0.23001   0.24018   0.24149
 Alpha virt. eigenvalues --    0.24364   0.25273   0.26378   0.26836   0.27312
 Alpha virt. eigenvalues --    0.28204   0.28540   0.29165   0.29926   0.30498
 Alpha virt. eigenvalues --    0.30610   0.30804   0.31453   0.32140   0.32212
 Alpha virt. eigenvalues --    0.32888   0.34000   0.34420   0.34998   0.35825
 Alpha virt. eigenvalues --    0.36532   0.36874   0.37499   0.37891   0.38158
 Alpha virt. eigenvalues --    0.38575   0.39039   0.40011   0.40408   0.40957
 Alpha virt. eigenvalues --    0.41290   0.42256   0.42367   0.43170   0.43452
 Alpha virt. eigenvalues --    0.43529   0.44243   0.45059   0.45336   0.45647
 Alpha virt. eigenvalues --    0.46063   0.46387   0.46927   0.47856   0.48228
 Alpha virt. eigenvalues --    0.48535   0.48728   0.49908   0.50517   0.50596
 Alpha virt. eigenvalues --    0.51325   0.52060   0.52499   0.52744   0.53740
 Alpha virt. eigenvalues --    0.54297   0.54780   0.55290   0.55459   0.55816
 Alpha virt. eigenvalues --    0.56462   0.56840   0.57365   0.57543   0.58094
 Alpha virt. eigenvalues --    0.58549   0.59286   0.59936   0.60668   0.61264
 Alpha virt. eigenvalues --    0.62437   0.63133   0.63577   0.63748   0.64909
 Alpha virt. eigenvalues --    0.66940   0.67360   0.68015   0.68406   0.69293
 Alpha virt. eigenvalues --    0.69995   0.71166   0.71822   0.72523   0.73663
 Alpha virt. eigenvalues --    0.74333   0.75075   0.76295   0.76754   0.77208
 Alpha virt. eigenvalues --    0.77714   0.78507   0.79604   0.79731   0.80276
 Alpha virt. eigenvalues --    0.80896   0.81932   0.83375   0.83861   0.84371
 Alpha virt. eigenvalues --    0.84877   0.85252   0.85988   0.86748   0.87231
 Alpha virt. eigenvalues --    0.88631   0.89774   0.89989   0.90493   0.91550
 Alpha virt. eigenvalues --    0.91669   0.91888   0.93000   0.93329   0.93868
 Alpha virt. eigenvalues --    0.94466   0.95444   0.95781   0.96377   0.97286
 Alpha virt. eigenvalues --    0.98636   0.98952   0.99210   1.00089   1.00975
 Alpha virt. eigenvalues --    1.01790   1.02267   1.03556   1.03770   1.04475
 Alpha virt. eigenvalues --    1.05257   1.06395   1.06503   1.07417   1.07781
 Alpha virt. eigenvalues --    1.09693   1.09778   1.10355   1.12031   1.14282
 Alpha virt. eigenvalues --    1.14774   1.16115   1.16735   1.17201   1.18375
 Alpha virt. eigenvalues --    1.18986   1.20441   1.21213   1.22778   1.24202
 Alpha virt. eigenvalues --    1.25735   1.26730   1.27352   1.28465   1.29538
 Alpha virt. eigenvalues --    1.30771   1.31085   1.33603   1.34756   1.36604
 Alpha virt. eigenvalues --    1.36846   1.37668   1.38539   1.39866   1.40502
 Alpha virt. eigenvalues --    1.41592   1.43260   1.44915   1.45615   1.46491
 Alpha virt. eigenvalues --    1.47276   1.47821   1.49370   1.49773   1.50634
 Alpha virt. eigenvalues --    1.51046   1.51300   1.51812   1.52276   1.52809
 Alpha virt. eigenvalues --    1.53619   1.53781   1.54279   1.55117   1.55856
 Alpha virt. eigenvalues --    1.56446   1.56697   1.57533   1.58273   1.58708
 Alpha virt. eigenvalues --    1.59697   1.59820   1.60376   1.61160   1.61257
 Alpha virt. eigenvalues --    1.62158   1.62848   1.63314   1.64258   1.65240
 Alpha virt. eigenvalues --    1.65759   1.67225   1.68107   1.70954   1.71564
 Alpha virt. eigenvalues --    1.72166   1.72793   1.74032   1.75293   1.75696
 Alpha virt. eigenvalues --    1.76850   1.77934   1.79603   1.80343   1.81588
 Alpha virt. eigenvalues --    1.82162   1.83200   1.84043   1.84460   1.85281
 Alpha virt. eigenvalues --    1.86868   1.87339   1.88045   1.89632   1.90203
 Alpha virt. eigenvalues --    1.91822   1.92145   1.92707   1.93505   1.94065
 Alpha virt. eigenvalues --    1.95463   1.96099   1.96484   1.97884   1.98648
 Alpha virt. eigenvalues --    1.99034   2.00036   2.00275   2.01171   2.01500
 Alpha virt. eigenvalues --    2.02671   2.04312   2.05128   2.06281   2.08060
 Alpha virt. eigenvalues --    2.08482   2.09269   2.09744   2.10297   2.11211
 Alpha virt. eigenvalues --    2.11830   2.12248   2.13193   2.14621   2.15695
 Alpha virt. eigenvalues --    2.16395   2.17051   2.17709   2.19122   2.20551
 Alpha virt. eigenvalues --    2.21030   2.21678   2.22740   2.23576   2.25042
 Alpha virt. eigenvalues --    2.25983   2.26857   2.27387   2.28009   2.28580
 Alpha virt. eigenvalues --    2.29255   2.30540   2.31331   2.32030   2.32994
 Alpha virt. eigenvalues --    2.33752   2.34257   2.34482   2.35466   2.36210
 Alpha virt. eigenvalues --    2.36908   2.37767   2.38410   2.38580   2.38838
 Alpha virt. eigenvalues --    2.39585   2.39916   2.41302   2.41790   2.44562
 Alpha virt. eigenvalues --    2.45368   2.48419   2.48607   2.49251   2.50151
 Alpha virt. eigenvalues --    2.51057   2.51912   2.52591   2.53033   2.53691
 Alpha virt. eigenvalues --    2.54247   2.54556   2.55232   2.56218   2.56631
 Alpha virt. eigenvalues --    2.57014   2.58392   2.59226   2.59883   2.60850
 Alpha virt. eigenvalues --    2.61269   2.62350   2.63121   2.64936   2.65359
 Alpha virt. eigenvalues --    2.66433   2.68032   2.68788   2.69130   2.70409
 Alpha virt. eigenvalues --    2.70750   2.71272   2.72693   2.75002   2.76407
 Alpha virt. eigenvalues --    2.76997   2.78213   2.78833   2.80331   2.81793
 Alpha virt. eigenvalues --    2.82301   2.82704   2.84013   2.85118   2.86071
 Alpha virt. eigenvalues --    2.87107   2.88095   2.89168   2.90054   2.91277
 Alpha virt. eigenvalues --    2.91746   2.92765   2.93718   2.94355   2.95595
 Alpha virt. eigenvalues --    2.96185   2.97436   2.98393   2.98747   2.99161
 Alpha virt. eigenvalues --    2.99400   3.00329   3.01411   3.02062   3.03215
 Alpha virt. eigenvalues --    3.03989   3.04568   3.05699   3.06391   3.06722
 Alpha virt. eigenvalues --    3.07428   3.08479   3.08773   3.09769   3.10179
 Alpha virt. eigenvalues --    3.10869   3.11356   3.12200   3.12775   3.13497
 Alpha virt. eigenvalues --    3.14733   3.15168   3.15513   3.15856   3.17647
 Alpha virt. eigenvalues --    3.17982   3.18141   3.18304   3.19606   3.19820
 Alpha virt. eigenvalues --    3.21179   3.21649   3.22641   3.23562   3.24528
 Alpha virt. eigenvalues --    3.24856   3.25366   3.26051   3.26568   3.27413
 Alpha virt. eigenvalues --    3.27513   3.27968   3.28371   3.29623   3.29735
 Alpha virt. eigenvalues --    3.29994   3.30535   3.30986   3.31440   3.31782
 Alpha virt. eigenvalues --    3.33454   3.33772   3.34223   3.35276   3.36240
 Alpha virt. eigenvalues --    3.37629   3.38378   3.38905   3.39180   3.39901
 Alpha virt. eigenvalues --    3.40962   3.41767   3.42872   3.43827   3.44028
 Alpha virt. eigenvalues --    3.45108   3.46129   3.46505   3.47529   3.48251
 Alpha virt. eigenvalues --    3.49410   3.49880   3.50514   3.51850   3.52334
 Alpha virt. eigenvalues --    3.52949   3.53671   3.54444   3.55951   3.56819
 Alpha virt. eigenvalues --    3.57611   3.58827   3.59808   3.60772   3.62012
 Alpha virt. eigenvalues --    3.63879   3.65339   3.67001   3.68170   3.70983
 Alpha virt. eigenvalues --    3.72461   3.74316   3.74485   3.75006   3.76958
 Alpha virt. eigenvalues --    3.77149   3.78477   3.79759   3.80175   3.81342
 Alpha virt. eigenvalues --    3.82675   3.83775   3.84516   3.85400   3.86192
 Alpha virt. eigenvalues --    3.88728   3.88924   3.90550   3.92313   3.92940
 Alpha virt. eigenvalues --    3.93695   3.94770   3.95541   3.97622   3.98682
 Alpha virt. eigenvalues --    3.99645   4.01202   4.03149   4.04057   4.05376
 Alpha virt. eigenvalues --    4.07325   4.08040   4.09117   4.10343   4.11824
 Alpha virt. eigenvalues --    4.12524   4.15511   4.16838   4.18564   4.19885
 Alpha virt. eigenvalues --    4.24120   4.25109   4.25849   4.27403   4.29977
 Alpha virt. eigenvalues --    4.30771   4.33210   4.35565   4.36359   4.36731
 Alpha virt. eigenvalues --    4.37510   4.38878   4.40887   4.41770   4.43136
 Alpha virt. eigenvalues --    4.44658   4.46579   4.47349   4.49746   4.51063
 Alpha virt. eigenvalues --    4.55011   4.56328   4.58892   4.63419   4.65088
 Alpha virt. eigenvalues --    4.67756   4.70635   4.71159   4.76613   4.78581
 Alpha virt. eigenvalues --    4.78993   4.79159   4.82528   4.87930   4.90170
 Alpha virt. eigenvalues --    4.92820   4.96363   4.96787   4.99543   5.00191
 Alpha virt. eigenvalues --    5.02919   5.05422   5.07669   5.10583   5.13581
 Alpha virt. eigenvalues --    5.15380   5.17084   5.17726   5.18135   5.18331
 Alpha virt. eigenvalues --    5.19312   5.20957   5.22514   5.22925   5.27423
 Alpha virt. eigenvalues --    5.28183   5.32622   5.36650   5.38009   5.38509
 Alpha virt. eigenvalues --    5.39835   5.41703   5.45829   5.49540   5.52424
 Alpha virt. eigenvalues --    5.53737   5.54952   5.57785   5.60750   5.62123
 Alpha virt. eigenvalues --    5.63950   5.67439   5.69590   5.72761   5.79579
 Alpha virt. eigenvalues --    5.82572   5.85858   5.89229   5.98561   5.99827
 Alpha virt. eigenvalues --    6.05210   6.07246   6.10743   6.12335   6.15165
 Alpha virt. eigenvalues --    6.19006   6.19905   6.23610   6.30526   6.31442
 Alpha virt. eigenvalues --    6.35102   6.36104   6.36838   6.37438   6.38106
 Alpha virt. eigenvalues --    6.42787   6.47401   6.54106   6.56510   6.57421
 Alpha virt. eigenvalues --    6.61075   6.63275   6.66692   6.70415   6.73641
 Alpha virt. eigenvalues --    6.76290   6.77926   6.80401   6.80528   6.81802
 Alpha virt. eigenvalues --    6.81951   6.82756   6.82864   6.82876   6.83346
 Alpha virt. eigenvalues --    6.83589   6.84178   6.85468   6.86418   6.88305
 Alpha virt. eigenvalues --    6.95029   6.96091   6.97483   6.98892   7.03420
 Alpha virt. eigenvalues --    7.04405   7.04874   7.05211   7.07016   7.07500
 Alpha virt. eigenvalues --    7.08616   7.08681   7.11023   7.11371   7.26380
 Alpha virt. eigenvalues --    7.33674   7.36285   7.38150   7.40069   7.45820
 Alpha virt. eigenvalues --    7.56106   7.56694   8.27119   8.28215   8.29622
 Alpha virt. eigenvalues --    8.43893   8.45805   8.53694   8.65474   8.72836
 Alpha virt. eigenvalues --    8.74933   8.85410   8.93165   8.98566   8.99906
 Alpha virt. eigenvalues --    9.09260   9.11576  22.26792  22.33803  22.36798
 Alpha virt. eigenvalues --   22.38595  22.72183  22.81407  22.96166  23.03913
 Alpha virt. eigenvalues --   23.06899  23.25380  23.38201  23.40267  23.70160
 Alpha virt. eigenvalues --   32.37533  32.99761  43.87377  43.91506  43.93640
 Alpha virt. eigenvalues --   43.97238  44.14832  57.15416  57.20747  57.37341
          Condensed to atoms (all electrons):
               1          2          3          4          5          6
     1  C    4.871892   0.240521  -0.040905   0.010772   0.002588   0.000432
     2  N    0.240521   6.488192   0.434347  -0.103256  -0.072317  -0.009415
     3  C   -0.040905   0.434347   4.556283   0.613008   0.234577  -0.036560
     4  O    0.010772  -0.103256   0.613008   8.013268  -0.085669  -0.005575
     5  C    0.002588  -0.072317   0.234577  -0.085669   5.188318   0.780993
     6  N    0.000432  -0.009415  -0.036560  -0.005575   0.780993   5.976512
     7  C    0.000092  -0.001409   0.003345  -0.001773  -0.218804   0.348466
     8  C    0.000002  -0.000117   0.001635   0.000015   0.003758  -0.005088
     9  C    0.000010  -0.000022   0.000008  -0.000000   0.002403   0.004972
    10  O    0.000000  -0.000001   0.000006   0.000000   0.000461   0.004531
    11  C   -0.000004   0.000195  -0.001953   0.000288   0.021781  -0.051316
    12  C    0.000000   0.000002  -0.000107  -0.000002   0.003076   0.007495
    13  O    0.000000   0.000047  -0.000624  -0.000142   0.032175  -0.016676
    14  C    0.000120  -0.002130   0.027961  -0.001865  -0.084466  -0.083422
    15  C    0.000000  -0.000010   0.000250  -0.000030  -0.000250  -0.001611
    16  F   -0.000000  -0.000000  -0.000014  -0.000000  -0.000166   0.000372
    17  F    0.000000   0.000000   0.000010   0.000000  -0.000022  -0.000075
    18  F   -0.000000   0.000000  -0.000004   0.000000  -0.000013   0.000264
    19  C    0.000499  -0.002241  -0.006734   0.000559   0.070666  -0.031496
    20  C   -0.001097   0.003251  -0.009086   0.007435   0.028340   0.001786
    21  O    0.000199  -0.000397   0.007132  -0.001547  -0.004061   0.000737
    22  O    0.000040   0.000185  -0.013109  -0.000264   0.012648   0.000791
    23  C   -0.000225   0.000538  -0.001654  -0.001783   0.000173  -0.000063
    24  H    0.394263  -0.026365   0.009291   0.001390   0.001163   0.000003
    25  H    0.415356  -0.044674  -0.002784   0.006280  -0.004336  -0.000093
    26  H    0.414816  -0.035575  -0.014169   0.002180   0.000696   0.000128
    27  H   -0.025370   0.371777  -0.032479   0.003567  -0.004376   0.000560
    28  H   -0.000010  -0.000114   0.000195  -0.000002  -0.003208   0.002814
    29  H   -0.000000   0.000011  -0.000065   0.000000  -0.000119  -0.000092
    30  H   -0.000003   0.000244   0.000124  -0.000006   0.001960  -0.005047
    31  H    0.000000  -0.000000   0.000007   0.000000  -0.000145  -0.000172
    32  H   -0.000000  -0.000000   0.000003   0.000000  -0.000126  -0.000285
    33  H    0.000000  -0.000000   0.000006   0.000000  -0.000315  -0.000336
    34  H    0.000106  -0.000734   0.000220   0.005192  -0.000782  -0.000016
    35  H    0.000003  -0.000007   0.000216  -0.000104  -0.000175  -0.000004
    36  H    0.000001  -0.000008  -0.000148   0.000268   0.000134   0.000005
               7          8          9         10         11         12
     1  C    0.000092   0.000002   0.000010   0.000000  -0.000004   0.000000
     2  N   -0.001409  -0.000117  -0.000022  -0.000001   0.000195   0.000002
     3  C    0.003345   0.001635   0.000008   0.000006  -0.001953  -0.000107
     4  O   -0.001773   0.000015  -0.000000   0.000000   0.000288  -0.000002
     5  C   -0.218804   0.003758   0.002403   0.000461   0.021781   0.003076
     6  N    0.348466  -0.005088   0.004972   0.004531  -0.051316   0.007495
     7  C    6.291920   0.016197  -0.158057  -0.149419   0.027635  -0.141651
     8  C    0.016197   4.818334   0.392079   0.644591  -0.004329  -0.024749
     9  C   -0.158057   0.392079   5.055012  -0.075008  -0.001129  -0.001352
    10  O   -0.149419   0.644591  -0.075008   7.993338  -0.009012  -0.015204
    11  C    0.027635  -0.004329  -0.001129  -0.009012   4.804232   0.374249
    12  C   -0.141651  -0.024749  -0.001352  -0.015204   0.374249   5.109862
    13  O   -0.185543   0.000629  -0.000284  -0.000242   0.677745  -0.087087
    14  C    0.212113  -0.015786   0.004598  -0.005316  -0.039005  -0.008672
    15  C    0.011423   0.005301  -0.001150   0.003479  -0.009951   0.002260
    16  F   -0.007910   0.005508   0.003316  -0.002592   0.001403  -0.001470
    17  F    0.000534  -0.000099   0.000007  -0.000013   0.000043  -0.000001
    18  F   -0.007819   0.000197   0.000102  -0.000022   0.008958  -0.004123
    19  C   -0.089819   0.003691  -0.008034   0.001299   0.034943   0.001724
    20  C   -0.008002  -0.000189  -0.000496   0.000018   0.002210   0.000035
    21  O   -0.000399   0.000126  -0.000250   0.000000   0.000018   0.000000
    22  O   -0.000428  -0.000006  -0.000002   0.000000   0.000294   0.000006
    23  C   -0.000058  -0.000002   0.000002  -0.000000   0.000009   0.000000
    24  H    0.000010  -0.000002   0.000003  -0.000000  -0.000000  -0.000000
    25  H   -0.000002   0.000001  -0.000003   0.000000  -0.000001  -0.000000
    26  H   -0.000001  -0.000001   0.000004   0.000000   0.000001   0.000000
    27  H    0.000169  -0.000054   0.000320   0.000002  -0.000006   0.000000
    28  H   -0.001915  -0.020377   0.379204   0.002413  -0.000488   0.000048
    29  H    0.019521  -0.056953   0.402016   0.007362   0.000393   0.000034
    30  H    0.014367  -0.039221   0.387214   0.002160   0.000550   0.000032
    31  H    0.019796   0.001459   0.000148   0.002921  -0.050607   0.373737
    32  H    0.023812  -0.009371   0.000035   0.004549  -0.046302   0.388915
    33  H    0.002246  -0.000293   0.000115   0.004139  -0.016116   0.367526
    34  H    0.000010   0.000001  -0.000001  -0.000000  -0.000004  -0.000000
    35  H    0.000002  -0.000000  -0.000000   0.000000  -0.000002  -0.000000
    36  H    0.000004  -0.000000   0.000000  -0.000000   0.000001   0.000000
              13         14         15         16         17         18
     1  C    0.000000   0.000120   0.000000  -0.000000   0.000000  -0.000000
     2  N    0.000047  -0.002130  -0.000010  -0.000000   0.000000   0.000000
     3  C   -0.000624   0.027961   0.000250  -0.000014   0.000010  -0.000004
     4  O   -0.000142  -0.001865  -0.000030  -0.000000   0.000000   0.000000
     5  C    0.032175  -0.084466  -0.000250  -0.000166  -0.000022  -0.000013
     6  N   -0.016676  -0.083422  -0.001611   0.000372  -0.000075   0.000264
     7  C   -0.185543   0.212113   0.011423  -0.007910   0.000534  -0.007819
     8  C    0.000629  -0.015786   0.005301   0.005508  -0.000099   0.000197
     9  C   -0.000284   0.004598  -0.001150   0.003316   0.000007   0.000102
    10  O   -0.000242  -0.005316   0.003479  -0.002592  -0.000013  -0.000022
    11  C    0.677745  -0.039005  -0.009951   0.001403   0.000043   0.008958
    12  C   -0.087087  -0.008672   0.002260  -0.001470  -0.000001  -0.004123
    13  O    7.990823  -0.016423  -0.002206   0.000003  -0.000004  -0.000217
    14  C   -0.016423   6.362216   0.387868  -0.096130  -0.068865  -0.091691
    15  C   -0.002206   0.387868   4.090978   0.397087   0.403104   0.398615
    16  F    0.000003  -0.096130   0.397087   9.008085  -0.055695  -0.051412
    17  F   -0.000004  -0.068865   0.403104  -0.055695   8.990200  -0.055674
    18  F   -0.000217  -0.091691   0.398615  -0.051412  -0.055674   9.009910
    19  C    0.016405   0.092468  -0.223377  -0.022273  -0.037741  -0.030407
    20  C    0.000682  -0.288036  -0.028100  -0.000895  -0.002472  -0.001200
    21  O    0.000001  -0.063534  -0.000983   0.000004   0.000002  -0.000001
    22  O    0.000004  -0.064979  -0.001122  -0.000001  -0.000054  -0.000001
    23  C    0.000006  -0.001682  -0.000101  -0.000000  -0.000010  -0.000001
    24  H   -0.000000   0.000002   0.000000  -0.000000  -0.000000  -0.000000
    25  H    0.000000   0.000042  -0.000000   0.000000  -0.000000   0.000000
    26  H    0.000000  -0.000001   0.000000  -0.000000   0.000000   0.000000
    27  H    0.000003  -0.000134   0.000001  -0.000000   0.000000  -0.000000
    28  H   -0.000012   0.000009   0.000171   0.000047   0.000000   0.000000
    29  H    0.000009  -0.000581  -0.000167  -0.000070  -0.000001  -0.000001
    30  H    0.000006   0.002772  -0.001024   0.000593  -0.000004   0.000032
    31  H    0.007776   0.000215   0.000098   0.000023  -0.000000  -0.000171
    32  H    0.003631  -0.002268   0.001315   0.002129  -0.000048   0.004005
    33  H    0.002216   0.000766  -0.000126   0.000026   0.000001   0.000315
    34  H   -0.000001  -0.000346   0.000004  -0.000000   0.000000  -0.000000
    35  H   -0.000000   0.001087   0.000011  -0.000000   0.000000  -0.000000
    36  H   -0.000000  -0.000407  -0.000015  -0.000000  -0.000000   0.000000
              19         20         21         22         23         24
     1  C    0.000499  -0.001097   0.000199   0.000040  -0.000225   0.394263
     2  N   -0.002241   0.003251  -0.000397   0.000185   0.000538  -0.026365
     3  C   -0.006734  -0.009086   0.007132  -0.013109  -0.001654   0.009291
     4  O    0.000559   0.007435  -0.001547  -0.000264  -0.001783   0.001390
     5  C    0.070666   0.028340  -0.004061   0.012648   0.000173   0.001163
     6  N   -0.031496   0.001786   0.000737   0.000791  -0.000063   0.000003
     7  C   -0.089819  -0.008002  -0.000399  -0.000428  -0.000058   0.000010
     8  C    0.003691  -0.000189   0.000126  -0.000006  -0.000002  -0.000002
     9  C   -0.008034  -0.000496  -0.000250  -0.000002   0.000002   0.000003
    10  O    0.001299   0.000018   0.000000   0.000000  -0.000000  -0.000000
    11  C    0.034943   0.002210   0.000018   0.000294   0.000009  -0.000000
    12  C    0.001724   0.000035   0.000000   0.000006   0.000000  -0.000000
    13  O    0.016405   0.000682   0.000001   0.000004   0.000006  -0.000000
    14  C    0.092468  -0.288036  -0.063534  -0.064979  -0.001682   0.000002
    15  C   -0.223377  -0.028100  -0.000983  -0.001122  -0.000101   0.000000
    16  F   -0.022273  -0.000895   0.000004  -0.000001  -0.000000  -0.000000
    17  F   -0.037741  -0.002472   0.000002  -0.000054  -0.000010  -0.000000
    18  F   -0.030407  -0.001200  -0.000001  -0.000001  -0.000001  -0.000000
    19  C    5.955686   0.423908  -0.073792  -0.113999  -0.002787   0.000005
    20  C    0.423908   4.450884   0.667969   0.487883  -0.043034  -0.000009
    21  O   -0.073792   0.667969   7.952267  -0.091427   0.004239  -0.000029
    22  O   -0.113999   0.487883  -0.091427   7.934484   0.199136  -0.000000
    23  C   -0.002787  -0.043034   0.004239   0.199136   4.851492  -0.000004
    24  H    0.000005  -0.000009  -0.000029  -0.000000  -0.000004   0.506228
    25  H    0.000346  -0.000613   0.000654  -0.000051  -0.000084  -0.018535
    26  H   -0.000066   0.000064   0.000026  -0.000001   0.000014  -0.022971
    27  H    0.000237   0.000232   0.000038   0.000003  -0.000009  -0.008011
    28  H    0.000603   0.000040  -0.000001  -0.000000  -0.000000   0.000007
    29  H    0.000404   0.000025   0.000002   0.000000   0.000000  -0.000000
    30  H   -0.002500  -0.000210   0.000738   0.000020  -0.000003   0.000000
    31  H   -0.000238  -0.000004   0.000000  -0.000000  -0.000000  -0.000000
    32  H    0.000815   0.000040   0.000000   0.000000   0.000000   0.000000
    33  H   -0.000125  -0.000003  -0.000000  -0.000000  -0.000000  -0.000000
    34  H   -0.004841   0.000555   0.005773  -0.040559   0.409371   0.000011
    35  H    0.002817   0.002006   0.001706  -0.025451   0.389014   0.000000
    36  H   -0.001214  -0.011677   0.006064  -0.030259   0.414500   0.000000
              25         26         27         28         29         30
     1  C    0.415356   0.414816  -0.025370  -0.000010  -0.000000  -0.000003
     2  N   -0.044674  -0.035575   0.371777  -0.000114   0.000011   0.000244
     3  C   -0.002784  -0.014169  -0.032479   0.000195  -0.000065   0.000124
     4  O    0.006280   0.002180   0.003567  -0.000002   0.000000  -0.000006
     5  C   -0.004336   0.000696  -0.004376  -0.003208  -0.000119   0.001960
     6  N   -0.000093   0.000128   0.000560   0.002814  -0.000092  -0.005047
     7  C   -0.000002  -0.000001   0.000169  -0.001915   0.019521   0.014367
     8  C    0.000001  -0.000001  -0.000054  -0.020377  -0.056953  -0.039221
     9  C   -0.000003   0.000004   0.000320   0.379204   0.402016   0.387214
    10  O    0.000000   0.000000   0.000002   0.002413   0.007362   0.002160
    11  C   -0.000001   0.000001  -0.000006  -0.000488   0.000393   0.000550
    12  C   -0.000000   0.000000   0.000000   0.000048   0.000034   0.000032
    13  O    0.000000   0.000000   0.000003  -0.000012   0.000009   0.000006
    14  C    0.000042  -0.000001  -0.000134   0.000009  -0.000581   0.002772
    15  C   -0.000000   0.000000   0.000001   0.000171  -0.000167  -0.001024
    16  F    0.000000  -0.000000  -0.000000   0.000047  -0.000070   0.000593
    17  F   -0.000000   0.000000   0.000000   0.000000  -0.000001  -0.000004
    18  F    0.000000   0.000000  -0.000000   0.000000  -0.000001   0.000032
    19  C    0.000346  -0.000066   0.000237   0.000603   0.000404  -0.002500
    20  C   -0.000613   0.000064   0.000232   0.000040   0.000025  -0.000210
    21  O    0.000654   0.000026   0.000038  -0.000001   0.000002   0.000738
    22  O   -0.000051  -0.000001   0.000003  -0.000000   0.000000   0.000020
    23  C   -0.000084   0.000014  -0.000009  -0.000000   0.000000  -0.000003
    24  H   -0.018535  -0.022971  -0.008011   0.000007  -0.000000   0.000000
    25  H    0.524371  -0.037559   0.003211   0.000003  -0.000000  -0.000002
    26  H   -0.037559   0.534134   0.002242  -0.000005   0.000000   0.000001
    27  H    0.003211   0.002242   0.385970   0.000386   0.000006   0.000126
    28  H    0.000003  -0.000005   0.000386   0.510678  -0.013833  -0.020427
    29  H   -0.000000   0.000000   0.000006  -0.013833   0.511405  -0.016116
    30  H   -0.000002   0.000001   0.000126  -0.020427  -0.016116   0.504607
    31  H   -0.000000  -0.000000  -0.000000  -0.000005  -0.000005  -0.000006
    32  H    0.000000  -0.000000  -0.000000  -0.000001  -0.000009  -0.000030
    33  H   -0.000000   0.000000  -0.000000  -0.000029  -0.000021  -0.000001
    34  H    0.000685  -0.000034   0.000004   0.000000  -0.000000  -0.000000
    35  H    0.000005  -0.000000   0.000000   0.000000  -0.000000  -0.000000
    36  H   -0.000003  -0.000000  -0.000000  -0.000000  -0.000000  -0.000000
              31         32         33         34         35         36
     1  C    0.000000  -0.000000   0.000000   0.000106   0.000003   0.000001
     2  N   -0.000000  -0.000000  -0.000000  -0.000734  -0.000007  -0.000008
     3  C    0.000007   0.000003   0.000006   0.000220   0.000216  -0.000148
     4  O    0.000000   0.000000   0.000000   0.005192  -0.000104   0.000268
     5  C   -0.000145  -0.000126  -0.000315  -0.000782  -0.000175   0.000134
     6  N   -0.000172  -0.000285  -0.000336  -0.000016  -0.000004   0.000005
     7  C    0.019796   0.023812   0.002246   0.000010   0.000002   0.000004
     8  C    0.001459  -0.009371  -0.000293   0.000001  -0.000000  -0.000000
     9  C    0.000148   0.000035   0.000115  -0.000001  -0.000000   0.000000
    10  O    0.002921   0.004549   0.004139  -0.000000   0.000000  -0.000000
    11  C   -0.050607  -0.046302  -0.016116  -0.000004  -0.000002   0.000001
    12  C    0.373737   0.388915   0.367526  -0.000000  -0.000000   0.000000
    13  O    0.007776   0.003631   0.002216  -0.000001  -0.000000  -0.000000
    14  C    0.000215  -0.002268   0.000766  -0.000346   0.001087  -0.000407
    15  C    0.000098   0.001315  -0.000126   0.000004   0.000011  -0.000015
    16  F    0.000023   0.002129   0.000026  -0.000000  -0.000000  -0.000000
    17  F   -0.000000  -0.000048   0.000001   0.000000   0.000000  -0.000000
    18  F   -0.000171   0.004005   0.000315  -0.000000  -0.000000   0.000000
    19  C   -0.000238   0.000815  -0.000125  -0.004841   0.002817  -0.001214
    20  C   -0.000004   0.000040  -0.000003   0.000555   0.002006  -0.011677
    21  O    0.000000   0.000000  -0.000000   0.005773   0.001706   0.006064
    22  O   -0.000000   0.000000  -0.000000  -0.040559  -0.025451  -0.030259
    23  C   -0.000000   0.000000  -0.000000   0.409371   0.389014   0.414500
    24  H   -0.000000   0.000000  -0.000000   0.000011   0.000000   0.000000
    25  H   -0.000000   0.000000  -0.000000   0.000685   0.000005  -0.000003
    26  H   -0.000000  -0.000000   0.000000  -0.000034  -0.000000  -0.000000
    27  H   -0.000000  -0.000000  -0.000000   0.000004   0.000000  -0.000000
    28  H   -0.000005  -0.000001  -0.000029   0.000000   0.000000  -0.000000
    29  H   -0.000005  -0.000009  -0.000021  -0.000000  -0.000000  -0.000000
    30  H   -0.000006  -0.000030  -0.000001  -0.000000  -0.000000  -0.000000
    31  H    0.538410  -0.014786  -0.014819  -0.000000   0.000000  -0.000000
    32  H   -0.014786   0.508698  -0.018507  -0.000000  -0.000000  -0.000000
    33  H   -0.014819  -0.018507   0.518839   0.000000   0.000000   0.000000
    34  H   -0.000000  -0.000000   0.000000   0.527399  -0.018928  -0.037678
    35  H    0.000000  -0.000000   0.000000  -0.018928   0.508701  -0.021434
    36  H   -0.000000  -0.000000   0.000000  -0.037678  -0.021434   0.526821
 Mulliken charges:
               1
     1  C   -0.284097
     2  N   -0.240518
     3  C    0.271771
     4  O   -0.462205
     5  C    0.093440
     6  N    0.116480
     7  C   -0.018654
     8  C    0.283115
     9  C   -0.385778
    10  O   -0.414441
    11  C    0.275280
    12  C   -0.344581
    13  O   -0.422699
    14  C   -0.156494
    15  C    0.568255
    16  F   -0.179967
    17  F   -0.173123
    18  F   -0.179641
    19  C    0.044608
    20  C    0.317762
    21  O   -0.411273
    22  O   -0.253779
    23  C   -0.216995
    24  H    0.163549
    25  H    0.157786
    26  H    0.156079
    27  H    0.301586
    28  H    0.163810
    29  H    0.146845
    30  H    0.169057
    31  H    0.136367
    32  H    0.153785
    33  H    0.154498
    34  H    0.154591
    35  H    0.160537
    36  H    0.155046
 Sum of Mulliken charges =  -0.00000
 Mulliken charges with hydrogens summed into heavy atoms:
               1
     1  C    0.193317
     2  N    0.061068
     3  C    0.271771
     4  O   -0.462205
     5  C    0.093440
     6  N    0.116480
     7  C   -0.018654
     8  C    0.283115
     9  C    0.093934
    10  O   -0.414441
    11  C    0.275280
    12  C    0.100068
    13  O   -0.422699
    14  C   -0.156494
    15  C    0.568255
    16  F   -0.179967
    17  F   -0.173123
    18  F   -0.179641
    19  C    0.044608
    20  C    0.317762
    21  O   -0.411273
    22  O   -0.253779
    23  C    0.253178
 Electronic spatial extent (au):  <R**2>=           7022.3933
 Charge=             -0.0000 electrons
 Dipole moment (field-independent basis, Debye):
    X=             -6.1968    Y=             -5.3725    Z=             -4.6994  Tot=              9.4525
 Quadrupole moment (field-independent basis, Debye-Ang):
   XX=           -128.0076   YY=           -111.0099   ZZ=           -143.8546
   XY=              9.9112   XZ=             11.1360   YZ=             13.0502
 Traceless Quadrupole moment (field-independent basis, Debye-Ang):
   XX=             -0.3836   YY=             16.6142   ZZ=            -16.2306
   XY=              9.9112   XZ=             11.1360   YZ=             13.0502
 Octapole moment (field-independent basis, Debye-Ang**2):
  XXX=           -102.2379  YYY=              7.5494  ZZZ=            -49.8055  XYY=            -77.6688
  XXY=             -0.2973  XXZ=             11.3419  XZZ=             15.7838  YZZ=             -1.1407
  YYZ=             -7.8860  XYZ=            -44.9990
 Hexadecapole moment (field-independent basis, Debye-Ang**3):
 XXXX=          -4758.8304 YYYY=          -2322.0940 ZZZZ=          -1308.6515 XXXY=            255.7205
 XXXZ=            182.6482 YYYX=             54.2471 YYYZ=             58.9574 ZZZX=            -44.6186
 ZZZY=             56.2062 XXYY=          -1038.7158 XXZZ=          -1049.4425 YYZZ=           -579.1947
 XXYZ=             77.1925 YYXZ=             21.3875 ZZXY=             31.8959
 N-N= 2.099202827366D+03 E-N=-7.224660449939D+03  KE= 1.282793149921D+03

 Test job not archived.
 1\1\GINC-D-18-4-4\SP\RB3LYP\def2TZVP\C13H13F3N2O5\TSTUYVER\30-May-2022
 \0\\# B3LYP def2tzvp EmpiricalDispersion=GD3BJ IOp(2/9=2000) scrf=(smd
 ,solvent=Water)\\TS_4cGKps_ll_ad_4-18_6-13_sp_g16\\0,1\C,0,-3.82587622
 ,2.81967227,2.02109237\N,0,-2.50728022,2.33917127,1.64245637\C,0,-2.29
 889722,1.75818727,0.45864837\O,0,-3.13479722,1.57336127,-0.42266263\C,
 0,-0.92110222,1.24344227,0.25160537\N,0,0.21742178,1.54302527,0.068628
 37\C,0,1.46045178,1.18465327,-0.20663963\C,0,2.42295078,1.15248827,0.9
 3039037\C,0,1.83116278,1.26663327,2.31074537\O,0,3.62259278,1.01261027
 ,0.74304037\C,0,1.78899278,1.16788127,-1.66972163\C,0,3.21041778,0.956
 51827,-2.09966063\O,0,0.88333578,1.33687527,-2.47524863\C,0,0.52805078
 ,-1.20439773,-0.07179963\C,0,1.70123578,-2.06851873,-0.23621263\F,0,2.
 65660978,-1.80865773,0.67383437\F,0,1.38007078,-3.36877273,-0.10321763
 \F,0,2.25497878,-1.92465173,-1.45491663\C,0,-0.68203522,-0.99047073,0.
 06687537\C,0,-2.09937822,-1.29466073,0.24481537\O,0,-2.65739722,-1.279
 16573,1.32282237\O,0,-2.68687822,-1.55764573,-0.91797163\C,0,-4.109739
 22,-1.77607673,-0.88165563\H,0,-3.79943022,3.11750927,3.07533137\H,0,-
 4.57321822,2.02382027,1.88682537\H,0,-4.12494322,3.68492927,1.40946837
 \H,0,-1.72354622,2.46094227,2.27953037\H,0,1.31415678,2.23179527,2.433
 28337\H,0,2.63213778,1.17864427,3.05502837\H,0,1.08351778,0.47306127,2
 .46888837\H,0,3.23073078,0.83555027,-3.19063563\H,0,3.66439378,0.09151
 427,-1.60229163\H,0,3.80645078,1.83733427,-1.81110563\H,0,-4.61362822,
 -0.88457173,-0.48309863\H,0,-4.40906122,-1.95292973,-1.92056263\H,0,-4
 .34776422,-2.65020873,-0.25980263\\Version=ES64L-G16RevB.01\State=1-A\
 HF=-1288.8489201\RMSD=7.259e-09\Dipole=-1.6873802,1.8741566,2.7332003\
 Quadrupole=-4.2962743,6.0371956,-1.7409213,-0.4685675,-7.2702883,16.85
 45797\PG=C01 [X(C13H13F3N2O5)]\\@


 IT PROBABLY IS NOT POSSIBLE FOR A SCIENTIST TO INTERROGATE NATURE 
 FROM A WHOLLY DISINTERESTED VIEWPOINT.
 EVEN IF HE HAS NO PARTICULAR AXE TO GRIND, HE IS LIKELY TO HAVE 
 A DISTINCTIVE WAY OF VIEWING NATURE.

                                                   -- JOHN LOSEE
 Job cpu time:       0 days  2 hours 36 minutes 33.7 seconds.
 Elapsed time:       0 days  0 hours 39 minutes 10.8 seconds.
 File lengths (MBytes):  RWF=    458 Int=      0 D2E=      0 Chk=     38 Scr=      1
 Normal termination of Gaussian 16 at Mon May 30 16:00:32 2022.
