 Entering Gaussian System, Link 0=g16
 Initial command:
 /public/software/apps/Gaussian/g16/l1.exe "/public/home/LLG_HG/tmp/Gau-42871.inp" -scrdir="/public/home/LLG_HG/tmp/"
 Entering Link 1 = /public/software/apps/Gaussian/g16/l1.exe PID=     42872.
  
 Copyright (c) 1988-2019, Gaussian, Inc.  All Rights Reserved.
  
 This is part of the Gaussian(R) 16 program.  It is based on
 the Gaussian(R) 09 system (copyright 2009, Gaussian, Inc.),
 the Gaussian(R) 03 system (copyright 2003, Gaussian, Inc.),
 the Gaussian(R) 98 system (copyright 1998, Gaussian, Inc.),
 the Gaussian(R) 94 system (copyright 1995, Gaussian, Inc.),
 the Gaussian 92(TM) system (copyright 1992, Gaussian, Inc.),
 the Gaussian 90(TM) system (copyright 1990, Gaussian, Inc.),
 the Gaussian 88(TM) system (copyright 1988, Gaussian, Inc.),
 the Gaussian 86(TM) system (copyright 1986, Carnegie Mellon
 University), and the Gaussian 82(TM) system (copyright 1983,
 Carnegie Mellon University). Gaussian is a federally registered
 trademark of Gaussian, Inc.
  
 This software contains proprietary and confidential information,
 including trade secrets, belonging to Gaussian, Inc.
  
 This software is provided under written license and may be
 used, copied, transmitted, or stored only in accord with that
 written license.
  
 The following legend is applicable only to US Government
 contracts under FAR:
  
                    RESTRICTED RIGHTS LEGEND
  
 Use, reproduction and disclosure by the US Government is
 subject to restrictions as set forth in subparagraphs (a)
 and (c) of the Commercial Computer Software - Restricted
 Rights clause in FAR 52.227-19.
  
 Gaussian, Inc.
 340 Quinnipiac St., Bldg. 40, Wallingford CT 06492
  
  
 ---------------------------------------------------------------
 Warning -- This program may not be used in any manner that
 competes with the business of Gaussian, Inc. or will provide
 assistance to any competitor of Gaussian, Inc.  The licensee
 of this program is prohibited from giving any competitor of
 Gaussian, Inc. access to this program.  By using this program,
 the user acknowledges that Gaussian, Inc. is engaged in the
 business of creating and licensing software in the field of
 computational chemistry and represents and warrants to the
 licensee that it is not a competitor of Gaussian, Inc. and that
 it will not use this program in any manner prohibited above.
 ---------------------------------------------------------------
  

 Cite this work as:
 Gaussian 16, Revision C.01,
 M. J. Frisch, G. W. Trucks, H. B. Schlegel, G. E. Scuseria, 
 M. A. Robb, J. R. Cheeseman, G. Scalmani, V. Barone, 
 G. A. Petersson, H. Nakatsuji, X. Li, M. Caricato, A. V. Marenich, 
 J. Bloino, B. G. Janesko, R. Gomperts, B. Mennucci, H. P. Hratchian, 
 J. V. Ortiz, A. F. Izmaylov, J. L. Sonnenberg, D. Williams-Young, 
 F. Ding, F. Lipparini, F. Egidi, J. Goings, B. Peng, A. Petrone, 
 T. Henderson, D. Ranasinghe, V. G. Zakrzewski, J. Gao, N. Rega, 
 G. Zheng, W. Liang, M. Hada, M. Ehara, K. Toyota, R. Fukuda, 
 J. Hasegawa, M. Ishida, T. Nakajima, Y. Honda, O. Kitao, H. Nakai, 
 T. Vreven, K. Throssell, J. A. Montgomery, Jr., J. E. Peralta, 
 F. Ogliaro, M. J. Bearpark, J. J. Heyd, E. N. Brothers, K. N. Kudin, 
 V. N. Staroverov, T. A. Keith, R. Kobayashi, J. Normand, 
 K. Raghavachari, A. P. Rendell, J. C. Burant, S. S. Iyengar, 
 J. Tomasi, M. Cossi, J. M. Millam, M. Klene, C. Adamo, R. Cammi, 
 J. W. Ochterski, R. L. Martin, K. Morokuma, O. Farkas, 
 J. B. Foresman, and D. J. Fox, Gaussian, Inc., Wallingford CT, 2019.
 
 ******************************************
 Gaussian 16:  ES64L-G16RevC.01  3-Jul-2019
                 3-Dec-2023 
 ******************************************
 %nprocs=32
 Will use up to   32 processors via shared memory.
 %mem=80GB
 ---------------------------------------------------------------
 # m06/def2tzvpp scrf=(smd,solvent=n,n-dimethylformamide) em=gd3
 ---------------------------------------------------------------
 1/38=1,172=1/1;
 2/12=2,17=6,18=5,40=1/2;
 3/5=44,7=202,11=2,25=1,30=1,70=32201,72=148,74=-54,124=31/1,2,3;
 4//1;
 5/5=2,38=5,53=148/2;
 6/7=2,8=2,9=2,10=2,28=1/1;
 99/5=1,9=1/99;
 -------------------
 Title Card Required
 -------------------
 Symbolic Z-matrix:
 Charge =  0 Multiplicity = 1
 C                     3.45285  -2.31463   0.00962 
 C                     3.79516  -1.02537   0.3467 
 C                     2.86665   0.0367    0.19603 
 C                     1.55644  -0.25615  -0.30107 
 C                     1.23481  -1.59142  -0.65711 
 C                     2.16421  -2.59513  -0.50282 
 H                     4.1909    1.59953   0.88946 
 H                     4.17189  -3.11915   0.12792 
 H                     4.78605  -0.79801   0.72955 
 C                     3.19677   1.38034   0.51085 
 C                     0.64816   0.82806  -0.43101 
 H                     0.25764  -1.80998  -1.06639 
 H                     1.90779  -3.61255  -0.78151 
 C                     0.97671   2.14031  -0.16217 
 C                     2.28742   2.39221   0.32575 
 H                     2.56117   3.41833   0.55224 
 C                     0.00972   3.27747  -0.35693 
 H                     0.54726   4.19257  -0.61843 
 H                    -0.71053   3.06286  -1.15002 
 H                    -0.55649   3.4674    0.56046 
 O                    -0.62777   0.5234   -0.95949 
 S                    -1.95715   0.60007   0.00387 
 O                    -3.03708   1.08507  -0.83444 
 O                    -1.6307    1.17057   1.30004 
 C                    -2.2574   -1.22281   0.27244 
 F                    -3.45313  -1.36472   0.83887 
 F                    -1.31846  -1.71886   1.07408 
 F                    -2.23573  -1.86441  -0.89692 
 
                          Input orientation:                          
 ---------------------------------------------------------------------
 Center     Atomic      Atomic             Coordinates (Angstroms)
 Number     Number       Type             X           Y           Z
 ---------------------------------------------------------------------
      1          6           0        3.452845   -2.314628    0.009616
      2          6           0        3.795162   -1.025367    0.346696
      3          6           0        2.866653    0.036698    0.196025
      4          6           0        1.556441   -0.256151   -0.301066
      5          6           0        1.234814   -1.591424   -0.657105
      6          6           0        2.164215   -2.595132   -0.502822
      7          1           0        4.190899    1.599528    0.889456
      8          1           0        4.171887   -3.119151    0.127923
      9          1           0        4.786045   -0.798013    0.729548
     10          6           0        3.196766    1.380343    0.510853
     11          6           0        0.648163    0.828057   -0.431011
     12          1           0        0.257635   -1.809980   -1.066387
     13          1           0        1.907788   -3.612545   -0.781512
     14          6           0        0.976712    2.140310   -0.162166
     15          6           0        2.287416    2.392211    0.325749
     16          1           0        2.561173    3.418332    0.552237
     17          6           0        0.009717    3.277469   -0.356927
     18          1           0        0.547264    4.192574   -0.618433
     19          1           0       -0.710527    3.062864   -1.150023
     20          1           0       -0.556491    3.467401    0.560456
     21          8           0       -0.627766    0.523402   -0.959485
     22         16           0       -1.957153    0.600068    0.003865
     23          8           0       -3.037085    1.085072   -0.834440
     24          8           0       -1.630699    1.170574    1.300041
     25          6           0       -2.257395   -1.222808    0.272439
     26          9           0       -3.453126   -1.364723    0.838874
     27          9           0       -1.318464   -1.718864    1.074076
     28          9           0       -2.235730   -1.864408   -0.896920
 ---------------------------------------------------------------------
                    Distance matrix (angstroms):
                    1          2          3          4          5
     1  C    0.000000
     2  C    1.375863   0.000000
     3  C    2.430453   1.418736   0.000000
     4  C    2.816061   2.454213   1.431613   0.000000
     5  C    2.426356   2.807743   2.457948   1.418859   0.000000
     6  C    1.414865   2.417815   2.812176   2.425062   1.376597
     7  H    4.079149   2.709478   2.162617   3.435296   4.616542
     8  H    1.085484   2.138625   3.415795   3.901456   3.402443
     9  H    2.143792   1.086331   2.159966   3.433092   3.894040
    10  C    3.737596   2.484445   1.418969   2.455197   3.747637
    11  C    4.235193   3.734115   2.437442   1.420339   2.499833
    12  H    3.409079   3.889283   3.436696   2.164948   1.081738
    13  H    2.167412   3.395368   3.897688   3.408761   2.133847
    14  C    5.099727   4.268971   2.850502   2.469495   3.773251
    15  C    4.859269   3.735449   2.429153   2.817986   4.235956
    16  H    5.827207   4.616431   3.414038   3.903772   5.321597
    17  C    6.577312   5.774000   4.355506   3.857713   5.029621
    18  H    7.154056   6.221513   4.828479   4.572780   5.824848
    19  H    6.898975   6.265384   4.875012   4.108008   5.068502
    20  H    7.057624   6.258398   4.860087   4.367098   5.502994
    21  O    5.064085   4.864883   3.712553   2.410805   2.834277
    22  S    6.145207   5.987378   4.860393   3.629247   3.927871
    23  O    7.374929   7.247664   6.084001   4.814961   5.044224
    24  O    6.297162   5.930514   4.767673   3.841477   4.435112
    25  C    5.819621   6.056232   5.277126   3.976013   3.632555
    26  F    7.020144   7.272900   6.505140   5.255869   4.926066
    27  F    4.924774   5.211448   4.622572   3.506512   3.087468
    28  F    5.777923   6.214679   5.553652   4.161982   3.489514
                    6          7          8          9         10
     6  C    0.000000
     7  H    4.862207   0.000000
     8  H    2.168682   4.779773   0.000000
     9  H    3.409159   2.475474   2.475242   0.000000
    10  C    4.230615   1.086132   4.619842   2.705341   0.000000
    11  C    3.744569   3.858728   5.320666   4.594896   2.772635
    12  H    2.137549   5.560632   4.296705   4.975536   4.615662
    13  H    1.085611   5.930467   2.489308   4.299913   5.316070
    14  C    4.893937   3.424814   6.160781   4.892843   2.441136
    15  C    5.057203   2.137606   5.827991   4.072313   1.372974
    16  H    6.118208   2.465314   6.746342   4.770646   2.135203
    17  C    6.257043   4.674531   7.646927   6.372071   3.809122
    18  H    6.978599   4.719501   8.194892   6.685079   4.025393
    19  H    6.379336   5.506796   7.980503   6.975060   4.566873
    20  H    6.729570   5.112231   8.119563   6.838497   4.294789
    21  O    4.210576   5.272207   6.122689   5.823085   4.186083
    22  S    5.239438   6.291402   7.170294   6.924736   5.237246
    23  O    6.380235   7.448506   8.400649   8.197160   6.384191
    24  O    5.642006   5.851802   7.310650   6.736127   4.896043
    25  C    4.694139   7.065889   6.704675   7.071029   6.048232
    26  F    5.904962   8.198808   7.856481   8.259361   7.201670
    27  F    3.922181   6.434197   5.744559   6.183178   5.505416
    28  F    4.477587   7.516086   6.609254   7.286146   6.482457
                   11         12         13         14         15
    11  C    0.000000
    12  H    2.741433   0.000000
    13  H    4.629088   2.460366   0.000000
    14  C    1.379214   4.115760   5.860532   0.000000
    15  C    2.388810   4.869955   6.117781   1.421077   0.000000
    16  H    3.366884   5.938138   7.186030   2.157366   1.085893
    17  C    2.532335   5.142658   7.159276   1.505371   2.537251
    18  H    3.371243   6.026210   7.924488   2.145785   2.675989
    19  H    2.712449   4.968797   7.180004   2.161884   3.408129
    20  H    3.065997   5.582129   7.615720   2.152688   3.049414
    21  O    1.414247   2.498006   4.854561   2.413392   3.693584
    22  S    2.651182   3.443698   5.770675   3.317752   4.618631
    23  O    3.716163   4.392073   6.820717   4.204289   5.604013
    24  O    2.882199   4.248469   6.303331   3.142774   4.218207
    25  C    3.625349   2.909055   4.916341   4.686032   5.807453
    26  F    4.820940   4.194999   6.034712   5.736794   6.879802
    27  F    3.552424   2.659694   4.175876   4.657183   5.519357
    28  F    3.972817   2.499710   4.498671   5.186272   6.330290
                   16         17         18         19         20
    16  H    0.000000
    17  C    2.712259   0.000000
    18  H    2.454740   1.093050   0.000000
    19  H    3.705141   1.092615   1.772250   0.000000
    20  H    3.118061   1.094649   1.770291   1.764402   0.000000
    21  O    4.564565   2.890389   3.867795   2.547945   3.313975
    22  S    5.353372   3.341740   4.423286   2.991805   3.239328
    23  O    6.221533   3.783864   4.748767   3.069874   3.711411
    24  O    4.814916   3.142533   4.190054   3.229596   2.641273
    25  C    6.696048   5.078227   6.163289   4.773173   4.997408
    26  F    7.689705   5.913643   7.000744   5.575041   5.640694
    27  F    6.458690   5.364250   6.425778   5.308590   5.267044
    28  F    7.281324   5.636712   6.671555   5.164137   5.776848
                   21         22         23         24         25
    21  O    0.000000
    22  S    1.643530   0.000000
    23  O    2.477080   1.450599   0.000000
    24  O    2.555419   1.453314   2.557585   0.000000
    25  C    2.687485   1.866857   2.675707   2.678991   0.000000
    26  F    3.844707   2.606833   2.995758   3.156208   1.330699
    27  F    3.104866   2.632626   3.802387   2.915031   1.330521
    28  F    2.879427   2.638685   3.057042   3.795236   1.333987
                   26         27         28
    26  F    0.000000
    27  F    2.176584   0.000000
    28  F    2.178238   2.178850   0.000000
 Stoichiometry    C12H9F3O3S
 Framework group  C1[X(C12H9F3O3S)]
 Deg. of freedom    78
 Full point group                 C1      NOp   1
 Largest Abelian subgroup         C1      NOp   1
 Largest concise Abelian subgroup C1      NOp   1
                         Standard orientation:                         
 ---------------------------------------------------------------------
 Center     Atomic      Atomic             Coordinates (Angstroms)
 Number     Number       Type             X           Y           Z
 ---------------------------------------------------------------------
      1          6           0        3.452845   -2.314628    0.009616
      2          6           0        3.795162   -1.025367    0.346696
      3          6           0        2.866653    0.036698    0.196025
      4          6           0        1.556441   -0.256151   -0.301066
      5          6           0        1.234814   -1.591424   -0.657105
      6          6           0        2.164215   -2.595132   -0.502822
      7          1           0        4.190899    1.599528    0.889456
      8          1           0        4.171887   -3.119151    0.127923
      9          1           0        4.786045   -0.798013    0.729548
     10          6           0        3.196766    1.380343    0.510853
     11          6           0        0.648163    0.828057   -0.431011
     12          1           0        0.257635   -1.809980   -1.066387
     13          1           0        1.907788   -3.612545   -0.781512
     14          6           0        0.976712    2.140310   -0.162166
     15          6           0        2.287416    2.392211    0.325749
     16          1           0        2.561173    3.418332    0.552237
     17          6           0        0.009717    3.277469   -0.356927
     18          1           0        0.547264    4.192574   -0.618433
     19          1           0       -0.710527    3.062864   -1.150023
     20          1           0       -0.556491    3.467401    0.560456
     21          8           0       -0.627766    0.523402   -0.959485
     22         16           0       -1.957153    0.600068    0.003865
     23          8           0       -3.037085    1.085072   -0.834440
     24          8           0       -1.630699    1.170574    1.300041
     25          6           0       -2.257395   -1.222808    0.272439
     26          9           0       -3.453126   -1.364723    0.838874
     27          9           0       -1.318464   -1.718864    1.074076
     28          9           0       -2.235730   -1.864408   -0.896920
 ---------------------------------------------------------------------
 Rotational constants (GHZ):           0.5531536           0.3058488           0.2190420
 Standard basis: def2TZVPP (5D, 7F)
 There are   831 symmetry adapted cartesian basis functions of A   symmetry.
 There are   726 symmetry adapted basis functions of A   symmetry.
   726 basis functions,  1140 primitive gaussians,   831 cartesian basis functions
    74 alpha electrons       74 beta electrons
       nuclear repulsion energy      1721.8636246628 Hartrees.
 NAtoms=   28 NActive=   28 NUniq=   28 SFac= 1.00D+00 NAtFMM=   60 NAOKFM=F Big=F
 Integral buffers will be    131072 words long.
 Raffenetti 2 integral format.
 Two-electron integral symmetry is turned on.
 Nuclear repulsion after empirical dispersion term =     1721.8585789754 Hartrees.
 ------------------------------------------------------------------------------
 Polarizable Continuum Model (PCM)
 =================================
 Model                : PCM.
 Atomic radii         : SMD-Coulomb.
 Polarization charges : Total charges.
 Charge compensation  : None.
 Solution method      : On-the-fly selection.
 Cavity type          : VdW (van der Waals Surface) (Alpha=1.000).
 Cavity algorithm     : GePol (No added spheres)
                        Default sphere list used, NSphG=   28.
                        Lebedev-Laikov grids with approx.  5.0 points / Ang**2.
                        Smoothing algorithm: York/Karplus (Gamma=1.0000).
                        Polarization charges: spherical gaussians, with
                                              point-specific exponents (IZeta= 3).
                        Self-potential: point-specific (ISelfS= 7).
                        Self-field    : sphere-specific E.n sum rule (ISelfD= 2).
 Solvent              : n,n-DiMethylFormamide, Eps=  37.219000 Eps(inf)=   2.046330
 ------------------------------------------------------------------------------
 ------------------------------------------------------------------------------
 Atomic radii for non-electrostatic terms: SMD-CDS.
 ------------------------------------------------------------------------------
 Nuclear repulsion after PCM non-electrostatic terms =     1721.8547817571 Hartrees.
 One-electron integrals computed using PRISM.
   1 Symmetry operations used in ECPInt.
 ECPInt:  NShTT=   35511 NPrTT=  106028 LenC2=   31458 LenP2D=   67945.
 LDataN:  DoStor=T MaxTD1= 6 Len=  172
 NBasis=   726 RedAO= T EigKep=  4.84D-06  NBF=   726
 NBsUse=   726 1.00D-06 EigRej= -1.00D+00 NBFU=   726
 ExpMin= 9.52D-02 ExpMax= 6.07D+04 ExpMxC= 2.07D+03 IAcc=3 IRadAn=         5 AccDes= 0.00D+00
 Harris functional with IExCor= 1009 and IRadAn=       5 diagonalized for initial guess.
 HarFok:  IExCor= 1009 AccDes= 0.00D+00 IRadAn=         5 IDoV= 1 UseB2=F ITyADJ=14
 ICtDFT=  3500011 ScaDFX=  1.000000  1.000000  1.000000  1.000000
 FoFCou: FMM=F IPFlag=           0 FMFlag=      100000 FMFlg1=           0
         NFxFlg=           0 DoJE=T BraDBF=F KetDBF=T FulRan=T
         wScrn=  0.000000 ICntrl=       500 IOpCl=  0 I1Cent=   200000004 NGrid=           0
         NMat0=    1 NMatS0=      1 NMatT0=    0 NMatD0=    1 NMtDS0=    0 NMtDT0=    0
 Petite list used in FoFCou.
 Requested convergence on RMS density matrix=1.00D-08 within 128 cycles.
 Requested convergence on MAX density matrix=1.00D-06.
 Requested convergence on             energy=1.00D-06.
 No special actions if energy rises.
 Inv3:  Mode=1 IEnd=    15814848.
 Iteration    1 A*A^-1 deviation from unit magnitude is 3.66D-15 for    906.
 Iteration    1 A*A^-1 deviation from orthogonality  is 1.97D-15 for   1051    979.
 Iteration    1 A^-1*A deviation from unit magnitude is 3.66D-15 for    906.
 Iteration    1 A^-1*A deviation from orthogonality  is 1.62D-15 for   1579    138.
 Error on total polarization charges =  0.03379
 SCF Done:  E(RM06) =  -1385.93432285     A.U. after   14 cycles
            NFock= 14  Conv=0.88D-08     -V/T= 2.0040
 SMD-CDS (non-electrostatic) energy       (kcal/mol) =      -2.38
 (included in total energy above)

 **********************************************************************

            Population analysis using the SCF Density.

 **********************************************************************

 Orbital symmetries:
       Occupied  (A) (A) (A) (A) (A) (A) (A) (A) (A) (A) (A) (A)
                 (A) (A) (A) (A) (A) (A) (A) (A) (A) (A) (A) (A)
                 (A) (A) (A) (A) (A) (A) (A) (A) (A) (A) (A) (A)
                 (A) (A) (A) (A) (A) (A) (A) (A) (A) (A) (A) (A)
                 (A) (A) (A) (A) (A) (A) (A) (A) (A) (A) (A) (A)
                 (A) (A) (A) (A) (A) (A) (A) (A) (A) (A) (A) (A)
                 (A) (A)
       Virtual   (A) (A) (A) (A) (A) (A) (A) (A) (A) (A) (A) (A)
                 (A) (A) (A) (A) (A) (A) (A) (A) (A) (A) (A) (A)
                 (A) (A) (A) (A) (A) (A) (A) (A) (A) (A) (A) (A)
                 (A) (A) (A) (A) (A) (A) (A) (A) (A) (A) (A) (A)
                 (A) (A) (A) (A) (A) (A) (A) (A) (A) (A) (A) (A)
                 (A) (A) (A) (A) (A) (A) (A) (A) (A) (A) (A) (A)
                 (A) (A) (A) (A) (A) (A) (A) (A) (A) (A) (A) (A)
                 (A) (A) (A) (A) (A) (A) (A) (A) (A) (A) (A) (A)
                 (A) (A) (A) (A) (A) (A) (A) (A) (A) (A) (A) (A)
                 (A) (A) (A) (A) (A) (A) (A) (A) (A) (A) (A) (A)
                 (A) (A) (A) (A) (A) (A) (A) (A) (A) (A) (A) (A)
                 (A) (A) (A) (A) (A) (A) (A) (A) (A) (A) (A) (A)
                 (A) (A) (A) (A) (A) (A) (A) (A) (A) (A) (A) (A)
                 (A) (A) (A) (A) (A) (A) (A) (A) (A) (A) (A) (A)
                 (A) (A) (A) (A) (A) (A) (A) (A) (A) (A) (A) (A)
                 (A) (A) (A) (A) (A) (A) (A) (A) (A) (A) (A) (A)
                 (A) (A) (A) (A) (A) (A) (A) (A) (A) (A) (A) (A)
                 (A) (A) (A) (A) (A) (A) (A) (A) (A) (A) (A) (A)
                 (A) (A) (A) (A) (A) (A) (A) (A) (A) (A) (A) (A)
                 (A) (A) (A) (A) (A) (A) (A) (A) (A) (A) (A) (A)
                 (A) (A) (A) (A) (A) (A) (A) (A) (A) (A) (A) (A)
                 (A) (A) (A) (A) (A) (A) (A) (A) (A) (A) (A) (A)
                 (A) (A) (A) (A) (A) (A) (A) (A) (A) (A) (A) (A)
                 (A) (A) (A) (A) (A) (A) (A) (A) (A) (A) (A) (A)
                 (A) (A) (A) (A) (A) (A) (A) (A) (A) (A) (A) (A)
                 (A) (A) (A) (A) (A) (A) (A) (A) (A) (A) (A) (A)
                 (A) (A) (A) (A) (A) (A) (A) (A) (A) (A) (A) (A)
                 (A) (A) (A) (A) (A) (A) (A) (A) (A) (A) (A) (A)
                 (A) (A) (A) (A) (A) (A) (A) (A) (A) (A) (A) (A)
                 (A) (A) (A) (A) (A) (A) (A) (A) (A) (A) (A) (A)
                 (A) (A) (A) (A) (A) (A) (A) (A) (A) (A) (A) (A)
                 (A) (A) (A) (A) (A) (A) (A) (A) (A) (A) (A) (A)
                 (A) (A) (A) (A) (A) (A) (A) (A) (A) (A) (A) (A)
                 (A) (A) (A) (A) (A) (A) (A) (A) (A) (A) (A) (A)
                 (A) (A) (A) (A) (A) (A) (A) (A) (A) (A) (A) (A)
                 (A) (A) (A) (A) (A) (A) (A) (A) (A) (A) (A) (A)
                 (A) (A) (A) (A) (A) (A) (A) (A) (A) (A) (A) (A)
                 (A) (A) (A) (A) (A) (A) (A) (A) (A) (A) (A) (A)
                 (A) (A) (A) (A) (A) (A) (A) (A) (A) (A) (A) (A)
                 (A) (A) (A) (A) (A) (A) (A) (A) (A) (A) (A) (A)
                 (A) (A) (A) (A) (A) (A) (A) (A) (A) (A) (A) (A)
                 (A) (A) (A) (A) (A) (A) (A) (A) (A) (A) (A) (A)
                 (A) (A) (A) (A) (A) (A) (A) (A) (A) (A) (A) (A)
                 (A) (A) (A) (A) (A) (A) (A) (A) (A) (A) (A) (A)
                 (A) (A) (A) (A) (A) (A) (A) (A) (A) (A) (A) (A)
                 (A) (A) (A) (A) (A) (A) (A) (A) (A) (A) (A) (A)
                 (A) (A) (A) (A) (A) (A) (A) (A) (A) (A) (A) (A)
                 (A) (A) (A) (A) (A) (A) (A) (A) (A) (A) (A) (A)
                 (A) (A) (A) (A) (A) (A) (A) (A) (A) (A) (A) (A)
                 (A) (A) (A) (A) (A) (A) (A) (A) (A) (A) (A) (A)
                 (A) (A) (A) (A) (A) (A) (A) (A) (A) (A) (A) (A)
                 (A) (A) (A) (A) (A) (A) (A) (A) (A) (A) (A) (A)
                 (A) (A) (A) (A) (A) (A) (A) (A) (A) (A) (A) (A)
                 (A) (A) (A) (A) (A) (A) (A) (A) (A) (A) (A) (A)
                 (A) (A) (A) (A)
 The electronic state is 1-A.
 Alpha  occ. eigenvalues --  -89.29325 -24.84979 -24.84973 -24.84928 -19.30076
 Alpha  occ. eigenvalues --  -19.25656 -19.25443 -10.54529 -10.31657 -10.26730
 Alpha  occ. eigenvalues --  -10.26522 -10.25994 -10.24858 -10.24741 -10.24703
 Alpha  occ. eigenvalues --  -10.24635 -10.24608 -10.24403 -10.23406  -8.27362
 Alpha  occ. eigenvalues --   -6.19153  -6.18911  -6.18807  -1.39272  -1.30986
 Alpha  occ. eigenvalues --   -1.30895  -1.19730  -1.10422  -1.07877  -0.89755
 Alpha  occ. eigenvalues --   -0.84907  -0.80947  -0.78741  -0.78046  -0.74622
 Alpha  occ. eigenvalues --   -0.72122  -0.69893  -0.66086  -0.65774  -0.65132
 Alpha  occ. eigenvalues --   -0.63932  -0.62134  -0.59467  -0.56715  -0.54354
 Alpha  occ. eigenvalues --   -0.53651  -0.52952  -0.52347  -0.50987  -0.50561
 Alpha  occ. eigenvalues --   -0.50030  -0.49504  -0.49385  -0.47642  -0.47186
 Alpha  occ. eigenvalues --   -0.46777  -0.44492  -0.44079  -0.43755  -0.42011
 Alpha  occ. eigenvalues --   -0.41333  -0.40670  -0.40454  -0.38971  -0.38588
 Alpha  occ. eigenvalues --   -0.38146  -0.37404  -0.36816  -0.35297  -0.35178
 Alpha  occ. eigenvalues --   -0.34114  -0.30450  -0.26267  -0.23770
 Alpha virt. eigenvalues --   -0.05313  -0.02368  -0.00201   0.02370   0.02900
 Alpha virt. eigenvalues --    0.04962   0.05044   0.06263   0.06710   0.07109
 Alpha virt. eigenvalues --    0.08153   0.09189   0.09751   0.11174   0.11884
 Alpha virt. eigenvalues --    0.12413   0.13170   0.13698   0.14189   0.15185
 Alpha virt. eigenvalues --    0.15311   0.16050   0.17270   0.17549   0.17869
 Alpha virt. eigenvalues --    0.19018   0.20001   0.20442   0.20832   0.21642
 Alpha virt. eigenvalues --    0.22006   0.22171   0.23269   0.23833   0.23875
 Alpha virt. eigenvalues --    0.25023   0.25152   0.25660   0.26123   0.27097
 Alpha virt. eigenvalues --    0.27712   0.28265   0.28868   0.29405   0.29677
 Alpha virt. eigenvalues --    0.30161   0.30734   0.31513   0.32233   0.33281
 Alpha virt. eigenvalues --    0.33783   0.34142   0.34668   0.35118   0.35432
 Alpha virt. eigenvalues --    0.36096   0.36799   0.37209   0.37357   0.37755
 Alpha virt. eigenvalues --    0.38496   0.38772   0.39116   0.39494   0.40542
 Alpha virt. eigenvalues --    0.41579   0.42040   0.43243   0.43451   0.44133
 Alpha virt. eigenvalues --    0.44458   0.45238   0.45623   0.46230   0.46721
 Alpha virt. eigenvalues --    0.47074   0.47881   0.48934   0.49727   0.50318
 Alpha virt. eigenvalues --    0.51470   0.51941   0.52734   0.52946   0.53630
 Alpha virt. eigenvalues --    0.54084   0.54858   0.55806   0.56381   0.58607
 Alpha virt. eigenvalues --    0.58959   0.59641   0.60139   0.60723   0.62252
 Alpha virt. eigenvalues --    0.62486   0.63141   0.64151   0.64360   0.65544
 Alpha virt. eigenvalues --    0.65956   0.66549   0.67529   0.68320   0.68947
 Alpha virt. eigenvalues --    0.69570   0.70163   0.70409   0.70895   0.72094
 Alpha virt. eigenvalues --    0.72592   0.72915   0.73205   0.74978   0.75859
 Alpha virt. eigenvalues --    0.76990   0.77344   0.78293   0.79277   0.79477
 Alpha virt. eigenvalues --    0.80043   0.80842   0.81261   0.82788   0.83253
 Alpha virt. eigenvalues --    0.83503   0.84237   0.84988   0.85540   0.86773
 Alpha virt. eigenvalues --    0.87104   0.88054   0.88731   0.89231   0.89714
 Alpha virt. eigenvalues --    0.91239   0.91896   0.92291   0.92812   0.93618
 Alpha virt. eigenvalues --    0.93716   0.94828   0.95091   0.96024   0.97462
 Alpha virt. eigenvalues --    0.98179   0.98452   0.99043   1.00396   1.01780
 Alpha virt. eigenvalues --    1.02804   1.04203   1.04482   1.05239   1.05580
 Alpha virt. eigenvalues --    1.06696   1.08337   1.09059   1.09724   1.10646
 Alpha virt. eigenvalues --    1.11611   1.12421   1.12880   1.13842   1.15399
 Alpha virt. eigenvalues --    1.16220   1.16742   1.18999   1.20009   1.20549
 Alpha virt. eigenvalues --    1.21568   1.21788   1.23148   1.24433   1.24894
 Alpha virt. eigenvalues --    1.25739   1.26507   1.27781   1.28477   1.28868
 Alpha virt. eigenvalues --    1.30440   1.31430   1.31727   1.32755   1.33719
 Alpha virt. eigenvalues --    1.34723   1.35265   1.36243   1.36860   1.37750
 Alpha virt. eigenvalues --    1.38848   1.39520   1.40790   1.41160   1.41537
 Alpha virt. eigenvalues --    1.42425   1.43524   1.44509   1.45034   1.45878
 Alpha virt. eigenvalues --    1.46486   1.46815   1.47626   1.48881   1.49318
 Alpha virt. eigenvalues --    1.51005   1.51838   1.52675   1.55611   1.55746
 Alpha virt. eigenvalues --    1.56514   1.57954   1.58217   1.59248   1.59997
 Alpha virt. eigenvalues --    1.60461   1.61020   1.61884   1.64030   1.64654
 Alpha virt. eigenvalues --    1.66147   1.67159   1.67771   1.69066   1.69914
 Alpha virt. eigenvalues --    1.70619   1.71551   1.73100   1.74057   1.75190
 Alpha virt. eigenvalues --    1.75872   1.76730   1.78132   1.79243   1.80721
 Alpha virt. eigenvalues --    1.82983   1.84515   1.85102   1.86312   1.87829
 Alpha virt. eigenvalues --    1.88152   1.89799   1.91879   1.93503   1.95520
 Alpha virt. eigenvalues --    1.97042   1.97572   1.98062   1.98795   1.99753
 Alpha virt. eigenvalues --    2.00176   2.01066   2.02205   2.03600   2.04461
 Alpha virt. eigenvalues --    2.05823   2.06935   2.08153   2.08958   2.10066
 Alpha virt. eigenvalues --    2.11958   2.13314   2.14836   2.15982   2.17293
 Alpha virt. eigenvalues --    2.19165   2.19443   2.22107   2.22390   2.23879
 Alpha virt. eigenvalues --    2.25323   2.26216   2.26974   2.27502   2.29443
 Alpha virt. eigenvalues --    2.30185   2.31492   2.32506   2.33185   2.34961
 Alpha virt. eigenvalues --    2.35303   2.36694   2.37206   2.37612   2.38388
 Alpha virt. eigenvalues --    2.39523   2.40701   2.41886   2.43599   2.44838
 Alpha virt. eigenvalues --    2.45991   2.47060   2.47933   2.49470   2.51818
 Alpha virt. eigenvalues --    2.52010   2.52934   2.53821   2.57127   2.57740
 Alpha virt. eigenvalues --    2.60433   2.62047   2.62386   2.65707   2.67046
 Alpha virt. eigenvalues --    2.67676   2.68191   2.69169   2.69718   2.70438
 Alpha virt. eigenvalues --    2.71410   2.72403   2.73111   2.74093   2.75143
 Alpha virt. eigenvalues --    2.76577   2.77123   2.77757   2.78629   2.80549
 Alpha virt. eigenvalues --    2.81121   2.83274   2.83634   2.83976   2.85323
 Alpha virt. eigenvalues --    2.86357   2.87301   2.88190   2.89064   2.89800
 Alpha virt. eigenvalues --    2.91168   2.91546   2.91989   2.92652   2.93477
 Alpha virt. eigenvalues --    2.93683   2.94363   2.96469   2.96581   2.97154
 Alpha virt. eigenvalues --    2.97760   2.97955   2.98755   2.99026   2.99236
 Alpha virt. eigenvalues --    3.01044   3.01276   3.01942   3.02821   3.04312
 Alpha virt. eigenvalues --    3.05927   3.06054   3.07910   3.08110   3.08848
 Alpha virt. eigenvalues --    3.09510   3.10365   3.11620   3.11859   3.12618
 Alpha virt. eigenvalues --    3.13951   3.14393   3.14909   3.15718   3.16480
 Alpha virt. eigenvalues --    3.17976   3.18752   3.19399   3.20651   3.21031
 Alpha virt. eigenvalues --    3.21919   3.22547   3.23174   3.23606   3.24554
 Alpha virt. eigenvalues --    3.26333   3.26998   3.27595   3.28916   3.29098
 Alpha virt. eigenvalues --    3.30004   3.30380   3.31489   3.32556   3.33265
 Alpha virt. eigenvalues --    3.34179   3.35327   3.35464   3.36093   3.36611
 Alpha virt. eigenvalues --    3.38030   3.39552   3.40238   3.40458   3.40496
 Alpha virt. eigenvalues --    3.41689   3.42719   3.43437   3.44391   3.45099
 Alpha virt. eigenvalues --    3.46458   3.46833   3.47035   3.48814   3.49045
 Alpha virt. eigenvalues --    3.50184   3.52324   3.52870   3.53480   3.54364
 Alpha virt. eigenvalues --    3.55182   3.56009   3.57101   3.58545   3.58912
 Alpha virt. eigenvalues --    3.59959   3.62176   3.64673   3.67823   3.68668
 Alpha virt. eigenvalues --    3.71340   3.71749   3.71979   3.72995   3.73762
 Alpha virt. eigenvalues --    3.75604   3.76388   3.76606   3.77463   3.77579
 Alpha virt. eigenvalues --    3.78353   3.79563   3.79796   3.80421   3.80924
 Alpha virt. eigenvalues --    3.81337   3.83520   3.83647   3.84537   3.85713
 Alpha virt. eigenvalues --    3.87033   3.87441   3.89536   3.90821   3.92580
 Alpha virt. eigenvalues --    3.93178   3.93902   3.95477   3.96728   3.96989
 Alpha virt. eigenvalues --    3.97405   3.97690   3.98734   3.99765   4.01657
 Alpha virt. eigenvalues --    4.03538   4.04331   4.05480   4.07126   4.08582
 Alpha virt. eigenvalues --    4.09725   4.09947   4.11220   4.12134   4.12276
 Alpha virt. eigenvalues --    4.13496   4.14104   4.15263   4.16592   4.19079
 Alpha virt. eigenvalues --    4.19456   4.20089   4.21183   4.22983   4.23335
 Alpha virt. eigenvalues --    4.25072   4.26078   4.27117   4.27439   4.28323
 Alpha virt. eigenvalues --    4.29878   4.30576   4.34612   4.35871   4.37092
 Alpha virt. eigenvalues --    4.39108   4.41791   4.42137   4.43621   4.47005
 Alpha virt. eigenvalues --    4.47977   4.53374   4.53784   4.54983   4.55468
 Alpha virt. eigenvalues --    4.56844   4.59192   4.59532   4.61140   4.62587
 Alpha virt. eigenvalues --    4.65797   4.66824   4.67795   4.68754   4.70430
 Alpha virt. eigenvalues --    4.71556   4.73259   4.76921   4.80399   4.82396
 Alpha virt. eigenvalues --    4.83299   4.86271   4.86855   4.90854   4.92261
 Alpha virt. eigenvalues --    4.93719   4.97625   4.98709   5.00421   5.02785
 Alpha virt. eigenvalues --    5.03956   5.05665   5.09195   5.10101   5.10464
 Alpha virt. eigenvalues --    5.11218   5.12503   5.13249   5.13652   5.14414
 Alpha virt. eigenvalues --    5.15327   5.15638   5.15971   5.17335   5.18612
 Alpha virt. eigenvalues --    5.19852   5.20506   5.20987   5.21755   5.22074
 Alpha virt. eigenvalues --    5.23011   5.23784   5.25712   5.26160   5.27088
 Alpha virt. eigenvalues --    5.30064   5.30601   5.32144   5.36013   5.38443
 Alpha virt. eigenvalues --    5.40409   5.42879   5.49411   5.50934   5.51647
 Alpha virt. eigenvalues --    5.52485   5.53299   5.55462   5.58349   5.59664
 Alpha virt. eigenvalues --    5.61061   5.61898   5.64836   5.68562   5.79612
 Alpha virt. eigenvalues --    5.84868   5.87074   5.91987   5.93674   6.02102
 Alpha virt. eigenvalues --    6.11318   6.21866   6.29288   6.33974   6.34996
 Alpha virt. eigenvalues --    6.39729   6.47122   6.60374   6.66449   6.69407
 Alpha virt. eigenvalues --    6.70406   6.72351   6.75852   6.79386   6.81000
 Alpha virt. eigenvalues --    6.83110   6.83274   6.83390   6.83859   6.83896
 Alpha virt. eigenvalues --    6.84188   6.84566   6.84952   6.85899   6.87594
 Alpha virt. eigenvalues --    6.90270   6.93072   6.93800   6.97737   6.98087
 Alpha virt. eigenvalues --    7.03457   7.04302   7.05529   7.08319   7.11577
 Alpha virt. eigenvalues --    7.24519   7.29320   7.30118   7.34269   7.43775
 Alpha virt. eigenvalues --    7.56087   7.56458   7.57090   7.66640   7.87190
 Alpha virt. eigenvalues --    8.33064   8.34851   8.35599   8.47866   8.48790
 Alpha virt. eigenvalues --    8.52714   8.74633   8.81179   8.81593   8.83549
 Alpha virt. eigenvalues --    8.95868   9.03153   9.03796   9.08545   9.11032
 Alpha virt. eigenvalues --    9.45554   9.57797  10.00722  22.28062  22.42744
 Alpha virt. eigenvalues --   22.69510  22.96143  23.04470  23.11534  23.14141
 Alpha virt. eigenvalues --   23.18699  23.28447  23.32833  23.60537  23.72793
 Alpha virt. eigenvalues --   24.18077  43.62780  43.89522  44.19631  57.10069
 Alpha virt. eigenvalues --   57.10927  57.29826
          Condensed to atoms (all electrons):
               1          2          3          4          5          6
     1  C    5.161586   0.414014   0.011943  -0.090054   0.048053   0.348669
     2  C    0.414014   5.185344   0.310887   0.000936  -0.157606   0.015804
     3  C    0.011943   0.310887   5.804838  -0.032831   0.030182  -0.073289
     4  C   -0.090054   0.000936  -0.032831   5.912947   0.143874   0.008198
     5  C    0.048053  -0.157606   0.030182   0.143874   5.693352   0.324611
     6  C    0.348669   0.015804  -0.073289   0.008198   0.324611   5.183165
     7  H   -0.002545   0.003960  -0.019430   0.026523  -0.000986   0.000606
     8  H    0.432324  -0.048645   0.012294  -0.003791   0.016244  -0.049557
     9  H   -0.028007   0.377334  -0.017198   0.026882  -0.003925   0.006719
    10  C    0.020257  -0.092247   0.215241   0.126834   0.048144  -0.016289
    11  C   -0.023508   0.046353   0.163693  -0.071635  -0.141840   0.033991
    12  H    0.000067   0.000662   0.001997  -0.015185   0.347501   0.022262
    13  H   -0.037786   0.009595  -0.000692   0.009631  -0.040939   0.420852
    14  C    0.002951  -0.012198  -0.244644   0.228723   0.029322  -0.007723
    15  C   -0.004285   0.019854   0.105638  -0.219371  -0.021688   0.004467
    16  H    0.000005  -0.000460   0.011293  -0.004066   0.000047   0.000014
    17  C    0.000034  -0.000178  -0.010591   0.026788   0.000463  -0.000143
    18  H    0.000000   0.000002   0.000200  -0.000602   0.000031   0.000001
    19  H   -0.000003   0.000007  -0.000836   0.002035   0.000113   0.000007
    20  H   -0.000001   0.000009   0.001009  -0.002994  -0.000117   0.000002
    21  O    0.000027  -0.000187   0.001669  -0.010078   0.007482   0.001069
    22  S   -0.000046   0.000056   0.003526   0.002449  -0.006718  -0.000054
    23  O    0.000000  -0.000001  -0.000035  -0.000148   0.000030  -0.000013
    24  O   -0.000008   0.000039   0.001951  -0.009344  -0.001410  -0.000017
    25  C   -0.000133   0.000061   0.000553  -0.003596   0.004752   0.001209
    26  F   -0.000000   0.000000  -0.000001   0.000088  -0.000175   0.000013
    27  F   -0.000598   0.000396  -0.001635  -0.002323  -0.018987   0.003936
    28  F    0.000003  -0.000003  -0.000091   0.000536  -0.002395   0.000081
               7          8          9         10         11         12
     1  C   -0.002545   0.432324  -0.028007   0.020257  -0.023508   0.000067
     2  C    0.003960  -0.048645   0.377334  -0.092247   0.046353   0.000662
     3  C   -0.019430   0.012294  -0.017198   0.215241   0.163693   0.001997
     4  C    0.026523  -0.003791   0.026882   0.126834  -0.071635  -0.015185
     5  C   -0.000986   0.016244  -0.003925   0.048144  -0.141840   0.347501
     6  C    0.000606  -0.049557   0.006719  -0.016289   0.033991   0.022262
     7  H    0.400130  -0.000031   0.009876   0.375655  -0.002750  -0.000001
     8  H   -0.000031   0.400731  -0.002083  -0.000349  -0.000121  -0.000140
     9  H    0.009876  -0.002083   0.400200   0.001494  -0.000385   0.000002
    10  C    0.375655  -0.000349   0.001494   5.194038  -0.275250   0.000367
    11  C   -0.002750  -0.000121  -0.000385  -0.275250   6.027756  -0.000836
    12  H   -0.000001  -0.000140   0.000002   0.000367  -0.000836   0.330831
    13  H   -0.000003  -0.002848  -0.000151  -0.000070  -0.000229   0.000300
    14  C    0.008627   0.000032   0.000465   0.160081  -0.039788  -0.001346
    15  C   -0.030898  -0.000025  -0.002495   0.337090   0.183138  -0.000300
    16  H   -0.001927  -0.000000  -0.000028  -0.039153   0.024203   0.000000
    17  C   -0.000095   0.000000   0.000000   0.015308  -0.189158  -0.000002
    18  H   -0.000015  -0.000000  -0.000000  -0.001071   0.030642   0.000003
    19  H    0.000011  -0.000000   0.000000   0.000743  -0.035222   0.000023
    20  H   -0.000010  -0.000000  -0.000000  -0.001947  -0.003636  -0.000011
    21  O    0.000025  -0.000000   0.000007   0.000375   0.072404   0.004407
    22  S   -0.000006   0.000000   0.000000  -0.001379  -0.039234  -0.001278
    23  O    0.000000   0.000000   0.000000   0.000016   0.006345  -0.000009
    24  O   -0.000007   0.000000   0.000000  -0.002547   0.043388  -0.000009
    25  C   -0.000000  -0.000001   0.000000  -0.000045   0.006718  -0.001186
    26  F   -0.000000  -0.000000   0.000000  -0.000000  -0.000175   0.000067
    27  F   -0.000000  -0.000003   0.000001  -0.000082   0.007587   0.001119
    28  F    0.000000   0.000000   0.000000   0.000001  -0.002142   0.002497
              13         14         15         16         17         18
     1  C   -0.037786   0.002951  -0.004285   0.000005   0.000034   0.000000
     2  C    0.009595  -0.012198   0.019854  -0.000460  -0.000178   0.000002
     3  C   -0.000692  -0.244644   0.105638   0.011293  -0.010591   0.000200
     4  C    0.009631   0.228723  -0.219371  -0.004066   0.026788  -0.000602
     5  C   -0.040939   0.029322  -0.021688   0.000047   0.000463   0.000031
     6  C    0.420852  -0.007723   0.004467   0.000014  -0.000143   0.000001
     7  H   -0.000003   0.008627  -0.030898  -0.001927  -0.000095  -0.000015
     8  H   -0.002848   0.000032  -0.000025  -0.000000   0.000000  -0.000000
     9  H   -0.000151   0.000465  -0.002495  -0.000028   0.000000  -0.000000
    10  C   -0.000070   0.160081   0.337090  -0.039153   0.015308  -0.001071
    11  C   -0.000229  -0.039788   0.183138   0.024203  -0.189158   0.030642
    12  H    0.000300  -0.001346  -0.000300   0.000000  -0.000002   0.000003
    13  H    0.395953  -0.000051   0.000035   0.000000  -0.000001   0.000000
    14  C   -0.000051   5.872980   0.074278  -0.049865   0.205726  -0.024439
    15  C    0.000035   0.074278   5.366200   0.420851  -0.070614  -0.027995
    16  H    0.000000  -0.049865   0.420851   0.416176  -0.004504   0.003234
    17  C   -0.000001   0.205726  -0.070614  -0.004504   5.287987   0.385053
    18  H    0.000000  -0.024439  -0.027995   0.003234   0.385053   0.474991
    19  H   -0.000000  -0.051173   0.007644  -0.000383   0.436721  -0.007868
    20  H    0.000000  -0.039194   0.000289   0.000347   0.397984  -0.008757
    21  O   -0.000001  -0.016472   0.006575  -0.000196  -0.015453  -0.000057
    22  S    0.000006  -0.012865   0.005531   0.000036  -0.002782  -0.000173
    23  O   -0.000000  -0.002022  -0.000267   0.000000  -0.004119   0.000114
    24  O   -0.000000  -0.029913   0.007040   0.000140  -0.009094   0.000598
    25  C    0.000047  -0.001720   0.000058   0.000000  -0.000536   0.000002
    26  F   -0.000000   0.000009   0.000000  -0.000000   0.000022  -0.000000
    27  F    0.000061   0.001874   0.000075  -0.000000   0.000008  -0.000000
    28  F    0.000053   0.000026   0.000008   0.000000  -0.000003  -0.000000
              19         20         21         22         23         24
     1  C   -0.000003  -0.000001   0.000027  -0.000046   0.000000  -0.000008
     2  C    0.000007   0.000009  -0.000187   0.000056  -0.000001   0.000039
     3  C   -0.000836   0.001009   0.001669   0.003526  -0.000035   0.001951
     4  C    0.002035  -0.002994  -0.010078   0.002449  -0.000148  -0.009344
     5  C    0.000113  -0.000117   0.007482  -0.006718   0.000030  -0.001410
     6  C    0.000007   0.000002   0.001069  -0.000054  -0.000013  -0.000017
     7  H    0.000011  -0.000010   0.000025  -0.000006   0.000000  -0.000007
     8  H   -0.000000  -0.000000  -0.000000   0.000000   0.000000   0.000000
     9  H    0.000000  -0.000000   0.000007   0.000000   0.000000   0.000000
    10  C    0.000743  -0.001947   0.000375  -0.001379   0.000016  -0.002547
    11  C   -0.035222  -0.003636   0.072404  -0.039234   0.006345   0.043388
    12  H    0.000023  -0.000011   0.004407  -0.001278  -0.000009  -0.000009
    13  H   -0.000000   0.000000  -0.000001   0.000006  -0.000000  -0.000000
    14  C   -0.051173  -0.039194  -0.016472  -0.012865  -0.002022  -0.029913
    15  C    0.007644   0.000289   0.006575   0.005531  -0.000267   0.007040
    16  H   -0.000383   0.000347  -0.000196   0.000036   0.000000   0.000140
    17  C    0.436721   0.397984  -0.015453  -0.002782  -0.004119  -0.009094
    18  H   -0.007868  -0.008757  -0.000057  -0.000173   0.000114   0.000598
    19  H    0.480694  -0.024931   0.007489  -0.003103   0.004067  -0.002591
    20  H   -0.024931   0.486438   0.000461  -0.000333   0.000553   0.002387
    21  O    0.007489   0.000461   8.140927   0.257851  -0.037851  -0.035359
    22  S   -0.003103  -0.000333   0.257851  13.766312   0.495352   0.456650
    23  O    0.004067   0.000553  -0.037851   0.495352   8.001833  -0.036132
    24  O   -0.002591   0.002387  -0.035359   0.456650  -0.036132   8.027586
    25  C    0.000062   0.000116  -0.007363   0.360145  -0.015820  -0.011799
    26  F   -0.000007  -0.000006   0.000589  -0.037295   0.001241   0.000925
    27  F   -0.000010  -0.000013  -0.000727  -0.036577   0.000937  -0.001354
    28  F   -0.000021  -0.000003  -0.001521  -0.035531  -0.000184   0.000813
              25         26         27         28
     1  C   -0.000133  -0.000000  -0.000598   0.000003
     2  C    0.000061   0.000000   0.000396  -0.000003
     3  C    0.000553  -0.000001  -0.001635  -0.000091
     4  C   -0.003596   0.000088  -0.002323   0.000536
     5  C    0.004752  -0.000175  -0.018987  -0.002395
     6  C    0.001209   0.000013   0.003936   0.000081
     7  H   -0.000000  -0.000000  -0.000000   0.000000
     8  H   -0.000001  -0.000000  -0.000003   0.000000
     9  H    0.000000   0.000000   0.000001   0.000000
    10  C   -0.000045  -0.000000  -0.000082   0.000001
    11  C    0.006718  -0.000175   0.007587  -0.002142
    12  H   -0.001186   0.000067   0.001119   0.002497
    13  H    0.000047  -0.000000   0.000061   0.000053
    14  C   -0.001720   0.000009   0.001874   0.000026
    15  C    0.000058   0.000000   0.000075   0.000008
    16  H    0.000000  -0.000000  -0.000000   0.000000
    17  C   -0.000536   0.000022   0.000008  -0.000003
    18  H    0.000002  -0.000000  -0.000000  -0.000000
    19  H    0.000062  -0.000007  -0.000010  -0.000021
    20  H    0.000116  -0.000006  -0.000013  -0.000003
    21  O   -0.007363   0.000589  -0.000727  -0.001521
    22  S    0.360145  -0.037295  -0.036577  -0.035531
    23  O   -0.015820   0.001241   0.000937  -0.000184
    24  O   -0.011799   0.000925  -0.001354   0.000813
    25  C    4.218233   0.296102   0.292738   0.287589
    26  F    0.296102   8.999980  -0.042094  -0.041431
    27  F    0.292738  -0.042094   9.009890  -0.040926
    28  F    0.287589  -0.041431  -0.040926   9.011389
 Mulliken charges:
               1
     1  C   -0.252960
     2  C   -0.073788
     3  C   -0.275643
     4  C   -0.050428
     5  C   -0.297416
     6  C   -0.228592
     7  H    0.233291
     8  H    0.245969
     9  H    0.231290
    10  C   -0.065215
    11  C    0.179690
    12  H    0.308196
    13  H    0.246238
    14  C   -0.051685
    15  C   -0.160835
    16  H    0.224236
    17  C   -0.448819
    18  H    0.176106
    19  H    0.186533
    20  H    0.192359
    21  O   -0.376092
    22  S    0.829461
    23  O   -0.413887
    24  O   -0.401931
    25  C    0.573813
    26  F   -0.177852
    27  F   -0.173294
    28  F   -0.178744
 Sum of Mulliken charges =  -0.00000
 Mulliken charges with hydrogens summed into heavy atoms:
               1
     1  C   -0.006991
     2  C    0.157502
     3  C   -0.275643
     4  C   -0.050428
     5  C    0.010779
     6  C    0.017646
    10  C    0.168075
    11  C    0.179690
    14  C   -0.051685
    15  C    0.063401
    17  C    0.106180
    21  O   -0.376092
    22  S    0.829461
    23  O   -0.413887
    24  O   -0.401931
    25  C    0.573813
    26  F   -0.177852
    27  F   -0.173294
    28  F   -0.178744
 Electronic spatial extent (au):  <R**2>=           4819.6090
 Charge=             -0.0000 electrons
 Dipole moment (field-independent basis, Debye):
    X=              4.1036    Y=             -0.4455    Z=              0.1716  Tot=              4.1313
 Quadrupole moment (field-independent basis, Debye-Ang):
   XX=           -108.4943   YY=            -98.8016   ZZ=           -119.7832
   XY=              4.8811   XZ=              2.0456   YZ=              1.0750
 Traceless Quadrupole moment (field-independent basis, Debye-Ang):
   XX=              0.5320   YY=             10.2248   ZZ=            -10.7568
   XY=              4.8811   XZ=              2.0456   YZ=              1.0750
 Octapole moment (field-independent basis, Debye-Ang**2):
  XXX=              3.6866  YYY=            -11.6577  ZZZ=              4.4139  XYY=              3.6065
  XXY=            -25.1926  XXZ=             29.7677  XZZ=            -28.8080  YZZ=             -9.6085
  YYZ=             -2.5220  XYZ=              3.1232
 Hexadecapole moment (field-independent basis, Debye-Ang**3):
 XXXX=          -3454.6812 YYYY=          -1839.0071 ZZZZ=           -387.2190 XXXY=             74.1599
 XXXZ=             55.0205 YYYX=             53.1598 YYYZ=              9.1801 ZZZX=             -9.9440
 ZZZY=            -15.3934 XXYY=           -879.6154 XXZZ=           -708.6975 YYZZ=           -420.4539
 XXYZ=             13.9768 YYXZ=              1.1477 ZZXY=             34.5630
 N-N= 1.721854781757D+03 E-N=-6.709228279389D+03  KE= 1.380457976647D+03
 Unable to Open any file for archive entry.
 1\1\GINC-NODE1\SP\RM06\def2TZVPP\C12H9F3O3S1\LLG_HG\03-Dec-2023\0\\# m
 06/def2tzvpp scrf=(smd,solvent=n,n-dimethylformamide) em=gd3\\Title Ca
 rd Required\\0,1\C,0,3.452845,-2.314628,0.009616\C,0,3.795162,-1.02536
 7,0.346696\C,0,2.866653,0.036698,0.196025\C,0,1.556441,-0.256151,-0.30
 1066\C,0,1.234814,-1.591424,-0.657105\C,0,2.164215,-2.595132,-0.502822
 \H,0,4.190899,1.599528,0.889456\H,0,4.171887,-3.119151,0.127923\H,0,4.
 786045,-0.798013,0.729548\C,0,3.196766,1.380343,0.510853\C,0,0.648163,
 0.828057,-0.431011\H,0,0.257635,-1.80998,-1.066387\H,0,1.907788,-3.612
 545,-0.781512\C,0,0.976712,2.14031,-0.162166\C,0,2.287416,2.392211,0.3
 25749\H,0,2.561173,3.418332,0.552237\C,0,0.009717,3.277469,-0.356927\H
 ,0,0.547264,4.192574,-0.618433\H,0,-0.710527,3.062864,-1.150023\H,0,-0
 .556491,3.467401,0.560456\O,0,-0.627766,0.523402,-0.959485\S,0,-1.9571
 53,0.600068,0.003865\O,0,-3.037085,1.085072,-0.83444\O,0,-1.630699,1.1
 70574,1.300041\C,0,-2.257395,-1.222808,0.272439\F,0,-3.453126,-1.36472
 3,0.838874\F,0,-1.318464,-1.718864,1.074076\F,0,-2.23573,-1.864408,-0.
 89692\\Version=ES64L-G16RevC.01\State=1-A\HF=-1385.9343229\RMSD=8.777e
 -09\Dipole=1.6144751,-0.1752816,0.0675135\Quadrupole=0.3955635,7.60188
 47,-7.9974482,3.6289697,1.5208608,0.7992353\PG=C01 [X(C12H9F3O3S1)]\\@
 The archive entry for this job was punched.


 FLOATING POINT NUMBERS ARE LIKE SANDPILES:
 EVERY TIME THAT YOU MOVE ONE, YOU LOSE A LITTLE SAND 
 AND YOU PICK UP A LITTLE DIRT.
 Job cpu time:       0 days  1 hours 41 minutes 37.8 seconds.
 Elapsed time:       0 days  0 hours  3 minutes 12.1 seconds.
 File lengths (MBytes):  RWF=    377 Int=      0 D2E=      0 Chk=     33 Scr=      2
 Normal termination of Gaussian 16 at Sun Dec  3 22:12:46 2023.
