 Entering Gaussian System, Link 0=g16
 Initial command:
 /public/software/apps/Gaussian/g16/l1.exe "/public/home/LLG_HG/tmp/Gau-91169.inp" -scrdir="/public/home/LLG_HG/tmp/"
 Entering Link 1 = /public/software/apps/Gaussian/g16/l1.exe PID=     91170.
  
 Copyright (c) 1988-2019, Gaussian, Inc.  All Rights Reserved.
  
 This is part of the Gaussian(R) 16 program.  It is based on
 the Gaussian(R) 09 system (copyright 2009, Gaussian, Inc.),
 the Gaussian(R) 03 system (copyright 2003, Gaussian, Inc.),
 the Gaussian(R) 98 system (copyright 1998, Gaussian, Inc.),
 the Gaussian(R) 94 system (copyright 1995, Gaussian, Inc.),
 the Gaussian 92(TM) system (copyright 1992, Gaussian, Inc.),
 the Gaussian 90(TM) system (copyright 1990, Gaussian, Inc.),
 the Gaussian 88(TM) system (copyright 1988, Gaussian, Inc.),
 the Gaussian 86(TM) system (copyright 1986, Carnegie Mellon
 University), and the Gaussian 82(TM) system (copyright 1983,
 Carnegie Mellon University). Gaussian is a federally registered
 trademark of Gaussian, Inc.
  
 This software contains proprietary and confidential information,
 including trade secrets, belonging to Gaussian, Inc.
  
 This software is provided under written license and may be
 used, copied, transmitted, or stored only in accord with that
 written license.
  
 The following legend is applicable only to US Government
 contracts under FAR:
  
                    RESTRICTED RIGHTS LEGEND
  
 Use, reproduction and disclosure by the US Government is
 subject to restrictions as set forth in subparagraphs (a)
 and (c) of the Commercial Computer Software - Restricted
 Rights clause in FAR 52.227-19.
  
 Gaussian, Inc.
 340 Quinnipiac St., Bldg. 40, Wallingford CT 06492
  
  
 ---------------------------------------------------------------
 Warning -- This program may not be used in any manner that
 competes with the business of Gaussian, Inc. or will provide
 assistance to any competitor of Gaussian, Inc.  The licensee
 of this program is prohibited from giving any competitor of
 Gaussian, Inc. access to this program.  By using this program,
 the user acknowledges that Gaussian, Inc. is engaged in the
 business of creating and licensing software in the field of
 computational chemistry and represents and warrants to the
 licensee that it is not a competitor of Gaussian, Inc. and that
 it will not use this program in any manner prohibited above.
 ---------------------------------------------------------------
  

 Cite this work as:
 Gaussian 16, Revision C.01,
 M. J. Frisch, G. W. Trucks, H. B. Schlegel, G. E. Scuseria, 
 M. A. Robb, J. R. Cheeseman, G. Scalmani, V. Barone, 
 G. A. Petersson, H. Nakatsuji, X. Li, M. Caricato, A. V. Marenich, 
 J. Bloino, B. G. Janesko, R. Gomperts, B. Mennucci, H. P. Hratchian, 
 J. V. Ortiz, A. F. Izmaylov, J. L. Sonnenberg, D. Williams-Young, 
 F. Ding, F. Lipparini, F. Egidi, J. Goings, B. Peng, A. Petrone, 
 T. Henderson, D. Ranasinghe, V. G. Zakrzewski, J. Gao, N. Rega, 
 G. Zheng, W. Liang, M. Hada, M. Ehara, K. Toyota, R. Fukuda, 
 J. Hasegawa, M. Ishida, T. Nakajima, Y. Honda, O. Kitao, H. Nakai, 
 T. Vreven, K. Throssell, J. A. Montgomery, Jr., J. E. Peralta, 
 F. Ogliaro, M. J. Bearpark, J. J. Heyd, E. N. Brothers, K. N. Kudin, 
 V. N. Staroverov, T. A. Keith, R. Kobayashi, J. Normand, 
 K. Raghavachari, A. P. Rendell, J. C. Burant, S. S. Iyengar, 
 J. Tomasi, M. Cossi, J. M. Millam, M. Klene, C. Adamo, R. Cammi, 
 J. W. Ochterski, R. L. Martin, K. Morokuma, O. Farkas, 
 J. B. Foresman, and D. J. Fox, Gaussian, Inc., Wallingford CT, 2019.
 
 ******************************************
 Gaussian 16:  ES64L-G16RevC.01  3-Jul-2019
                25-Nov-2023 
 ******************************************
 %nprocs=32
 Will use up to   32 processors via shared memory.
 %mem=80GB
 ----------------------------------------------------------
 # opt=(maxstep=1,notrust,gdiis) freq genecp em=gd3bj b3lyp
 ----------------------------------------------------------

 Warning!  Use of Opt=GDIIS is deprecated since it is seldom a good choice.

 1/8=1,9=1,18=20,19=11,26=3,38=1/1,3;
 2/9=110,12=2,17=6,18=5,40=1/2;
 3/5=7,11=2,16=1,17=8,25=1,30=1,71=1,74=-5,124=41/1,2,3;
 4//1;
 5/5=2,38=5/2;
 6/7=2,8=2,9=2,10=2,28=1/1;
 7//1,2,3,16;
 1/8=1,9=1,18=20,19=11,26=3/3(2);
 2/9=110/2;
 99//99;
 2/9=110/2;
 3/5=7,6=1,11=2,16=1,17=8,25=1,30=1,71=1,74=-5,82=7,124=41/1,2,3;
 4/5=5,16=3,69=1/1;
 5/5=2,38=5/2;
 7//1,2,3,16;
 1/8=1,9=1,18=20,19=11,26=3/3(-5);
 2/9=110/2;
 6/7=2,8=2,9=2,10=2,19=2,28=1/1;
 99/9=1/99;
 -------------------
 Title Card Required
 -------------------
 Symbolic Z-matrix:
 Charge =  0 Multiplicity = 1
 C                     3.46933  -2.29175   0.00957 
 C                     3.79941  -1.0021    0.34479 
 C                     2.86217   0.04812   0.19668 
 C                     1.55824  -0.25655  -0.29395 
 C                     1.24802  -1.59126  -0.64838 
 C                     2.18518  -2.58396  -0.49792 
 H                     4.17375   1.62158   0.88354 
 H                     4.19686  -3.08922   0.12578 
 H                     4.78953  -0.76503   0.72474 
 C                     3.18051   1.39206   0.50775 
 C                     0.63945   0.81486  -0.42255 
 H                     0.27037  -1.81852  -1.05517 
 H                     1.93744  -3.60376  -0.77661 
 C                     0.95726   2.12847  -0.16243 
 C                     2.26357   2.39233   0.32144 
 H                     2.52857   3.42219   0.54363 
 C                    -0.01299   3.25246  -0.36505 
 H                     0.51753   4.16438  -0.6505 
 H                    -0.74203   3.02198  -1.14614 
 H                    -0.56797   3.45742   0.55607 
 O                    -0.62529   0.49614  -0.94357 
 S                    -1.94424   0.58828   0.00367 
 O                    -3.0111    1.07825  -0.83478 
 O                    -1.61726   1.15614   1.29144 
 C                    -2.26112  -1.21401   0.27034 
 F                    -3.4539   -1.3408    0.82918 
 F                    -1.33644  -1.71794   1.07078 
 F                    -2.24313  -1.85236  -0.89224 
 

 GradGradGradGradGradGradGradGradGradGradGradGradGradGradGradGradGradGrad
 Berny optimization.
 Initialization pass.
                           ----------------------------
                           !    Initial Parameters    !
                           ! (Angstroms and Degrees)  !
 --------------------------                            --------------------------
 ! Name  Definition              Value          Derivative Info.                !
 --------------------------------------------------------------------------------
 ! R1    R(1,2)                  1.3728         estimate D2E/DX2                !
 ! R2    R(1,6)                  1.4114         estimate D2E/DX2                !
 ! R3    R(1,8)                  1.0857         estimate D2E/DX2                !
 ! R4    R(2,3)                  1.4154         estimate D2E/DX2                !
 ! R5    R(2,9)                  1.0867         estimate D2E/DX2                !
 ! R6    R(3,4)                  1.4261         estimate D2E/DX2                !
 ! R7    R(3,10)                 1.4157         estimate D2E/DX2                !
 ! R8    R(4,5)                  1.4154         estimate D2E/DX2                !
 ! R9    R(4,11)                 1.4173         estimate D2E/DX2                !
 ! R10   R(5,6)                  1.3735         estimate D2E/DX2                !
 ! R11   R(5,12)                 1.083          estimate D2E/DX2                !
 ! R12   R(6,13)                 1.0858         estimate D2E/DX2                !
 ! R13   R(7,10)                 1.0865         estimate D2E/DX2                !
 ! R14   R(10,15)                1.3697         estimate D2E/DX2                !
 ! R15   R(11,14)                1.3763         estimate D2E/DX2                !
 ! R16   R(11,21)                1.4045         estimate D2E/DX2                !
 ! R17   R(14,15)                1.4178         estimate D2E/DX2                !
 ! R18   R(14,17)                1.4986         estimate D2E/DX2                !
 ! R19   R(15,16)                1.0864         estimate D2E/DX2                !
 ! R20   R(17,18)                1.0929         estimate D2E/DX2                !
 ! R21   R(17,19)                1.093          estimate D2E/DX2                !
 ! R22   R(17,20)                1.0947         estimate D2E/DX2                !
 ! R23   R(21,22)                1.6265         estimate D2E/DX2                !
 ! R24   R(22,23)                1.4427         estimate D2E/DX2                !
 ! R25   R(22,24)                1.4449         estimate D2E/DX2                !
 ! R26   R(22,25)                1.8493         estimate D2E/DX2                !
 ! R27   R(25,26)                1.3233         estimate D2E/DX2                !
 ! R28   R(25,27)                1.3228         estimate D2E/DX2                !
 ! R29   R(25,28)                1.3264         estimate D2E/DX2                !
 ! A1    A(2,1,6)              120.0715         estimate D2E/DX2                !
 ! A2    A(2,1,8)              120.1837         estimate D2E/DX2                !
 ! A3    A(6,1,8)              119.7429         estimate D2E/DX2                !
 ! A4    A(1,2,3)              120.817          estimate D2E/DX2                !
 ! A5    A(1,2,9)              120.6239         estimate D2E/DX2                !
 ! A6    A(3,2,9)              118.5582         estimate D2E/DX2                !
 ! A7    A(2,3,4)              118.877          estimate D2E/DX2                !
 ! A8    A(2,3,10)             122.1736         estimate D2E/DX2                !
 ! A9    A(4,3,10)             118.9468         estimate D2E/DX2                !
 ! A10   A(3,4,5)              119.2103         estimate D2E/DX2                !
 ! A11   A(3,4,11)             117.5459         estimate D2E/DX2                !
 ! A12   A(5,4,11)             123.2346         estimate D2E/DX2                !
 ! A13   A(4,5,6)              120.3042         estimate D2E/DX2                !
 ! A14   A(4,5,12)             119.3272         estimate D2E/DX2                !
 ! A15   A(6,5,12)             120.3603         estimate D2E/DX2                !
 ! A16   A(1,6,5)              120.7027         estimate D2E/DX2                !
 ! A17   A(1,6,13)             119.6258         estimate D2E/DX2                !
 ! A18   A(5,6,13)             119.6708         estimate D2E/DX2                !
 ! A19   A(3,10,7)             118.8229         estimate D2E/DX2                !
 ! A20   A(3,10,15)            120.853          estimate D2E/DX2                !
 ! A21   A(7,10,15)            120.3169         estimate D2E/DX2                !
 ! A22   A(4,11,14)            123.6889         estimate D2E/DX2                !
 ! A23   A(4,11,21)            116.4803         estimate D2E/DX2                !
 ! A24   A(14,11,21)           119.6455         estimate D2E/DX2                !
 ! A25   A(11,14,15)           117.057          estimate D2E/DX2                !
 ! A26   A(11,14,17)           122.7384         estimate D2E/DX2                !
 ! A27   A(15,14,17)           120.2041         estimate D2E/DX2                !
 ! A28   A(10,15,14)           121.8246         estimate D2E/DX2                !
 ! A29   A(10,15,16)           120.0781         estimate D2E/DX2                !
 ! A30   A(14,15,16)           118.0972         estimate D2E/DX2                !
 ! A31   A(14,17,18)           110.2943         estimate D2E/DX2                !
 ! A32   A(14,17,19)           111.7337         estimate D2E/DX2                !
 ! A33   A(14,17,20)           110.7861         estimate D2E/DX2                !
 ! A34   A(18,17,19)           108.2436         estimate D2E/DX2                !
 ! A35   A(18,17,20)           108.0363         estimate D2E/DX2                !
 ! A36   A(19,17,20)           107.6151         estimate D2E/DX2                !
 ! A37   A(11,21,22)           120.0881         estimate D2E/DX2                !
 ! A38   A(21,22,23)           106.2874         estimate D2E/DX2                !
 ! A39   A(21,22,24)           110.9662         estimate D2E/DX2                !
 ! A40   A(21,22,25)            99.6558         estimate D2E/DX2                !
 ! A41   A(23,22,24)           123.4942         estimate D2E/DX2                !
 ! A42   A(23,22,25)           106.7436         estimate D2E/DX2                !
 ! A43   A(24,22,25)           107.0546         estimate D2E/DX2                !
 ! A44   A(22,25,26)           107.9832         estimate D2E/DX2                !
 ! A45   A(22,25,27)           109.8016         estimate D2E/DX2                !
 ! A46   A(22,25,28)           109.8964         estimate D2E/DX2                !
 ! A47   A(26,25,27)           109.7582         estimate D2E/DX2                !
 ! A48   A(26,25,28)           109.6493         estimate D2E/DX2                !
 ! A49   A(27,25,28)           109.7278         estimate D2E/DX2                !
 ! D1    D(6,1,2,3)              0.4053         estimate D2E/DX2                !
 ! D2    D(6,1,2,9)           -179.2406         estimate D2E/DX2                !
 ! D3    D(8,1,2,3)            179.8984         estimate D2E/DX2                !
 ! D4    D(8,1,2,9)              0.2525         estimate D2E/DX2                !
 ! D5    D(2,1,6,5)             -0.7477         estimate D2E/DX2                !
 ! D6    D(2,1,6,13)           178.964          estimate D2E/DX2                !
 ! D7    D(8,1,6,5)            179.7569         estimate D2E/DX2                !
 ! D8    D(8,1,6,13)            -0.5314         estimate D2E/DX2                !
 ! D9    D(1,2,3,4)              0.7106         estimate D2E/DX2                !
 ! D10   D(1,2,3,10)          -178.6934         estimate D2E/DX2                !
 ! D11   D(9,2,3,4)           -179.6363         estimate D2E/DX2                !
 ! D12   D(9,2,3,10)             0.9597         estimate D2E/DX2                !
 ! D13   D(2,3,4,5)             -1.4886         estimate D2E/DX2                !
 ! D14   D(2,3,4,11)           179.5792         estimate D2E/DX2                !
 ! D15   D(10,3,4,5)           177.9349         estimate D2E/DX2                !
 ! D16   D(10,3,4,11)           -0.9972         estimate D2E/DX2                !
 ! D17   D(2,3,10,7)            -0.7345         estimate D2E/DX2                !
 ! D18   D(2,3,10,15)          178.2949         estimate D2E/DX2                !
 ! D19   D(4,3,10,7)           179.8619         estimate D2E/DX2                !
 ! D20   D(4,3,10,15)           -1.1087         estimate D2E/DX2                !
 ! D21   D(3,4,5,6)              1.1739         estimate D2E/DX2                !
 ! D22   D(3,4,5,12)          -177.7797         estimate D2E/DX2                !
 ! D23   D(11,4,5,6)          -179.958          estimate D2E/DX2                !
 ! D24   D(11,4,5,12)            1.0884         estimate D2E/DX2                !
 ! D25   D(3,4,11,14)            3.218          estimate D2E/DX2                !
 ! D26   D(3,4,11,21)          178.2417         estimate D2E/DX2                !
 ! D27   D(5,4,11,14)         -175.6677         estimate D2E/DX2                !
 ! D28   D(5,4,11,21)           -0.644          estimate D2E/DX2                !
 ! D29   D(4,5,6,1)             -0.0574         estimate D2E/DX2                !
 ! D30   D(4,5,6,13)          -179.769          estimate D2E/DX2                !
 ! D31   D(12,5,6,1)           178.8853         estimate D2E/DX2                !
 ! D32   D(12,5,6,13)           -0.8263         estimate D2E/DX2                !
 ! D33   D(3,10,15,14)           1.2228         estimate D2E/DX2                !
 ! D34   D(3,10,15,16)        -178.6481         estimate D2E/DX2                !
 ! D35   D(7,10,15,14)        -179.7623         estimate D2E/DX2                !
 ! D36   D(7,10,15,16)           0.3668         estimate D2E/DX2                !
 ! D37   D(4,11,14,15)          -3.1263         estimate D2E/DX2                !
 ! D38   D(4,11,14,17)         177.1445         estimate D2E/DX2                !
 ! D39   D(21,11,14,15)       -178.0008         estimate D2E/DX2                !
 ! D40   D(21,11,14,17)          2.27           estimate D2E/DX2                !
 ! D41   D(4,11,21,22)         112.1624         estimate D2E/DX2                !
 ! D42   D(14,11,21,22)        -72.6013         estimate D2E/DX2                !
 ! D43   D(11,14,15,10)          0.843          estimate D2E/DX2                !
 ! D44   D(11,14,15,16)       -179.2837         estimate D2E/DX2                !
 ! D45   D(17,14,15,10)       -179.4206         estimate D2E/DX2                !
 ! D46   D(17,14,15,16)          0.4527         estimate D2E/DX2                !
 ! D47   D(11,14,17,18)       -148.3377         estimate D2E/DX2                !
 ! D48   D(11,14,17,19)        -27.8913         estimate D2E/DX2                !
 ! D49   D(11,14,17,20)         92.0938         estimate D2E/DX2                !
 ! D50   D(15,14,17,18)         31.9414         estimate D2E/DX2                !
 ! D51   D(15,14,17,19)        152.3878         estimate D2E/DX2                !
 ! D52   D(15,14,17,20)        -87.6271         estimate D2E/DX2                !
 ! D53   D(11,21,22,23)        143.0646         estimate D2E/DX2                !
 ! D54   D(11,21,22,24)          6.3749         estimate D2E/DX2                !
 ! D55   D(11,21,22,25)       -106.1935         estimate D2E/DX2                !
 ! D56   D(21,22,25,26)       -168.7608         estimate D2E/DX2                !
 ! D57   D(21,22,25,27)         71.5944         estimate D2E/DX2                !
 ! D58   D(21,22,25,28)        -49.1929         estimate D2E/DX2                !
 ! D59   D(23,22,25,26)        -58.3794         estimate D2E/DX2                !
 ! D60   D(23,22,25,27)       -178.0243         estimate D2E/DX2                !
 ! D61   D(23,22,25,28)         61.1884         estimate D2E/DX2                !
 ! D62   D(24,22,25,26)         75.6544         estimate D2E/DX2                !
 ! D63   D(24,22,25,27)        -43.9905         estimate D2E/DX2                !
 ! D64   D(24,22,25,28)       -164.7778         estimate D2E/DX2                !
 --------------------------------------------------------------------------------
 Trust Radius=1.00D-02 FncErr=1.00D-07 GrdErr=1.00D-06 EigMax=2.50D+02 EigMin=1.00D-04
 Number of steps in this run=    152 maximum allowed number of steps=    168.
 GradGradGradGradGradGradGradGradGradGradGradGradGradGradGradGradGradGrad

                          Input orientation:                          
 ---------------------------------------------------------------------
 Center     Atomic      Atomic             Coordinates (Angstroms)
 Number     Number       Type             X           Y           Z
 ---------------------------------------------------------------------
      1          6           0        3.469332   -2.291746    0.009567
      2          6           0        3.799412   -1.002099    0.344790
      3          6           0        2.862171    0.048122    0.196677
      4          6           0        1.558244   -0.256549   -0.293954
      5          6           0        1.248017   -1.591257   -0.648376
      6          6           0        2.185184   -2.583956   -0.497916
      7          1           0        4.173752    1.621578    0.883538
      8          1           0        4.196863   -3.089216    0.125783
      9          1           0        4.789530   -0.765034    0.724735
     10          6           0        3.180513    1.392059    0.507747
     11          6           0        0.639453    0.814857   -0.422550
     12          1           0        0.270374   -1.818518   -1.055172
     13          1           0        1.937435   -3.603757   -0.776611
     14          6           0        0.957262    2.128472   -0.162433
     15          6           0        2.263566    2.392329    0.321438
     16          1           0        2.528568    3.422194    0.543628
     17          6           0       -0.012990    3.252463   -0.365045
     18          1           0        0.517528    4.164380   -0.650502
     19          1           0       -0.742033    3.021976   -1.146136
     20          1           0       -0.567965    3.457422    0.556070
     21          8           0       -0.625288    0.496142   -0.943574
     22         16           0       -1.944237    0.588283    0.003671
     23          8           0       -3.011103    1.078255   -0.834777
     24          8           0       -1.617263    1.156138    1.291441
     25          6           0       -2.261124   -1.214009    0.270337
     26          9           0       -3.453904   -1.340803    0.829182
     27          9           0       -1.336439   -1.717943    1.070780
     28          9           0       -2.243131   -1.852359   -0.892236
 ---------------------------------------------------------------------
                    Distance matrix (angstroms):
                    1          2          3          4          5
     1  C    0.000000
     2  C    1.372777   0.000000
     3  C    2.424590   1.415388   0.000000
     4  C    2.808275   2.446768   1.426103   0.000000
     5  C    2.420292   2.800554   2.450953   1.415380   0.000000
     6  C    1.411369   2.412086   2.805103   2.418983   1.373452
     7  H    4.071135   2.704452   2.160506   3.428517   4.607493
     8  H    1.085710   2.135881   3.410179   3.893904   3.396895
     9  H    2.141317   1.086688   2.157494   3.426003   3.887209
    10  C    3.728541   2.478222   1.415723   2.447936   3.737825
    11  C    4.224443   3.724981   2.431419   1.417260   2.492134
    12  H    3.404548   3.883367   3.430580   2.162824   1.083013
    13  H    2.164753   3.390151   3.890841   3.403020   2.131173
    14  C    5.087082   4.258587   2.843500   2.463088   3.762587
    15  C    4.846823   3.725790   2.422643   2.809402   4.223841
    16  H    5.815442   4.607488   3.408229   3.895667   5.309932
    17  C    6.557832   5.756698   4.341645   3.845386   5.013186
    18  H    7.129544   6.201119   4.812343   4.555747   5.801808
    19  H    6.878000   6.248261   4.861815   4.094657   5.048761
    20  H    7.046372   6.245474   4.849569   4.363128   5.498876
    21  O    5.044473   4.845883   3.696385   2.399242   2.820221
    22  S    6.131992   5.969521   4.840515   3.615203   3.919955
    23  O    7.352949   7.218197   6.051481   4.790942   5.030024
    24  O    6.277305   5.907157   4.742524   3.820079   4.418246
    25  C    5.836749   6.064697   5.276983   3.977779   3.646974
    26  F    7.036139   7.277359   6.497844   5.249635   4.934974
    27  F    4.954882   5.236073   4.638035   3.518147   3.106599
    28  F    5.799874   6.226195   5.555328   4.165934   3.509381
                    6          7          8          9         10
     6  C    0.000000
     7  H    4.852766   0.000000
     8  H    2.165904   4.771405   0.000000
     9  H    3.403817   2.469882   2.472209   0.000000
    10  C    4.220276   1.086472   4.610932   2.699828   0.000000
    11  C    3.734554   3.853302   5.310143   4.586443   2.766876
    12  H    2.136101   5.552406   4.292627   4.969977   4.606455
    13  H    1.085838   5.921261   2.486782   4.294978   5.305940
    14  C    4.881323   3.420059   6.148362   4.883208   2.436040
    15  C    5.043897   2.135140   5.815776   4.063506   1.369687
    16  H    6.105454   2.462598   6.734706   4.762103   2.132550
    17  C    6.238061   4.663427   7.627625   6.355478   3.797543
    18  H    6.953014   4.710318   8.170360   6.666363   4.014822
    19  H    6.357300   5.499603   7.959720   6.959870   4.558325
    20  H    6.722274   5.095237   8.108465   6.823513   4.280087
    21  O    4.193372   5.256970   6.103397   5.804660   4.170506
    22  S    5.231329   6.266710   7.159052   6.906158   5.211834
    23  O    6.366056   7.407425   8.381245   8.165762   6.343260
    24  O    5.625718   5.823991   7.292863   6.712604   4.867082
    25  C    4.715572   7.058626   6.726284   7.079532   6.038159
    26  F    5.925026   8.182896   7.879464   8.264177   7.182433
    27  F    3.951280   6.445903   5.778481   6.209290   5.512892
    28  F    4.505629   7.509860   6.636241   7.297615   6.473184
                   11         12         13         14         15
    11  C    0.000000
    12  H    2.733330   0.000000
    13  H    4.618903   2.458407   0.000000
    14  C    1.376317   4.104574   5.847769   0.000000
    15  C    2.383208   4.857891   6.104516   1.417809   0.000000
    16  H    3.361616   5.926269   7.173316   2.154354   1.086378
    17  C    2.524067   5.125565   7.140119   1.498598   2.528596
    18  H    3.359484   6.001659   7.897847   2.139275   2.670858
    19  H    2.702490   4.946072   7.156566   2.157226   3.403506
    20  H    3.065731   5.579826   7.610080   2.146782   3.034311
    21  O    1.404498   2.484415   4.837830   2.403986   3.679845
    22  S    2.628394   3.437781   5.766231   3.289144   4.589244
    23  O    3.683187   4.382689   6.812683   4.159678   5.557496
    24  O    2.854296   4.233007   6.290415   3.112453   4.186873
    25  C    3.606901   2.920768   4.943166   4.660201   5.786286
    26  F    4.792627   4.201101   6.063503   5.698908   6.847156
    27  F    3.542493   2.666765   4.205639   4.645082   5.515060
    28  F    3.955242   2.519008   4.534082   5.159665   6.308779
                   16         17         18         19         20
    16  H    0.000000
    17  C    2.704443   0.000000
    18  H    2.453787   1.092944   0.000000
    19  H    3.703013   1.093038   1.771224   0.000000
    20  H    3.096758   1.094741   1.770283   1.765621   0.000000
    21  O    4.551962   2.882171   3.853296   2.536631   3.319849
    22  S    5.322461   3.311121   4.390524   2.947917   3.229741
    23  O    6.171062   3.733164   4.691414   3.003943   3.682908
    24  O    4.783529   3.116443   4.168692   3.192046   2.633952
    25  C    6.671598   5.040554   6.123391   4.717796   4.977017
    26  F    7.652297   5.862095   6.947573   5.503632   5.605907
    27  F    6.452688   5.340229   6.403259   5.266390   5.257365
    28  F    7.256151   5.595594   6.624260   5.106555   5.753047
                   21         22         23         24         25
    21  O    0.000000
    22  S    1.626465   0.000000
    23  O    2.458212   1.442661   0.000000
    24  O    2.532766   1.444895   2.543552   0.000000
    25  C    2.659729   1.849266   2.652964   2.659851   0.000000
    26  F    3.810262   2.584944   2.969288   3.133951   1.323295
    27  F    3.076610   2.612818   3.775496   2.896186   1.322763
    28  F    2.852281   2.617006   3.030112   3.769776   1.326420
                   26         27         28
    26  F    0.000000
    27  F    2.164316   0.000000
    28  F    2.165858   2.166469   0.000000
 Stoichiometry    C12H9F3O3S
 Framework group  C1[X(C12H9F3O3S)]
 Deg. of freedom    78
 Full point group                 C1      NOp   1
 Largest Abelian subgroup         C1      NOp   1
 Largest concise Abelian subgroup C1      NOp   1
                         Standard orientation:                         
 ---------------------------------------------------------------------
 Center     Atomic      Atomic             Coordinates (Angstroms)
 Number     Number       Type             X           Y           Z
 ---------------------------------------------------------------------
      1          6           0        3.469332   -2.291746    0.009567
      2          6           0        3.799412   -1.002099    0.344790
      3          6           0        2.862171    0.048122    0.196677
      4          6           0        1.558244   -0.256549   -0.293954
      5          6           0        1.248017   -1.591257   -0.648376
      6          6           0        2.185184   -2.583956   -0.497916
      7          1           0        4.173752    1.621578    0.883538
      8          1           0        4.196863   -3.089216    0.125783
      9          1           0        4.789530   -0.765034    0.724735
     10          6           0        3.180513    1.392059    0.507747
     11          6           0        0.639453    0.814857   -0.422550
     12          1           0        0.270374   -1.818518   -1.055172
     13          1           0        1.937435   -3.603757   -0.776611
     14          6           0        0.957262    2.128472   -0.162433
     15          6           0        2.263566    2.392329    0.321438
     16          1           0        2.528568    3.422194    0.543628
     17          6           0       -0.012990    3.252463   -0.365045
     18          1           0        0.517528    4.164380   -0.650502
     19          1           0       -0.742033    3.021976   -1.146136
     20          1           0       -0.567965    3.457422    0.556070
     21          8           0       -0.625288    0.496142   -0.943574
     22         16           0       -1.944237    0.588283    0.003671
     23          8           0       -3.011103    1.078255   -0.834777
     24          8           0       -1.617263    1.156138    1.291441
     25          6           0       -2.261124   -1.214009    0.270337
     26          9           0       -3.453904   -1.340803    0.829182
     27          9           0       -1.336439   -1.717943    1.070780
     28          9           0       -2.243131   -1.852359   -0.892236
 ---------------------------------------------------------------------
 Rotational constants (GHZ):           0.5602453           0.3067576           0.2202655
 General basis read from cards:  (5D, 7F)
 ======================================================================================================
                                       Pseudopotential Parameters
 ======================================================================================================
  Center     Atomic      Valence      Angular      Power
  Number     Number     Electrons     Momentum     of R      Exponent        Coefficient   SO-Coeffient
 ======================================================================================================
    1          6
                                   No pseudopotential on this center.
    2          6
                                   No pseudopotential on this center.
    3          6
                                   No pseudopotential on this center.
    4          6
                                   No pseudopotential on this center.
    5          6
                                   No pseudopotential on this center.
    6          6
                                   No pseudopotential on this center.
    7          1
                                   No pseudopotential on this center.
    8          1
                                   No pseudopotential on this center.
    9          1
                                   No pseudopotential on this center.
   10          6
                                   No pseudopotential on this center.
   11          6
                                   No pseudopotential on this center.
   12          1
                                   No pseudopotential on this center.
   13          1
                                   No pseudopotential on this center.
   14          6
                                   No pseudopotential on this center.
   15          6
                                   No pseudopotential on this center.
   16          1
                                   No pseudopotential on this center.
   17          6
                                   No pseudopotential on this center.
   18          1
                                   No pseudopotential on this center.
   19          1
                                   No pseudopotential on this center.
   20          1
                                   No pseudopotential on this center.
   21          8
                                   No pseudopotential on this center.
   22         16
                                   No pseudopotential on this center.
   23          8
                                   No pseudopotential on this center.
   24          8
                                   No pseudopotential on this center.
   25          6
                                   No pseudopotential on this center.
   26          9
                                   No pseudopotential on this center.
   27          9
                                   No pseudopotential on this center.
   28          9
                                   No pseudopotential on this center.
 ======================================================================================================
 There are   334 symmetry adapted cartesian basis functions of A   symmetry.
 There are   315 symmetry adapted basis functions of A   symmetry.
   315 basis functions,   619 primitive gaussians,   334 cartesian basis functions
    74 alpha electrons       74 beta electrons
       nuclear repulsion energy      1729.3805105047 Hartrees.
 NAtoms=   28 NActive=   28 NUniq=   28 SFac= 1.00D+00 NAtFMM=   60 NAOKFM=F Big=F
 Integral buffers will be    131072 words long.
 Raffenetti 2 integral format.
 Two-electron integral symmetry is turned on.
 Nuclear repulsion after empirical dispersion term =     1729.3137813137 Hartrees.
 One-electron integrals computed using PRISM.
   1 Symmetry operations used in ECPInt.
 ECPInt:  NShTT=    5460 NPrTT=   34314 LenC2=    4771 LenP2D=   17515.
 LDataN:  DoStor=T MaxTD1= 4 Len=   56
 NBasis=   315 RedAO= T EigKep=  2.51D-04  NBF=   315
 NBsUse=   315 1.00D-06 EigRej= -1.00D+00 NBFU=   315
 ExpMin= 1.17D-01 ExpMax= 2.19D+04 ExpMxC= 3.30D+03 IAcc=3 IRadAn=         5 AccDes= 0.00D+00
 Harris functional with IExCor=  402 and IRadAn=       5 diagonalized for initial guess.
 HarFok:  IExCor=  402 AccDes= 0.00D+00 IRadAn=         5 IDoV= 1 UseB2=F ITyADJ=14
 ICtDFT=  3500011 ScaDFX=  1.000000  1.000000  1.000000  1.000000
 FoFCou: FMM=F IPFlag=           0 FMFlag=      100000 FMFlg1=           0
         NFxFlg=           0 DoJE=T BraDBF=F KetDBF=T FulRan=T
         wScrn=  0.000000 ICntrl=       500 IOpCl=  0 I1Cent=   200000004 NGrid=           0
         NMat0=    1 NMatS0=      1 NMatT0=    0 NMatD0=    1 NMtDS0=    0 NMtDT0=    0
 Petite list used in FoFCou.
 Requested convergence on RMS density matrix=1.00D-08 within 128 cycles.
 Requested convergence on MAX density matrix=1.00D-06.
 Requested convergence on             energy=1.00D-06.
 No special actions if energy rises.
 Integral accuracy reduced to 1.0D-05 until final iterations.
 Initial convergence to 1.0D-05 achieved.  Increase integral accuracy.
 SCF Done:  E(RB3LYP) =  -1386.06800154     A.U. after   15 cycles
            NFock= 15  Conv=0.60D-08     -V/T= 2.0049

 **********************************************************************

            Population analysis using the SCF Density.

 **********************************************************************

 Orbital symmetries:
       Occupied  (A) (A) (A) (A) (A) (A) (A) (A) (A) (A) (A) (A)
                 (A) (A) (A) (A) (A) (A) (A) (A) (A) (A) (A) (A)
                 (A) (A) (A) (A) (A) (A) (A) (A) (A) (A) (A) (A)
                 (A) (A) (A) (A) (A) (A) (A) (A) (A) (A) (A) (A)
                 (A) (A) (A) (A) (A) (A) (A) (A) (A) (A) (A) (A)
                 (A) (A) (A) (A) (A) (A) (A) (A) (A) (A) (A) (A)
                 (A) (A)
       Virtual   (A) (A) (A) (A) (A) (A) (A) (A) (A) (A) (A) (A)
                 (A) (A) (A) (A) (A) (A) (A) (A) (A) (A) (A) (A)
                 (A) (A) (A) (A) (A) (A) (A) (A) (A) (A) (A) (A)
                 (A) (A) (A) (A) (A) (A) (A) (A) (A) (A) (A) (A)
                 (A) (A) (A) (A) (A) (A) (A) (A) (A) (A) (A) (A)
                 (A) (A) (A) (A) (A) (A) (A) (A) (A) (A) (A) (A)
                 (A) (A) (A) (A) (A) (A) (A) (A) (A) (A) (A) (A)
                 (A) (A) (A) (A) (A) (A) (A) (A) (A) (A) (A) (A)
                 (A) (A) (A) (A) (A) (A) (A) (A) (A) (A) (A) (A)
                 (A) (A) (A) (A) (A) (A) (A) (A) (A) (A) (A) (A)
                 (A) (A) (A) (A) (A) (A) (A) (A) (A) (A) (A) (A)
                 (A) (A) (A) (A) (A) (A) (A) (A) (A) (A) (A) (A)
                 (A) (A) (A) (A) (A) (A) (A) (A) (A) (A) (A) (A)
                 (A) (A) (A) (A) (A) (A) (A) (A) (A) (A) (A) (A)
                 (A) (A) (A) (A) (A) (A) (A) (A) (A) (A) (A) (A)
                 (A) (A) (A) (A) (A) (A) (A) (A) (A) (A) (A) (A)
                 (A) (A) (A) (A) (A) (A) (A) (A) (A) (A) (A) (A)
                 (A) (A) (A) (A) (A) (A) (A) (A) (A) (A) (A) (A)
                 (A) (A) (A) (A) (A) (A) (A) (A) (A) (A) (A) (A)
                 (A) (A) (A) (A) (A) (A) (A) (A) (A) (A) (A) (A)
                 (A)
 The electronic state is 1-A.
 Alpha  occ. eigenvalues --  -89.13947 -24.76644 -24.76541 -24.76441 -19.22823
 Alpha  occ. eigenvalues --  -19.18036 -19.17723 -10.47722 -10.26039 -10.21082
 Alpha  occ. eigenvalues --  -10.20793 -10.20421 -10.19808 -10.19746 -10.19586
 Alpha  occ. eigenvalues --  -10.19574 -10.19485 -10.19455 -10.18583  -8.17684
 Alpha  occ. eigenvalues --   -6.14197  -6.13977  -6.13903  -1.35756  -1.26726
 Alpha  occ. eigenvalues --   -1.26678  -1.17749  -1.07946  -1.04826  -0.88872
 Alpha  occ. eigenvalues --   -0.84129  -0.79692  -0.77528  -0.77022  -0.73703
 Alpha  occ. eigenvalues --   -0.70965  -0.68326  -0.64393  -0.63265  -0.62971
 Alpha  occ. eigenvalues --   -0.62788  -0.61461  -0.57988  -0.54772  -0.53317
 Alpha  occ. eigenvalues --   -0.51621  -0.50370  -0.49828  -0.49595  -0.48966
 Alpha  occ. eigenvalues --   -0.48390  -0.46751  -0.46483  -0.45909  -0.45745
 Alpha  occ. eigenvalues --   -0.44101  -0.43766  -0.43397  -0.42650  -0.40874
 Alpha  occ. eigenvalues --   -0.40187  -0.39843  -0.38876  -0.37639  -0.36953
 Alpha  occ. eigenvalues --   -0.35619  -0.34977  -0.34387  -0.34192  -0.33351
 Alpha  occ. eigenvalues --   -0.32799  -0.29078  -0.25204  -0.22534
 Alpha virt. eigenvalues --   -0.05214  -0.02048   0.00687   0.03781   0.03930
 Alpha virt. eigenvalues --    0.06281   0.06868   0.08588   0.09249   0.10739
 Alpha virt. eigenvalues --    0.12562   0.13168   0.15482   0.15837   0.16932
 Alpha virt. eigenvalues --    0.17204   0.18173   0.18666   0.19098   0.19784
 Alpha virt. eigenvalues --    0.20978   0.22913   0.24344   0.25235   0.27998
 Alpha virt. eigenvalues --    0.30211   0.30807   0.30886   0.33731   0.35072
 Alpha virt. eigenvalues --    0.35637   0.36709   0.39720   0.41278   0.45913
 Alpha virt. eigenvalues --    0.46343   0.47669   0.48614   0.49983   0.50108
 Alpha virt. eigenvalues --    0.51243   0.52061   0.52880   0.55082   0.55566
 Alpha virt. eigenvalues --    0.55906   0.56529   0.58278   0.58973   0.59793
 Alpha virt. eigenvalues --    0.59997   0.61305   0.61799   0.62010   0.63415
 Alpha virt. eigenvalues --    0.64208   0.65853   0.67145   0.68061   0.69086
 Alpha virt. eigenvalues --    0.72106   0.72530   0.74583   0.76463   0.77344
 Alpha virt. eigenvalues --    0.78263   0.79489   0.80628   0.80947   0.81492
 Alpha virt. eigenvalues --    0.81821   0.83116   0.84426   0.86394   0.87586
 Alpha virt. eigenvalues --    0.88248   0.88726   0.89897   0.92302   0.93348
 Alpha virt. eigenvalues --    0.93986   0.98050   0.98926   0.99658   1.01355
 Alpha virt. eigenvalues --    1.01958   1.03493   1.04264   1.06498   1.06722
 Alpha virt. eigenvalues --    1.07488   1.08396   1.11670   1.11814   1.13475
 Alpha virt. eigenvalues --    1.14038   1.15476   1.15963   1.16254   1.17202
 Alpha virt. eigenvalues --    1.18659   1.21256   1.22931   1.23456   1.24686
 Alpha virt. eigenvalues --    1.26326   1.26812   1.30003   1.31457   1.32357
 Alpha virt. eigenvalues --    1.33022   1.33153   1.34101   1.36225   1.36743
 Alpha virt. eigenvalues --    1.37500   1.37951   1.40331   1.40637   1.41250
 Alpha virt. eigenvalues --    1.41793   1.45098   1.46093   1.47769   1.50368
 Alpha virt. eigenvalues --    1.51866   1.55184   1.64079   1.65114   1.65899
 Alpha virt. eigenvalues --    1.68318   1.68798   1.70924   1.72423   1.73288
 Alpha virt. eigenvalues --    1.74182   1.75755   1.77200   1.77777   1.77780
 Alpha virt. eigenvalues --    1.78923   1.79655   1.80372   1.81636   1.82745
 Alpha virt. eigenvalues --    1.83521   1.84436   1.85916   1.86683   1.87443
 Alpha virt. eigenvalues --    1.88139   1.88782   1.91549   1.92287   1.93561
 Alpha virt. eigenvalues --    1.94924   1.95029   1.96547   1.97245   1.97563
 Alpha virt. eigenvalues --    1.98562   1.98873   2.00722   2.01477   2.02572
 Alpha virt. eigenvalues --    2.03563   2.04780   2.06317   2.07726   2.08394
 Alpha virt. eigenvalues --    2.11582   2.12661   2.13488   2.14692   2.16929
 Alpha virt. eigenvalues --    2.17271   2.18643   2.22034   2.24307   2.25846
 Alpha virt. eigenvalues --    2.26647   2.28058   2.28124   2.28632   2.31398
 Alpha virt. eigenvalues --    2.31523   2.32202   2.35249   2.37809   2.38260
 Alpha virt. eigenvalues --    2.39410   2.40553   2.41637   2.43691   2.44573
 Alpha virt. eigenvalues --    2.46256   2.49055   2.50007   2.54873   2.56264
 Alpha virt. eigenvalues --    2.57242   2.58595   2.59649   2.61037   2.61705
 Alpha virt. eigenvalues --    2.62176   2.62831   2.66300   2.69469   2.70781
 Alpha virt. eigenvalues --    2.72719   2.74003   2.76427   2.77360   2.79144
 Alpha virt. eigenvalues --    2.80534   2.81401   2.83252   2.84350   2.85048
 Alpha virt. eigenvalues --    2.88414   2.94766   3.02762   3.04201   3.04452
 Alpha virt. eigenvalues --    3.06982   3.08672   3.10278   3.17391   3.19221
 Alpha virt. eigenvalues --    3.21112   3.23203   3.24251   3.29650   3.33946
 Alpha virt. eigenvalues --    3.39490   3.44677   3.47316   3.49779   3.72429
 Alpha virt. eigenvalues --    3.89159
          Condensed to atoms (all electrons):
               1          2          3          4          5          6
     1  C    4.846301   0.517425  -0.007644  -0.044364  -0.018769   0.496361
     2  C    0.517425   5.013865   0.451208  -0.021982  -0.071908  -0.017610
     3  C   -0.007644   0.451208   4.748471   0.461498  -0.048199  -0.040185
     4  C   -0.044364  -0.021982   0.461498   4.957884   0.418048   0.004673
     5  C   -0.018769  -0.071908  -0.048199   0.418048   5.087234   0.512066
     6  C    0.496361  -0.017610  -0.040185   0.004673   0.512066   4.841008
     7  H    0.000134  -0.008568  -0.038785   0.004568  -0.000195   0.000022
     8  H    0.366360  -0.034290   0.002953   0.001044   0.004256  -0.039082
     9  H   -0.042886   0.365096  -0.040354   0.004921   0.000569   0.004581
    10  C    0.008596  -0.086792   0.431872  -0.017488   0.015981  -0.000875
    11  C   -0.000884   0.016123   0.011843   0.304319  -0.099192   0.008747
    12  H    0.004897   0.000301   0.004942  -0.039752   0.357286  -0.040822
    13  H   -0.039638   0.004206   0.001158   0.002993  -0.033737   0.366497
    14  C    0.000026  -0.000384  -0.049632  -0.021440   0.013380  -0.000337
    15  C   -0.000395   0.008766   0.011573  -0.064813  -0.001766   0.000096
    16  H    0.000003  -0.000222   0.002851   0.001040   0.000016  -0.000000
    17  C    0.000000  -0.000002  -0.000186   0.010601  -0.000080   0.000000
    18  H   -0.000000   0.000000   0.000017  -0.000161   0.000002  -0.000000
    19  H    0.000000   0.000000   0.000019  -0.000052   0.000004   0.000000
    20  H   -0.000000   0.000000   0.000054  -0.000359   0.000001   0.000000
    21  O   -0.000008  -0.000061   0.003474  -0.067548  -0.004329   0.000442
    22  S   -0.000008  -0.000000   0.000771  -0.007139  -0.002700   0.000023
    23  O   -0.000000  -0.000000   0.000001  -0.000058  -0.000012  -0.000000
    24  O   -0.000000   0.000000  -0.000049  -0.000729   0.000030  -0.000000
    25  C   -0.000001  -0.000001   0.000009   0.000392   0.001016   0.000005
    26  F    0.000000  -0.000000  -0.000000  -0.000002  -0.000004  -0.000000
    27  F    0.000002  -0.000000  -0.000032  -0.001957   0.003739  -0.000320
    28  F    0.000000  -0.000000   0.000001   0.000142  -0.005094   0.000003
               7          8          9         10         11         12
     1  C    0.000134   0.366360  -0.042886   0.008596  -0.000884   0.004897
     2  C   -0.008568  -0.034290   0.365096  -0.086792   0.016123   0.000301
     3  C   -0.038785   0.002953  -0.040354   0.431872   0.011843   0.004942
     4  C    0.004568   0.001044   0.004921  -0.017488   0.304319  -0.039752
     5  C   -0.000195   0.004256   0.000569   0.015981  -0.099192   0.357286
     6  C    0.000022  -0.039082   0.004581  -0.000875   0.008747  -0.040822
     7  H    0.621431  -0.000012   0.006065   0.362909   0.000875   0.000002
     8  H   -0.000012   0.619703  -0.006084  -0.000198   0.000012  -0.000178
     9  H    0.006065  -0.006084   0.627352  -0.009131  -0.000191   0.000017
    10  C    0.362909  -0.000198  -0.009131   5.059972  -0.094266  -0.000127
    11  C    0.000875   0.000012  -0.000191  -0.094266   5.091913  -0.015923
    12  H    0.000002  -0.000178   0.000017  -0.000127  -0.015923   0.626508
    13  H    0.000000  -0.005514  -0.000189   0.000010  -0.000202  -0.006280
    14  C    0.003659  -0.000001   0.000023  -0.006254   0.442046   0.000082
    15  C   -0.037513   0.000004   0.000219   0.472531   0.032547  -0.000013
    16  H   -0.005591  -0.000000  -0.000009  -0.034665   0.004946   0.000000
    17  C   -0.000171   0.000000  -0.000000   0.007568  -0.046315   0.000010
    18  H   -0.000009  -0.000000  -0.000000   0.000150   0.003600   0.000000
    19  H    0.000002  -0.000000  -0.000000  -0.000197  -0.010376   0.000002
    20  H    0.000001  -0.000000   0.000000  -0.000219  -0.003497  -0.000001
    21  O    0.000003   0.000000   0.000000  -0.000015   0.205277   0.002346
    22  S    0.000001  -0.000000   0.000000  -0.000142  -0.013234  -0.001260
    23  O   -0.000000  -0.000000   0.000000  -0.000000  -0.001888   0.000003
    24  O    0.000000  -0.000000   0.000000   0.000016   0.011764   0.000011
    25  C   -0.000000   0.000000   0.000000   0.000000  -0.001968   0.000337
    26  F    0.000000   0.000000  -0.000000   0.000000   0.000030   0.000045
    27  F    0.000000   0.000000  -0.000000   0.000000   0.001192  -0.000301
    28  F    0.000000   0.000000  -0.000000   0.000000  -0.000144   0.015109
              13         14         15         16         17         18
     1  C   -0.039638   0.000026  -0.000395   0.000003   0.000000  -0.000000
     2  C    0.004206  -0.000384   0.008766  -0.000222  -0.000002   0.000000
     3  C    0.001158  -0.049632   0.011573   0.002851  -0.000186   0.000017
     4  C    0.002993  -0.021440  -0.064813   0.001040   0.010601  -0.000161
     5  C   -0.033737   0.013380  -0.001766   0.000016  -0.000080   0.000002
     6  C    0.366497  -0.000337   0.000096  -0.000000   0.000000  -0.000000
     7  H    0.000000   0.003659  -0.037513  -0.005591  -0.000171  -0.000009
     8  H   -0.005514  -0.000001   0.000004  -0.000000   0.000000  -0.000000
     9  H   -0.000189   0.000023   0.000219  -0.000009  -0.000000  -0.000000
    10  C    0.000010  -0.006254   0.472531  -0.034665   0.007568   0.000150
    11  C   -0.000202   0.442046   0.032547   0.004946  -0.046315   0.003600
    12  H   -0.006280   0.000082  -0.000013   0.000000   0.000010   0.000000
    13  H    0.618699   0.000003  -0.000000  -0.000000  -0.000000   0.000000
    14  C    0.000003   4.846694   0.457886  -0.039468   0.345809  -0.026613
    15  C   -0.000000   0.457886   4.957291   0.363053  -0.063623  -0.005649
    16  H   -0.000000  -0.039468   0.363053   0.621554  -0.009245   0.004605
    17  C   -0.000000   0.345809  -0.063623  -0.009245   5.057531   0.367710
    18  H    0.000000  -0.026613  -0.005649   0.004605   0.367710   0.595631
    19  H   -0.000000  -0.024945   0.003406   0.000029   0.374071  -0.025453
    20  H    0.000000  -0.020738  -0.000424   0.000809   0.370338  -0.027341
    21  O    0.000001  -0.063717   0.004490  -0.000063  -0.009975   0.000218
    22  S    0.000000  -0.010438   0.000915  -0.000029  -0.000231  -0.000214
    23  O    0.000000   0.000494   0.000001   0.000000  -0.002329   0.000002
    24  O   -0.000000  -0.003301  -0.000484  -0.000002  -0.000468   0.000203
    25  C    0.000002  -0.000012   0.000001  -0.000000  -0.000071   0.000000
    26  F   -0.000000  -0.000000  -0.000000   0.000000   0.000000   0.000000
    27  F    0.000001   0.000068  -0.000000  -0.000000  -0.000000  -0.000000
    28  F   -0.000009  -0.000011  -0.000000  -0.000000   0.000001  -0.000000
              19         20         21         22         23         24
     1  C    0.000000  -0.000000  -0.000008  -0.000008  -0.000000  -0.000000
     2  C    0.000000   0.000000  -0.000061  -0.000000  -0.000000   0.000000
     3  C    0.000019   0.000054   0.003474   0.000771   0.000001  -0.000049
     4  C   -0.000052  -0.000359  -0.067548  -0.007139  -0.000058  -0.000729
     5  C    0.000004   0.000001  -0.004329  -0.002700  -0.000012   0.000030
     6  C    0.000000   0.000000   0.000442   0.000023  -0.000000  -0.000000
     7  H    0.000002   0.000001   0.000003   0.000001  -0.000000   0.000000
     8  H   -0.000000  -0.000000   0.000000  -0.000000  -0.000000  -0.000000
     9  H   -0.000000   0.000000   0.000000   0.000000   0.000000   0.000000
    10  C   -0.000197  -0.000219  -0.000015  -0.000142  -0.000000   0.000016
    11  C   -0.010376  -0.003497   0.205277  -0.013234  -0.001888   0.011764
    12  H    0.000002  -0.000001   0.002346  -0.001260   0.000003   0.000011
    13  H   -0.000000   0.000000   0.000001   0.000000   0.000000  -0.000000
    14  C   -0.024945  -0.020738  -0.063717  -0.010438   0.000494  -0.003301
    15  C    0.003406  -0.000424   0.004490   0.000915   0.000001  -0.000484
    16  H    0.000029   0.000809  -0.000063  -0.000029   0.000000  -0.000002
    17  C    0.374071   0.370338  -0.009975  -0.000231  -0.002329  -0.000468
    18  H   -0.025453  -0.027341   0.000218  -0.000214   0.000002   0.000203
    19  H    0.564206  -0.029757   0.005479   0.004331   0.003113  -0.002305
    20  H   -0.029757   0.548698  -0.000021   0.002173  -0.000117   0.004381
    21  O    0.005479  -0.000021   8.479512   0.143509  -0.041360  -0.037575
    22  S    0.004331   0.002173   0.143509  13.524030   0.512696   0.461587
    23  O    0.003113  -0.000117  -0.041360   0.512696   8.073957  -0.034708
    24  O   -0.002305   0.004381  -0.037575   0.461587  -0.034708   8.135456
    25  C    0.000027   0.000012  -0.026766   0.162283  -0.045060  -0.040273
    26  F   -0.000000  -0.000000   0.000290   0.001095   0.000282   0.000294
    27  F   -0.000000  -0.000000  -0.000069   0.007489   0.000333  -0.000182
    28  F   -0.000001  -0.000000   0.000493   0.004512   0.000003   0.000331
              25         26         27         28
     1  C   -0.000001   0.000000   0.000002   0.000000
     2  C   -0.000001  -0.000000  -0.000000  -0.000000
     3  C    0.000009  -0.000000  -0.000032   0.000001
     4  C    0.000392  -0.000002  -0.001957   0.000142
     5  C    0.001016  -0.000004   0.003739  -0.005094
     6  C    0.000005  -0.000000  -0.000320   0.000003
     7  H   -0.000000   0.000000   0.000000   0.000000
     8  H    0.000000   0.000000   0.000000   0.000000
     9  H    0.000000  -0.000000  -0.000000  -0.000000
    10  C    0.000000   0.000000   0.000000   0.000000
    11  C   -0.001968   0.000030   0.001192  -0.000144
    12  H    0.000337   0.000045  -0.000301   0.015109
    13  H    0.000002  -0.000000   0.000001  -0.000009
    14  C   -0.000012  -0.000000   0.000068  -0.000011
    15  C    0.000001  -0.000000  -0.000000  -0.000000
    16  H   -0.000000   0.000000  -0.000000  -0.000000
    17  C   -0.000071   0.000000  -0.000000   0.000001
    18  H    0.000000   0.000000  -0.000000  -0.000000
    19  H    0.000027  -0.000000  -0.000000  -0.000001
    20  H    0.000012  -0.000000  -0.000000  -0.000000
    21  O   -0.026766   0.000290  -0.000069   0.000493
    22  S    0.162283   0.001095   0.007489   0.004512
    23  O   -0.045060   0.000282   0.000333   0.000003
    24  O   -0.040273   0.000294  -0.000182   0.000331
    25  C    4.598553   0.235826   0.210881   0.203481
    26  F    0.235826   9.073064  -0.033045  -0.032502
    27  F    0.210881  -0.033045   9.090680  -0.032258
    28  F    0.203481  -0.032502  -0.032258   9.093492
 Mulliken charges:
               1
     1  C   -0.085508
     2  C   -0.135169
     3  C    0.092353
     4  C    0.115723
     5  C   -0.127642
     6  C   -0.095295
     7  H    0.091172
     8  H    0.091027
     9  H    0.090001
    10  C   -0.109236
    11  C    0.152845
    12  H    0.092760
    13  H    0.091999
    14  C    0.157120
    15  C   -0.138096
    16  H    0.090389
    17  C   -0.400941
    18  H    0.113303
    19  H    0.138398
    20  H    0.156007
    21  O   -0.594028
    22  S    1.209982
    23  O   -0.465353
    24  O   -0.493994
    25  C    0.701326
    26  F   -0.245373
    27  F   -0.246220
    28  F   -0.247548
 Sum of Mulliken charges =  -0.00000
 Mulliken charges with hydrogens summed into heavy atoms:
               1
     1  C    0.005518
     2  C   -0.045168
     3  C    0.092353
     4  C    0.115723
     5  C   -0.034882
     6  C   -0.003296
    10  C   -0.018063
    11  C    0.152845
    14  C    0.157120
    15  C   -0.047707
    17  C    0.006767
    21  O   -0.594028
    22  S    1.209982
    23  O   -0.465353
    24  O   -0.493994
    25  C    0.701326
    26  F   -0.245373
    27  F   -0.246220
    28  F   -0.247548
 Electronic spatial extent (au):  <R**2>=           4793.2719
 Charge=             -0.0000 electrons
 Dipole moment (field-independent basis, Debye):
    X=              3.0605    Y=             -0.8603    Z=              0.2052  Tot=              3.1857
 Quadrupole moment (field-independent basis, Debye-Ang):
   XX=           -109.2216   YY=           -101.4596   ZZ=           -117.6262
   XY=              4.7706   XZ=              1.1087   YZ=              0.7165
 Traceless Quadrupole moment (field-independent basis, Debye-Ang):
   XX=              0.2142   YY=              7.9762   ZZ=             -8.1904
   XY=              4.7706   XZ=              1.1087   YZ=              0.7165
 Octapole moment (field-independent basis, Debye-Ang**2):
  XXX=            -18.5762  YYY=            -19.2339  ZZZ=              5.0731  XYY=             -5.0604
  XXY=            -26.2500  XXZ=             24.6606  XZZ=            -28.0470  YZZ=            -10.9355
  YYZ=             -1.0667  XYZ=              2.5073
 Hexadecapole moment (field-independent basis, Debye-Ang**3):
 XXXX=          -3466.8765 YYYY=          -1865.0984 ZZZZ=           -365.6327 XXXY=             82.1347
 XXXZ=             30.0052 YYYX=             56.3695 YYYZ=              5.9472 ZZZX=            -12.1012
 ZZZY=            -14.6563 XXYY=           -886.5260 XXZZ=           -691.2161 YYZZ=           -407.7806
 XXYZ=             10.4693 YYXZ=             -1.1005 ZZXY=             33.6023
 N-N= 1.729313781314D+03 E-N=-6.721590522933D+03  KE= 1.379265748059D+03
   1 Symmetry operations used in ECPInt.
 ECPInt:  NShTT=    5460 NPrTT=   34314 LenC2=    4771 LenP2D=   17515.
 LDataN:  DoStor=T MaxTD1= 5 Len=  102
 Calling FoFJK, ICntrl=      2127 FMM=F ISym2X=0 I1Cent= 0 IOpClX= 0 NMat=1 NMatS=1 NMatT=0.
 ***** Axes restored to original set *****
 -------------------------------------------------------------------
 Center     Atomic                   Forces (Hartrees/Bohr)
 Number     Number              X              Y              Z
 -------------------------------------------------------------------
      1        6           0.002257055   -0.002572121    0.000353932
      2        6           0.002888943    0.000678271    0.001148008
      3        6           0.001694582    0.000279048    0.000686731
      4        6          -0.001639001   -0.000171198   -0.000423954
      5        6          -0.003420278   -0.000933396   -0.001259410
      6        6          -0.000736713   -0.003266349   -0.000841513
      7        1          -0.000173932   -0.000078803   -0.000071397
      8        1          -0.000084624    0.000040192   -0.000019929
      9        1          -0.000181137   -0.000027397   -0.000067942
     10        6           0.002815364    0.000643522    0.001102667
     11        6           0.004261642    0.000683971    0.000362639
     12        1           0.000677557    0.000072649    0.000349092
     13        1           0.000059413    0.000068767    0.000050079
     14        6           0.000652166   -0.000502390   -0.000005892
     15        6           0.000816497    0.003416523    0.000772553
     16        1          -0.000031014   -0.000221768   -0.000051143
     17        6          -0.002260150    0.002747586   -0.000591387
     18        1          -0.000072718    0.000267889    0.000029871
     19        1           0.000029020    0.000254575    0.000290027
     20        1          -0.000185139    0.000200785   -0.000194975
     21        8           0.000566081   -0.001362772   -0.005995685
     22       16          -0.001030586   -0.001748676   -0.000427700
     23        8          -0.007844544    0.003734598   -0.005721031
     24        8           0.001993209    0.004128338    0.009519179
     25        6           0.000143463    0.002176770   -0.000531137
     26        9          -0.007671454   -0.000952771    0.003701863
     27        9           0.006251520   -0.003385574    0.005191732
     28        9           0.000224780   -0.004170268   -0.007355276
 -------------------------------------------------------------------
 Cartesian Forces:  Max     0.009519179 RMS     0.002673026

 GradGradGradGradGradGradGradGradGradGradGradGradGradGradGradGradGradGrad
 Berny optimization.
 FormGI is forming the generalized inverse of G from B-inverse, IUseBI=4.
 Internal  Forces:  Max     0.010557441 RMS     0.002367925
 Search for a local minimum.
 Step number   1 out of a maximum of  152
 All quantities printed in internal units (Hartrees-Bohrs-Radians)
 Swapping is turned off.
 Second derivative matrix not updated -- first step.
 ITU=  0
     Eigenvalues ---    0.00230   0.00784   0.01561   0.01632   0.01832
     Eigenvalues ---    0.01846   0.01854   0.02010   0.02062   0.02067
     Eigenvalues ---    0.02101   0.02142   0.02170   0.02188   0.02210
     Eigenvalues ---    0.02237   0.02269   0.02275   0.02312   0.07188
     Eigenvalues ---    0.07330   0.08749   0.08930   0.09078   0.10500
     Eigenvalues ---    0.15711   0.15997   0.15998   0.15999   0.16000
     Eigenvalues ---    0.16000   0.16000   0.16000   0.16000   0.16000
     Eigenvalues ---    0.19967   0.22000   0.22376   0.22591   0.22684
     Eigenvalues ---    0.24344   0.24643   0.24912   0.24967   0.25000
     Eigenvalues ---    0.25000   0.25000   0.25000   0.25000   0.25000
     Eigenvalues ---    0.32525   0.34270   0.34464   0.34475   0.35198
     Eigenvalues ---    0.35224   0.35235   0.35298   0.35313   0.35633
     Eigenvalues ---    0.37215   0.40427   0.40897   0.41539   0.42608
     Eigenvalues ---    0.42942   0.43434   0.44883   0.46423   0.48341
     Eigenvalues ---    0.48605   0.49795   0.50060   0.60359   0.61118
     Eigenvalues ---    0.61248   0.98255   0.99292
 Quadratic step=1.126D-01 exceeds max=1.000D-02 adjusted using Lamda=-1.990D+00.
 Angle between NR and scaled steps=  57.24 degrees.
 Angle between quadratic step and forces=   5.29 degrees.
 Linear search not attempted -- option 19 set.
 Iteration  1 RMS(Cart)=  0.00265055 RMS(Int)=  0.00000046
 Iteration  2 RMS(Cart)=  0.00000179 RMS(Int)=  0.00000001
 Iteration  3 RMS(Cart)=  0.00000000 RMS(Int)=  0.00000001
 Variable       Old X    -DE/DX   Delta X   Delta X   Delta X     New X
                                 (Linear)    (Quad)   (Total)
    R1        2.59417   0.00335   0.00000   0.00134   0.00134   2.59552
    R2        2.66710   0.00318   0.00000   0.00131   0.00131   2.66841
    R3        2.05169  -0.00009   0.00000  -0.00004  -0.00004   2.05166
    R4        2.67470   0.00321   0.00000   0.00133   0.00133   2.67602
    R5        2.05354  -0.00019   0.00000  -0.00008  -0.00008   2.05346
    R6        2.69494   0.00445   0.00000   0.00185   0.00185   2.69679
    R7        2.67533   0.00306   0.00000   0.00126   0.00126   2.67659
    R8        2.67468   0.00348   0.00000   0.00144   0.00144   2.67612
    R9        2.67823   0.00346   0.00000   0.00143   0.00143   2.67966
   R10        2.59545   0.00340   0.00000   0.00136   0.00136   2.59681
   R11        2.04660  -0.00076   0.00000  -0.00032  -0.00032   2.04627
   R12        2.05194  -0.00009   0.00000  -0.00004  -0.00004   2.05190
   R13        2.05313  -0.00020   0.00000  -0.00009  -0.00009   2.05305
   R14        2.58833   0.00331   0.00000   0.00132   0.00132   2.58966
   R15        2.60086   0.00397   0.00000   0.00160   0.00160   2.60246
   R16        2.65412   0.00759   0.00000   0.00311   0.00311   2.65723
   R17        2.67927   0.00330   0.00000   0.00137   0.00137   2.68064
   R18        2.83194   0.00428   0.00000   0.00185   0.00185   2.83379
   R19        2.05296  -0.00023   0.00000  -0.00010  -0.00010   2.05286
   R20        2.06537   0.00018   0.00000   0.00008   0.00008   2.06544
   R21        2.06554  -0.00028   0.00000  -0.00012  -0.00012   2.06542
   R22        2.06876  -0.00003   0.00000  -0.00001  -0.00001   2.06875
   R23        3.07357   0.00897   0.00000   0.00365   0.00365   3.07723
   R24        2.72623   0.01039   0.00000   0.00348   0.00348   2.72972
   R25        2.73046   0.01056   0.00000   0.00355   0.00355   2.73401
   R26        3.49461   0.00650   0.00000   0.00293   0.00293   3.49754
   R27        2.50066   0.00857   0.00000   0.00329   0.00329   2.50396
   R28        2.49966   0.00880   0.00000   0.00338   0.00338   2.50304
   R29        2.50657   0.00846   0.00000   0.00326   0.00326   2.50983
    A1        2.09564   0.00002   0.00000   0.00001   0.00001   2.09565
    A2        2.09760   0.00003   0.00000   0.00001   0.00001   2.09761
    A3        2.08991  -0.00005   0.00000  -0.00002  -0.00002   2.08989
    A4        2.10865   0.00016   0.00000   0.00007   0.00007   2.10872
    A5        2.10528  -0.00006   0.00000  -0.00003  -0.00003   2.10526
    A6        2.06923  -0.00010   0.00000  -0.00004  -0.00004   2.06919
    A7        2.07480  -0.00006   0.00000  -0.00003  -0.00003   2.07477
    A8        2.13233   0.00024   0.00000   0.00011   0.00011   2.13244
    A9        2.07601  -0.00019   0.00000  -0.00009  -0.00009   2.07593
   A10        2.08061  -0.00036   0.00000  -0.00016  -0.00016   2.08045
   A11        2.05156   0.00005   0.00000   0.00002   0.00002   2.05158
   A12        2.15085   0.00032   0.00000   0.00014   0.00014   2.15099
   A13        2.09970   0.00020   0.00000   0.00009   0.00009   2.09980
   A14        2.08265  -0.00002   0.00000  -0.00001  -0.00001   2.08264
   A15        2.10068  -0.00018   0.00000  -0.00008  -0.00008   2.10060
   A16        2.10666   0.00004   0.00000   0.00002   0.00002   2.10668
   A17        2.08786  -0.00007   0.00000  -0.00003  -0.00003   2.08783
   A18        2.08865   0.00003   0.00000   0.00001   0.00001   2.08866
   A19        2.07385  -0.00014   0.00000  -0.00006  -0.00006   2.07379
   A20        2.10928   0.00020   0.00000   0.00008   0.00008   2.10937
   A21        2.09993  -0.00006   0.00000  -0.00002  -0.00002   2.09990
   A22        2.15878  -0.00022   0.00000  -0.00009  -0.00009   2.15869
   A23        2.03296  -0.00063   0.00000  -0.00028  -0.00028   2.03268
   A24        2.08821   0.00085   0.00000   0.00038   0.00038   2.08859
   A25        2.04303   0.00002   0.00000   0.00001   0.00001   2.04304
   A26        2.14219   0.00059   0.00000   0.00026   0.00026   2.14245
   A27        2.09796  -0.00061   0.00000  -0.00027  -0.00027   2.09768
   A28        2.12624   0.00014   0.00000   0.00006   0.00006   2.12630
   A29        2.09576  -0.00009   0.00000  -0.00004  -0.00004   2.09572
   A30        2.06118  -0.00004   0.00000  -0.00002  -0.00002   2.06116
   A31        1.92500   0.00016   0.00000   0.00008   0.00008   1.92507
   A32        1.95012   0.00025   0.00000   0.00012   0.00012   1.95024
   A33        1.93358   0.00035   0.00000   0.00016   0.00016   1.93375
   A34        1.88921  -0.00018   0.00000  -0.00008  -0.00008   1.88913
   A35        1.88559  -0.00028   0.00000  -0.00013  -0.00013   1.88546
   A36        1.87824  -0.00035   0.00000  -0.00016  -0.00016   1.87808
   A37        2.09593   0.00381   0.00000   0.00170   0.00170   2.09763
   A38        1.85507   0.00037   0.00000   0.00017   0.00017   1.85524
   A39        1.93672   0.00038   0.00000   0.00017   0.00017   1.93690
   A40        1.73932  -0.00067   0.00000  -0.00030  -0.00030   1.73903
   A41        2.15538  -0.00032   0.00000  -0.00015  -0.00015   2.15523
   A42        1.86303   0.00030   0.00000   0.00013   0.00013   1.86316
   A43        1.86845  -0.00017   0.00000  -0.00009  -0.00009   1.86837
   A44        1.88466   0.00028   0.00000   0.00013   0.00013   1.88479
   A45        1.91640  -0.00012   0.00000  -0.00005  -0.00005   1.91635
   A46        1.91805   0.00012   0.00000   0.00005   0.00005   1.91811
   A47        1.91564  -0.00006   0.00000  -0.00002  -0.00002   1.91562
   A48        1.91374  -0.00007   0.00000  -0.00003  -0.00003   1.91371
   A49        1.91511  -0.00015   0.00000  -0.00007  -0.00007   1.91504
    D1        0.00707  -0.00002   0.00000  -0.00001  -0.00001   0.00706
    D2       -3.12834  -0.00004   0.00000  -0.00002  -0.00002  -3.12836
    D3        3.13982   0.00001   0.00000   0.00001   0.00001   3.13983
    D4        0.00441  -0.00001   0.00000  -0.00000  -0.00000   0.00440
    D5       -0.01305   0.00003   0.00000   0.00002   0.00002  -0.01303
    D6        3.12351   0.00004   0.00000   0.00002   0.00002   3.12353
    D7        3.13735  -0.00000   0.00000  -0.00000  -0.00000   3.13735
    D8       -0.00927   0.00001   0.00000   0.00000   0.00000  -0.00927
    D9        0.01240  -0.00003   0.00000  -0.00002  -0.00002   0.01238
   D10       -3.11879  -0.00007   0.00000  -0.00003  -0.00003  -3.11882
   D11       -3.13525  -0.00001   0.00000  -0.00001  -0.00001  -3.13525
   D12        0.01675  -0.00004   0.00000  -0.00002  -0.00002   0.01673
   D13       -0.02598   0.00008   0.00000   0.00004   0.00004  -0.02594
   D14        3.13425  -0.00002   0.00000  -0.00001  -0.00001   3.13424
   D15        3.10555   0.00012   0.00000   0.00006   0.00006   3.10561
   D16       -0.01741   0.00001   0.00000   0.00001   0.00001  -0.01740
   D17       -0.01282   0.00003   0.00000   0.00001   0.00001  -0.01281
   D18        3.11183   0.00007   0.00000   0.00003   0.00003   3.11187
   D19        3.13918  -0.00001   0.00000  -0.00000  -0.00000   3.13918
   D20       -0.01935   0.00003   0.00000   0.00002   0.00002  -0.01933
   D21        0.02049  -0.00007   0.00000  -0.00003  -0.00003   0.02045
   D22       -3.10284  -0.00009   0.00000  -0.00005  -0.00005  -3.10289
   D23       -3.14086   0.00004   0.00000   0.00002   0.00002  -3.14084
   D24        0.01900   0.00002   0.00000   0.00001   0.00001   0.01900
   D25        0.05616  -0.00007   0.00000  -0.00003  -0.00003   0.05613
   D26        3.11090   0.00009   0.00000   0.00004   0.00004   3.11095
   D27       -3.06598  -0.00018   0.00000  -0.00009  -0.00009  -3.06607
   D28       -0.01124  -0.00001   0.00000  -0.00001  -0.00001  -0.01125
   D29       -0.00100   0.00001   0.00000   0.00000   0.00000  -0.00100
   D30       -3.13756  -0.00000   0.00000  -0.00000  -0.00000  -3.13756
   D31        3.12214   0.00003   0.00000   0.00002   0.00002   3.12215
   D32       -0.01442   0.00003   0.00000   0.00001   0.00001  -0.01441
   D33        0.02134  -0.00004   0.00000  -0.00002  -0.00002   0.02132
   D34       -3.11800  -0.00002   0.00000  -0.00001  -0.00001  -3.11801
   D35       -3.13744   0.00000   0.00000   0.00000   0.00000  -3.13744
   D36        0.00640   0.00002   0.00000   0.00001   0.00001   0.00641
   D37       -0.05456   0.00006   0.00000   0.00003   0.00003  -0.05453
   D38        3.09176   0.00003   0.00000   0.00002   0.00002   3.09177
   D39       -3.10670  -0.00003   0.00000  -0.00002  -0.00002  -3.10672
   D40        0.03962  -0.00006   0.00000  -0.00003  -0.00003   0.03959
   D41        1.95760  -0.00101   0.00000  -0.00050  -0.00050   1.95710
   D42       -1.26713  -0.00090   0.00000  -0.00045  -0.00045  -1.26758
   D43        0.01471  -0.00000   0.00000  -0.00000  -0.00000   0.01471
   D44       -3.12909  -0.00002   0.00000  -0.00001  -0.00001  -3.12910
   D45       -3.13148   0.00003   0.00000   0.00001   0.00001  -3.13147
   D46        0.00790   0.00001   0.00000   0.00000   0.00000   0.00791
   D47       -2.58898  -0.00003   0.00000  -0.00001  -0.00001  -2.58899
   D48       -0.48679   0.00003   0.00000   0.00001   0.00001  -0.48678
   D49        1.60734  -0.00001   0.00000  -0.00000  -0.00000   1.60734
   D50        0.55748  -0.00006   0.00000  -0.00003  -0.00003   0.55745
   D51        2.65967  -0.00001   0.00000  -0.00000  -0.00000   2.65966
   D52       -1.52938  -0.00004   0.00000  -0.00002  -0.00002  -1.52940
   D53        2.49695   0.00003   0.00000   0.00001   0.00001   2.49696
   D54        0.11126  -0.00018   0.00000  -0.00008  -0.00008   0.11118
   D55       -1.85343   0.00021   0.00000   0.00010   0.00010  -1.85333
   D56       -2.94543  -0.00012   0.00000  -0.00006  -0.00006  -2.94549
   D57        1.24956  -0.00016   0.00000  -0.00008  -0.00008   1.24948
   D58       -0.85858   0.00003   0.00000   0.00001   0.00001  -0.85856
   D59       -1.01891   0.00011   0.00000   0.00005   0.00005  -1.01886
   D60       -3.10711   0.00007   0.00000   0.00003   0.00003  -3.10708
   D61        1.06794   0.00026   0.00000   0.00012   0.00012   1.06806
   D62        1.32042  -0.00020   0.00000  -0.00010  -0.00010   1.32032
   D63       -0.76778  -0.00024   0.00000  -0.00012  -0.00012  -0.76789
   D64       -2.87592  -0.00005   0.00000  -0.00002  -0.00002  -2.87594
         Item               Value     Threshold  Converged?
 Maximum Force            0.010557     0.000450     NO 
 RMS     Force            0.002368     0.000300     NO 
 Maximum Displacement     0.010372     0.001800     NO 
 RMS     Displacement     0.002652     0.001200     NO 
 Predicted change in Energy=-2.725808D-04
 GradGradGradGradGradGradGradGradGradGradGradGradGradGradGradGradGradGrad

                          Input orientation:                          
 ---------------------------------------------------------------------
 Center     Atomic      Atomic             Coordinates (Angstroms)
 Number     Number       Type             X           Y           Z
 ---------------------------------------------------------------------
      1          6           0        3.470798   -2.292971    0.009702
      2          6           0        3.801508   -1.002629    0.344541
      3          6           0        2.864037    0.048346    0.196523
      4          6           0        1.558897   -0.256323   -0.293728
      5          6           0        1.248174   -1.591839   -0.647708
      6          6           0        2.185704   -2.585201   -0.497301
      7          1           0        4.176352    1.622328    0.882430
      8          1           0        4.198179   -3.090568    0.125807
      9          1           0        4.791830   -0.765714    0.723922
     10          6           0        3.182920    1.392951    0.507194
     11          6           0        0.639815    0.815844   -0.422247
     12          1           0        0.270458   -1.819086   -1.053879
     13          1           0        1.937626   -3.605029   -0.775526
     14          6           0        0.958374    2.130221   -0.162420
     15          6           0        2.265666    2.393917    0.320990
     16          1           0        2.531068    3.423709    0.542787
     17          6           0       -0.011973    3.255471   -0.364828
     18          1           0        0.518869    4.167122   -0.650686
     19          1           0       -0.741566    3.025411   -1.145442
     20          1           0       -0.566449    3.461003    0.556451
     21          8           0       -0.626648    0.496531   -0.943165
     22         16           0       -1.948213    0.587653    0.003856
     23          8           0       -3.016051    1.077747   -0.836456
     24          8           0       -1.622752    1.155988    1.293905
     25          6           0       -2.263913   -1.216551    0.269761
     26          9           0       -3.458667   -1.345025    0.828136
     27          9           0       -1.338236   -1.720529    1.071986
     28          9           0       -2.244082   -1.855352   -0.894503
 ---------------------------------------------------------------------
                    Distance matrix (angstroms):
                    1          2          3          4          5
     1  C    0.000000
     2  C    1.373488   0.000000
     3  C    2.425866   1.416090   0.000000
     4  C    2.809870   2.448196   1.427081   0.000000
     5  C    2.421535   2.802006   2.452334   1.416140   0.000000
     6  C    1.412061   2.413308   2.806617   2.420331   1.374174
     7  H    4.072963   2.705593   2.161032   3.429831   4.609383
     8  H    1.085690   2.136511   3.411409   3.895479   3.398094
     9  H    2.141903   1.086644   2.158061   3.427382   3.888618
    10  C    3.730468   2.479498   1.416392   2.449291   3.739787
    11  C    4.226793   3.727079   2.432919   1.418017   2.493566
    12  H    3.405577   3.884649   3.431831   2.163362   1.082842
    13  H    2.165340   3.391326   3.892334   3.404320   2.131811
    14  C    5.089846   4.260889   2.845101   2.464440   3.764733
    15  C    4.849347   3.727720   2.423891   2.810902   4.226099
    16  H    5.817878   4.609316   3.409376   3.897116   5.312138
    17  C    6.561644   5.759970   4.344214   3.847776   5.016413
    18  H    7.133219   6.204235   4.814758   4.558064   5.804957
    19  H    6.882119   6.251774   4.864583   4.097234   5.052306
    20  H    7.050285   6.248838   4.852217   4.365594   5.502187
    21  O    5.047608   4.849148   3.699276   2.401076   2.821975
    22  S    6.137077   5.975312   4.846207   3.619486   3.923214
    23  O    7.359140   7.225083   6.058230   4.796295   5.034474
    24  O    6.284008   5.914687   4.749989   3.825976   4.422966
    25  C    5.840653   6.069654   5.282159   3.981638   3.649295
    26  F    7.041728   7.284315   6.505152   5.255455   4.938967
    27  F    4.958119   5.240375   4.642677   3.521712   3.108605
    28  F    5.802495   6.229890   5.559432   4.168990   3.510869
                    6          7          8          9         10
     6  C    0.000000
     7  H    4.854857   0.000000
     8  H    2.166498   4.773294   0.000000
     9  H    3.404969   2.471170   2.472874   0.000000
    10  C    4.222457   1.086427   4.612824   2.700999   0.000000
    11  C    3.736645   3.854827   5.312473   4.588492   2.768446
    12  H    2.136559   5.554154   4.293637   4.971215   4.608314
    13  H    1.085818   5.923341   2.487402   4.296107   5.308100
    14  C    4.884025   3.421264   6.151101   4.885430   2.437325
    15  C    5.046545   2.135717   5.818271   4.065357   1.370387
    16  H    6.108033   2.463187   6.737131   4.763939   2.133110
    17  C    6.241857   4.665283   7.631402   6.358602   3.799571
    18  H    6.956705   4.712070   8.174003   6.669379   4.016700
    19  H    6.361444   5.501529   7.963815   6.963162   4.560452
    20  H    6.726168   5.097171   8.112349   6.826737   4.282176
    21  O    4.195855   5.260135   6.106466   5.807955   4.173717
    22  S    5.235211   6.273176   7.163959   6.912183   5.218273
    23  O    6.371065   7.414971   8.387247   8.172890   6.350747
    24  O    5.631098   5.832357   7.299378   6.720467   4.875402
    25  C    4.718123   7.064815   6.729881   7.084704   6.044325
    26  F    5.929060   8.191559   7.884636   8.271467   7.190980
    27  F    3.953287   6.451457   5.781362   6.213737   5.518477
    28  F    4.507045   7.514900   6.638487   7.301415   6.478315
                   11         12         13         14         15
    11  C    0.000000
    12  H    2.734637   0.000000
    13  H    4.620957   2.458968   0.000000
    14  C    1.377162   4.106696   5.850464   0.000000
    15  C    2.384556   4.860094   6.107152   1.418532   0.000000
    16  H    3.362899   5.928457   7.175882   2.154947   1.086326
    17  C    2.525847   5.128906   7.143953   1.499576   2.529873
    18  H    3.361231   6.004911   7.901569   2.140218   2.672024
    19  H    2.704332   4.949922   7.160841   2.158123   3.404798
    20  H    3.067538   5.583271   7.614024   2.147753   3.035620
    21  O    1.406146   2.485787   4.840082   2.406409   3.682885
    22  S    2.632779   3.440014   5.769382   3.294755   4.595643
    23  O    3.688566   4.386348   6.816965   4.166303   5.564936
    24  O    2.860085   4.236437   6.294928   3.119651   4.195095
    25  C    3.611253   2.922004   4.944733   4.665919   5.792684
    26  F    4.798997   4.203937   6.066246   5.706907   6.856010
    27  F    3.546633   2.667754   4.206651   4.650425   5.520939
    28  F    3.959189   2.519846   4.534557   5.164926   6.314391
                   16         17         18         19         20
    16  H    0.000000
    17  C    2.705389   0.000000
    18  H    2.454789   1.092985   0.000000
    19  H    3.703903   1.092974   1.771153   0.000000
    20  H    3.097772   1.094734   1.770226   1.765459   0.000000
    21  O    4.554954   2.885143   3.856293   2.539559   3.322735
    22  S    5.328942   3.316957   4.396307   2.952887   3.235857
    23  O    6.178704   3.740241   4.698341   3.010340   3.690617
    24  O    4.791759   3.123113   4.175513   3.197131   2.640589
    25  C    6.678204   5.047070   6.129848   4.723832   4.984284
    26  F    7.661539   5.870896   6.956398   5.511657   5.615750
    27  F    6.458696   5.346399   6.409437   5.272282   5.264001
    28  F    7.261980   5.602087   6.630501   5.112961   5.760499
                   21         22         23         24         25
    21  O    0.000000
    22  S    1.628399   0.000000
    23  O    2.461390   1.444505   0.000000
    24  O    2.536058   1.446775   2.546732   0.000000
    25  C    2.662043   1.850818   2.655792   2.662499   0.000000
    26  F    3.814337   2.587693   2.972642   3.137291   1.325038
    27  F    3.079374   2.615470   3.779890   2.899060   1.324552
    28  F    2.854787   2.619707   3.033542   3.774036   1.328146
                   26         27         28
    26  F    0.000000
    27  F    2.167186   0.000000
    28  F    2.168672   2.169288   0.000000
 Stoichiometry    C12H9F3O3S
 Framework group  C1[X(C12H9F3O3S)]
 Deg. of freedom    78
 Full point group                 C1      NOp   1
 Largest Abelian subgroup         C1      NOp   1
 Largest concise Abelian subgroup C1      NOp   1
                         Standard orientation:                         
 ---------------------------------------------------------------------
 Center     Atomic      Atomic             Coordinates (Angstroms)
 Number     Number       Type             X           Y           Z
 ---------------------------------------------------------------------
      1          6           0        3.469724   -2.295584    0.009734
      2          6           0        3.801599   -1.005541    0.344572
      3          6           0        2.865076    0.046279    0.196555
      4          6           0        1.559662   -0.257211   -0.293696
      5          6           0        1.247734   -1.592445   -0.647676
      6          6           0        2.184367   -2.586654   -0.497270
      7          1           0        4.178812    1.619076    0.882462
      8          1           0        4.196384   -3.093837    0.125839
[...]
 0.00743508,-0.00026309,0.00001732,0.00011807,0.00126111,0.00158733,-0.
 00518850,-0.00022628,0.00060754,0.00050407,0.00097691,-0.00027996,0.00
 044043,0.00103516,-0.00030480,0.00054032,0.02882654,0.04679398,0.19961
 264,0.00020566,-0.00019537,0.00009420,0.00017511,-0.00001673,-0.000002
 07,-0.00020313,-0.00089755,-0.00159850,0.00481014,-0.00023190,0.003970
 51,0.00048734,0.00021203,0.00071311,0.00013737,-0.00016041,0.00015448,
 0.00025165,-0.00008655,0.00031586,0.00028530,-0.00022501,0.00002275,0.
 00042876,-0.00008226,0.00002015,0.00146599,0.00003924,0.00081949,-0.08
 051338,-0.00910156,-0.00303535,0.00061166,0.00192763,-0.00015082,0.000
 17492,-0.00051261,-0.00007649,0.00659203,0.00232498,0.00537029,-0.0023
 1329,0.00169188,-0.00229032,0.00110235,0.00053723,0.00029736,0.0001671
 7,-0.00133819,0.00130618,0.00007254,0.00095899,0.00013354,0.00155526,-
 0.00163593,-0.00048621,-0.00019621,0.00034976,0.00019845,-0.11260151,-
 0.00298542,0.04303117,0.71862613,-0.00000298,-0.00061742,-0.00008820,-
 0.00034621,0.00045426,-0.00012096,0.00042458,-0.00139023,-0.00008394,0
 .00093764,0.00100255,0.00029682,0.00139238,0.00105876,0.00150583,0.000
 13080,-0.00064409,0.00027798,0.00002097,-0.00011775,0.00017479,-0.0001
 1901,0.00000310,-0.00006464,0.00000456,-0.00008484,-0.00000931,-0.0005
 1333,0.00010607,-0.00002037,0.00231058,-0.00677262,0.00889678,0.001016
 27,-0.00053462,-0.00150952,0.00016300,-0.00013869,-0.00010950,-0.00887
 881,0.00177426,-0.00033645,0.00122215,-0.00116357,-0.00169206,-0.00043
 476,-0.00014228,-0.00018785,-0.00093879,0.00127949,-0.00169068,0.00182
 885,0.00009721,0.00020276,-0.00083505,-0.00201941,0.00328267,-0.000597
 12,-0.00292563,-0.00101862,-0.00591330,-0.05290379,-0.01025876,-0.0598
 7513,0.56653770,0.00014616,0.00019760,0.00007627,-0.00078820,-0.000651
 10,-0.00052109,-0.00038132,0.00308573,0.00026651,-0.01027150,-0.002064
 94,-0.00318473,0.00066141,-0.00038518,-0.00040031,-0.00049136,0.000281
 66,-0.00034343,-0.00023551,-0.00004015,0.00002359,-0.00015867,0.000086
 37,0.00001912,-0.00035751,0.00020102,-0.00003064,-0.00060605,-0.000299
 09,-0.00017778,0.03251339,0.01519624,0.02039137,-0.00036289,-0.0010977
 3,0.00055194,-0.00010457,0.00021060,0.00008078,-0.00868582,-0.00222487
 ,-0.00291380,0.00068992,-0.00213020,-0.00088969,-0.00090023,-0.0003408
 9,-0.00018523,0.00132998,0.00258226,0.00358411,0.00048519,-0.00052765,
 -0.00205797,0.00006145,0.00172733,-0.00077470,0.00012789,-0.00423132,-
 0.00078323,0.03551458,-0.01085793,-0.11765526,0.30790528,0.06862020,0.
 93856680,-0.00005356,-0.00002613,0.00000081,-0.00015518,-0.00014169,-0
 .00012844,-0.00009387,0.00079235,-0.00013055,-0.00272405,-0.00258539,-
 0.00056528,-0.00009625,0.00001619,0.00006817,0.00011015,0.00001868,0.0
 0005243,-0.00011677,-0.00000931,0.00002474,-0.00007063,0.00007777,-0.0
 0001585,-0.00013168,0.00007669,-0.00007839,-0.00026742,-0.00017798,-0.
 00008111,0.00521249,0.00833815,0.00585520,-0.00004431,-0.00026678,-0.0
 0000444,-0.00002780,0.00012745,0.00001091,-0.00056725,0.00092770,-0.00
 058640,0.00014578,-0.00001066,-0.00001364,-0.00019589,-0.00013629,-0.0
 0012710,-0.00023826,-0.00044623,0.00036501,-0.00006559,-0.00023740,-0.
 00000137,-0.00039591,0.00026621,-0.00005048,0.00001629,0.00002312,-0.0
 0009539,-0.02561276,0.00257772,-0.01927579,-0.36916267,0.13798733,-0.2
 4171512,0.38728880,-0.00001968,0.00017456,0.00001184,0.00014305,-0.000
 05829,0.00006356,-0.00010760,0.00017029,0.00009962,0.00026629,0.000127
 53,-0.00004439,-0.00042694,-0.00020912,-0.00038589,-0.00004690,0.00017
 152,-0.00007070,-0.00000248,0.00004124,-0.00003904,0.00002829,-0.00000
 377,0.00002011,0.00001104,0.00000871,0.00001612,0.00007100,-0.00009508
 ,-0.00001403,-0.00086224,0.00025199,-0.00203118,-0.00020447,-0.0000034
 2,0.00035081,-0.00005497,0.00005177,0.00003260,0.00122828,-0.00088090,
 -0.00011247,-0.00039711,0.00037983,0.00021642,0.00012046,0.00004815,0.
 00005960,0.00008485,-0.00027789,0.00101246,-0.00048403,0.00002585,-0.0
 0028553,0.00027086,0.00027809,-0.00111745,0.00020282,0.00040131,0.0002
 7837,0.00285011,0.01192318,0.00448924,0.13655802,-0.15363807,0.1091651
 0,-0.15064644,0.11976812,-0.00004033,-0.00007545,-0.00002132,0.0000880
 7,0.00013262,0.00007955,0.00009809,-0.00051369,-0.00007557,0.00121367,
 0.00016948,0.00026318,-0.00007232,0.00017221,0.00020242,0.00008826,-0.
 00010911,0.00009811,0.00001846,0.00000154,-0.00001528,-0.00000626,0.00
 001039,-0.00002026,0.00002646,-0.00002942,-0.00001566,-0.00005524,0.00
 005013,-0.00000237,-0.00153262,-0.00262443,-0.00005667,0.00005290,0.00
 004476,-0.00026442,0.00002066,-0.00000063,-0.00002743,0.00033991,0.000
 54196,0.00027502,0.00018555,0.00015538,0.00015004,0.00002761,-0.000002
 20,-0.00002430,-0.00042454,-0.00033488,-0.00101919,0.00002882,0.000007
 10,0.00038797,-0.00026035,-0.00034714,0.00031493,0.00005149,0.00062393
 ,0.00004976,0.01758924,-0.00306348,0.00998492,-0.24171812,0.10795584,-
 0.26829147,0.25700005,-0.11319702,0.25717540,-0.00012418,0.00003962,-0
 .00003786,0.00012918,0.00008348,0.00009637,-0.00003337,-0.00017100,0.0
 0007309,0.00078454,-0.00075733,-0.00006175,-0.00036515,0.00009523,-0.0
 0029539,0.00015524,0.00003219,0.00001382,-0.00005065,0.00003846,-0.000
 06299,-0.00003680,0.00004758,0.00000317,-0.00005555,0.00000016,-0.0000
 1135,-0.00015403,0.00015889,-0.00015568,0.00524034,0.00041439,0.002851
 98,-0.00016306,-0.00018907,0.00016698,-0.00003301,0.00010722,0.0000112
 5,-0.00033771,-0.00013228,0.00024382,0.00054625,-0.00000704,0.00082444
 ,-0.00006095,-0.00005881,-0.00006926,-0.00114879,-0.00108732,-0.000253
 25,-0.00025496,-0.00011029,0.00055706,-0.00013490,0.00013116,0.0000584
 8,-0.00071706,0.00056106,0.00036768,0.00240916,0.00994078,0.02381211,-
 0.10873071,-0.05062676,-0.11576555,0.00593995,-0.00893648,-0.02409792,
 0.08939512,-0.00008606,0.00019579,0.00000595,0.00021564,-0.00002712,0.
 00010058,-0.00019722,0.00010678,-0.00006363,0.00065366,-0.00019560,0.0
 0024926,-0.00055579,-0.00001163,-0.00045656,0.00002865,0.00018174,-0.0
 0003792,-0.00002123,0.00005597,-0.00003555,0.00003286,0.00000564,0.000
 02204,0.00001135,0.00000602,0.00000608,0.00010227,0.00006999,0.0000291
 2,-0.00336961,-0.00084690,-0.00048273,-0.00027195,0.00010042,0.0003799
 2,-0.00005354,0.00006933,0.00002493,0.00196917,-0.00159756,0.00042675,
 0.00002315,0.00040319,0.00026227,0.00017076,0.00007407,0.00004731,-0.0
 0141047,-0.00331215,-0.00015114,-0.00107164,0.00017113,0.00099318,0.00
 020940,0.00018842,-0.00073648,-0.00077881,0.00137738,0.00167399,-0.000
 19821,0.01038609,-0.00432484,-0.04991055,-0.17804534,-0.19474407,0.007
 41803,0.02129082,0.01079074,0.05090435,0.15140125,-0.00002459,0.000023
 28,0.00002490,0.00016622,0.00004414,0.00014778,0.00001395,-0.00034414,
 0.00003865,0.00192324,0.00079643,0.00023381,-0.00034451,-0.00019041,-0
 .00009120,0.00003909,-0.00001573,0.00008189,0.00008391,0.00001246,-0.0
 0003530,0.00007522,-0.00003507,-0.00000283,0.00009365,-0.00002522,0.00
 001447,0.00039378,0.00033515,0.00017877,-0.01061642,-0.00282469,-0.002
 31044,0.00000214,0.00042252,-0.00007393,0.00001087,-0.00003632,-0.0000
 4841,0.00149365,-0.00038311,0.00049166,0.00025266,0.00013369,0.0002734
 9,0.00024213,0.00014529,0.00001895,0.00025193,-0.00029611,-0.00087289,
 -0.00013931,0.00011436,0.00044026,0.00017853,0.00002511,0.00009238,0.0
 0000467,0.00177025,-0.00026753,0.00004833,-0.00903617,-0.01184517,-0.1
 1265574,-0.19146315,-0.50078610,0.00227157,-0.01340812,-0.00286892,0.1
 1661138,0.21080947,0.51855396,-0.00017629,0.00027307,0.00012901,0.0004
 4688,-0.00009709,0.00011404,-0.00036403,-0.00027226,-0.00022077,0.0004
 3012,-0.00121123,0.00028077,-0.00124600,-0.00037912,-0.00144381,0.0003
 2849,0.00112253,-0.00020294,0.00006175,0.00006497,0.00009801,0.0001831
 4,-0.00004707,0.00010502,0.00010183,0.00006104,0.00001297,-0.00031119,
 -0.00008408,-0.00008198,0.00122706,-0.00378987,0.00207640,-0.00029002,
 0.00063742,0.00286603,-0.00008975,0.00003957,0.00004915,-0.00115149,0.
 00006618,-0.00023294,0.00010315,0.00007620,-0.00039757,-0.00005671,0.0
 0009993,-0.00003377,0.00010507,0.00009867,0.00007854,0.00006246,0.0000
 8723,-0.00001086,-0.00015017,-0.00002056,0.00013115,-0.00011470,-0.000
 05686,0.00008061,-0.00950219,-0.00778814,0.00622876,-0.02724141,-0.022
 00561,0.00367970,-0.00926199,0.02102913,-0.01178996,0.00245016,0.00141
 719,0.00010657,0.55806977,0.00036102,-0.00022350,0.00005669,-0.0004027
 4,-0.00010292,-0.00015471,0.00020473,-0.00015540,0.00010856,0.00033289
 ,0.00305834,0.00001852,0.00162861,-0.00013972,0.00174754,-0.00060609,-
 0.00062075,-0.00018828,0.00011190,-0.00010498,-0.00003401,-0.00001519,
 -0.00009418,-0.00005793,0.00008619,-0.00009246,0.00003665,0.00078272,0
 .00027620,0.00026021,-0.01091475,-0.00046269,-0.00575114,0.00120094,0.
 00088905,-0.00159524,0.00025886,-0.00040144,-0.00008905,0.00221156,-0.
 00000119,0.00067431,-0.00041523,-0.00048535,0.00022170,0.00025667,0.00
 010377,0.00011686,0.00012319,-0.00005477,-0.00032693,0.00035364,0.0002
 4484,-0.00000228,-0.00005912,-0.00059549,0.00041018,-0.00021605,-0.000
 69451,-0.00006832,0.02664705,0.00920059,-0.01082361,-0.03014377,-0.164
 17412,0.02622869,-0.00951594,0.01591733,-0.01060560,0.00619423,0.01470
 458,0.01082240,-0.01160581,0.49286746,-0.00008172,0.00038075,-0.000042
 33,-0.00005920,-0.00015055,-0.00006797,-0.00024269,-0.00021456,-0.0000
 7113,-0.00113428,0.00023698,-0.00076325,0.00181317,0.00037945,0.001685
 50,-0.00093572,-0.00008337,-0.00098266,-0.00005895,-0.00004094,-0.0000
 1695,-0.00017654,-0.00000725,0.00000832,-0.00006884,-0.00002992,0.0000
 1333,-0.00013774,-0.00000530,-0.00013791,0.00240718,0.00096496,-0.0004
 9748,0.00323883,-0.00020207,-0.00011190,0.00008024,-0.00004045,0.00025
 370,0.00036183,-0.00045103,-0.00059371,-0.00005402,-0.00004626,0.00026
 387,-0.00001673,-0.00003541,0.00002980,0.00013538,-0.00040873,-0.00004
 599,-0.00016207,-0.00001240,0.00013329,-0.00017346,0.00005561,-0.00005
 175,-0.00001020,0.00039176,0.00011352,0.00547936,0.00376409,-0.0002683
 0,0.00114586,0.02100897,-0.02823500,-0.00383027,0.00996160,-0.00201297
 ,-0.00734928,-0.02474953,-0.01311222,0.00433681,0.00790698,0.55291902,
 0.00000160,-0.00010218,-0.00003073,-0.00007394,0.00009456,-0.00003415,
 0.00001641,-0.00014617,-0.00002496,-0.00024016,-0.00017725,-0.00014887
 ,0.00030231,0.00030371,0.00033156,0.00002213,-0.00031020,0.00007569,-0
 .00007157,-0.00000690,0.00000182,-0.00009118,0.00004626,-0.00002661,-0
 .00006456,-0.00002152,-0.00002203,-0.00015149,-0.00001917,-0.00004032,
 0.00190267,-0.00036474,0.00136288,0.00005081,-0.00019673,-0.00032968,0
 .00003411,0.00003043,-0.00000763,-0.00073158,0.00037452,-0.00010169,0.
 00012051,0.00003461,-0.00011080,-0.00008706,-0.00008130,-0.00004798,-0
 .00001547,0.00000798,-0.00006270,-0.00004529,-0.00011404,0.00001316,-0
 .00001522,0.00008010,0.00004221,0.00005445,-0.00001721,0.00004876,-0.0
 0314952,-0.00456416,0.00076112,-0.02466717,0.00466105,0.01158360,0.007
 41959,-0.00358227,0.00169563,0.00176179,-0.00421498,-0.00404962,-0.263
 24612,-0.04351197,0.09234676,0.36273435,-0.00010019,0.00002395,-0.0000
 2013,0.00008800,0.00005896,0.00003459,-0.00006941,-0.00011274,-0.00011
 322,-0.00009951,-0.00085253,-0.00001119,-0.00023742,0.00016742,-0.0002
 5927,0.00015166,0.00008808,0.00003581,-0.00005136,0.00002168,0.0000236
 3,-0.00002590,0.00003548,0.00000944,-0.00003653,0.00001256,-0.00001676
 ,-0.00027430,-0.00007656,-0.00006507,0.00283849,-0.00069747,0.00181172
 ,-0.00018611,-0.00019744,0.00025334,-0.00004153,0.00009981,0.00001741,
 -0.00093169,0.00029387,-0.00003195,0.00014073,0.00014729,-0.00019604,-
 0.00009579,-0.00004818,-0.00005400,-0.00000960,0.00003244,0.00003732,-
 0.00007275,-0.00008933,0.00000030,0.00000472,0.00017412,-0.00005585,0.
 00005399,0.00009219,0.00005254,-0.00634815,-0.00437182,0.00213933,-0.0
 2282478,0.00413309,0.01130931,0.00188037,-0.00219488,0.00028057,0.0005
 6086,-0.00294560,-0.00230065,-0.05195509,-0.08799442,0.02596316,0.0333
 1224,0.06714199,0.00003304,-0.00000934,0.00001314,0.00001436,-0.000033
 66,0.00001360,0.00004895,0.00012327,0.00003996,0.00026061,0.00014153,0
 .00020177,-0.00027829,-0.00021045,-0.00033116,0.00007582,0.00008627,0.
 00010326,0.00004184,0.00000417,-0.00000828,0.00005837,-0.00001976,0.00
 000384,0.00003536,0.00000970,0.00001053,0.00012174,0.00002304,0.000040
 13,-0.00146261,0.00022729,-0.00092911,-0.00043044,0.00009592,-0.000011
 47,-0.00002387,-0.00001399,-0.00003114,0.00041083,-0.00017705,0.000184
 13,-0.00006622,-0.00002497,0.00006511,0.00005281,0.00004140,0.00002190
 ,-0.00000746,0.00007606,-0.00003749,0.00004017,0.00005945,-0.00002016,
 0.00001578,-0.00008325,0.00000309,-0.00001558,-0.00001525,-0.00004777,
 0.00204865,0.00250913,-0.00024801,0.01406834,-0.00138537,-0.00431657,-
 0.00161889,0.00057089,0.00042791,-0.00025073,0.00366160,0.00442048,0.0
 9198739,0.02067497,-0.11659423,-0.13509661,-0.01514845,0.13993905,0.00
 004496,-0.00034224,-0.00019479,-0.00031752,0.00022496,-0.00006200,0.00
 035776,0.00006148,0.00011909,0.00003262,0.00081489,0.00017532,-0.00120
 366,0.00038195,0.00227154,0.00018213,-0.00074686,0.00041928,-0.0000043
 1,-0.00002754,-0.00003571,-0.00005425,0.00001418,-0.00005946,-0.000020
 09,-0.00003516,0.00000662,0.00020962,0.00009538,0.00008738,-0.00168947
 ,0.00083584,-0.00153307,-0.00168096,-0.00023291,-0.00066065,0.00003644
 ,-0.00005197,-0.00002343,0.00037460,0.00015123,0.00022801,0.00001904,-
 0.00009332,0.00010123,0.00003973,-0.00003300,0.00001600,0.00000621,-0.
 00000663,-0.00018755,0.00007669,-0.00000606,0.00002683,-0.00000115,-0.
 00006034,0.00009198,0.00001108,-0.00012210,-0.00004132,0.00637805,0.00
 059669,-0.00073151,-0.01289909,0.00014716,-0.01036629,0.00132633,0.003
 91485,-0.00012199,0.00333208,0.00019217,0.00369847,-0.17755621,0.06925
 466,-0.09404692,-0.07220658,0.02226619,-0.01830092,0.25476502,-0.00021
 377,0.00013312,-0.00005206,0.00014637,0.00005029,0.00006427,0.00003457
 ,0.00008031,-0.00004333,-0.00027715,-0.00110259,0.00005036,-0.00068102
 ,0.00014679,-0.00038053,0.00015020,0.00025661,-0.00008031,-0.00003509,
 0.00003266,0.00002245,0.00000394,0.00001967,0.00002561,-0.00002149,0.0
 0003712,-0.00000922,-0.00022977,-0.00015622,-0.00009356,0.00257820,0.0
 0022545,0.00183659,0.00014142,-0.00009671,0.00074608,-0.00010135,0.000
 13651,0.00008872,-0.00038756,-0.00002239,-0.00019316,0.00001898,0.0002
 0143,-0.00008684,-0.00006004,-0.00000986,-0.00003462,-0.00002973,-0.00
 002505,0.00021703,-0.00015086,-0.00005612,-0.00002055,0.00007926,0.000
 16951,-0.00019104,0.00005141,0.00023321,0.00007083,-0.00836569,-0.0006
 2844,0.00017810,0.03184597,-0.00410252,0.01948065,0.00192598,-0.011275
 69,0.00404943,-0.00348677,-0.00176860,-0.00256354,0.07494881,-0.127511
 13,0.06851129,0.00783107,0.01423341,-0.00266645,-0.09423466,0.11135727
 ,0.00012534,-0.00013639,0.00013970,0.00000567,-0.00001082,0.00000788,0
 .00005805,0.00001244,0.00013918,0.00055603,0.00048319,0.00011152,0.000
 53830,-0.00025805,-0.00169129,0.00016248,-0.00002354,0.00024422,0.0000
 2517,-0.00000463,-0.00000977,0.00004207,-0.00000388,-0.00000580,0.0000
 2718,-0.00000684,-0.00001857,0.00015873,0.00008316,0.00005824,-0.00131
 214,-0.00010956,-0.00115489,0.00059835,0.00019015,-0.00052096,0.000029
 61,-0.00003982,-0.00015296,0.00018738,0.00010646,0.00013967,-0.0000026
 4,-0.00007945,0.00005629,0.00003311,0.00000801,0.00001030,0.00000904,0
 .00007416,-0.00015255,0.00008045,0.00002295,0.00001033,-0.00004176,-0.
 00011085,0.00011358,-0.00001899,-0.00010822,-0.00004581,0.00421057,0.0
 0040722,0.00056301,-0.02023204,0.00096224,-0.01109522,0.00024423,0.006
 13421,-0.00059727,0.00381057,0.00139894,0.00575609,-0.09784811,0.06689
 969,-0.16044253,-0.00357383,-0.00381315,0.01912237,0.14997243,-0.07626
 248,0.20789616,0.00002416,0.00008613,-0.00004382,-0.00009888,-0.000000
 40,-0.00003115,0.00005004,-0.00007794,-0.00003372,-0.00039272,0.000113
 45,-0.00009278,0.00066360,0.00039231,0.00078433,-0.00040255,-0.0004205
 2,-0.00012393,-0.00001991,-0.00002436,-0.00002310,-0.00008584,0.000003
 91,-0.00003911,-0.00003145,-0.00002071,0.00000052,0.00000564,0.0000294
 6,0.00000963,0.00002246,0.00016085,-0.00030713,-0.00194257,-0.00032181
 ,-0.00077558,0.00002458,0.00003277,0.00002565,0.00003904,-0.00000708,0
 .00003176,-0.00000014,-0.00004429,0.00004349,-0.00000196,-0.00002712,-
 0.00000078,-0.00000348,-0.00000726,-0.00006686,-0.00000115,-0.00002087
 ,0.00000934,0.00001339,0.00000661,-0.00000263,0.00001662,-0.00000154,-
 0.00000395,0.00098895,-0.00085044,-0.00091958,0.00137916,-0.00116046,-
 0.00350796,0.00182246,-0.00100747,0.00159478,0.00025707,-0.00120857,-0
 .00013173,-0.07281162,-0.00260219,-0.00280676,-0.00956382,0.02206284,0
 .04823752,0.00044092,-0.01148124,-0.03784526,0.07960800,-0.00010302,0.
 00006424,-0.00001501,0.00017344,0.00003132,0.00008171,-0.00003784,0.00
 016505,0.00004031,0.00029430,-0.00100495,-0.00002072,-0.00102239,0.000
 11863,-0.00080734,0.00027786,0.00020600,0.00018943,-0.00002143,0.00004
 889,-0.00000543,0.00003847,0.00003074,0.00001608,-0.00001367,0.0000380
 4,-0.00001182,-0.00016920,-0.00011662,-0.00006786,0.00293865,0.0003872
 5,0.00094029,-0.00096042,-0.00048740,0.00041964,-0.00012649,0.00015645
 ,-0.00000046,-0.00012292,-0.00002680,-0.00031577,0.00002326,0.00023963
 ,0.00007817,-0.00003693,-0.00000967,-0.00003403,0.00001403,-0.00029415
 ,-0.00004611,-0.00021667,-0.00006169,0.00011331,0.00003467,0.00016604,
 -0.00017323,-0.00000715,0.00045738,0.00018610,-0.00611676,-0.00067696,
 0.00437698,0.00377799,-0.00703150,-0.03877766,0.00174650,-0.00239318,0
 .00591698,-0.00374651,-0.01203808,-0.00253212,-0.00070915,-0.15335314,
 -0.11304783,0.01065427,0.01282463,-0.00851669,-0.00295882,0.01944195,0
 .00418485,-0.00360408,0.14311789,-0.00001306,-0.00009443,0.00000293,0.
 00011493,0.00004748,0.00006995,0.00005095,0.00018996,0.00004182,0.0005
 3393,-0.00054340,0.00005866,-0.00134710,-0.00027303,-0.00068129,0.0004
 8504,0.00022601,0.00040497,0.00001124,0.00004050,-0.00000195,0.0000869
 6,0.00001835,0.00000823,0.00001627,0.00002956,-0.00000820,-0.00002683,
 -0.00006548,0.00001179,0.00014554,0.00041102,0.00069404,-0.00113356,-0
 .00011824,-0.00020588,-0.00008045,0.00008566,-0.00008399,0.00015788,0.
 00010179,-0.00007436,-0.00000948,0.00019321,0.00000279,0.00001202,0.00
 001314,-0.00001936,-0.00002578,-0.00019137,-0.00004957,-0.00010552,-0.
 00002357,0.00006604,0.00005218,0.00002911,-0.00007609,-0.00001545,0.00
 024717,0.00011213,-0.00343966,0.00090357,0.00405425,0.00267863,-0.0031
 4552,-0.02091826,0.00242541,-0.00177673,0.00590390,-0.00109120,-0.0050
 9967,0.00154742,-0.00009821,-0.10648684,-0.23137209,0.03544504,-0.0198
 8275,-0.04203488,-0.03084855,-0.01266373,-0.05848092,-0.00398118,0.147
 82823,0.34102790\\0.00000037,0.00000180,-0.00000060,-0.00000046,-0.000
 00071,-0.00000092,-0.00000271,-0.00000055,-0.00000112,0.00001103,0.000
 00546,0.00000470,-0.00000002,-0.00000118,0.00000068,-0.00000056,0.0000
 0062,-0.00000044,-0.00000046,0.00000093,-0.00000001,0.00000078,0.00000
 079,-0.00000054,0.00000021,0.00000063,-0.00000029,0.00000116,-0.000001
 94,-0.00000029,-0.00004072,-0.00001027,-0.00001603,-0.00000056,0.00000
 007,-0.00000008,0.00000078,0.00000027,-0.00000066,0.00001191,0.0000075
 8,0.00000478,-0.00000542,-0.00000002,-0.00000246,-0.00000026,0.0000003
 0,0.00000022,0.00000139,-0.00000597,0.00000060,-0.00000173,0.00000118,
 0.00000214,-0.00000114,-0.00000032,-0.00000048,-0.00000232,0.00000070,
 0.00000054,0.00004507,0.00000055,-0.00000311,-0.00002655,0.00000295,0.
 00002298,0.00000412,-0.00000399,0.00000319,0.00000083,-0.00000416,-0.0
 0000829,0.00001231,-0.00000357,-0.00000464,-0.00000831,0.00000333,0.00
 000368,0.00000040,0.00000278,-0.00000224,0.00000086,0.00000275,-0.0000
 0130\\\@
 The archive entry for this job was punched.


 A MAN IS EXACTLY AS GREAT AS THE TIDE SURGING
 BENEATH HIM.      - BISMARCK
 Job cpu time:       0 days  0 hours 54 minutes 37.9 seconds.
 Elapsed time:       0 days  0 hours  1 minutes 43.6 seconds.
 File lengths (MBytes):  RWF=    394 Int=      0 D2E=      0 Chk=     10 Scr=      2
 Normal termination of Gaussian 16 at Sat Nov 25 15:48:06 2023.
