 Entering Gaussian System, Link 0=g16
 Initial command:
 /public3/home/scg9909/software-scg9909/g16/l1.exe "/public3/home/scg9909/tmp/Gau-169951.inp" -scrdir="/public3/home/scg9909/tmp/"
 Entering Link 1 = /public3/home/scg9909/software-scg9909/g16/l1.exe PID=    169952.
  
 Copyright (c) 1988-2019, Gaussian, Inc.  All Rights Reserved.
  
 This is part of the Gaussian(R) 16 program.  It is based on
 the Gaussian(R) 09 system (copyright 2009, Gaussian, Inc.),
 the Gaussian(R) 03 system (copyright 2003, Gaussian, Inc.),
 the Gaussian(R) 98 system (copyright 1998, Gaussian, Inc.),
 the Gaussian(R) 94 system (copyright 1995, Gaussian, Inc.),
 the Gaussian 92(TM) system (copyright 1992, Gaussian, Inc.),
 the Gaussian 90(TM) system (copyright 1990, Gaussian, Inc.),
 the Gaussian 88(TM) system (copyright 1988, Gaussian, Inc.),
 the Gaussian 86(TM) system (copyright 1986, Carnegie Mellon
 University), and the Gaussian 82(TM) system (copyright 1983,
 Carnegie Mellon University). Gaussian is a federally registered
 trademark of Gaussian, Inc.
  
 This software contains proprietary and confidential information,
 including trade secrets, belonging to Gaussian, Inc.
  
 This software is provided under written license and may be
 used, copied, transmitted, or stored only in accord with that
 written license.
  
 The following legend is applicable only to US Government
 contracts under FAR:
  
                    RESTRICTED RIGHTS LEGEND
  
 Use, reproduction and disclosure by the US Government is
 subject to restrictions as set forth in subparagraphs (a)
 and (c) of the Commercial Computer Software - Restricted
 Rights clause in FAR 52.227-19.
  
 Gaussian, Inc.
 340 Quinnipiac St., Bldg. 40, Wallingford CT 06492
  
  
 ---------------------------------------------------------------
 Warning -- This program may not be used in any manner that
 competes with the business of Gaussian, Inc. or will provide
 assistance to any competitor of Gaussian, Inc.  The licensee
 of this program is prohibited from giving any competitor of
 Gaussian, Inc. access to this program.  By using this program,
 the user acknowledges that Gaussian, Inc. is engaged in the
 business of creating and licensing software in the field of
 computational chemistry and represents and warrants to the
 licensee that it is not a competitor of Gaussian, Inc. and that
 it will not use this program in any manner prohibited above.
 ---------------------------------------------------------------
  

 Cite this work as:
 Gaussian 16, Revision C.01,
 M. J. Frisch, G. W. Trucks, H. B. Schlegel, G. E. Scuseria, 
 M. A. Robb, J. R. Cheeseman, G. Scalmani, V. Barone, 
 G. A. Petersson, H. Nakatsuji, X. Li, M. Caricato, A. V. Marenich, 
 J. Bloino, B. G. Janesko, R. Gomperts, B. Mennucci, H. P. Hratchian, 
 J. V. Ortiz, A. F. Izmaylov, J. L. Sonnenberg, D. Williams-Young, 
 F. Ding, F. Lipparini, F. Egidi, J. Goings, B. Peng, A. Petrone, 
 T. Henderson, D. Ranasinghe, V. G. Zakrzewski, J. Gao, N. Rega, 
 G. Zheng, W. Liang, M. Hada, M. Ehara, K. Toyota, R. Fukuda, 
 J. Hasegawa, M. Ishida, T. Nakajima, Y. Honda, O. Kitao, H. Nakai, 
 T. Vreven, K. Throssell, J. A. Montgomery, Jr., J. E. Peralta, 
 F. Ogliaro, M. J. Bearpark, J. J. Heyd, E. N. Brothers, K. N. Kudin, 
 V. N. Staroverov, T. A. Keith, R. Kobayashi, J. Normand, 
 K. Raghavachari, A. P. Rendell, J. C. Burant, S. S. Iyengar, 
 J. Tomasi, M. Cossi, J. M. Millam, M. Klene, C. Adamo, R. Cammi, 
 J. W. Ochterski, R. L. Martin, K. Morokuma, O. Farkas, 
 J. B. Foresman, and D. J. Fox, Gaussian, Inc., Wallingford CT, 2019.
 
 ******************************************
 Gaussian 16:  ES64L-G16RevC.01  3-Jul-2019
                 8-Apr-2024 
 ******************************************
 %nprocshared=28
 Will use up to   28 processors via shared memory.
 %mem=56GB
 -----------------------------------------------------
 #p opt=(calcfc,ts,noeigen) freq b3lyp/6-31g* em=gd3bj
 -----------------------------------------------------
 1/5=1,10=4,11=1,18=20,26=3,38=1/1,3;
 2/9=110,12=2,17=6,18=5,40=1/2;
 3/5=1,6=6,7=1,11=2,25=1,30=1,71=2,74=-5,124=41,140=1/1,2,3;
 4//1;
 5/5=2,38=5/2;
 8/6=4,10=90,11=11/1;
 11/6=1,8=1,9=11,15=111,16=1/1,2,10;
 10/6=1,13=1/2;
 6/7=2,8=2,9=2,10=2,28=1/1;
 7/10=1,25=1/1,2,3,16;
 1/5=1,10=4,11=1,18=20,26=3/3(2);
 2/9=110/2;
 99//99;
 2/9=110/2;
 3/5=1,6=6,7=1,11=2,25=1,30=1,71=1,74=-5,124=41/1,2,3;
 4/5=5,16=3,69=1/1;
 5/5=2,38=5/2;
 7//1,2,3,16;
 1/5=1,11=1,18=20,26=3/3(-5);
 2/9=110/2;
 6/7=2,8=2,9=2,10=2,19=2,28=1/1;
 99/9=1/99;
 Leave Link    1 at Mon Apr  8 10:44:09 2024, MaxMem=  7516192768 cpu:               0.9 elap:               0.0
 (Enter /public3/home/scg9909/software-scg9909/g16/l101.exe)
 -------------------------
 $$$$0 3 0 1 10 1####0????
 -------------------------
 Symbolic Z-matrix:
 Charge =  0 Multiplicity = 1
 C                     0.4458   -1.4324    0.49366 
 C                     1.31794  -0.7014   -0.29273 
 C                     1.31651   0.70376  -0.2926 
 C                     0.44269   1.43278   0.49382 
 H                     0.13063  -1.05836   1.46082 
 H                     0.39049  -2.51251   0.38674 
 H                     1.85977  -1.21236  -1.08671 
 H                     1.85726   1.21598  -1.08651 
 H                     0.12854   1.05799   1.46102 
 H                     0.38534   2.51283   0.3872 
 C                    -1.56805  -0.69448  -0.2287 
 C                    -1.56892   0.69206  -0.22871 
 H                    -2.07136  -1.23695   0.56605 
 H                    -1.46067  -1.23595  -1.1614 
 H                    -1.4625    1.23354  -1.16152 
 H                    -2.07334   1.23381   0.56584 
 
 Add virtual bond connecting atoms C11        and C1         Dist= 4.28D+00.
 Add virtual bond connecting atoms C12        and C4         Dist= 4.27D+00.
 Add virtual bond connecting atoms H13        and H5         Dist= 4.50D+00.
 Add virtual bond connecting atoms H16        and H9         Dist= 4.50D+00.
 ITRead=  0  0  0  0  0  0  0  0  0  0  0  0  0  0  0  0
 MicOpt= -1 -1 -1 -1 -1 -1 -1 -1 -1 -1 -1 -1 -1 -1 -1 -1
 NAtoms=     16 NQM=       16 NQMF=       0 NMMI=      0 NMMIF=      0
                NMic=       0 NMicF=      0.
                    Isotopes and Nuclear Properties:
 (Nuclear quadrupole moments (NQMom) in fm**2, nuclear magnetic moments (NMagM)
  in nuclear magnetons)

  Atom         1           2           3           4           5           6           7           8           9          10
 IAtWgt=          12          12          12          12           1           1           1           1           1           1
 AtmWgt=  12.0000000  12.0000000  12.0000000  12.0000000   1.0078250   1.0078250   1.0078250   1.0078250   1.0078250   1.0078250
 NucSpn=           0           0           0           0           1           1           1           1           1           1
 AtZEff=  -0.0000000  -0.0000000  -0.0000000  -0.0000000  -0.0000000  -0.0000000  -0.0000000  -0.0000000  -0.0000000  -0.0000000
 NQMom=    0.0000000   0.0000000   0.0000000   0.0000000   0.0000000   0.0000000   0.0000000   0.0000000   0.0000000   0.0000000
 NMagM=    0.0000000   0.0000000   0.0000000   0.0000000   2.7928460   2.7928460   2.7928460   2.7928460   2.7928460   2.7928460
 AtZNuc=   6.0000000   6.0000000   6.0000000   6.0000000   1.0000000   1.0000000   1.0000000   1.0000000   1.0000000   1.0000000

  Atom        11          12          13          14          15          16
 IAtWgt=          12          12           1           1           1           1
 AtmWgt=  12.0000000  12.0000000   1.0078250   1.0078250   1.0078250   1.0078250
 NucSpn=           0           0           1           1           1           1
 AtZEff=  -0.0000000  -0.0000000  -0.0000000  -0.0000000  -0.0000000  -0.0000000
 NQMom=    0.0000000   0.0000000   0.0000000   0.0000000   0.0000000   0.0000000
 NMagM=    0.0000000   0.0000000   2.7928460   2.7928460   2.7928460   2.7928460
 AtZNuc=   6.0000000   6.0000000   1.0000000   1.0000000   1.0000000   1.0000000
 Leave Link  101 at Mon Apr  8 10:44:09 2024, MaxMem=  7516192768 cpu:               3.9 elap:               0.2
 (Enter /public3/home/scg9909/software-scg9909/g16/l103.exe)

 GradGradGradGradGradGradGradGradGradGradGradGradGradGradGradGradGradGrad
 Berny optimization.
 Initialization pass.
                           ----------------------------
                           !    Initial Parameters    !
                           ! (Angstroms and Degrees)  !
 --------------------------                            --------------------------
 ! Name  Definition              Value          Derivative Info.                !
 --------------------------------------------------------------------------------
 ! R1    R(1,2)                  1.3833         calculate D2E/DX2 analytically  !
 ! R2    R(1,5)                  1.0838         calculate D2E/DX2 analytically  !
 ! R3    R(1,6)                  1.0868         calculate D2E/DX2 analytically  !
 ! R4    R(1,11)                 2.2632         calculate D2E/DX2 analytically  !
 ! R5    R(2,3)                  1.4052         calculate D2E/DX2 analytically  !
 ! R6    R(2,7)                  1.0886         calculate D2E/DX2 analytically  !
 ! R7    R(3,4)                  1.3833         calculate D2E/DX2 analytically  !
 ! R8    R(3,8)                  1.0886         calculate D2E/DX2 analytically  !
 ! R9    R(4,9)                  1.0838         calculate D2E/DX2 analytically  !
 ! R10   R(4,10)                 1.0868         calculate D2E/DX2 analytically  !
 ! R11   R(4,12)                 2.2621         calculate D2E/DX2 analytically  !
 ! R12   R(5,13)                 2.3835         calculate D2E/DX2 analytically  !
 ! R13   R(9,16)                 2.3834         calculate D2E/DX2 analytically  !
 ! R14   R(11,12)                1.3865         calculate D2E/DX2 analytically  !
 ! R15   R(11,13)                1.0859         calculate D2E/DX2 analytically  !
 ! R16   R(11,14)                1.0838         calculate D2E/DX2 analytically  !
 ! R17   R(12,15)                1.0838         calculate D2E/DX2 analytically  !
 ! R18   R(12,16)                1.0859         calculate D2E/DX2 analytically  !
 ! A1    A(2,1,5)              120.5496         calculate D2E/DX2 analytically  !
 ! A2    A(2,1,6)              120.091          calculate D2E/DX2 analytically  !
 ! A3    A(2,1,11)             101.9629         calculate D2E/DX2 analytically  !
 ! A4    A(5,1,6)              114.5811         calculate D2E/DX2 analytically  !
 ! A5    A(5,1,11)              85.0398         calculate D2E/DX2 analytically  !
 ! A6    A(6,1,11)             104.3214         calculate D2E/DX2 analytically  !
 ! A7    A(1,2,3)              121.855          calculate D2E/DX2 analytically  !
 ! A8    A(1,2,7)              118.7119         calculate D2E/DX2 analytically  !
 ! A9    A(3,2,7)              118.0309         calculate D2E/DX2 analytically  !
 ! A10   A(2,3,4)              121.8512         calculate D2E/DX2 analytically  !
 ! A11   A(2,3,8)              118.0312         calculate D2E/DX2 analytically  !
 ! A12   A(4,3,8)              118.7129         calculate D2E/DX2 analytically  !
 ! A13   A(3,4,9)              120.5438         calculate D2E/DX2 analytically  !
 ! A14   A(3,4,10)             120.0866         calculate D2E/DX2 analytically  !
 ! A15   A(3,4,12)             101.9808         calculate D2E/DX2 analytically  !
 ! A16   A(9,4,10)             114.5767         calculate D2E/DX2 analytically  !
 ! A17   A(9,4,12)              85.0691         calculate D2E/DX2 analytically  !
 ! A18   A(10,4,12)            104.3085         calculate D2E/DX2 analytically  !
 ! A19   A(1,5,13)              84.7099         calculate D2E/DX2 analytically  !
 ! A20   A(4,9,16)              84.6687         calculate D2E/DX2 analytically  !
 ! A21   A(1,11,12)            109.0638         calculate D2E/DX2 analytically  !
 ! A22   A(1,11,13)             90.9142         calculate D2E/DX2 analytically  !
 ! A23   A(1,11,14)             91.3535         calculate D2E/DX2 analytically  !
 ! A24   A(12,11,13)           119.9511         calculate D2E/DX2 analytically  !
 ! A25   A(12,11,14)           119.9771         calculate D2E/DX2 analytically  !
 ! A26   A(13,11,14)           115.2248         calculate D2E/DX2 analytically  !
 ! A27   A(4,12,11)            109.0796         calculate D2E/DX2 analytically  !
 ! A28   A(4,12,15)             91.3748         calculate D2E/DX2 analytically  !
 ! A29   A(4,12,16)             90.9173         calculate D2E/DX2 analytically  !
 ! A30   A(11,12,15)           119.9704         calculate D2E/DX2 analytically  !
 ! A31   A(11,12,16)           119.9452         calculate D2E/DX2 analytically  !
 ! A32   A(15,12,16)           115.2198         calculate D2E/DX2 analytically  !
 ! A33   A(5,13,11)             78.9959         calculate D2E/DX2 analytically  !
 ! A34   A(9,16,12)             78.9817         calculate D2E/DX2 analytically  !
 ! D1    D(5,1,2,3)            -32.9604         calculate D2E/DX2 analytically  !
 ! D2    D(5,1,2,7)            160.8254         calculate D2E/DX2 analytically  !
 ! D3    D(6,1,2,3)            172.8448         calculate D2E/DX2 analytically  !
 ! D4    D(6,1,2,7)              6.6307         calculate D2E/DX2 analytically  !
 ! D5    D(11,1,2,3)            58.3245         calculate D2E/DX2 analytically  !
 ! D6    D(11,1,2,7)          -107.8897         calculate D2E/DX2 analytically  !
 ! D7    D(2,1,5,13)           122.0872         calculate D2E/DX2 analytically  !
 ! D8    D(6,1,5,13)           -82.3807         calculate D2E/DX2 analytically  !
 ! D9    D(11,1,5,13)           21.1128         calculate D2E/DX2 analytically  !
 ! D10   D(2,1,11,12)          -49.8839         calculate D2E/DX2 analytically  !
 ! D11   D(2,1,11,13)         -172.1474         calculate D2E/DX2 analytically  !
 ! D12   D(2,1,11,14)           72.593          calculate D2E/DX2 analytically  !
 ! D13   D(5,1,11,12)           70.3236         calculate D2E/DX2 analytically  !
 ! D14   D(5,1,11,13)          -51.9399         calculate D2E/DX2 analytically  !
 ! D15   D(5,1,11,14)         -167.1995         calculate D2E/DX2 analytically  !
 ! D16   D(6,1,11,12)         -175.5482         calculate D2E/DX2 analytically  !
 ! D17   D(6,1,11,13)           62.1883         calculate D2E/DX2 analytically  !
 ! D18   D(6,1,11,14)          -53.0713         calculate D2E/DX2 analytically  !
 ! D19   D(1,2,3,4)             -0.0094         calculate D2E/DX2 analytically  !
 ! D20   D(1,2,3,8)           -166.3019         calculate D2E/DX2 analytically  !
 ! D21   D(7,2,3,4)            166.2947         calculate D2E/DX2 analytically  !
 ! D22   D(7,2,3,8)              0.0022         calculate D2E/DX2 analytically  !
 ! D23   D(2,3,4,9)             32.9873         calculate D2E/DX2 analytically  !
 ! D24   D(2,3,4,10)          -172.8566         calculate D2E/DX2 analytically  !
 ! D25   D(2,3,4,12)           -58.3417         calculate D2E/DX2 analytically  !
 ! D26   D(8,3,4,9)           -160.8103         calculate D2E/DX2 analytically  !
 ! D27   D(8,3,4,10)            -6.6542         calculate D2E/DX2 analytically  !
 ! D28   D(8,3,4,12)           107.8607         calculate D2E/DX2 analytically  !
 ! D29   D(3,4,9,16)          -122.1374         calculate D2E/DX2 analytically  !
 ! D30   D(10,4,9,16)           82.3671         calculate D2E/DX2 analytically  !
 ! D31   D(12,4,9,16)          -21.1253         calculate D2E/DX2 analytically  !
 ! D32   D(3,4,12,11)           49.917          calculate D2E/DX2 analytically  !
 ! D33   D(3,4,12,15)          -72.5655         calculate D2E/DX2 analytically  !
 ! D34   D(3,4,12,16)          172.1791         calculate D2E/DX2 analytically  !
 ! D35   D(9,4,12,11)          -70.2907         calculate D2E/DX2 analytically  !
 ! D36   D(9,4,12,15)          167.2268         calculate D2E/DX2 analytically  !
 ! D37   D(9,4,12,16)           51.9714         calculate D2E/DX2 analytically  !
 ! D38   D(10,4,12,11)         175.5789         calculate D2E/DX2 analytically  !
 ! D39   D(10,4,12,15)          53.0964         calculate D2E/DX2 analytically  !
 ! D40   D(10,4,12,16)         -62.159          calculate D2E/DX2 analytically  !
 ! D41   D(1,5,13,11)          -49.6319         calculate D2E/DX2 analytically  !
 ! D42   D(4,9,16,12)           49.6455         calculate D2E/DX2 analytically  !
 ! D43   D(1,11,12,4)           -0.0164         calculate D2E/DX2 analytically  !
 ! D44   D(1,11,12,15)         103.2077         calculate D2E/DX2 analytically  !
 ! D45   D(1,11,12,16)        -102.6553         calculate D2E/DX2 analytically  !
 ! D46   D(13,11,12,4)         102.6108         calculate D2E/DX2 analytically  !
 ! D47   D(13,11,12,15)       -154.165          calculate D2E/DX2 analytically  !
 ! D48   D(13,11,12,16)         -0.028          calculate D2E/DX2 analytically  !
 ! D49   D(14,11,12,4)        -103.2065         calculate D2E/DX2 analytically  !
 ! D50   D(14,11,12,15)          0.0176         calculate D2E/DX2 analytically  !
 ! D51   D(14,11,12,16)        154.1546         calculate D2E/DX2 analytically  !
 ! D52   D(1,11,13,5)           21.3066         calculate D2E/DX2 analytically  !
 ! D53   D(12,11,13,5)         -91.412          calculate D2E/DX2 analytically  !
 ! D54   D(14,11,13,5)         113.2339         calculate D2E/DX2 analytically  !
 ! D55   D(4,12,16,9)          -21.3198         calculate D2E/DX2 analytically  !
 ! D56   D(11,12,16,9)          91.418          calculate D2E/DX2 analytically  !
 ! D57   D(15,12,16,9)        -113.2719         calculate D2E/DX2 analytically  !
 --------------------------------------------------------------------------------
 Trust Radius=3.00D-01 FncErr=1.00D-07 GrdErr=1.00D-06 EigMax=2.50D+02 EigMin=1.00D-04
 Number of steps in this run=    100 maximum allowed number of steps=    100.
 Search for a saddle point of order  1.
 GradGradGradGradGradGradGradGradGradGradGradGradGradGradGradGradGradGrad

 Leave Link  103 at Mon Apr  8 10:44:10 2024, MaxMem=  7516192768 cpu:               2.2 elap:               0.3
 (Enter /public3/home/scg9909/software-scg9909/g16/l202.exe)
                          Input orientation:                          
 ---------------------------------------------------------------------
 Center     Atomic      Atomic             Coordinates (Angstroms)
 Number     Number       Type             X           Y           Z
 ---------------------------------------------------------------------
      1          6           0        0.445801   -1.432398    0.493657
      2          6           0        1.317941   -0.701398   -0.292725
      3          6           0        1.316508    0.703763   -0.292602
      4          6           0        0.442692    1.432784    0.493816
      5          1           0        0.130631   -1.058360    1.460818
      6          1           0        0.390487   -2.512513    0.386739
      7          1           0        1.859766   -1.212364   -1.086705
      8          1           0        1.857257    1.215977   -1.086509
      9          1           0        0.128544    1.057986    1.461023
     10          1           0        0.385335    2.512827    0.387200
     11          6           0       -1.568046   -0.694478   -0.228696
     12          6           0       -1.568919    0.692058   -0.228708
     13          1           0       -2.071362   -1.236947    0.566054
     14          1           0       -1.460670   -1.235949   -1.161395
     15          1           0       -1.462504    1.233541   -1.161519
     16          1           0       -2.073339    1.233811    0.565837
 ---------------------------------------------------------------------
                    Distance matrix (angstroms):
                    1          2          3          4          5
     1  C    0.000000
     2  C    1.383252   0.000000
     3  C    2.437113   1.405162   0.000000
     4  C    2.865184   2.437097   1.383286   0.000000
     5  H    1.083807   2.147566   2.754245   2.690404   0.000000
     6  H    1.086802   2.145223   3.415179   3.947095   1.826399
     7  H    2.131961   1.088607   2.144125   3.391600   3.082774
     8  H    3.391611   2.144127   1.088605   2.132001   3.826581
     9  H    2.690439   2.754220   2.147541   1.083814   2.116347
    10  H    3.947124   3.415157   2.145210   1.086807   3.737768
    11  C    2.263161   2.886705   3.206215   3.015018   2.423298
    12  C    3.015663   3.206209   2.886158   2.262144   2.967647
    13  H    2.525778   3.537187   3.997663   3.667854   2.383541
    14  H    2.532276   2.959901   3.497142   3.672145   3.072422
    15  H    3.672665   3.497094   2.959491   2.531719   3.829823
    16  H    3.668780   3.997867   3.536797   2.524914   3.303411
                    6          7          8          9         10
     6  H    0.000000
     7  H    2.453611   0.000000
     8  H    4.268901   2.428342   0.000000
     9  H    3.737802   3.826557   3.082747   0.000000
    10  H    5.025343   4.268886   2.453608   1.826362   0.000000
    11  C    2.742237   3.571314   4.014770   2.967271   3.805500
    12  C    3.806222   4.014830   3.570574   2.422906   2.741104
    13  H    2.778475   4.264503   4.917504   3.302616   4.486441
    14  H    2.730040   3.321360   4.126280   3.829467   4.456367
    15  H    4.456860   4.126200   3.320655   3.072455   2.729398
    16  H    4.487478   4.917721   4.263819   2.383393   2.777206
                   11         12         13         14         15
    11  C    0.000000
    12  C    1.386536   0.000000
    13  H    1.085922   2.145963   0.000000
    14  H    1.083812   2.144489   1.832219   0.000000
    15  H    2.144424   1.083819   3.075472   2.469491   0.000000
    16  H    2.145904   1.085927   2.470759   3.075453   1.832179
                   16
    16  H    0.000000
 Stoichiometry    C6H10
 Framework group  C1[X(C6H10)]
 Deg. of freedom    42
 Full point group                 C1      NOp   1
 Largest Abelian subgroup         C1      NOp   1
 Largest concise Abelian subgroup C1      NOp   1
                         Standard orientation:                         
 ---------------------------------------------------------------------
 Center     Atomic      Atomic             Coordinates (Angstroms)
 Number     Number       Type             X           Y           Z
 ---------------------------------------------------------------------
      1          6           0        0.445801   -1.432398    0.493657
      2          6           0        1.317941   -0.701398   -0.292725
      3          6           0        1.316508    0.703763   -0.292602
      4          6           0        0.442692    1.432784    0.493816
      5          1           0        0.130631   -1.058360    1.460818
      6          1           0        0.390487   -2.512513    0.386739
      7          1           0        1.859766   -1.212364   -1.086705
      8          1           0        1.857257    1.215977   -1.086509
      9          1           0        0.128544    1.057986    1.461023
     10          1           0        0.385335    2.512827    0.387200
     11          6           0       -1.568046   -0.694478   -0.228696
     12          6           0       -1.568919    0.692058   -0.228708
     13          1           0       -2.071362   -1.236947    0.566054
     14          1           0       -1.460670   -1.235949   -1.161395
     15          1           0       -1.462504    1.233541   -1.161519
     16          1           0       -2.073339    1.233811    0.565837
 ---------------------------------------------------------------------
 Rotational constants (GHZ):           4.3492260           3.4823008           2.2722838
 Leave Link  202 at Mon Apr  8 10:44:11 2024, MaxMem=  7516192768 cpu:               0.3 elap:               0.0
 (Enter /public3/home/scg9909/software-scg9909/g16/l301.exe)
 Standard basis: 6-31G(d) (6D, 7F)
 Ernie: Thresh=  0.10000D-02 Tol=  0.10000D-05 Strict=F.
 There are   110 symmetry adapted cartesian basis functions of A   symmetry.
 There are   110 symmetry adapted basis functions of A   symmetry.
   110 basis functions,   208 primitive gaussians,   110 cartesian basis functions
    23 alpha electrons       23 beta electrons
       nuclear repulsion energy       224.3916579985 Hartrees.
 IExCor=  402 DFT=T Ex+Corr=B3LYP ExCW=0 ScaHFX=  0.200000
 ScaDFX=  0.800000  0.720000  1.000000  0.810000 ScalE2=  1.000000  1.000000
 IRadAn=      5 IRanWt=     -1 IRanGd=            0 ICorTp=0 IEmpDi=141
 NAtoms=   16 NActive=   16 NUniq=   16 SFac= 1.00D+00 NAtFMM=   60 NAOKFM=F Big=F
 Integral buffers will be    131072 words long.
 Raffenetti 2 integral format.
 Two-electron integral symmetry is turned on.
 R6Disp:  Grimme-D3(BJ) Dispersion energy=       -0.0254707387 Hartrees.
 Nuclear repulsion after empirical dispersion term =      224.3661872599 Hartrees.
 Leave Link  301 at Mon Apr  8 10:44:12 2024, MaxMem=  7516192768 cpu:               3.4 elap:               0.1
 (Enter /public3/home/scg9909/software-scg9909/g16/l302.exe)
 NPDir=0 NMtPBC=     1 NCelOv=     1 NCel=       1 NClECP=     1 NCelD=      1
         NCelK=      1 NCelE2=     1 NClLst=     1 CellRange=     0.0.
 One-electron integrals computed using PRISM.
 One-electron integral symmetry used in STVInt
 NBasis=   110 RedAO= T EigKep=  2.26D-03  NBF=   110
 NBsUse=   110 1.00D-06 EigRej= -1.00D+00 NBFU=   110
 Precomputing XC quadrature grid using
 IXCGrd= 4 IRadAn=           5 IRanWt=          -1 IRanGd=           0 AccXCQ= 0.00D+00.
 Generated NRdTot=       0 NPtTot=           0 NUsed=           0 NTot=          32
 NSgBfM=   110   110   110   110   110 MxSgAt=    16 MxSgA2=    16.
 Leave Link  302 at Mon Apr  8 10:44:13 2024, MaxMem=  7516192768 cpu:               3.7 elap:               0.2
 (Enter /public3/home/scg9909/software-scg9909/g16/l303.exe)
 DipDrv:  MaxL=1.
 Leave Link  303 at Mon Apr  8 10:44:14 2024, MaxMem=  7516192768 cpu:               1.1 elap:               0.1
 (Enter /public3/home/scg9909/software-scg9909/g16/l401.exe)
 ExpMin= 1.61D-01 ExpMax= 3.05D+03 ExpMxC= 4.57D+02 IAcc=3 IRadAn=         5 AccDes= 0.00D+00
 Harris functional with IExCor=  402 and IRadAn=       5 diagonalized for initial guess.
 HarFok:  IExCor=  402 AccDes= 0.00D+00 IRadAn=         5 IDoV= 1 UseB2=F ITyADJ=14
 ICtDFT=  3500011 ScaDFX=  1.000000  1.000000  1.000000  1.000000
 FoFCou: FMM=F IPFlag=           0 FMFlag=      100000 FMFlg1=           0
         NFxFlg=           0 DoJE=T BraDBF=F KetDBF=T FulRan=T
         wScrn=  0.000000 ICntrl=       500 IOpCl=  0 I1Cent=   200000004 NGrid=           0
         NMat0=    1 NMatS0=      1 NMatT0=    0 NMatD0=    1 NMtDS0=    0 NMtDT0=    0
 Petite list used in FoFCou.
 Harris En= -234.636269345621    
 JPrj=0 DoOrth=F DoCkMO=F.
 Leave Link  401 at Mon Apr  8 10:44:15 2024, MaxMem=  7516192768 cpu:               7.8 elap:               0.3
 (Enter /public3/home/scg9909/software-scg9909/g16/l502.exe)
 Integral symmetry usage will be decided dynamically.
 Closed shell SCF:
 Using DIIS extrapolation, IDIIS=  1040.
 NGot=  7516192768 LenX=  7516163644 LenY=  7516151103
 Requested convergence on RMS density matrix=1.00D-08 within 128 cycles.
 Requested convergence on MAX density matrix=1.00D-06.
 Requested convergence on             energy=1.00D-06.
 No special actions if energy rises.
 Fock matrices will be formed incrementally for  20 cycles.
 Integral accuracy reduced to 1.0D-05 until final iterations.

 Cycle   1  Pass 0  IDiag  1:
 FoFJK:  IHMeth= 1 ICntrl=       0 DoSepK=F KAlg= 0 I1Cent=           0 FoldK=F
 IRaf= 990000000 NMat=       1 IRICut=       1 DoRegI=T DoRafI=F ISym2E= 0 IDoP0=0 IntGTp=1.
 FoFCou: FMM=F IPFlag=           0 FMFlag=      100000 FMFlg1=           0
         NFxFlg=           0 DoJE=F BraDBF=F KetDBF=F FulRan=T
         wScrn=  0.000000 ICntrl=         0 IOpCl=  0 I1Cent=           0 NGrid=           0
         NMat0=    1 NMatS0=      1 NMatT0=    0 NMatD0=    1 NMtDS0=    0 NMtDT0=    0
 Symmetry not used in FoFCou.
 E= -234.363141821564    
 DIIS: error= 4.27D-02 at cycle   1 NSaved=   1.
 NSaved= 1 IEnMin= 1 EnMin= -234.363141821564     IErMin= 1 ErrMin= 4.27D-02
 ErrMax= 4.27D-02  0.00D+00 EMaxC= 1.00D-01 BMatC= 1.80D-01 BMatP= 1.80D-01
 IDIUse=3 WtCom= 5.73D-01 WtEn= 4.27D-01
 Coeff-Com:  0.100D+01
 Coeff-En:   0.100D+01
 Coeff:      0.100D+01
 Gap=     0.218 Goal=   None    Shift=    0.000
 GapD=    0.218 DampG=1.000 DampE=0.500 DampFc=0.5000 IDamp=-1.
 Damping current iteration by 5.00D-01
 RMSDP=8.95D-03 MaxDP=1.30D-01              OVMax= 1.57D-01

 Cycle   2  Pass 0  IDiag  1:
 RMSU=  4.38D-03    CP:  9.69D-01
 E= -234.459848797969     Delta-E=       -0.096706976405 Rises=F Damp=T
 DIIS: error= 8.00D-03 at cycle   2 NSaved=   2.
 NSaved= 2 IEnMin= 2 EnMin= -234.459848797969     IErMin= 2 ErrMin= 8.00D-03
 ErrMax= 8.00D-03  0.00D+00 EMaxC= 1.00D-01 BMatC= 7.35D-03 BMatP= 1.80D-01
 IDIUse=3 WtCom= 9.20D-01 WtEn= 8.00D-02
 Coeff-Com:  0.338D-01 0.966D+00
 Coeff-En:   0.470D-01 0.953D+00
 Coeff:      0.348D-01 0.965D+00
 Gap=     0.220 Goal=   None    Shift=    0.000
 RMSDP=1.64D-03 MaxDP=1.99D-02 DE=-9.67D-02 OVMax= 8.89D-02

 Cycle   3  Pass 0  IDiag  1:
 RMSU=  1.50D-03    CP:  9.67D-01  8.51D-01
 E= -234.568389972531     Delta-E=       -0.108541174562 Rises=F Damp=F
 DIIS: error= 2.48D-03 at cycle   3 NSaved=   3.
 NSaved= 3 IEnMin= 3 EnMin= -234.568389972531     IErMin= 3 ErrMin= 2.48D-03
 ErrMax= 2.48D-03  0.00D+00 EMaxC= 1.00D-01 BMatC= 9.31D-04 BMatP= 7.35D-03
 IDIUse=3 WtCom= 9.75D-01 WtEn= 2.48D-02
 Coeff-Com: -0.175D-01 0.209D+00 0.809D+00
 Coeff-En:   0.000D+00 0.000D+00 0.100D+01
 Coeff:     -0.171D-01 0.204D+00 0.814D+00
 Gap=     0.209 Goal=   None    Shift=    0.000
 RMSDP=5.27D-04 MaxDP=4.95D-03 DE=-1.09D-01 OVMax= 1.68D-02

 Cycle   4  Pass 0  IDiag  1:
 RMSU=  4.04D-04    CP:  9.66D-01  8.92D-01  8.09D-01
 E= -234.568931512485     Delta-E=       -0.000541539954 Rises=F Damp=F
 DIIS: error= 1.79D-03 at cycle   4 NSaved=   4.
 NSaved= 4 IEnMin= 4 EnMin= -234.568931512485     IErMin= 4 ErrMin= 1.79D-03
 ErrMax= 1.79D-03  0.00D+00 EMaxC= 1.00D-01 BMatC= 3.36D-04 BMatP= 9.31D-04
 IDIUse=3 WtCom= 9.82D-01 WtEn= 1.79D-02
 Coeff-Com: -0.891D-02 0.558D-01 0.405D+00 0.548D+00
 Coeff-En:   0.000D+00 0.000D+00 0.279D+00 0.721D+00
 Coeff:     -0.875D-02 0.548D-01 0.402D+00 0.552D+00
 Gap=     0.211 Goal=   None    Shift=    0.000
 RMSDP=2.67D-04 MaxDP=3.97D-03 DE=-5.42D-04 OVMax= 1.42D-02

 Cycle   5  Pass 0  IDiag  1:
 RMSU=  1.50D-04    CP:  9.66D-01  8.93D-01  8.39D-01  4.66D-01
 E= -234.569239760849     Delta-E=       -0.000308248364 Rises=F Damp=F
 DIIS: error= 1.23D-03 at cycle   5 NSaved=   5.
 NSaved= 5 IEnMin= 5 EnMin= -234.569239760849     IErMin= 5 ErrMin= 1.23D-03
 ErrMax= 1.23D-03  0.00D+00 EMaxC= 1.00D-01 BMatC= 9.25D-05 BMatP= 3.36D-04
 IDIUse=3 WtCom= 9.88D-01 WtEn= 1.23D-02
 Coeff-Com: -0.330D-02 0.904D-02 0.154D+00 0.366D+00 0.475D+00
 Coeff-En:   0.000D+00 0.000D+00 0.000D+00 0.240D+00 0.760D+00
 Coeff:     -0.325D-02 0.893D-02 0.152D+00 0.364D+00 0.478D+00
 Gap=     0.211 Goal=   None    Shift=    0.000
 RMSDP=9.70D-05 MaxDP=1.42D-03 DE=-3.08D-04 OVMax= 5.26D-03

 Cycle   6  Pass 0  IDiag  1:
 RMSU=  2.07D-05    CP:  9.66D-01  8.89D-01  8.51D-01  5.94D-01  4.96D-01
 E= -234.569353661274     Delta-E=       -0.000113900426 Rises=F Damp=F
 DIIS: error= 7.76D-05 at cycle   6 NSaved=   6.
 NSaved= 6 IEnMin= 6 EnMin= -234.569353661274     IErMin= 6 ErrMin= 7.76D-05
 ErrMax= 7.76D-05  0.00D+00 EMaxC= 1.00D-01 BMatC= 9.98D-07 BMatP= 9.25D-05
 IDIUse=1 WtCom= 1.00D+00 WtEn= 0.00D+00
 Coeff-Com: -0.123D-02 0.247D-02 0.596D-01 0.155D+00 0.219D+00 0.565D+00
 Coeff:     -0.123D-02 0.247D-02 0.596D-01 0.155D+00 0.219D+00 0.565D+00
 Gap=     0.211 Goal=   None    Shift=    0.000
 RMSDP=1.01D-05 MaxDP=1.97D-04 DE=-1.14D-04 OVMax= 4.15D-04

 Cycle   7  Pass 0  IDiag  1:
 RMSU=  7.58D-06    CP:  9.66D-01  8.89D-01  8.51D-01  5.92D-01  5.08D-01
                    CP:  6.89D-01
 E= -234.569354406428     Delta-E=       -0.000000745154 Rises=F Damp=F
 DIIS: error= 3.71D-05 at cycle   7 NSaved=   7.
 NSaved= 7 IEnMin= 7 EnMin= -234.569354406428     IErMin= 7 ErrMin= 3.71D-05
 ErrMax= 3.71D-05  0.00D+00 EMaxC= 1.00D-01 BMatC= 1.60D-07 BMatP= 9.98D-07
 IDIUse=1 WtCom= 1.00D+00 WtEn= 0.00D+00
 Coeff-Com: -0.230D-03 0.150D-03 0.128D-01 0.382D-01 0.594D-01 0.316D+00
 Coeff-Com:  0.573D+00
 Coeff:     -0.230D-03 0.150D-03 0.128D-01 0.382D-01 0.594D-01 0.316D+00
 Coeff:      0.573D+00
 Gap=     0.211 Goal=   None    Shift=    0.000
 RMSDP=4.22D-06 MaxDP=6.71D-05 DE=-7.45D-07 OVMax= 1.63D-04

 Initial convergence to 1.0D-05 achieved.  Increase integral accuracy.
 Cycle   8  Pass 1  IDiag  1:
 E= -234.569345125294     Delta-E=        0.000009281134 Rises=F Damp=F
 DIIS: error= 4.71D-06 at cycle   1 NSaved=   1.
 NSaved= 1 IEnMin= 1 EnMin= -234.569345125294     IErMin= 1 ErrMin= 4.71D-06
 ErrMax= 4.71D-06  0.00D+00 EMaxC= 1.00D-01 BMatC= 4.80D-09 BMatP= 4.80D-09
 IDIUse=1 WtCom= 1.00D+00 WtEn= 0.00D+00
 Coeff-Com:  0.100D+01
 Coeff:      0.100D+01
 Gap=     0.211 Goal=   None    Shift=    0.000
 RMSDP=4.22D-06 MaxDP=6.71D-05 DE= 9.28D-06 OVMax= 4.48D-05

 Cycle   9  Pass 1  IDiag  1:
 RMSU=  1.57D-06    CP:  1.00D+00
 E= -234.569345127261     Delta-E=       -0.000000001967 Rises=F Damp=F
 DIIS: error= 5.03D-06 at cycle   2 NSaved=   2.
 NSaved= 2 IEnMin= 2 EnMin= -234.569345127261     IErMin= 1 ErrMin= 4.71D-06
 ErrMax= 5.03D-06  0.00D+00 EMaxC= 1.00D-01 BMatC= 3.72D-09 BMatP= 4.80D-09
 IDIUse=1 WtCom= 1.00D+00 WtEn= 0.00D+00
 Coeff-Com:  0.459D+00 0.541D+00
 Coeff:      0.459D+00 0.541D+00
 Gap=     0.211 Goal=   None    Shift=    0.000
 RMSDP=8.42D-07 MaxDP=1.24D-05 DE=-1.97D-09 OVMax= 3.62D-05

 Cycle  10  Pass 1  IDiag  1:
 RMSU=  6.72D-07    CP:  1.00D+00  6.78D-01
 E= -234.569345130342     Delta-E=       -0.000000003081 Rises=F Damp=F
 DIIS: error= 2.93D-06 at cycle   3 NSaved=   3.
 NSaved= 3 IEnMin= 3 EnMin= -234.569345130342     IErMin= 3 ErrMin= 2.93D-06
 ErrMax= 2.93D-06  0.00D+00 EMaxC= 1.00D-01 BMatC= 9.25D-10 BMatP= 3.72D-09
 IDIUse=1 WtCom= 1.00D+00 WtEn= 0.00D+00
 Coeff-Com:  0.571D-01 0.331D+00 0.612D+00
 Coeff:      0.571D-01 0.331D+00 0.612D+00
 Gap=     0.211 Goal=   None    Shift=    0.000
 RMSDP=2.96D-07 MaxDP=5.16D-06 DE=-3.08D-09 OVMax= 1.44D-05

 Cycle  11  Pass 1  IDiag  1:
 RMSU=  1.45D-07    CP:  1.00D+00  7.69D-01  6.81D-01
 E= -234.569345131266     Delta-E=       -0.000000000925 Rises=F Damp=F
 DIIS: error= 9.98D-07 at cycle   4 NSaved=   4.
 NSaved= 4 IEnMin= 4 EnMin= -234.569345131266     IErMin= 4 ErrMin= 9.98D-07
 ErrMax= 9.98D-07  0.00D+00 EMaxC= 1.00D-01 BMatC= 5.17D-11 BMatP= 9.25D-10
 IDIUse=1 WtCom= 1.00D+00 WtEn= 0.00D+00
 Coeff-Com:  0.453D-03 0.140D+00 0.309D+00 0.551D+00
 Coeff:      0.453D-03 0.140D+00 0.309D+00 0.551D+00
 Gap=     0.211 Goal=   None    Shift=    0.000
 RMSDP=8.97D-08 MaxDP=1.51D-06 DE=-9.25D-10 OVMax= 4.87D-06

 Cycle  12  Pass 1  IDiag  1:
 RMSU=  5.64D-08    CP:  1.00D+00  7.71D-01  7.23D-01  5.62D-01
 E= -234.569345131317     Delta-E=       -0.000000000050 Rises=F Damp=F
 DIIS: error= 3.14D-07 at cycle   5 NSaved=   5.
 NSaved= 5 IEnMin= 5 EnMin= -234.569345131317     IErMin= 5 ErrMin= 3.14D-07
 ErrMax= 3.14D-07  0.00D+00 EMaxC= 1.00D-01 BMatC= 9.07D-12 BMatP= 5.17D-11
 IDIUse=1 WtCom= 1.00D+00 WtEn= 0.00D+00
 Coeff-Com: -0.564D-02 0.491D-01 0.117D+00 0.340D+00 0.500D+00
 Coeff:     -0.564D-02 0.491D-01 0.117D+00 0.340D+00 0.500D+00
 Gap=     0.211 Goal=   None    Shift=    0.000
 RMSDP=3.03D-08 MaxDP=5.10D-07 DE=-5.04D-11 OVMax= 1.51D-06

 Cycle  13  Pass 1  IDiag  1:
 RMSU=  1.08D-08    CP:  1.00D+00  7.78D-01  7.11D-01  6.28D-01  5.81D-01
 E= -234.569345131328     Delta-E=       -0.000000000011 Rises=F Damp=F
 DIIS: error= 1.83D-08 at cycle   6 NSaved=   6.
 NSaved= 6 IEnMin= 6 EnMin= -234.569345131328     IErMin= 6 ErrMin= 1.83D-08
 ErrMax= 1.83D-08  0.00D+00 EMaxC= 1.00D-01 BMatC= 5.44D-14 BMatP= 9.07D-12
 IDIUse=1 WtCom= 1.00D+00 WtEn= 0.00D+00
 Coeff-Com: -0.179D-02 0.122D-01 0.296D-01 0.978D-01 0.162D+00 0.700D+00
 Coeff:     -0.179D-02 0.122D-01 0.296D-01 0.978D-01 0.162D+00 0.700D+00
 Gap=     0.211 Goal=   None    Shift=    0.000
 RMSDP=3.54D-09 MaxDP=3.35D-08 DE=-1.13D-11 OVMax= 6.70D-08

 SCF Done:  E(RB3LYP) =  -234.569345131     A.U. after   13 cycles
            NFock= 13  Conv=0.35D-08     -V/T= 2.0103
 KE= 2.321731357196D+02 PE=-9.909180315726D+02 EE= 2.998093634617D+02
 Leave Link  502 at Mon Apr  8 10:44:18 2024, MaxMem=  7516192768 cpu:              67.1 elap:               2.5
 (Enter /public3/home/scg9909/software-scg9909/g16/l801.exe)
 DoSCS=F DFT=T ScalE2(SS,OS)=  1.000000  1.000000
 Range of M.O.s used for correlation:     1   110
 NBasis=   110 NAE=    23 NBE=    23 NFC=     0 NFV=     0
 NROrb=    110 NOA=    23 NOB=    23 NVA=    87 NVB=    87
 Leave Link  801 at Mon Apr  8 10:44:19 2024, MaxMem=  7516192768 cpu:               0.3 elap:               0.1
 (Enter /public3/home/scg9909/software-scg9909/g16/l1101.exe)
 Using compressed storage, NAtomX=    16.
 Will process     17 centers per pass.
 R6Disp: Adding Grimme-D3(BJ) dispersion energy 1st derivatives to the gradient.
 Leave Link 1101 at Mon Apr  8 10:44:19 2024, MaxMem=  7516192768 cpu:               4.5 elap:               0.3
 (Enter /public3/home/scg9909/software-scg9909/g16/l1102.exe)
 Symmetrizing basis deriv contribution to polar:
 IMax=3 JMax=2 DiffMx= 0.00D+00
 Leave Link 1102 at Mon Apr  8 10:44:21 2024, MaxMem=  7516192768 cpu:               1.8 elap:               0.2
 (Enter /public3/home/scg9909/software-scg9909/g16/l1110.exe)
 Forming Gx(P) for the SCF density, NAtomX=    16.
 Integral derivatives from FoFJK, PRISM(SPDF).
 Do as many integral derivatives as possible in FoFJK.
 G2DrvN: MDV=    7516190984.
 G2DrvN: will do    17 centers at a time, making    1 passes.
 Calling FoFCou, ICntrl=  3107 FMM=F I1Cent=   0 AccDes= 0.00D+00.
 FoFJK:  IHMeth= 1 ICntrl=    3107 DoSepK=F KAlg= 0 I1Cent=           0 FoldK=F
 IRaf=         0 NMat=       1 IRICut=       1 DoRegI=T DoRafI=F ISym2E= 0 IDoP0=0 IntGTp=1.
 FoFCou: FMM=F IPFlag=           0 FMFlag=      100000 FMFlg1=           0
         NFxFlg=           0 DoJE=F BraDBF=F KetDBF=F FulRan=T
         wScrn=  0.000000 ICntrl=      3107 IOpCl=  0 I1Cent=           0 NGrid=           0
         NMat0=    1 NMatS0=      1 NMatT0=    0 NMatD0=    1 NMtDS0=    0 NMtDT0=    0
 Symmetry not used in FoFCou.
 End of G2Drv F.D. properties file   721 does not exist.
 End of G2Drv F.D. properties file   722 does not exist.
 End of G2Drv F.D. properties file   788 does not exist.
 Leave Link 1110 at Mon Apr  8 10:44:26 2024, MaxMem=  7516192768 cpu:             128.9 elap:               4.7
 (Enter /public3/home/scg9909/software-scg9909/g16/l1002.exe)
 Minotr:  Closed shell wavefunction.
          IDoAtm=1111111111111111
          Direct CPHF calculation.
          Differentiating once with respect to nuclear coordinates.
          Requested convergence is 1.0D-08 RMS, and 1.0D-07 maximum.
          Secondary convergence is 1.0D-12 RMS, and 1.0D-12 maximum.
          NewPWx=T KeepS1=F KeepF1=F KeepIn=T MapXYZ=F SortEE=F KeepMc=T.
         4727 words used for storage of precomputed grid.
 Keep R1 ints in memory in canonical form, NReq=44740110.
 FoFCou: FMM=F IPFlag=           0 FMFlag=           0 FMFlg1=           0
         NFxFlg=           0 DoJE=F BraDBF=F KetDBF=F FulRan=T
         wScrn=  0.000000 ICntrl=       600 IOpCl=  0 I1Cent=           0 NGrid=           0
         NMat0=    1 NMatS0=   6105 NMatT0=    0 NMatD0=    1 NMtDS0=    0 NMtDT0=    0
 Symmetry not used in FoFCou.
 Two-electron integral symmetry not used.
          MDV=    7516192768 using IRadAn=       1.
          Solving linear equations simultaneously, MaxMat=       0.
          There are    51 degrees of freedom in the 1st order CPHF.  IDoFFX=6 NUNeed=     0.
     45 vectors produced by pass  0 Test12= 3.92D-15 1.96D-09 XBig12= 1.03D-01 1.50D-01.
 AX will form    45 AO Fock derivatives at one time.
     45 vectors produced by pass  1 Test12= 3.92D-15 1.96D-09 XBig12= 1.56D-02 3.20D-02.
     45 vectors produced by pass  2 Test12= 3.92D-15 1.96D-09 XBig12= 1.09D-04 2.63D-03.
     45 vectors produced by pass  3 Test12= 3.92D-15 1.96D-09 XBig12= 2.14D-07 7.13D-05.
     45 vectors produced by pass  4 Test12= 3.92D-15 1.96D-09 XBig12= 1.38D-10 1.76D-06.
     20 vectors produced by pass  5 Test12= 3.92D-15 1.96D-09 XBig12= 6.51D-14 3.50D-08.
 InvSVY:  IOpt=1 It=  1 EMax= 6.66D-16
 Solved reduced A of dimension   245 with    51 vectors.
 End of Minotr F.D. properties file   721 does not exist.
 End of Minotr F.D. properties file   722 does not exist.
 End of Minotr F.D. properties file   788 does not exist.
 Leave Link 1002 at Mon Apr  8 10:44:31 2024, MaxMem=  7516192768 cpu:             139.1 elap:               5.0
 (Enter /public3/home/scg9909/software-scg9909/g16/l601.exe)
 Copying SCF densities to generalized density rwf, IOpCl= 0 IROHF=0.

 **********************************************************************

            Population analysis using the SCF Density.

 **********************************************************************

 Orbital symmetries:
       Occupied  (A) (A) (A) (A) (A) (A) (A) (A) (A) (A) (A) (A)
                 (A) (A) (A) (A) (A) (A) (A) (A) (A) (A) (A)
       Virtual   (A) (A) (A) (A) (A) (A) (A) (A) (A) (A) (A) (A)
                 (A) (A) (A) (A) (A) (A) (A) (A) (A) (A) (A) (A)
                 (A) (A) (A) (A) (A) (A) (A) (A) (A) (A) (A) (A)
                 (A) (A) (A) (A) (A) (A) (A) (A) (A) (A) (A) (A)
                 (A) (A) (A) (A) (A) (A) (A) (A) (A) (A) (A) (A)
                 (A) (A) (A) (A) (A) (A) (A) (A) (A) (A) (A) (A)
                 (A) (A) (A) (A) (A) (A) (A) (A) (A) (A) (A) (A)
                 (A) (A) (A)
 The electronic state is 1-A.
 Alpha  occ. eigenvalues --  -10.18529 -10.18527 -10.18087 -10.18028 -10.17515
 Alpha  occ. eigenvalues --  -10.17464  -0.80094  -0.73931  -0.71074  -0.61735
 Alpha  occ. eigenvalues --   -0.57582  -0.51476  -0.48551  -0.45871  -0.42147
 Alpha  occ. eigenvalues --   -0.40112  -0.39972  -0.36129  -0.35032  -0.33737
 Alpha  occ. eigenvalues --   -0.33582  -0.22134  -0.21849
 Alpha virt. eigenvalues --   -0.00790   0.02005   0.09616   0.10999   0.12601
 Alpha virt. eigenvalues --    0.14388   0.14683   0.15202   0.17326   0.20358
 Alpha virt. eigenvalues --    0.20541   0.24034   0.25036   0.29326   0.32423
 Alpha virt. eigenvalues --    0.36526   0.43197   0.46715   0.50471   0.52299
 Alpha virt. eigenvalues --    0.55589   0.57645   0.58375   0.61552   0.62801
 Alpha virt. eigenvalues --    0.64258   0.65788   0.67493   0.67617   0.73161
 Alpha virt. eigenvalues --    0.74598   0.82102   0.85400   0.86458   0.86481
 Alpha virt. eigenvalues --    0.86781   0.88491   0.89408   0.93884   0.95531
 Alpha virt. eigenvalues --    0.96194   0.98982   1.00884   1.06242   1.07198
 Alpha virt. eigenvalues --    1.11579   1.16151   1.23509   1.28907   1.39032
 Alpha virt. eigenvalues --    1.39754   1.49545   1.53152   1.61214   1.61390
 Alpha virt. eigenvalues --    1.74051   1.76634   1.82768   1.92475   1.93350
 Alpha virt. eigenvalues --    1.96204   1.97777   1.99505   2.03699   2.05534
 Alpha virt. eigenvalues --    2.09079   2.13263   2.19623   2.20006   2.25209
 Alpha virt. eigenvalues --    2.27796   2.27997   2.43294   2.52914   2.57771
 Alpha virt. eigenvalues --    2.60502   2.61035   2.67165   2.70080   2.87133
 Alpha virt. eigenvalues --    3.05030   4.12240   4.23086   4.27973   4.28992
 Alpha virt. eigenvalues --    4.43397   4.53808
          Condensed to atoms (all electrons):
               1          2          3          4          5          6
     1  C    5.098120   0.562898  -0.043183  -0.031028   0.370559   0.362424
     2  C    0.562898   4.789419   0.549174  -0.043179  -0.029618  -0.027012
     3  C   -0.043183   0.549174   4.789568   0.562858  -0.013597   0.005510
     4  C   -0.031028  -0.043179   0.562858   5.098175   0.005881   0.000407
     5  H    0.370559  -0.029618  -0.013597   0.005881   0.564805  -0.042954
     6  H    0.362424  -0.027012   0.005510   0.000407  -0.042954   0.573077
     7  H   -0.059692   0.369711  -0.045413   0.006684   0.005459  -0.007263
     8  H    0.006684  -0.045407   0.369714  -0.059693  -0.000014  -0.000159
     9  H    0.005880  -0.013597  -0.029615   0.370569   0.005284  -0.000089
    10  H    0.000407   0.005511  -0.027017   0.362413  -0.000089  -0.000008
    11  C    0.093537  -0.014221  -0.023025  -0.014582  -0.013740  -0.004869
    12  C   -0.014548  -0.022998  -0.014280   0.093610  -0.006472   0.000967
    13  H   -0.008776   0.000307   0.000551   0.000890  -0.002778   0.000382
    14  H   -0.007448  -0.002621   0.000469   0.000640   0.000965  -0.000798
    15  H    0.000640   0.000468  -0.002628  -0.007478  -0.000000  -0.000025
    16  H    0.000891   0.000552   0.000309  -0.008803   0.000452  -0.000026
               7          8          9         10         11         12
     1  C   -0.059692   0.006684   0.005880   0.000407   0.093537  -0.014548
     2  C    0.369711  -0.045407  -0.013597   0.005511  -0.014221  -0.022998
     3  C   -0.045413   0.369714  -0.029615  -0.027017  -0.023025  -0.014280
     4  C    0.006684  -0.059693   0.370569   0.362413  -0.014582   0.093610
     5  H    0.005459  -0.000014   0.005284  -0.000089  -0.013740  -0.006472
     6  H   -0.007263  -0.000159  -0.000089  -0.000008  -0.004869   0.000967
     7  H    0.617518  -0.008030  -0.000014  -0.000159   0.000609  -0.000100
     8  H   -0.008030   0.617515   0.005459  -0.007264  -0.000100   0.000609
     9  H   -0.000014   0.005459   0.564820  -0.042952  -0.006484  -0.013781
    10  H   -0.000159  -0.007264  -0.042952   0.573098   0.000970  -0.004884
    11  C    0.000609  -0.000100  -0.006484   0.000970   5.024827   0.568176
    12  C   -0.000100   0.000609  -0.013781  -0.004884   0.568176   5.024821
    13  H   -0.000046   0.000006   0.000453  -0.000026   0.376767  -0.038170
    14  H    0.000432  -0.000006  -0.000001  -0.000025   0.382343  -0.034405
    15  H   -0.000006   0.000433   0.000970  -0.000801  -0.034405   0.382343
    16  H    0.000006  -0.000046  -0.002785   0.000382  -0.038163   0.376759
              13         14         15         16
     1  C   -0.008776  -0.007448   0.000640   0.000891
     2  C    0.000307  -0.002621   0.000468   0.000552
     3  C    0.000551   0.000469  -0.002628   0.000309
     4  C    0.000890   0.000640  -0.007478  -0.008803
     5  H   -0.002778   0.000965  -0.000000   0.000452
     6  H    0.000382  -0.000798  -0.000025  -0.000026
     7  H   -0.000046   0.000432  -0.000006   0.000006
     8  H    0.000006  -0.000006   0.000433  -0.000046
     9  H    0.000453  -0.000001   0.000970  -0.002785
    10  H   -0.000026  -0.000025  -0.000801   0.000382
    11  C    0.376767   0.382343  -0.034405  -0.038163
    12  C   -0.038170  -0.034405   0.382343   0.376759
    13  H    0.570468  -0.042196   0.004829  -0.008122
    14  H   -0.042196   0.553493  -0.007980   0.004829
    15  H    0.004829  -0.007980   0.553522  -0.042195
    16  H   -0.008122   0.004829  -0.042195   0.570475
 Mulliken charges:
               1
     1  C   -0.337366
     2  C   -0.079387
     3  C   -0.079393
     4  C   -0.337364
     5  H    0.155858
     6  H    0.140435
     7  H    0.120305
     8  H    0.120301
     9  H    0.155883
    10  H    0.140445
    11  C   -0.297639
    12  C   -0.297647
    13  H    0.145460
    14  H    0.152307
    15  H    0.152313
    16  H    0.145488
 Sum of Mulliken charges =  -0.00000
 Mulliken charges with hydrogens summed into heavy atoms:
               1
     1  C   -0.041072
     2  C    0.040918
     3  C    0.040908
     4  C   -0.041036
    11  C    0.000128
    12  C    0.000154
 APT charges:
               1
     1  C   -0.830767
     2  C   -0.487614
     3  C   -0.487526
     4  C   -0.830814
     5  H    0.327820
     6  H    0.525588
     7  H    0.483584
     8  H    0.483560
     9  H    0.327893
    10  H    0.525526
    11  C   -0.888712
    12  C   -0.888885
    13  H    0.465337
    14  H    0.404805
    15  H    0.404818
    16  H    0.465388
 Sum of APT charges =  -0.00000
 APT charges with hydrogens summed into heavy atoms:
               1
     1  C    0.022641
     2  C   -0.004031
     3  C   -0.003966
     4  C    0.022605
    11  C   -0.018569
    12  C   -0.018680
 Electronic spatial extent (au):  <R**2>=            612.1759
 Charge=             -0.0000 electrons
 Dipole moment (field-independent basis, Debye):
    X=             -0.4021    Y=              0.0001    Z=              0.0065  Tot=              0.4022
 Quadrupole moment (field-independent basis, Debye-Ang):
   XX=            -40.6845   YY=            -35.6384   ZZ=            -36.6839
   XY=             -0.0052   XZ=             -2.5807   YZ=             -0.0022
 Traceless Quadrupole moment (field-independent basis, Debye-Ang):
   XX=             -3.0155   YY=              2.0305   ZZ=              0.9850
   XY=             -0.0052   XZ=             -2.5807   YZ=             -0.0022
 Octapole moment (field-independent basis, Debye-Ang**2):
  XXX=              0.4846  YYY=             -0.0029  ZZZ=              0.1472  XYY=             -1.1024
  XXY=              0.0024  XXZ=             -1.8019  XZZ=             -1.1236  YZZ=             -0.0009
  YYZ=             -1.1666  XYZ=             -0.0005
 Hexadecapole moment (field-independent basis, Debye-Ang**3):
 XXXX=           -425.6661 YYYY=           -312.3192 ZZZZ=           -103.2007 XXXY=             -0.0261
 XXXZ=            -16.6907 YYYX=             -0.0238 YYYZ=             -0.0089 ZZZX=             -2.7576
 ZZZY=             -0.0031 XXYY=           -121.5836 XXZZ=            -82.3894 YYZZ=            -71.8489
 XXYZ=             -0.0055 YYXZ=             -4.1397 ZZXY=              0.0006
 N-N= 2.243661872599D+02 E-N=-9.909180279362D+02  KE= 2.321731357196D+02
  Exact polarizability:       0.000       0.000       0.000       0.000       0.000       0.000
 Approx polarizability:     130.486      -0.004     137.183     -12.029      -0.016      74.429
 No NMR shielding tensors so no spin-rotation constants.
 Leave Link  601 at Mon Apr  8 10:44:32 2024, MaxMem=  7516192768 cpu:               3.0 elap:               0.2
 (Enter /public3/home/scg9909/software-scg9909/g16/l701.exe)
 ... and contract with generalized density number  0.
 Compute integral second derivatives.
 R6Disp: Adding Grimme-D3(BJ) dispersion energy 2nd derivatives to the Hessian.
 Leave Link  701 at Mon Apr  8 10:44:33 2024, MaxMem=  7516192768 cpu:               5.0 elap:               0.2
 (Enter /public3/home/scg9909/software-scg9909/g16/l702.exe)
 L702 exits ... SP integral derivatives will be done elsewhere.
 Leave Link  702 at Mon Apr  8 10:44:33 2024, MaxMem=  7516192768 cpu:               0.2 elap:               0.0
 (Enter /public3/home/scg9909/software-scg9909/g16/l703.exe)
 Integral derivatives from FoFJK, PRISM(SPDF).
 Compute integral second derivatives, UseDBF=F ICtDFT=           0.
 Calling FoFJK, ICntrl=    100127 FMM=F ISym2X=0 I1Cent= 0 IOpClX= 0 NMat=1 NMatS=1 NMatT=0.
 FoFJK:  IHMeth= 1 ICntrl=  100127 DoSepK=F KAlg= 0 I1Cent=           0 FoldK=F
 IRaf=         0 NMat=       1 IRICut=       1 DoRegI=T DoRafI=F ISym2E= 0 IDoP0=0 IntGTp=1.
 FoFCou: FMM=F IPFlag=           0 FMFlag=      100000 FMFlg1=         800
         NFxFlg=           0 DoJE=F BraDBF=F KetDBF=F FulRan=T
         wScrn=  0.000000 ICntrl=    100127 IOpCl=  0 I1Cent=           0 NGrid=           0
         NMat0=    1 NMatS0=      1 NMatT0=    0 NMatD0=    1 NMtDS0=    0 NMtDT0=    0
 Symmetry not used in FoFCou.
 Leave Link  703 at Mon Apr  8 10:44:39 2024, MaxMem=  7516192768 cpu:             134.8 elap:               4.8
 (Enter /public3/home/scg9909/software-scg9909/g16/l716.exe)
 Dipole        =-1.58199791D-01 3.26806853D-05 2.53902505D-03
 Polarizability= 0.00000000D+00 0.00000000D+00 0.00000000D+00
                 0.00000000D+00 0.00000000D+00 0.00000000D+00
 ***** Axes restored to original set *****
 -------------------------------------------------------------------
 Center     Atomic                   Forces (Hartrees/Bohr)
 Number     Number              X              Y              Z
 -------------------------------------------------------------------
      1        6          -0.001214415    0.000489210   -0.000470409
      2        6          -0.000004332   -0.000012864    0.000003598
      3        6          -0.000003897    0.000012739    0.000002744
      4        6          -0.001189193   -0.000482190   -0.000461365
      5        1          -0.000005187   -0.000018697    0.000008924
      6        1          -0.000010667   -0.000009666    0.000004770
      7        1          -0.000001636   -0.000005876    0.000002129
      8        1          -0.000001743    0.000006062    0.000002523
      9        1          -0.000005469    0.000019057    0.000008907
     10        1          -0.000011278    0.000009656    0.000004500
     11        6           0.001223765   -0.000426411    0.000430096
     12        6           0.001200997    0.000419213    0.000421320
     13        1          -0.000004690    0.000005942    0.000006630
     14        1           0.000016320   -0.000018565    0.000013968
     15        1           0.000016006    0.000018356    0.000014246
     16        1          -0.000004579   -0.000005968    0.000007419
 -------------------------------------------------------------------
 Cartesian Forces:  Max     0.001223765 RMS     0.000394195
 FormGI is forming the generalized inverse of G from B-inverse, IUseBI=4.
 Leave Link  716 at Mon Apr  8 10:44:39 2024, MaxMem=  7516192768 cpu:               1.6 elap:               0.1
 (Enter /public3/home/scg9909/software-scg9909/g16/l103.exe)

 GradGradGradGradGradGradGradGradGradGradGradGradGradGradGradGradGradGrad
 Berny optimization.
 Red2BG is reusing G-inverse.
 Internal  Forces:  Max     0.001046860 RMS     0.000162504
 Search for a saddle point.
 Step number   1 out of a maximum of  100
 All quantities printed in internal units (Hartrees-Bohrs-Radians)
 Swapping is turned off.
 Second derivative matrix not updated -- analytic derivatives used.
 ITU=  0
     Eigenvalues ---   -0.02810   0.00140   0.00635   0.00656   0.00942
     Eigenvalues ---    0.01237   0.01472   0.01688   0.01822   0.02079
     Eigenvalues ---    0.02154   0.02201   0.02431   0.02692   0.02747
     Eigenvalues ---    0.03511   0.04186   0.04451   0.04969   0.05042
     Eigenvalues ---    0.05635   0.05647   0.05710   0.06964   0.10064
     Eigenvalues ---    0.12292   0.12385   0.15894   0.30952   0.31580
     Eigenvalues ---    0.33454   0.34277   0.35289   0.35458   0.36046
     Eigenvalues ---    0.36121   0.36294   0.36659   0.36825   0.45032
     Eigenvalues ---    0.45215   0.50342
 Eigenvectors required to have negative eigenvalues:
                          R11       R4        D51       D47       D23
   1                   -0.53182  -0.53181  -0.17787   0.17782   0.16884
                          D1        D2        D26       D57       D54
   1                   -0.16882  -0.14504   0.14504  -0.13501   0.13496
 RFO step:  Lambda0=7.556823847D-05 Lambda=-2.17689427D-05.
 Linear search not attempted -- option 19 set.
 Iteration  1 RMS(Cart)=  0.00266078 RMS(Int)=  0.00002172
 Iteration  2 RMS(Cart)=  0.00001657 RMS(Int)=  0.00001366
 Iteration  3 RMS(Cart)=  0.00000000 RMS(Int)=  0.00001366
 ITry= 1 IFail=0 DXMaxC= 1.07D-02 DCOld= 1.00D+10 DXMaxT= 3.00D-01 DXLimC= 3.00D+00 Rises=F
 Variable       Old X    -DE/DX   Delta X   Delta X   Delta X     New X
                                 (Linear)    (Quad)   (Total)
    R1        2.61397  -0.00005   0.00000  -0.00412  -0.00411   2.60985
    R2        2.04810   0.00000   0.00000  -0.00035  -0.00034   2.04775
    R3        2.05376   0.00001   0.00000  -0.00005  -0.00005   2.05371
    R4        4.27676  -0.00105   0.00000   0.01880   0.01880   4.29555
    R5        2.65537  -0.00007   0.00000   0.00402   0.00402   2.65939
    R6        2.05717   0.00000   0.00000   0.00002   0.00002   2.05718
    R7        2.61403  -0.00005   0.00000  -0.00419  -0.00419   2.60985
    R8        2.05717   0.00000   0.00000   0.00002   0.00002   2.05718
    R9        2.04811   0.00000   0.00000  -0.00036  -0.00036   2.04775
   R10        2.05377   0.00001   0.00000  -0.00006  -0.00006   2.05371
   R11        4.27483  -0.00103   0.00000   0.02080   0.02080   4.29563
   R12        4.50424  -0.00032   0.00000  -0.01188  -0.01187   4.49237
   R13        4.50396  -0.00031   0.00000  -0.01157  -0.01157   4.49239
   R14        2.62017   0.00006   0.00000  -0.00531  -0.00531   2.61486
   R15        2.05210   0.00005   0.00000  -0.00010  -0.00010   2.05199
   R16        2.04811  -0.00000   0.00000  -0.00018  -0.00018   2.04793
   R17        2.04812  -0.00000   0.00000  -0.00019  -0.00019   2.04793
   R18        2.05210   0.00005   0.00000  -0.00011  -0.00011   2.05199
    A1        2.10399  -0.00003   0.00000   0.00227   0.00223   2.10622
    A2        2.09598   0.00001   0.00000   0.00154   0.00152   2.09751
    A3        1.77959  -0.00010   0.00000  -0.00222  -0.00221   1.77738
    A4        1.99982  -0.00001   0.00000   0.00124   0.00122   2.00103
    A5        1.48422   0.00019   0.00000  -0.00849  -0.00848   1.47574
    A6        1.82075  -0.00000   0.00000  -0.00120  -0.00120   1.81955
    A7        2.12677  -0.00003   0.00000   0.00134   0.00133   2.12810
    A8        2.07191   0.00001   0.00000  -0.00008  -0.00008   2.07183
    A9        2.06003   0.00001   0.00000  -0.00115  -0.00114   2.05888
   A10        2.12670  -0.00003   0.00000   0.00141   0.00140   2.12810
   A11        2.06003   0.00002   0.00000  -0.00115  -0.00115   2.05888
   A12        2.07193   0.00001   0.00000  -0.00010  -0.00010   2.07183
   A13        2.10389  -0.00003   0.00000   0.00238   0.00233   2.10622
   A14        2.09591   0.00001   0.00000   0.00162   0.00161   2.09751
   A15        1.77990  -0.00011   0.00000  -0.00254  -0.00253   1.77737
   A16        1.99974  -0.00001   0.00000   0.00133   0.00130   2.00104
   A17        1.48474   0.00018   0.00000  -0.00901  -0.00901   1.47573
   A18        1.82053  -0.00000   0.00000  -0.00098  -0.00098   1.81955
   A19        1.47847  -0.00020   0.00000   0.00813   0.00814   1.48660
   A20        1.47775  -0.00020   0.00000   0.00886   0.00887   1.48662
   A21        1.90352   0.00005   0.00000  -0.00009  -0.00009   1.90343
   A22        1.58675   0.00013   0.00000  -0.00660  -0.00660   1.58016
   A23        1.59442  -0.00009   0.00000  -0.00759  -0.00758   1.58684
   A24        2.09354  -0.00009   0.00000   0.00221   0.00219   2.09573
   A25        2.09400   0.00006   0.00000   0.00247   0.00244   2.09643
   A26        2.01105  -0.00001   0.00000   0.00139   0.00133   2.01238
   A27        1.90380   0.00005   0.00000  -0.00038  -0.00038   1.90342
   A28        1.59479  -0.00009   0.00000  -0.00798  -0.00796   1.58683
   A29        1.58681   0.00013   0.00000  -0.00667  -0.00666   1.58015
   A30        2.09388   0.00006   0.00000   0.00260   0.00256   2.09644
   A31        2.09344  -0.00009   0.00000   0.00232   0.00230   2.09574
   A32        2.01096  -0.00001   0.00000   0.00149   0.00142   2.01239
   A33        1.37874  -0.00016   0.00000   0.00566   0.00566   1.38440
   A34        1.37849  -0.00015   0.00000   0.00592   0.00592   1.38441
    D1       -0.57527  -0.00010   0.00000   0.01249   0.01250  -0.56277
    D2        2.80693  -0.00008   0.00000   0.01214   0.01214   2.81908
    D3        3.01671  -0.00003   0.00000  -0.00072  -0.00073   3.01599
    D4        0.11573  -0.00001   0.00000  -0.00108  -0.00108   0.11465
    D5        1.01795   0.00005   0.00000   0.00165   0.00165   1.01960
    D6       -1.88303   0.00007   0.00000   0.00129   0.00129  -1.88174
    D7        2.13082   0.00004   0.00000  -0.00695  -0.00695   2.12387
    D8       -1.43781  -0.00002   0.00000   0.00564   0.00564  -1.43217
    D9        0.36849   0.00006   0.00000   0.00053   0.00053   0.36902
   D10       -0.87064  -0.00007   0.00000  -0.00028  -0.00028  -0.87092
   D11       -3.00454  -0.00005   0.00000   0.00011   0.00011  -3.00443
   D12        1.26699  -0.00004   0.00000  -0.00085  -0.00086   1.26613
   D13        1.22738  -0.00007   0.00000   0.00034   0.00034   1.22772
   D14       -0.90652  -0.00004   0.00000   0.00073   0.00074  -0.90578
   D15       -2.91818  -0.00003   0.00000  -0.00022  -0.00023  -2.91841
   D16       -3.06389  -0.00003   0.00000  -0.00045  -0.00044  -3.06433
   D17        1.08539  -0.00000   0.00000  -0.00005  -0.00004   1.08535
   D18       -0.92627   0.00001   0.00000  -0.00101  -0.00101  -0.92728
   D19       -0.00016   0.00000   0.00000   0.00018   0.00018   0.00001
   D20       -2.90252   0.00002   0.00000  -0.00052  -0.00053  -2.90304
   D21        2.90239  -0.00002   0.00000   0.00067   0.00067   2.90306
   D22        0.00004   0.00000   0.00000  -0.00003  -0.00003   0.00000
   D23        0.57574   0.00010   0.00000  -0.01298  -0.01299   0.56275
   D24       -3.01692   0.00003   0.00000   0.00094   0.00094  -3.01597
   D25       -1.01825  -0.00005   0.00000  -0.00135  -0.00135  -1.01960
   D26       -2.80667   0.00008   0.00000  -0.01241  -0.01242  -2.81909
   D27       -0.11614   0.00001   0.00000   0.00151   0.00151  -0.11462
   D28        1.88252  -0.00007   0.00000  -0.00078  -0.00077   1.88175
   D29       -2.13170  -0.00004   0.00000   0.00785   0.00786  -2.12384
   D30        1.43758   0.00003   0.00000  -0.00540  -0.00541   1.43217
   D31       -0.36871  -0.00005   0.00000  -0.00030  -0.00031  -0.36901
   D32        0.87122   0.00007   0.00000  -0.00031  -0.00031   0.87091
   D33       -1.26651   0.00004   0.00000   0.00036   0.00037  -1.26614
   D34        3.00509   0.00005   0.00000  -0.00068  -0.00068   3.00441
   D35       -1.22680   0.00007   0.00000  -0.00092  -0.00093  -1.22773
   D36        2.91866   0.00003   0.00000  -0.00026  -0.00025   2.91841
   D37        0.90707   0.00004   0.00000  -0.00129  -0.00130   0.90577
   D38        3.06443   0.00003   0.00000  -0.00011  -0.00011   3.06432
   D39        0.92671  -0.00001   0.00000   0.00056   0.00057   0.92727
   D40       -1.08488   0.00000   0.00000  -0.00047  -0.00048  -1.08536
   D41       -0.86624   0.00009   0.00000  -0.00468  -0.00467  -0.87091
   D42        0.86648  -0.00009   0.00000   0.00445   0.00444   0.87091
   D43       -0.00029  -0.00000   0.00000   0.00030   0.00030   0.00001
   D44        1.80131  -0.00006   0.00000  -0.00869  -0.00870   1.79262
   D45       -1.79167  -0.00015   0.00000   0.00777   0.00778  -1.78390
   D46        1.79090   0.00015   0.00000  -0.00696  -0.00697   1.78393
   D47       -2.69069   0.00010   0.00000  -0.01595  -0.01596  -2.70665
   D48       -0.00049   0.00000   0.00000   0.00051   0.00051   0.00002
   D49       -1.80129   0.00006   0.00000   0.00867   0.00867  -1.79262
   D50        0.00031  -0.00000   0.00000  -0.00032  -0.00032  -0.00001
   D51        2.69051  -0.00010   0.00000   0.01614   0.01615   2.70666
   D52        0.37187   0.00006   0.00000   0.00002   0.00001   0.37188
   D53       -1.59544  -0.00006   0.00000   0.00373   0.00373  -1.59171
   D54        1.97630   0.00002   0.00000  -0.01144  -0.01145   1.96485
   D55       -0.37210  -0.00006   0.00000   0.00021   0.00022  -0.37188
   D56        1.59554   0.00006   0.00000  -0.00384  -0.00385   1.59170
   D57       -1.97697  -0.00002   0.00000   0.01213   0.01214  -1.96483
         Item               Value     Threshold  Converged?
 Maximum Force            0.001047     0.000450     NO 
 RMS     Force            0.000163     0.000300     YES
 Maximum Displacement     0.010677     0.001800     NO 
 RMS     Displacement     0.002660     0.001200     NO 
 Predicted change in Energy= 2.698965D-05
 Lowest energy point so far.  Saving SCF results.
 GradGradGradGradGradGradGradGradGradGradGradGradGradGradGradGradGradGrad

 Leave Link  103 at Mon Apr  8 10:44:39 2024, MaxMem=  7516192768 cpu:               3.4 elap:               0.2
 (Enter /public3/home/scg9909/software-scg9909/g16/l202.exe)
                          Input orientation:                          
 ---------------------------------------------------------------------
 Center     Atomic      Atomic             Coordinates (Angstroms)
 Number     Number       Type             X           Y           Z
 ---------------------------------------------------------------------
      1          6           0        0.449759   -1.433720    0.494868
      2          6           0        1.317770   -0.702435   -0.291992
      3          6           0        1.316514    0.704855   -0.291889
      4          6           0        0.447213    1.434474    0.495086
      5          1           0        0.126533   -1.057523    1.458322
      6          1           0        0.393443   -2.513751    0.387872
      7          1           0        1.858099   -1.212388   -1.087651
      8          1           0        1.855930    1.215887   -1.087476
      9          1           0        0.124657    1.057551    1.458481
     10          1           0        0.388956    2.514416    0.388245
     11          6           0       -1.573316   -0.693256   -0.230321
     12          6           0       -1.574569    0.690468   -0.230216
     13          1           0       -2.069924   -1.237957    0.567044
     14          1           0       -1.458287   -1.236853   -1.160760
     15          1           0       -1.460516    1.234418   -1.160568
     16          1           0       -2.072141    1.234155    0.567240
 ---------------------------------------------------------------------
                    Distance matrix (angstroms):
                    1          2          3          4          5
     1  C    0.000000
     2  C    1.381074   0.000000
     3  C    2.437981   1.407290   0.000000
     4  C    2.868195   2.437979   1.381071   0.000000
     5  H    1.083625   2.146795   2.754136   2.690857   0.000000
     6  H    1.086778   2.144168   3.416658   3.950046   1.826938
     7  H    2.129971   1.088615   2.145314   3.391392   3.082902
     8  H    3.391393   2.145314   1.088615   2.129968   3.826264
     9  H    2.690850   2.754128   2.146790   1.083625   2.115075
    10  H    3.950044   3.416658   2.144169   1.086777   3.738006
    11  C    2.273108   2.891757   3.210859   3.022580   2.423570
    12  C    3.022553   3.210860   2.891776   2.273150   2.966544
    13  H    2.528307   3.535702   3.997529   3.671927   2.377258
    14  H    2.533871   2.957508   3.496382   3.675425   3.066497
    15  H    3.675402   3.496383   2.957522   2.533899   3.824958
    16  H    3.671890   3.997518   3.535709   2.528335   3.298482
                    6          7          8          9         10
     6  H    0.000000
     7  H    2.452740   0.000000
     8  H    4.269159   2.428276   0.000000
     9  H    3.738000   3.826256   3.082899   0.000000
    10  H    5.028169   4.269160   2.452742   1.826942   0.000000
    11  C    2.750364   3.574790   4.017370   2.966562   3.810813
    12  C    3.810790   4.017371   3.574812   2.423596   2.750402
    13  H    2.779915   4.262398   4.916413   3.298515   4.489807
    14  H    2.730866   3.317283   4.123753   3.824974   4.459120
    15  H    4.459103   4.123759   3.317303   3.066508   2.730891
    16  H    4.489774   4.916404   4.262412   2.377272   2.779947
                   11         12         13         14         15
    11  C    0.000000
    12  C    1.383725   0.000000
    13  H    1.085869   2.144721   0.000000
    14  H    1.083719   2.143363   1.832869   0.000000
    15  H    2.143364   1.083718   3.077119   2.471272   0.000000
    16  H    2.144725   1.085868   2.472114   3.077123   1.832868
                   16
    16  H    0.000000
 Stoichiometry    C6H10
 Framework group  C1[X(C6H10)]
 Deg. of freedom    42
 Full point group                 C1      NOp   1
 RotChk:  IX=3 Diff= 2.12D-03
 Largest Abelian subgroup         C1      NOp   1
 Largest concise Abelian subgroup C1      NOp   1
                         Standard orientation:                         
 ---------------------------------------------------------------------
 Center     Atomic      Atomic             Coordinates (Angstroms)
 Number     Number       Type             X           Y           Z
 ---------------------------------------------------------------------
      1          6           0        0.449285   -1.434106    0.494367
      2          6           0        1.317055   -0.703692   -0.293564
      3          6           0        1.317110    0.703599   -0.293570
      4          6           0        0.449412    1.434089    0.494364
      5          1           0        0.127536   -1.057535    1.458169
      6          1           0        0.391837   -2.514092    0.387521
      7          1           0        1.855978   -1.214209   -1.089815
      8          1           0        1.856072    1.214067   -1.089827
      9          1           0        0.127632    1.057540    1.458165
     10          1           0        0.392036    2.514077    0.387506
     11          6           0       -1.573946   -0.691814   -0.228513
     12          6           0       -1.573910    0.691912   -0.228515
     13          1           0       -2.070129   -1.235990    0.569475
     14          1           0       -1.460513   -1.235589   -1.159044
     15          1           0       -1.460438    1.235683   -1.159042
     16          1           0       -2.070042    1.236124    0.569480
 ---------------------------------------------------------------------
 Rotational constants (GHZ):           4.3442900           3.4704948           2.2663147
 Leave Link  202 at Mon Apr  8 10:44:39 2024, MaxMem=  7516192768 cpu:               0.5 elap:               0.0
 (Enter /public3/home/scg9909/software-scg9909/g16/l301.exe)
 Standard basis: 6-31G(d) (6D, 7F)
 Ernie: Thresh=  0.10000D-02 Tol=  0.10000D-05 Strict=F.
 There are   110 symmetry adapted cartesian basis functions of A   symmetry.
 There are   110 symmetry adapted basis functions of A   symmetry.
   110 basis functions,   208 primitive gaussians,   110 cartesian basis functions
    23 alpha electrons       23 beta electrons
       nuclear repulsion energy       224.2718863850 Hartrees.
 IExCor=  402 DFT=T Ex+Corr=B3LYP ExCW=0 ScaHFX=  0.200000
 ScaDFX=  0.800000  0.720000  1.000000  0.810000 ScalE2=  1.000000  1.000000
 IRadAn=      5 IRanWt=     -1 IRanGd=            0 ICorTp=0 IEmpDi=141
 NAtoms=   16 NActive=   16 NUniq=   16 SFac= 1.00D+00 NAtFMM=   60 NAOKFM=F Big=F
 Integral buffers will be    131072 words long.
 Raffenetti 2 integral format.
 Two-electron integral symmetry is turned on.
 R6Disp:  Grimme-D3(BJ) Dispersion energy=       -0.0254664431 Hartrees.
 Nuclear repulsion after empirical dispersion term =      224.2464199419 Hartrees.
 Leave Link  301 at Mon Apr  8 10:44:39 2024, MaxMem=  7516192768 cpu:               0.5 elap:               0.0
 (Enter /public3/home/scg9909/software-scg9909/g16/l302.exe)
 NPDir=0 NMtPBC=     1 NCelOv=     1 NCel=       1 NClECP=     1 NCelD=      1
         NCelK=      1 NCelE2=     1 NClLst=     1 CellRange=     0.0.
 One-electron integrals computed using PRISM.
 One-electron integral symmetry used in STVInt
 NBasis=   110 RedAO= T EigKep=  2.26D-03  NBF=   110
 NBsUse=   110 1.00D-06 EigRej= -1.00D+00 NBFU=   110
 Precomputing XC quadrature grid using
 IXCGrd= 4 IRadAn=           5 IRanWt=          -1 IRanGd=           0 AccXCQ= 0.00D+00.
 Generated NRdTot=       0 NPtTot=           0 NUsed=           0 NTot=          32
 NSgBfM=   110   110   110   110   110 MxSgAt=    16 MxSgA2=    16.
 Leave Link  302 at Mon Apr  8 10:44:40 2024, MaxMem=  7516192768 cpu:               2.6 elap:               0.1
 (Enter /public3/home/scg9909/software-scg9909/g16/l303.exe)
 DipDrv:  MaxL=1.
 Leave Link  303 at Mon Apr  8 10:44:40 2024, MaxMem=  7516192768 cpu:               0.3 elap:               0.0
 (Enter /public3/home/scg9909/software-scg9909/g16/l401.exe)
 Initial guess from the checkpoint file:  "/public3/home/scg9909/tmp/Gau-169952.chk"
 B after Tr=    -0.000000    0.000000    0.000000
         Rot=    1.000000    0.000042   -0.000551    0.000464 Ang=   0.08 deg.
 Guess basis will be translated and rotated to current coordinates.
 JPrj=2 DoOrth=T DoCkMO=T.
 Leave Link  401 at Mon Apr  8 10:44:40 2024, MaxMem=  7516192768 cpu:               1.5 elap:               0.1
 (Enter /public3/home/scg9909/software-scg9909/g16/l502.exe)
 Integral symmetry usage will be decided dynamically.
 Closed shell SCF:
 Using DIIS extrapolation, IDIIS=  1040.
 NGot=  7516192768 LenX=  7516163644 LenY=  7516151103
 Requested convergence on RMS density matrix=1.00D-08 within 128 cycles.
 Requested convergence on MAX density matrix=1.00D-06.
 Requested convergence on             energy=1.00D-06.
 No special actions if energy rises.
 Fock matrices will be formed incrementally for  20 cycles.

 Cycle   1  Pass 1  IDiag  1:
 FoFJK:  IHMeth= 1 ICntrl=       0 DoSepK=F KAlg= 0 I1Cent=           0 FoldK=F
 IRaf= 990000000 NMat=       1 IRICut=       1 DoRegI=T DoRafI=F ISym2E= 0 IDoP0=0 IntGTp=1.
 FoFCou: FMM=F IPFlag=           0 FMFlag=      100000 FMFlg1=           0
         NFxFlg=           0 DoJE=F BraDBF=F KetDBF=F FulRan=T
         wScrn=  0.000000 ICntrl=         0 IOpCl=  0 I1Cent=           0 NGrid=           0
         NMat0=    1 NMatS0=      1 NMatT0=    0 NMatD0=    1 NMtDS0=    0 NMtDT0=    0
 Symmetry not used in FoFCou.
 E= -234.569222835638    
 DIIS: error= 6.37D-04 at cycle   1 NSaved=   1.
 NSaved= 1 IEnMin= 1 EnMin= -234.569222835638     IErMin= 1 ErrMin= 6.37D-04
 ErrMax= 6.37D-04  0.00D+00 EMaxC= 1.00D-01 BMatC= 2.72D-05 BMatP= 2.72D-05
 IDIUse=3 WtCom= 9.94D-01 WtEn= 6.37D-03
 Coeff-Com:  0.100D+01
 Coeff-En:   0.100D+01
 Coeff:      0.100D+01
 Gap=     1.903 Goal=   None    Shift=    0.000
 RMSDP=1.14D-04 MaxDP=1.52D-03              OVMax= 7.28D-03

 Cycle   2  Pass 1  IDiag  1:
 RMSU=  1.14D-04    CP:  1.00D+00
 E= -234.569311587105     Delta-E=       -0.000088751467 Rises=F Damp=F
 DIIS: error= 1.92D-04 at cycle   2 NSaved=   2.
 NSaved= 2 IEnMin= 2 EnMin= -234.569311587105     IErMin= 2 ErrMin= 1.92D-04
 ErrMax= 1.92D-04  0.00D+00 EMaxC= 1.00D-01 BMatC= 2.94D-06 BMatP= 2.72D-05
 IDIUse=3 WtCom= 9.98D-01 WtEn= 1.92D-03
 Coeff-Com:  0.685D-01 0.931D+00
 Coeff-En:   0.000D+00 0.100D+01
 Coeff:      0.684D-01 0.932D+00
 Gap=     0.210 Goal=   None    Shift=    0.000
 RMSDP=4.03D-05 MaxDP=4.25D-04 DE=-8.88D-05 OVMax= 2.23D-03

 Cycle   3  Pass 1  IDiag  1:
 RMSU=  3.58D-05    CP:  1.00D+00  1.16D+00
 E= -234.569313706157     Delta-E=       -0.000002119052 Rises=F Damp=F
 DIIS: error= 1.97D-04 at cycle   3 NSaved=   3.
 NSaved= 3 IEnMin= 3 EnMin= -234.569313706157     IErMin= 2 ErrMin= 1.92D-04
 ErrMax= 1.97D-04  0.00D+00 EMaxC= 1.00D-01 BMatC= 3.13D-06 BMatP= 2.94D-06
 IDIUse=3 WtCom= 9.98D-01 WtEn= 1.97D-03
 Coeff-Com: -0.502D-01 0.529D+00 0.521D+00
 Coeff-En:   0.000D+00 0.316D+00 0.684D+00
 Coeff:     -0.501D-01 0.529D+00 0.522D+00
 Gap=     0.210 Goal=   None    Shift=    0.000
 RMSDP=2.19D-05 MaxDP=2.85D-04 DE=-2.12D-06 OVMax= 1.44D-03

 Cycle   4  Pass 1  IDiag  1:
 RMSU=  1.30D-05    CP:  1.00D+00  1.23D+00  5.60D-01
 E= -234.569317071059     Delta-E=       -0.000003364902 Rises=F Damp=F
 DIIS: error= 6.62D-05 at cycle   4 NSaved=   4.
 NSaved= 4 IEnMin= 4 EnMin= -234.569317071059     IErMin= 4 ErrMin= 6.62D-05
 ErrMax= 6.62D-05  0.00D+00 EMaxC= 1.00D-01 BMatC= 3.67D-07 BMatP= 2.94D-06
 IDIUse=1 WtCom= 1.00D+00 WtEn= 0.00D+00
 Coeff-Com: -0.322D-01 0.187D+00 0.306D+00 0.539D+00
 Coeff:     -0.322D-01 0.187D+00 0.306D+00 0.539D+00
 Gap=     0.210 Goal=   None    Shift=    0.000
 RMSDP=7.49D-06 MaxDP=1.09D-04 DE=-3.36D-06 OVMax= 4.72D-04

 Cycle   5  Pass 1  IDiag  1:
 RMSU=  5.48D-06    CP:  1.00D+00  1.24D+00  6.47D-01  7.03D-01
 E= -234.569317516786     Delta-E=       -0.000000445727 Rises=F Damp=F
 DIIS: error= 2.05D-05 at cycle   5 NSaved=   5.
 NSaved= 5 IEnMin= 5 EnMin= -234.569317516786     IErMin= 5 ErrMin= 2.05D-05
 ErrMax= 2.05D-05  0.00D+00 EMaxC= 1.00D-01 BMatC= 2.88D-08 BMatP= 3.67D-07
 IDIUse=1 WtCom= 1.00D+00 WtEn= 0.00D+00
 Coeff-Com: -0.545D-02-0.103D-01 0.630D-01 0.258D+00 0.694D+00
 Coeff:     -0.545D-02-0.103D-01 0.630D-01 0.258D+00 0.694D+00
 Gap=     0.210 Goal=   None    Shift=    0.000
 RMSDP=2.52D-06 MaxDP=2.77D-05 DE=-4.46D-07 OVMax= 1.54D-04

 Cycle   6  Pass 1  IDiag  1:
 RMSU=  1.06D-06    CP:  1.00D+00  1.25D+00  6.71D-01  8.16D-01  8.17D-01
 E= -234.569317558165     Delta-E=       -0.000000041379 Rises=F Damp=F
 DIIS: error= 3.52D-06 at cycle   6 NSaved=   6.
 NSaved= 6 IEnMin= 6 EnMin= -234.569317558165     IErMin= 6 ErrMin= 3.52D-06
 ErrMax= 3.52D-06  0.00D+00 EMaxC= 1.00D-01 BMatC= 1.01D-09 BMatP= 2.88D-08
 IDIUse=1 WtCom= 1.00D+00 WtEn= 0.00D+00
 Coeff-Com:  0.134D-02-0.227D-01-0.877D-02 0.234D-01 0.196D+00 0.811D+00
 Coeff:      0.134D-02-0.227D-01-0.877D-02 0.234D-01 0.196D+00 0.811D+00
 Gap=     0.210 Goal=   None    Shift=    0.000
 RMSDP=6.04D-07 MaxDP=6.66D-06 DE=-4.14D-08 OVMax= 3.70D-05

 Cycle   7  Pass 1  IDiag  1:
 RMSU=  3.03D-07    CP:  1.00D+00  1.25D+00  6.77D-01  8.29D-01  8.65D-01
                    CP:  8.82D-01
 E= -234.569317559632     Delta-E=       -0.000000001467 Rises=F Damp=F
 DIIS: error= 1.49D-06 at cycle   7 NSaved=   7.
 NSaved= 7 IEnMin= 7 EnMin= -234.569317559632     IErMin= 7 ErrMin= 1.49D-06
 ErrMax= 1.49D-06  0.00D+00 EMaxC= 1.00D-01 BMatC= 2.60D-10 BMatP= 1.01D-09
 IDIUse=1 WtCom= 1.00D+00 WtEn= 0.00D+00
 Coeff-Com:  0.107D-02-0.130D-01-0.815D-02 0.111D-02 0.836D-01 0.473D+00
 Coeff-Com:  0.462D+00
 Coeff:      0.107D-02-0.130D-01-0.815D-02 0.111D-02 0.836D-01 0.473D+00
 Coeff:      0.462D+00
 Gap=     0.210 Goal=   None    Shift=    0.000
 RMSDP=1.55D-07 MaxDP=2.79D-06 DE=-1.47D-09 OVMax= 6.05D-06

 Cycle   8  Pass 1  IDiag  1:
 RMSU=  1.06D-07    CP:  1.00D+00  1.25D+00  6.78D-01  8.31D-01  8.70D-01
                    CP:  9.14D-01  6.79D-01
 E= -234.569317559918     Delta-E=       -0.000000000286 Rises=F Damp=F
 DIIS: error= 2.08D-07 at cycle   8 NSaved=   8.
 NSaved= 8 IEnMin= 8 EnMin= -234.569317559918     IErMin= 8 ErrMin= 2.08D-07
 ErrMax= 2.08D-07  0.00D+00 EMaxC= 1.00D-01 BMatC= 4.26D-12 BMatP= 2.60D-10
 IDIUse=1 WtCom= 1.00D+00 WtEn= 0.00D+00
 Coeff-Com:  0.172D-03-0.155D-02-0.146D-02-0.236D-02 0.578D-02 0.520D-01
 Coeff-Com:  0.132D+00 0.816D+00
 Coeff:      0.172D-03-0.155D-02-0.146D-02-0.236D-02 0.578D-02 0.520D-01
 Coeff:      0.132D+00 0.816D+00
 Gap=     0.210 Goal=   None    Shift=    0.000
 RMSDP=3.17D-08 MaxDP=5.03D-07 DE=-2.86D-10 OVMax= 1.75D-06

 Cycle   9  Pass 1  IDiag  1:
 RMSU=  2.11D-08    CP:  1.00D+00  1.25D+00  6.78D-01  8.31D-01  8.72D-01
                    CP:  9.25D-01  7.12D-01  9.16D-01
 E= -234.569317559923     Delta-E=       -0.000000000005 Rises=F Damp=F
 DIIS: error= 9.99D-08 at cycle   9 NSaved=   9.
 NSaved= 9 IEnMin= 9 EnMin= -234.569317559923     IErMin= 9 ErrMin= 9.99D-08
 ErrMax= 9.99D-08  0.00D+00 EMaxC= 1.00D-01 BMatC= 7.28D-13 BMatP= 4.26D-12
 IDIUse=1 WtCom= 1.00D+00 WtEn= 0.00D+00
 Coeff-Com:  0.454D-04-0.267D-03-0.397D-03-0.114D-02-0.226D-03 0.740D-02
 Coeff-Com:  0.478D-01 0.418D+00 0.529D+00
 Coeff:      0.454D-04-0.267D-03-0.397D-03-0.114D-02-0.226D-03 0.740D-02
 Coeff:      0.478D-01 0.418D+00 0.529D+00
 Gap=     0.210 Goal=   None    Shift=    0.000
 RMSDP=1.23D-08 MaxDP=2.08D-07 DE=-5.40D-12 OVMax= 6.97D-07

 Cycle  10  Pass 1  IDiag  1:
 RMSU=  8.32D-09    CP:  1.00D+00  1.25D+00  6.78D-01  8.31D-01  8.72D-01
                    CP:  9.25D-01  7.16D-01  9.33D-01  5.90D-01
 E= -234.569317559922     Delta-E=        0.000000000000 Rises=F Damp=F
 DIIS: error= 5.54D-08 at cycle  10 NSaved=  10.
[...]
     1          2.76145131         -1.99609866         -0.18832642
     1          0.75036183         -4.75029385         -0.72598614
     1         -1.99064805         -2.29616635         -3.54509998
     1         -1.99455508          2.29260915         -3.54523437
     1          2.75806014          2.00081249         -0.18847044
     1          0.74229083          4.75156521         -0.72627560
     6         -0.48674655         -1.30776655          2.96615332
     6         -0.48896341          1.30709400          2.96610923
     1          1.00409911         -2.33485802          3.93214739
     1         -2.23995361         -2.33683761          2.71856434
     1         -2.24390531          2.33318857          2.71846670
     1          1.00015371          2.33675857          3.93202637

 Electric dipole moment (dipole orientation):
 (Debye = 10**-18 statcoulomb cm , SI units = C m)
                  (au)            (Debye)         (10**-30 SI)
   Tot        0.152476D+00      0.387555D+00      0.129274D+01
   x          0.000000D+00      0.000000D+00      0.000000D+00
   y          0.000000D+00      0.000000D+00      0.000000D+00
   z          0.152476D+00      0.387555D+00      0.129274D+01

 Dipole polarizability, Alpha (dipole orientation).
 (esu units = cm**3 , SI units = C**2 m**2 J**-1)
 Alpha(0;0):
               (au)            (10**-24 esu)      (10**-40 SI)
   iso        0.688742D+02      0.102061D+02      0.113558D+02
   aniso      0.301972D+02      0.447476D+01      0.497884D+01
   xx         0.503495D+02      0.746103D+01      0.830152D+01
   yx        -0.253360D-01     -0.375441D-02     -0.417735D-02
   yy         0.805444D+02      0.119355D+02      0.132800D+02
   zx         0.638632D+01      0.946356D+00      0.105296D+01
   zy         0.519270D-02      0.769479D-03      0.856161D-03
   zz         0.757286D+02      0.112218D+02      0.124860D+02

 ----------------------------------------------------------------------
 Unable to Open any file for archive entry.
 1\1\GINC-E0302\Freq\RB3LYP\6-31G(d)\C6H10\SCG9909\08-Apr-2024\0\\#P Ge
 om=AllCheck Guess=TCheck SCRF=Check GenChk RB3LYP/6-31G(d) Freq\\$$$$0
  3 0 1 10 1####0????\\0,1\C,0.4497593857,-1.4337199487,0.4948678899\C,
 1.3177695471,-0.7024352761,-0.2919915099\C,1.3165135407,0.7048545101,-
 0.2918886826\C,0.447213473,1.4344740844,0.4950863222\H,0.1265328226,-1
 .0575233474,1.4583220346\H,0.3934427052,-2.5137506083,0.3878720248\H,1
 .8580994271,-1.2123884468,-1.087651027\H,1.8559297493,1.2158868802,-1.
 087475912\H,0.1246573635,1.05755087,1.4584806227\H,0.3889561001,2.5144
 164726,0.3882446735\C,-1.573315628,-0.6932561029,-0.2303212236\C,-1.57
 45691005,0.6904684373,-0.2302160952\H,-2.0699236763,-1.2379574319,0.56
 7044457\H,-1.4582872767,-1.2368534422,-1.1607600091\H,-1.4605158486,1.
 2344178618,-1.1605684611\H,-2.0721405841,1.234155488,0.5672398959\\Ver
 sion=ES64L-G16RevC.01\State=1-A\HF=-234.5693176\RMSD=1.259e-09\RMSF=1.
 671e-05\ZeroPoint=0.1407235\Thermal=0.1471169\ETot=-234.4222007\HTot=-
 234.4212565\GTot=-234.458119\Dipole=-0.1524516,-0.0001409,0.0027057\Di
 poleDeriv=0.0878663,-0.0452127,-0.0260993,0.0157585,0.0867921,0.034497
 ,-0.0089749,-0.0374225,0.0229509,-0.1967137,0.0941558,-0.1404285,-0.09
 64594,-0.0013773,0.0463603,-0.0985015,0.2151833,0.0139125,-0.1966906,-
 0.0944802,-0.140354,0.0961331,-0.001328,-0.0466123,-0.0981053,-0.21535
 61,0.0138766,0.0877969,0.045215,-0.026036,-0.0157753,0.0868375,-0.0345
 397,-0.0090474,0.037406,0.0229455,0.050476,0.0247238,0.0473876,0.02358
 66,-0.0066819,-0.065427,0.0235926,-0.0148917,-0.055387,0.0747118,0.042
 2971,0.0169576,-0.0081378,-0.1213635,0.0017928,0.003133,0.0178461,0.05
 65925,0.0406716,0.0206978,0.0781218,0.0469289,0.0058358,-0.0537822,0.1
 292112,-0.0846825,-0.0304368,0.0407903,-0.0206487,0.0780226,-0.0468864
 ,0.0056952,0.0539276,0.1290524,0.084918,-0.0304173,0.0505664,-0.024626
 ,0.0472684,-0.0234843,-0.0067794,0.0655201,0.0235645,0.014944,-0.05537
 27,0.0747704,-0.0419456,0.0169554,0.0084877,-0.1214174,-0.0017884,0.00
 31648,-0.0178632,0.0565901,-0.1378712,-0.0490274,-0.0537485,0.0863581,
 0.0373098,0.0046823,-0.1099708,0.044881,0.0685897,-0.1378271,0.0487235
 ,-0.0537379,-0.0866413,0.0372532,-0.004781,-0.1099123,-0.0450814,0.068
 5818,0.0404271,-0.0814558,0.0612616,-0.0632196,0.0027014,0.0293871,0.0
 452041,0.031017,-0.0258737,0.040461,-0.0032769,0.0165928,-0.0358242,-0
 .0032513,-0.046803,0.0162063,-0.0563349,-0.0503421,0.0403953,0.0033507
 ,0.01651,0.0358988,-0.0031971,0.0468393,0.0161122,0.0563698,-0.0503256
 ,0.0401696,0.0815098,0.0613264,0.0632766,0.0029709,-0.0292728,0.045271
 2,-0.0309329,-0.0258842\Polar=75.4940433,-0.0039128,80.544435,-6.83258
 19,-0.0037604,50.5841186\Quadrupole=-2.2810834,1.5385974,0.742486,-0.0
 032592,-1.9505111,-0.0016917\PG=C01 [X(C6H10)]\NImag=1\\0.23411012,0.1
 2388837,0.66795223,-0.25005406,0.02137048,0.55290421,-0.16712325,-0.11
 657019,0.14408140,0.38816433,-0.05599024,-0.18873211,0.07962708,0.0312
 6409,0.66843886,0.12398466,0.09342736,-0.20003191,-0.28607446,0.020948
 29,0.47950729,0.01681153,-0.01752278,-0.00340879,-0.07631585,-0.016829
 35,0.03195423,0.38827513,-0.06737036,-0.03573741,0.02120451,0.01724379
 ,-0.31140219,-0.03438140,-0.03172424,0.66833447,-0.02054155,0.01683738
 ,0.01277205,0.03189551,0.03440859,-0.10483117,-0.28604394,-0.02142698,
 0.47950789,-0.05206716,-0.00592316,0.00677264,0.01665953,0.06746601,-0
 .02050064,-0.16743221,0.05601331,0.12416325,0.23455572,0.00583683,-0.0
 0423240,-0.00530613,0.01761651,-0.03558065,-0.01688142,0.11658879,-0.1
 8840116,-0.09320804,-0.12462961,0.66751920,0.00676488,0.00531807,-0.00
 393211,-0.00336852,-0.02121860,0.01276681,0.14424333,-0.07937154,-0.20
 006254,-0.25003749,-0.02179911,0.55290138,-0.04674758,0.02549580,0.081
 72170,-0.01011866,0.00092687,0.02329336,-0.00467571,0.00755326,-0.0002
 2350,0.00648302,-0.00087782,-0.00051787,0.06740389,0.02172663,-0.09390
 012,-0.09313639,-0.00175426,0.01440185,0.01315719,0.00162518,-0.003260
 61,-0.00108785,-0.00239906,-0.00086486,0.00291971,-0.03003133,0.094259
 81,0.09610459,-0.09384139,-0.27888886,0.00298351,-0.01156174,-0.009891
 75,-0.00188967,0.00153355,0.00091292,0.00321645,-0.00077849,0.00030843
 ,-0.09517133,0.10106463,0.28997684,-0.03838623,-0.01148679,0.00901300,
 0.00290429,-0.02385620,-0.00351740,0.00063744,-0.00009733,0.00731420,-
 0.00053756,0.00157951,-0.00051632,0.00120934,0.00870322,0.00078010,0.0
 3604680,-0.01941011,-0.33730227,-0.03310795,0.00208922,-0.01197253,-0.
 00387802,-0.00293526,0.00040611,0.00113858,0.00012863,0.00013095,0.000
 36255,-0.00082134,-0.00732612,0.00036687,0.02015320,0.35614254,0.01119
 537,-0.03293070,-0.05447835,-0.00070556,0.01871921,0.00391752,0.004599
 91,0.00197152,0.00166624,0.00102331,0.00020745,-0.00135930,-0.00139231
 ,-0.02653116,0.00040560,-0.01058599,0.03419164,0.05005209,-0.00304993,
 0.01032781,0.01616324,-0.11302611,0.05714702,0.10885174,0.00260701,0.0
 0178518,-0.00081655,0.00583025,-0.00076671,0.00238050,0.00245616,-0.00
 319778,0.00323576,-0.00270495,0.00061940,-0.00270088,0.11188218,-0.008
 48735,0.01012676,0.01548010,0.05960196,-0.11767679,-0.09584237,0.01784
 713,-0.01244000,-0.02504344,-0.00163275,-0.00554885,0.00174403,-0.0033
 7595,-0.00097412,0.00177745,0.00082694,0.00095317,0.00021343,-0.065632
 96,0.12496529,0.01061222,-0.00896090,-0.01247835,0.11123656,-0.0993712
 3,-0.19411685,0.00010949,0.00420633,0.00158612,0.00276400,-0.00036025,
 0.00267398,0.00613204,0.00080533,0.00121240,-0.00330546,0.00093287,-0.
 00100807,-0.12406903,0.10237917,0.20289565,0.00582612,0.00078662,0.002
 38380,0.00264199,-0.00175837,-0.00086139,-0.11281740,-0.05715346,0.108
 67177,-0.00304627,-0.01035377,0.01618907,-0.00058485,-0.00010443,-0.00
 032543,0.00024879,0.00003373,0.00016611,-0.00210001,0.00000657,-0.0021
 4520,0.11164709,0.00165275,-0.00554429,-0.00174092,-0.01782027,-0.0124
 7810,0.02503989,-0.05960903,-0.11791356,0.09604761,0.00846227,0.010124
 46,-0.01544798,0.00016988,0.00013195,0.00015616,-0.00145506,-0.0007290
 9,0.00071890,-0.00001197,0.00109901,-0.00031712,0.06562687,0.12522929,
 0.00276366,0.00036395,0.00267378,0.00011441,-0.00420824,0.00158921,0.1
 1104945,0.09958068,-0.19408904,0.01059773,0.00898322,-0.01247963,-0.00
 046047,-0.00042597,-0.00015078,0.00020652,-0.00010152,0.00014375,-0.00
 214572,0.00031348,-0.00030943,-0.12387605,-0.10261169,0.20286678,0.006
 47724,0.00089098,-0.00051249,-0.00465941,-0.00755578,-0.00022659,-0.01
 011976,-0.00097397,0.02331652,-0.04666418,-0.02542417,0.08155195,0.000
 72960,0.00034168,0.00007061,-0.00049704,0.00011486,-0.00044763,-0.0005
 8471,-0.00017109,-0.00046125,0.00244458,0.00338110,0.00613403,0.067296
 16,0.00241177,-0.00085877,-0.00292079,-0.00162740,-0.00327698,0.001086
 73,0.00171029,0.01440360,-0.01311207,-0.02165755,-0.09401359,0.0933114
 5,-0.00033697,-0.00195657,0.00079091,-0.00005098,0.00029655,0.00015234
 ,0.00010318,0.00013180,0.00042518,0.00320345,-0.00096201,-0.00079471,0
 .02999784,0.09439846,0.00321538,0.00078399,0.00030823,-0.00188723,-0.0
 0153748,0.00091280,0.00296353,0.01157092,-0.00989236,0.09593370,0.0940
 4181,-0.27886060,0.00007196,-0.00079117,0.00048588,-0.00042483,0.00011
 536,0.00050638,-0.00032512,-0.00015670,-0.00015073,0.00323950,-0.00177
 205,0.00121202,-0.09498740,-0.10126515,0.28994615,-0.00053459,-0.00158
 060,-0.00051588,0.00063227,0.00009675,0.00731615,0.00286542,0.02388262
 ,-0.00352097,-0.03844246,0.01202270,0.00895560,-0.00049691,0.00004964,
 -0.00042463,0.00065208,-0.00011009,-0.00000834,0.00024628,0.00145673,0
 .00020658,-0.00270241,-0.00083297,-0.00330394,0.00122350,-0.00868816,0
 .00077952,0.03611935,-0.00012999,0.00012797,-0.00036321,0.00293503,0.0
 0041208,-0.00112572,-0.00206240,-0.01193142,0.00386949,0.01994528,-0.3
 3725687,0.03308371,-0.00011621,0.00029647,-0.00011614,0.00011140,-0.00
 007937,-0.00003099,-0.00003203,-0.00072646,0.00010175,-0.00062557,0.00
 095074,-0.00093851,0.00083696,-0.00734395,-0.00036667,-0.02072665,0.35
 608042,0.00102358,-0.00020540,-0.00135934,0.00460395,-0.00196334,0.001
 66561,-0.00067220,-0.01872324,0.00391546,0.01113919,0.03291068,-0.0544
 6880,-0.00044738,-0.00015316,0.00050634,-0.00000835,0.00003091,0.00032
 215,0.00016739,-0.00071876,0.00014367,-0.00270060,-0.00021794,-0.00100
 822,-0.00143990,0.02652717,0.00040953,-0.01052777,-0.03416681,0.050042
 05,0.05488811,-0.01121464,-0.00023110,-0.03240656,-0.03915547,0.014491
 26,-0.01413878,0.03129448,0.01121648,0.02894359,-0.00506806,-0.0018258
 0,-0.01302218,0.00447667,-0.00711466,0.00079043,-0.00029947,-0.0007336
 7,-0.00149693,-0.00031448,-0.00107100,-0.00095491,0.00042326,-0.000723
 04,-0.00364657,-0.00145148,-0.00269852,-0.00106984,0.00011638,-0.00114
 786,0.15809708,-0.06780830,-0.00877245,-0.00124807,0.02453367,0.043080
 82,-0.01999274,0.01615575,-0.04496729,-0.01812526,-0.06065375,-0.00383
 082,0.00174011,0.00803937,-0.00237427,0.00541400,0.00542071,-0.0003126
 4,0.00404902,0.00198256,0.00029041,0.00157732,0.00234925,-0.00026089,0
 .00133100,0.00685666,0.00162507,0.00440514,0.00023339,-0.00020232,0.00
 091592,0.11665268,0.67544124,0.01787646,-0.00385834,-0.01328792,-0.005
 17220,-0.01060278,0.00405863,-0.00084745,0.01160550,0.00629680,0.01145
 810,-0.00286091,-0.00298864,-0.01069846,0.00289919,-0.00571647,0.00125
 139,-0.00054858,0.00026895,-0.00045403,-0.00013836,-0.00067018,-0.0004
 7358,0.00004486,-0.00019765,-0.00220568,-0.00116249,-0.00081279,-0.000
 47135,-0.00009319,-0.00048037,-0.17166021,0.04216695,0.59413616,0.0288
 2409,0.00512704,-0.00182143,-0.01405372,-0.03123921,0.01117859,-0.0324
 3007,0.03901671,0.01446042,0.05474272,0.01132799,-0.00023186,-0.003636
 63,0.00144248,-0.00269034,-0.00106933,-0.00011771,-0.00114629,-0.00094
 983,-0.00042437,-0.00072065,-0.00149395,0.00031142,-0.00106811,-0.0129
 9884,-0.00449429,-0.00710493,0.00079981,0.00030156,-0.00072616,-0.0725
 3626,0.04318278,0.01235575,0.15851637,0.06071326,-0.00371403,-0.001742
 54,-0.01610098,-0.04505291,0.01813774,-0.02466716,0.04310197,0.0200239
 6,0.06791595,-0.00863077,0.00124746,-0.00686596,0.00161591,-0.00440982
 ,-0.00023498,-0.00020281,-0.00091802,-0.00235032,-0.00026566,-0.001332
 25,-0.00198573,0.00028764,-0.00157909,-0.00805663,-0.00239539,-0.00542
 595,-0.00541824,-0.00032117,-0.00405000,-0.04261974,-0.38576686,-0.015
 22021,-0.11755587,0.67503656,0.01146195,0.00288149,-0.00298850,-0.0008
 2895,-0.01161439,0.00629777,-0.00519457,0.01059891,0.00406292,0.017878
 56,0.00389084,-0.01328630,-0.00220884,0.00115906,-0.00081322,-0.000471
 65,0.00009242,-0.00048053,-0.00047379,-0.00004572,-0.00019780,-0.00045
 458,0.00013769,-0.00067038,-0.01069356,-0.00291755,-0.00571715,0.00124
 961,0.00055073,0.00026848,0.01232177,0.01519875,-0.10481508,-0.1716013
 5,-0.04246146,0.59412666,-0.01371582,-0.00114997,0.00349507,0.00163134
 ,0.00396689,-0.00267377,0.00049663,-0.00491149,-0.00196245,-0.00525892
 ,0.00033576,0.00040120,0.00006920,-0.00077268,0.00046647,0.00006797,0.
 00035548,0.00022818,0.00031468,0.00016016,0.00018163,0.00029276,0.0000
 4949,0.00014742,0.00037665,-0.00002403,0.00021163,0.00002966,-0.000035
 00,-0.00000630,-0.08632993,-0.08063780,0.11076046,0.00557623,0.0091968
 0,0.00022983,0.09508041,0.00249013,0.00100450,-0.00018351,-0.00040487,
 -0.00085403,0.00016525,0.00028699,0.00084785,0.00025640,0.00093650,-0.
 00071258,0.00026739,-0.00002973,0.00013334,-0.00036211,0.00002749,-0.0
 0010102,-0.00011846,-0.00006604,0.00003253,-0.00007503,-0.00004860,-0.
 00003257,-0.00005132,-0.00014916,-0.00002566,-0.00008522,-0.00015568,0
 .00005758,-0.00013307,-0.06987922,-0.12184909,0.09867842,-0.01402478,-
 0.01414457,0.02601480,0.07272098,0.13020770,-0.00714865,-0.00110642,0.
 00070647,0.00065329,0.00247856,-0.00101132,0.00064275,-0.00275826,-0.0
 0110447,-0.00335323,-0.00039001,0.00019568,-0.00072719,0.00007804,0.00
 107959,0.00046738,-0.00006487,0.00005140,0.00017763,0.00003098,0.00030
 930,0.00012639,-0.00004987,0.00008869,0.00033518,0.00008813,0.00012597
 ,-0.00004481,-0.00005619,-0.00004141,0.10808339,0.09789729,-0.21025502
 ,0.00078239,0.00215078,0.00358754,-0.11098808,-0.11244847,0.21902700,-
 0.01437447,-0.00131578,-0.00795229,0.00260092,0.00577152,-0.00397255,0
 .00198938,-0.00483178,-0.00128310,-0.00568197,-0.00060029,0.00046368,-
 0.00022012,0.00003367,0.00009372,0.00074820,0.00007148,0.00044927,0.00
 011209,0.00011024,0.00027067,0.00017140,-0.00007782,0.00011210,0.00077
 465,0.00016570,0.00045335,-0.00013911,-0.00009334,0.00006527,-0.028364
 85,0.00006926,0.03741936,0.00565638,0.00725121,0.00063874,-0.00038314,
 0.00851278,0.01137513,0.03568984,0.00234006,0.00091388,0.00230078,-0.0
 0084451,-0.00077414,0.00061259,-0.00012348,0.00060234,0.00021156,0.000
 91028,-0.00061610,-0.00003268,0.00020013,-0.00014319,-0.00009426,0.000
 04103,-0.00000009,0.00002604,-0.00004276,0.00008725,-0.00006164,-0.000
 08594,-0.00002206,0.00000128,0.00008125,-0.00001370,0.00002601,-0.0001
 6252,0.00003827,-0.00014660,0.00866806,-0.12391174,-0.12348816,0.00572
 391,-0.01403104,-0.02859714,-0.00015947,0.00894428,0.01412979,-0.01547
 166,0.13237988,-0.00295490,-0.00001002,-0.00240748,0.00154206,0.001545
 75,0.00067297,0.00029129,-0.00159009,-0.00040180,-0.00095026,0.0004516
 1,0.00029250,0.00003317,0.00022727,0.00030162,-0.00016541,0.00042056,-
 0.00005666,-0.00016763,-0.00001538,0.00000030,0.00005015,0.00002806,0.
 00002130,0.00025962,0.00009761,0.00014552,0.00000768,0.00000693,0.0000
 9018,0.03949657,-0.12945451,-0.27333420,0.00080217,0.00372200,0.004210
 55,0.00061450,-0.01092499,-0.01502253,-0.03850584,0.13481557,0.2826526
 2,-0.00568164,0.00059121,0.00046364,0.00198056,0.00483446,-0.00128201,
 0.00260960,-0.00576491,-0.00397221,-0.01437191,0.00128947,-0.00794714,
 0.00077512,-0.00016433,0.00045341,-0.00013956,0.00009302,0.00006504,0.
 00017111,0.00007815,0.00011212,0.00011222,-0.00011023,0.00027054,-0.00
 021960,-0.00003380,0.00009357,0.00074836,-0.00007022,0.00044928,0.0056
 8021,-0.00721550,0.00058579,-0.02834945,0.00009604,0.03719807,0.005909
 93,-0.00114866,0.00206530,-0.00449045,0.00075260,-0.00169224,0.0356335
 1,-0.00091929,-0.00061662,0.00003337,0.00012593,0.00061103,-0.00021372
 ,0.00085031,-0.00078268,-0.00061994,-0.00236702,0.00091225,-0.00231438
 ,-0.00007987,-0.00001412,-0.00002521,0.00016221,0.00003872,0.00014671,
 0.00008627,-0.00002176,-0.00000109,0.00004284,0.00008711,0.00006214,-0
 .00020022,-0.00014358,0.00009436,-0.00003967,-0.00000023,-0.00002521,-
 0.00568870,-0.01405807,0.02859520,-0.00850266,-0.12396734,0.12357942,0
 .00184682,-0.00518423,0.00012002,-0.00076355,0.00173174,-0.00041711,0.
 01530384,0.13247795,-0.00094957,-0.00045343,0.00029241,0.00028845,0.00
 159068,-0.00040156,0.00154485,-0.00154311,0.00067261,-0.00295488,0.000
 00517,-0.00240752,0.00025978,-0.00009717,0.00014550,0.00000773,-0.0000
 0693,0.00009021,0.00005021,-0.00002798,0.00002129,-0.00016763,0.000015
 09,0.00000032,0.00003358,-0.00022725,0.00030159,-0.00016468,-0.0004208
 4,-0.00005673,0.00080812,-0.00372330,0.00421432,0.03926284,0.12954925,
 -0.27329544,0.00134130,-0.00109538,0.00192541,-0.00169311,0.00041419,0
 .00090957,-0.03826208,-0.13490895,0.28261113,-0.00525654,-0.00034391,0
 .00040154,0.00048831,0.00491101,-0.00196116,0.00163764,-0.00396183,-0.
 00267389,-0.01371220,0.00112286,0.00349479,0.00037631,0.00002470,0.000
 21144,0.00002933,0.00003495,-0.00000653,0.00029273,-0.00004892,0.00014
 729,0.00031484,-0.00015969,0.00018146,0.00006772,0.00077243,0.00046588
 ,0.00006862,-0.00035520,0.00022787,0.00556739,-0.00916073,0.00027565,-
 0.08659753,0.08068237,0.11094877,-0.00415767,0.00093186,-0.00244687,0.
 00591125,-0.00182698,0.00133909,-0.00036801,0.00014275,0.00059508,0.09
 533780,-0.00094417,-0.00071487,-0.00026680,-0.00028772,0.00085580,-0.0
 0025965,0.00040926,-0.00086003,-0.00017000,-0.00251533,0.00100178,0.00
 018981,0.00014985,-0.00002535,0.00008558,0.00015564,0.00005789,0.00013
 307,0.00004915,-0.00003258,0.00005156,0.00006652,0.00003235,0.00007531
 ,0.00002970,0.00013473,0.00036279,-0.00002725,-0.00010174,0.00011885,0
 .01405973,-0.01413112,-0.02601711,0.06992501,-0.12154954,-0.09846784,-
 0.00094194,0.00167595,-0.00009950,0.00116837,-0.00518559,0.00109672,-0
 .00853115,0.00892981,0.01092996,-0.07276567,0.12991251,-0.00335402,0.0
 0038388,0.00019567,0.00063775,0.00275964,-0.00110407,0.00065778,-0.002
 47729,-0.00101164,-0.00715044,0.00109358,0.00070667,0.00033535,-0.0000
 8757,0.00012594,-0.00004488,0.00005612,-0.00004138,0.00012629,0.000050
 08,0.00008869,0.00017768,-0.00003071,0.00030929,-0.00072699,-0.0000795
 2,0.00107958,0.00046723,0.00006568,0.00005142,0.00078826,-0.00215162,0
 .00358345,0.10826895,-0.09769184,-0.21028951,-0.00244708,0.00009529,0.
 00033769,0.00206560,-0.00011733,0.00192554,0.01139893,-0.01410563,-0.0
 1502311,-0.11120041,0.11223724,0.21906575\\0.00004359,0.00000769,-0.00
 000166,-0.00001206,-0.00001737,0.00001910,-0.00001339,0.00001820,0.000
 02013,0.00004586,-0.00000760,-0.00000155,-0.00000200,-0.00000010,-0.00
 000532,-0.00000119,0.00000113,-0.00000032,-0.00000463,0.,-0.00000290,-
 0.00000473,-0.00000001,-0.00000294,-0.00000142,-0.00000029,-0.00000554
 ,-0.00000147,-0.00000132,-0.00000062,-0.00003123,0.00005011,-0.0000095
 9,-0.00003264,-0.00005041,-0.00000972,0.00000595,0.00000054,-0.0000030
 7,0.00000161,0.00000081,0.00000363,0.00000118,-0.00000103,0.00000380,0
 .00000658,-0.00000035,-0.00000343\\\@
 The archive entry for this job was punched.


 I DO NOT KNOW WHAT I MAY APPEAR TO THE WORLD; BUT TO MYSELF
 I SEEM TO HAVE BEEN ONLY LIKE A BOY PLAYING ON THE SEASHORE,
 AND DIVERTING MYSELF IN NOW AND THEN FINDING A SMOOTHER PEBBLE
 OR A PRETTIER SHELL THAN ORDINARY, WHILST THE GREAT OCEAN OF
 TRUTH LAY ALL UNDISCOVERED BEFORE ME.
                                          -- NEWTON (1642-1726)
 Job cpu time:       0 days  0 hours  6 minutes 53.7 seconds.
 Elapsed time:       0 days  0 hours  0 minutes 15.0 seconds.
 File lengths (MBytes):  RWF=     27 Int=      0 D2E=      0 Chk=      3 Scr=      1
 Normal termination of Gaussian 16 at Mon Apr  8 10:44:59 2024.
