 Entering Gaussian System, Link 0=g16
 Initial command:
 /public/software/apps/Gaussian/g16/l1.exe "/public/home/LLG_HG/tmp/Gau-70823.inp" -scrdir="/public/home/LLG_HG/tmp/"
 Entering Link 1 = /public/software/apps/Gaussian/g16/l1.exe PID=     70824.
  
 Copyright (c) 1988-2019, Gaussian, Inc.  All Rights Reserved.
  
 This is part of the Gaussian(R) 16 program.  It is based on
 the Gaussian(R) 09 system (copyright 2009, Gaussian, Inc.),
 the Gaussian(R) 03 system (copyright 2003, Gaussian, Inc.),
 the Gaussian(R) 98 system (copyright 1998, Gaussian, Inc.),
 the Gaussian(R) 94 system (copyright 1995, Gaussian, Inc.),
 the Gaussian 92(TM) system (copyright 1992, Gaussian, Inc.),
 the Gaussian 90(TM) system (copyright 1990, Gaussian, Inc.),
 the Gaussian 88(TM) system (copyright 1988, Gaussian, Inc.),
 the Gaussian 86(TM) system (copyright 1986, Carnegie Mellon
 University), and the Gaussian 82(TM) system (copyright 1983,
 Carnegie Mellon University). Gaussian is a federally registered
 trademark of Gaussian, Inc.
  
 This software contains proprietary and confidential information,
 including trade secrets, belonging to Gaussian, Inc.
  
 This software is provided under written license and may be
 used, copied, transmitted, or stored only in accord with that
 written license.
  
 The following legend is applicable only to US Government
 contracts under FAR:
  
                    RESTRICTED RIGHTS LEGEND
  
 Use, reproduction and disclosure by the US Government is
 subject to restrictions as set forth in subparagraphs (a)
 and (c) of the Commercial Computer Software - Restricted
 Rights clause in FAR 52.227-19.
  
 Gaussian, Inc.
 340 Quinnipiac St., Bldg. 40, Wallingford CT 06492
  
  
 ---------------------------------------------------------------
 Warning -- This program may not be used in any manner that
 competes with the business of Gaussian, Inc. or will provide
 assistance to any competitor of Gaussian, Inc.  The licensee
 of this program is prohibited from giving any competitor of
 Gaussian, Inc. access to this program.  By using this program,
 the user acknowledges that Gaussian, Inc. is engaged in the
 business of creating and licensing software in the field of
 computational chemistry and represents and warrants to the
 licensee that it is not a competitor of Gaussian, Inc. and that
 it will not use this program in any manner prohibited above.
 ---------------------------------------------------------------
  

 Cite this work as:
 Gaussian 16, Revision C.01,
 M. J. Frisch, G. W. Trucks, H. B. Schlegel, G. E. Scuseria, 
 M. A. Robb, J. R. Cheeseman, G. Scalmani, V. Barone, 
 G. A. Petersson, H. Nakatsuji, X. Li, M. Caricato, A. V. Marenich, 
 J. Bloino, B. G. Janesko, R. Gomperts, B. Mennucci, H. P. Hratchian, 
 J. V. Ortiz, A. F. Izmaylov, J. L. Sonnenberg, D. Williams-Young, 
 F. Ding, F. Lipparini, F. Egidi, J. Goings, B. Peng, A. Petrone, 
 T. Henderson, D. Ranasinghe, V. G. Zakrzewski, J. Gao, N. Rega, 
 G. Zheng, W. Liang, M. Hada, M. Ehara, K. Toyota, R. Fukuda, 
 J. Hasegawa, M. Ishida, T. Nakajima, Y. Honda, O. Kitao, H. Nakai, 
 T. Vreven, K. Throssell, J. A. Montgomery, Jr., J. E. Peralta, 
 F. Ogliaro, M. J. Bearpark, J. J. Heyd, E. N. Brothers, K. N. Kudin, 
 V. N. Staroverov, T. A. Keith, R. Kobayashi, J. Normand, 
 K. Raghavachari, A. P. Rendell, J. C. Burant, S. S. Iyengar, 
 J. Tomasi, M. Cossi, J. M. Millam, M. Klene, C. Adamo, R. Cammi, 
 J. W. Ochterski, R. L. Martin, K. Morokuma, O. Farkas, 
 J. B. Foresman, and D. J. Fox, Gaussian, Inc., Wallingford CT, 2019.
 
 ******************************************
 Gaussian 16:  ES64L-G16RevC.01  3-Jul-2019
                25-Nov-2023 
 ******************************************
 %nprocs=32
 Will use up to   32 processors via shared memory.
 %mem=80GB
 ----------------------------------------------------------
 # opt=(maxstep=1,notrust,gdiis) freq genecp em=gd3bj b3lyp
 ----------------------------------------------------------

 Warning!  Use of Opt=GDIIS is deprecated since it is seldom a good choice.

 1/8=1,9=1,18=20,19=11,26=3,38=1/1,3;
 2/9=110,12=2,17=6,18=5,40=1/2;
 3/5=7,11=2,16=1,17=8,25=1,30=1,71=1,74=-5,124=41/1,2,3;
 4//1;
 5/5=2,38=5/2;
 6/7=2,8=2,9=2,10=2,28=1/1;
 7//1,2,3,16;
 1/8=1,9=1,18=20,19=11,26=3/3(2);
 2/9=110/2;
 99//99;
 2/9=110/2;
 3/5=7,6=1,11=2,16=1,17=8,25=1,30=1,71=1,74=-5,82=7,124=41/1,2,3;
 4/5=5,16=3,69=1/1;
 5/5=2,38=5/2;
 7//1,2,3,16;
 1/8=1,9=1,18=20,19=11,26=3/3(-5);
 2/9=110/2;
 6/7=2,8=2,9=2,10=2,19=2,28=1/1;
 99/9=1/99;
 -------------------
 Title Card Required
 -------------------
 Symbolic Z-matrix:
 Charge =  0 Multiplicity = 1
 Ni                   -0.99906   0.57037  -0.16018 
 C                    -2.8669    0.85596  -0.46194 
 O                    -1.5369   -0.96887  -2.39015 
 P                     0.87012   1.37217   0.60601 
 O                    -0.70275  -1.29707   0.68418 
 C                     2.42276  -0.98205   0.85327 
 C                     2.50194   0.50312   0.47185 
 H                     1.82151  -1.05248   1.76502 
 H                     2.87099   0.62017  -0.54826 
 H                     3.2174    0.99545   1.13777 
 C                     1.36635   3.07738   0.16306 
 C                     1.00559   4.17252   0.95526 
 C                     2.02198   3.30817  -1.05262 
 C                     1.30007   5.4689    0.54219 
 H                     0.48484   4.00841   1.89343 
 C                     2.31954   4.60452  -1.45951 
 H                     2.28918   2.47509  -1.69595 
 C                     1.95842   5.6897   -0.66437 
 H                     1.01273   6.30942   1.16763 
 H                     2.83421   4.76579  -2.40287 
 H                     2.18825   6.70191  -0.98402 
 C                     0.70209   1.43227   2.43482 
 C                    -0.47361   0.94398   3.01236 
 C                     1.71429   1.92554   3.26772 
 C                    -0.63744   0.94819   4.39534 
 H                    -1.26334   0.56598   2.37009 
 C                     1.55314   1.92517   4.64878 
 H                     2.62514   2.33224   2.83522 
 C                     0.37626   1.43496   5.21447 
 H                    -1.56547   0.57873   4.82199 
 H                     2.34364   2.31271   5.28525 
 H                     0.25095   1.43985   6.29369 
 S                     0.15905  -2.36915   0.02923 
 C                     3.80528  -1.53372   1.16168 
 C                     4.90038  -1.23564   0.34355 
 C                     4.01995  -2.3373    2.28348 
 C                     6.16088  -1.75534   0.61917 
 H                     4.76878  -0.58398  -0.51466 
 C                     5.28095  -2.85487   2.56681 
 H                     3.19698  -2.55093   2.95822 
 C                     6.35547  -2.57192   1.72993 
 H                     6.99567  -1.51346  -0.03242 
 H                     5.42317  -3.47266   3.44867 
 H                     7.34018  -2.97433   1.94803 
 C                     0.19093  -3.66655   1.37083 
 C                     1.356    -4.59611   1.06823 
 H                     2.31877  -4.08919   1.16941 
 H                     1.33638  -5.43975   1.76615 
 H                     1.2864   -5.00619   0.05429 
 C                    -1.14749  -4.38486   1.1845 
 H                    -1.19348  -5.23416   1.87405 
 H                    -1.9841   -3.71743   1.40363 
 H                    -1.26619  -4.76847   0.16603 
 C                     0.24688  -3.04427   2.75647 
 H                    -0.48485  -2.23746   2.84416 
 H                     0.01501  -3.81193   3.50259 
 H                     1.23156  -2.64141   2.99521 
 N                     1.72484  -1.80296  -0.15329 
 C                     2.36132  -2.14481  -1.42367 
 H                     1.72433  -2.90102  -1.89676 
 H                     3.32146  -2.63343  -1.22086 
 C                     2.56054  -0.99835  -2.38787 
 C                     3.80078  -0.77349  -2.98225 
 C                     1.49522  -0.16073  -2.72802 
 C                     3.98253   0.28073  -3.87607 
 H                     4.63858  -1.42401  -2.73995 
 C                     1.67735   0.88214  -3.62544 
 H                     0.51856  -0.31316  -2.28141 
 C                     2.92588   1.12819  -4.20981 
 H                     4.96203   0.44771  -4.31751 
 H                     0.8346    1.52529  -3.86678 
 C                     3.10705   2.2646   -5.17498 
 H                     2.62133   3.17548  -4.81022 
 H                     4.16472   2.48499  -5.34163 
 H                     2.65915   2.02982  -6.14741 
 C                    -4.91963   0.7169    3.28815 
 C                    -4.13401   1.80468   2.9534 
 C                    -3.49353   1.88886   1.70477 
 C                    -3.62879   0.81401   0.78307 
 C                    -4.47227  -0.25622   1.12319 
 C                    -5.10107  -0.31069   2.3556 
 H                    -2.69176   3.88285   2.03545 
 H                    -5.40776   0.67063   4.25736 
 H                    -4.00939   2.62791   3.65311 
 C                    -2.73208   3.05178   1.33627 
 H                    -4.63307  -1.0535    0.4099 
 H                    -5.73814  -1.15746   2.59524 
 C                    -2.07975   2.03028  -0.81191 
 C                    -2.10249   3.12609   0.13907 
 H                    -1.57157   4.03361  -0.13869 
 C                    -1.7954    2.39413  -2.25122 
 H                    -0.96236   3.104    -2.2869 
 H                    -1.51538   1.52959  -2.85674 
 H                    -2.66555   2.86788  -2.72492 
 S                    -2.98056  -0.87295  -2.51475 
 O                    -3.61998  -0.72522  -3.80167 
 O                    -3.60981   0.20857  -1.54714 
 C                    -3.63139  -2.44406  -1.80013 
 F                    -4.95312  -2.39814  -1.70835 
 F                    -3.11667  -2.65004  -0.59241 
 F                    -3.27691  -3.4449   -2.59637 
 

 GradGradGradGradGradGradGradGradGradGradGradGradGradGradGradGradGradGrad
 Berny optimization.
 Initialization pass.
                           ----------------------------
                           !    Initial Parameters    !
                           ! (Angstroms and Degrees)  !
 --------------------------                            --------------------------
 ! Name  Definition              Value          Derivative Info.                !
 --------------------------------------------------------------------------------
 ! R1    R(1,2)                  1.9135         estimate D2E/DX2                !
 ! R2    R(1,4)                  2.1734         estimate D2E/DX2                !
 ! R3    R(1,5)                  2.0708         estimate D2E/DX2                !
 ! R4    R(1,88)                 1.9298         estimate D2E/DX2                !
 ! R5    R(2,79)                 1.4602         estimate D2E/DX2                !
 ! R6    R(2,88)                 1.4564         estimate D2E/DX2                !
 ! R7    R(2,97)                 1.4658         estimate D2E/DX2                !
 ! R8    R(3,95)                 1.4522         estimate D2E/DX2                !
 ! R9    R(4,7)                  1.8537         estimate D2E/DX2                !
 ! R10   R(4,11)                 1.8303         estimate D2E/DX2                !
 ! R11   R(4,22)                 1.8375         estimate D2E/DX2                !
 ! R12   R(5,33)                 1.5235         estimate D2E/DX2                !
 ! R13   R(6,7)                  1.5354         estimate D2E/DX2                !
 ! R14   R(6,8)                  1.0944         estimate D2E/DX2                !
 ! R15   R(6,34)                 1.5201         estimate D2E/DX2                !
 ! R16   R(6,58)                 1.4745         estimate D2E/DX2                !
 ! R17   R(7,9)                  1.0911         estimate D2E/DX2                !
 ! R18   R(7,10)                 1.0944         estimate D2E/DX2                !
 ! R19   R(11,12)                1.3989         estimate D2E/DX2                !
 ! R20   R(11,13)                1.4004         estimate D2E/DX2                !
 ! R21   R(12,14)                1.3921         estimate D2E/DX2                !
 ! R22   R(12,15)                1.0855         estimate D2E/DX2                !
 ! R23   R(13,16)                1.3909         estimate D2E/DX2                !
 ! R24   R(13,17)                1.086          estimate D2E/DX2                !
 ! R25   R(14,18)                1.3921         estimate D2E/DX2                !
 ! R26   R(14,19)                1.0864         estimate D2E/DX2                !
 ! R27   R(16,18)                1.3929         estimate D2E/DX2                !
 ! R28   R(16,20)                1.0867         estimate D2E/DX2                !
 ! R29   R(18,21)                1.0861         estimate D2E/DX2                !
 ! R30   R(22,23)                1.3979         estimate D2E/DX2                !
 ! R31   R(22,24)                1.4006         estimate D2E/DX2                !
 ! R32   R(23,25)                1.3927         estimate D2E/DX2                !
 ! R33   R(23,26)                1.0858         estimate D2E/DX2                !
 ! R34   R(24,27)                1.3904         estimate D2E/DX2                !
 ! R35   R(24,28)                1.0872         estimate D2E/DX2                !
 ! R36   R(25,29)                1.3912         estimate D2E/DX2                !
 ! R37   R(25,30)                1.0862         estimate D2E/DX2                !
 ! R38   R(27,29)                1.3948         estimate D2E/DX2                !
 ! R39   R(27,31)                1.0864         estimate D2E/DX2                !
 ! R40   R(29,32)                1.0865         estimate D2E/DX2                !
 ! R41   R(33,45)                1.8666         estimate D2E/DX2                !
 ! R42   R(33,58)                1.675          estimate D2E/DX2                !
 ! R43   R(34,35)                1.3991         estimate D2E/DX2                !
 ! R44   R(34,36)                1.3965         estimate D2E/DX2                !
 ! R45   R(35,37)                1.391          estimate D2E/DX2                !
 ! R46   R(35,38)                1.0856         estimate D2E/DX2                !
 ! R47   R(36,39)                1.3922         estimate D2E/DX2                !
 ! R48   R(36,40)                1.0855         estimate D2E/DX2                !
 ! R49   R(37,41)                1.3923         estimate D2E/DX2                !
 ! R50   R(37,42)                1.0863         estimate D2E/DX2                !
 ! R51   R(39,41)                1.3911         estimate D2E/DX2                !
 ! R52   R(39,43)                1.0861         estimate D2E/DX2                !
 ! R53   R(41,44)                1.0859         estimate D2E/DX2                !
 ! R54   R(45,46)                1.5209         estimate D2E/DX2                !
 ! R55   R(45,50)                1.5304         estimate D2E/DX2                !
 ! R56   R(45,54)                1.52           estimate D2E/DX2                !
 ! R57   R(46,47)                1.0928         estimate D2E/DX2                !
 ! R58   R(46,48)                1.0951         estimate D2E/DX2                !
 ! R59   R(46,49)                1.0959         estimate D2E/DX2                !
 ! R60   R(50,51)                1.0949         estimate D2E/DX2                !
 ! R61   R(50,52)                1.0924         estimate D2E/DX2                !
 ! R62   R(50,53)                1.0948         estimate D2E/DX2                !
 ! R63   R(54,55)                1.0927         estimate D2E/DX2                !
 ! R64   R(54,56)                1.0953         estimate D2E/DX2                !
 ! R65   R(54,57)                1.0904         estimate D2E/DX2                !
 ! R66   R(58,59)                1.4615         estimate D2E/DX2                !
 ! R67   R(59,60)                1.0961         estimate D2E/DX2                !
 ! R68   R(59,61)                1.0962         estimate D2E/DX2                !
 ! R69   R(59,62)                1.5112         estimate D2E/DX2                !
 ! R70   R(62,63)                1.3936         estimate D2E/DX2                !
 ! R71   R(62,64)                1.3972         estimate D2E/DX2                !
 ! R72   R(63,65)                1.394          estimate D2E/DX2                !
 ! R73   R(63,66)                1.088          estimate D2E/DX2                !
 ! R74   R(64,67)                1.3878         estimate D2E/DX2                !
 ! R75   R(64,68)                1.0847         estimate D2E/DX2                !
 ! R76   R(65,69)                1.395          estimate D2E/DX2                !
 ! R77   R(65,70)                1.0873         estimate D2E/DX2                !
 ! R78   R(67,69)                1.4003         estimate D2E/DX2                !
 ! R79   R(67,71)                1.0873         estimate D2E/DX2                !
 ! R80   R(69,72)                1.5019         estimate D2E/DX2                !
 ! R81   R(72,73)                1.0948         estimate D2E/DX2                !
 ! R82   R(72,74)                1.0932         estimate D2E/DX2                !
 ! R83   R(72,75)                1.0961         estimate D2E/DX2                !
 ! R84   R(76,77)                1.3829         estimate D2E/DX2                !
 ! R85   R(76,81)                1.3995         estimate D2E/DX2                !
 ! R86   R(76,83)                1.0862         estimate D2E/DX2                !
 ! R87   R(77,78)                1.4058         estimate D2E/DX2                !
 ! R88   R(77,84)                1.0876         estimate D2E/DX2                !
 ! R89   R(78,79)                1.4224         estimate D2E/DX2                !
 ! R90   R(78,85)                1.438          estimate D2E/DX2                !
 ! R91   R(79,80)                1.4045         estimate D2E/DX2                !
 ! R92   R(80,81)                1.3846         estimate D2E/DX2                !
 ! R93   R(80,86)                1.0818         estimate D2E/DX2                !
 ! R94   R(81,87)                1.0864         estimate D2E/DX2                !
 ! R95   R(82,85)                1.0868         estimate D2E/DX2                !
 ! R96   R(85,89)                1.3547         estimate D2E/DX2                !
 ! R97   R(88,89)                1.4511         estimate D2E/DX2                !
 ! R98   R(88,91)                1.5116         estimate D2E/DX2                !
 ! R99   R(89,90)                1.0875         estimate D2E/DX2                !
 ! R100  R(91,92)                1.095          estimate D2E/DX2                !
 ! R101  R(91,93)                1.092          estimate D2E/DX2                !
 ! R102  R(91,94)                1.0982         estimate D2E/DX2                !
 ! R103  R(95,96)                1.4446         estimate D2E/DX2                !
 ! R104  R(95,97)                1.5817         estimate D2E/DX2                !
 ! R105  R(95,98)                1.8446         estimate D2E/DX2                !
 ! R106  R(98,99)                1.3257         estimate D2E/DX2                !
 ! R107  R(98,100)               1.3289         estimate D2E/DX2                !
 ! R108  R(98,101)               1.3272         estimate D2E/DX2                !
 ! A1    A(2,1,4)              147.1436         estimate D2E/DX2                !
 ! A2    A(2,1,5)              109.7901         estimate D2E/DX2                !
 ! A3    A(4,1,5)               93.7778         estimate D2E/DX2                !
 ! A4    A(4,1,88)             108.7589         estimate D2E/DX2                !
 ! A5    A(5,1,88)             154.1688         estimate D2E/DX2                !
 ! A6    A(1,2,79)             111.7505         estimate D2E/DX2                !
 ! A7    A(1,2,97)             123.0627         estimate D2E/DX2                !
 ! A8    A(79,2,88)            120.6665         estimate D2E/DX2                !
 ! A9    A(79,2,97)            110.7378         estimate D2E/DX2                !
 ! A10   A(88,2,97)            116.8805         estimate D2E/DX2                !
 ! A11   A(1,4,7)              123.9603         estimate D2E/DX2                !
 ! A12   A(1,4,11)             119.4416         estimate D2E/DX2                !
 ! A13   A(1,4,22)             106.5158         estimate D2E/DX2                !
 ! A14   A(7,4,11)             100.4045         estimate D2E/DX2                !
 ! A15   A(7,4,22)              99.6642         estimate D2E/DX2                !
 ! A16   A(11,4,22)            103.6021         estimate D2E/DX2                !
 ! A17   A(1,5,33)             122.7009         estimate D2E/DX2                !
 ! A18   A(7,6,8)              107.3097         estimate D2E/DX2                !
 ! A19   A(7,6,34)             110.7654         estimate D2E/DX2                !
 ! A20   A(7,6,58)             113.1626         estimate D2E/DX2                !
 ! A21   A(8,6,34)             107.8948         estimate D2E/DX2                !
 ! A22   A(8,6,58)             105.833          estimate D2E/DX2                !
 ! A23   A(34,6,58)            111.5264         estimate D2E/DX2                !
 ! A24   A(4,7,6)              112.9617         estimate D2E/DX2                !
 ! A25   A(4,7,9)              108.3687         estimate D2E/DX2                !
 ! A26   A(4,7,10)             108.6967         estimate D2E/DX2                !
 ! A27   A(6,7,9)              110.6991         estimate D2E/DX2                !
 ! A28   A(6,7,10)             108.5234         estimate D2E/DX2                !
 ! A29   A(9,7,10)             107.4275         estimate D2E/DX2                !
 ! A30   A(4,11,12)            121.4903         estimate D2E/DX2                !
 ! A31   A(4,11,13)            119.3775         estimate D2E/DX2                !
 ! A32   A(12,11,13)           118.9024         estimate D2E/DX2                !
 ! A33   A(11,12,14)           120.4261         estimate D2E/DX2                !
 ! A34   A(11,12,15)           119.6559         estimate D2E/DX2                !
 ! A35   A(14,12,15)           119.9156         estimate D2E/DX2                !
 ! A36   A(11,13,16)           120.512          estimate D2E/DX2                !
 ! A37   A(11,13,17)           120.2019         estimate D2E/DX2                !
 ! A38   A(16,13,17)           119.2786         estimate D2E/DX2                !
 ! A39   A(12,14,18)           120.3254         estimate D2E/DX2                !
 ! A40   A(12,14,19)           119.5851         estimate D2E/DX2                !
 ! A41   A(18,14,19)           120.0895         estimate D2E/DX2                !
 ! A42   A(13,16,18)           120.2418         estimate D2E/DX2                !
 ! A43   A(13,16,20)           119.5776         estimate D2E/DX2                !
 ! A44   A(18,16,20)           120.1806         estimate D2E/DX2                !
 ! A45   A(14,18,16)           119.5902         estimate D2E/DX2                !
 ! A46   A(14,18,21)           120.1974         estimate D2E/DX2                !
 ! A47   A(16,18,21)           120.2124         estimate D2E/DX2                !
 ! A48   A(4,22,23)            118.4677         estimate D2E/DX2                !
 ! A49   A(4,22,24)            122.5003         estimate D2E/DX2                !
 ! A50   A(23,22,24)           119.0222         estimate D2E/DX2                !
 ! A51   A(22,23,25)           120.54           estimate D2E/DX2                !
 ! A52   A(22,23,26)           119.2681         estimate D2E/DX2                !
 ! A53   A(25,23,26)           120.1908         estimate D2E/DX2                !
 ! A54   A(22,24,27)           120.4521         estimate D2E/DX2                !
 ! A55   A(22,24,28)           120.0419         estimate D2E/DX2                !
 ! A56   A(27,24,28)           119.4928         estimate D2E/DX2                !
 ! A57   A(23,25,29)           120.0026         estimate D2E/DX2                !
 ! A58   A(23,25,30)           119.3112         estimate D2E/DX2                !
 ! A59   A(29,25,30)           120.6829         estimate D2E/DX2                !
 ! A60   A(24,27,29)           120.0491         estimate D2E/DX2                !
 ! A61   A(24,27,31)           119.8342         estimate D2E/DX2                !
 ! A62   A(29,27,31)           120.1158         estimate D2E/DX2                !
 ! A63   A(25,29,27)           119.9329         estimate D2E/DX2                !
 ! A64   A(25,29,32)           120.1584         estimate D2E/DX2                !
 ! A65   A(27,29,32)           119.9077         estimate D2E/DX2                !
 ! A66   A(5,33,45)            100.9406         estimate D2E/DX2                !
 ! A67   A(5,33,58)            109.7415         estimate D2E/DX2                !
 ! A68   A(45,33,58)           107.2959         estimate D2E/DX2                !
 ! A69   A(6,34,35)            121.058          estimate D2E/DX2                !
 ! A70   A(6,34,36)            120.7706         estimate D2E/DX2                !
 ! A71   A(35,34,36)           118.1646         estimate D2E/DX2                !
 ! A72   A(34,35,37)           120.9188         estimate D2E/DX2                !
 ! A73   A(34,35,38)           119.6889         estimate D2E/DX2                !
 ! A74   A(37,35,38)           119.3908         estimate D2E/DX2                !
 ! A75   A(34,36,39)           121.1062         estimate D2E/DX2                !
 ! A76   A(34,36,40)           119.7386         estimate D2E/DX2                !
 ! A77   A(39,36,40)           119.1468         estimate D2E/DX2                !
 ! A78   A(35,37,41)           120.2551         estimate D2E/DX2                !
 ! A79   A(35,37,42)           119.6275         estimate D2E/DX2                !
 ! A80   A(41,37,42)           120.1152         estimate D2E/DX2                !
 ! A81   A(36,39,41)           120.1057         estimate D2E/DX2                !
 ! A82   A(36,39,43)           119.691          estimate D2E/DX2                !
 ! A83   A(41,39,43)           120.201          estimate D2E/DX2                !
 ! A84   A(37,41,39)           119.4261         estimate D2E/DX2                !
 ! A85   A(37,41,44)           120.2864         estimate D2E/DX2                !
 ! A86   A(39,41,44)           120.2831         estimate D2E/DX2                !
 ! A87   A(33,45,46)           107.1521         estimate D2E/DX2                !
 ! A88   A(33,45,50)           102.932          estimate D2E/DX2                !
 ! A89   A(33,45,54)           111.7946         estimate D2E/DX2                !
 ! A90   A(46,45,50)           111.0305         estimate D2E/DX2                !
 ! A91   A(46,45,54)           113.7915         estimate D2E/DX2                !
 ! A92   A(50,45,54)           109.5933         estimate D2E/DX2                !
 ! A93   A(45,46,47)           111.899          estimate D2E/DX2                !
 ! A94   A(45,46,48)           109.2892         estimate D2E/DX2                !
 ! A95   A(45,46,49)           111.3542         estimate D2E/DX2                !
 ! A96   A(47,46,48)           108.3097         estimate D2E/DX2                !
 ! A97   A(47,46,49)           108.372          estimate D2E/DX2                !
 ! A98   A(48,46,49)           107.4719         estimate D2E/DX2                !
 ! A99   A(45,50,51)           108.9124         estimate D2E/DX2                !
 ! A100  A(45,50,52)           111.013          estimate D2E/DX2                !
 ! A101  A(45,50,53)           111.8736         estimate D2E/DX2                !
 ! A102  A(51,50,52)           108.385          estimate D2E/DX2                !
 ! A103  A(51,50,53)           108.0304         estimate D2E/DX2                !
 ! A104  A(52,50,53)           108.5217         estimate D2E/DX2                !
 ! A105  A(45,54,55)           110.5356         estimate D2E/DX2                !
 ! A106  A(45,54,56)           109.0416         estimate D2E/DX2                !
 ! A107  A(45,54,57)           112.5879         estimate D2E/DX2                !
 ! A108  A(55,54,56)           108.7258         estimate D2E/DX2                !
 ! A109  A(55,54,57)           108.3225         estimate D2E/DX2                !
 ! A110  A(56,54,57)           107.5159         estimate D2E/DX2                !
 ! A111  A(6,58,33)            123.7988         estimate D2E/DX2                !
 ! A112  A(6,58,59)            121.1633         estimate D2E/DX2                !
 ! A113  A(33,58,59)           115.01           estimate D2E/DX2                !
 ! A114  A(58,59,60)           106.4673         estimate D2E/DX2                !
 ! A115  A(58,59,61)           108.9584         estimate D2E/DX2                !
 ! A116  A(58,59,62)           115.7582         estimate D2E/DX2                !
 ! A117  A(60,59,61)           106.3394         estimate D2E/DX2                !
 ! A118  A(60,59,62)           108.9426         estimate D2E/DX2                !
 ! A119  A(61,59,62)           109.9215         estimate D2E/DX2                !
 ! A120  A(59,62,63)           120.7876         estimate D2E/DX2                !
 ! A121  A(59,62,64)           120.6383         estimate D2E/DX2                !
 ! A122  A(63,62,64)           118.5553         estimate D2E/DX2                !
 ! A123  A(62,63,65)           120.765          estimate D2E/DX2                !
 ! A124  A(62,63,66)           119.5936         estimate D2E/DX2                !
 ! A125  A(65,63,66)           119.6397         estimate D2E/DX2                !
 ! A126  A(62,64,67)           120.52           estimate D2E/DX2                !
 ! A127  A(62,64,68)           120.1349         estimate D2E/DX2                !
 ! A128  A(67,64,68)           119.3405         estimate D2E/DX2                !
 ! A129  A(63,65,69)           120.934          estimate D2E/DX2                !
 ! A130  A(63,65,70)           119.5981         estimate D2E/DX2                !
 ! A131  A(69,65,70)           119.4676         estimate D2E/DX2                !
 ! A132  A(64,67,69)           121.2579         estimate D2E/DX2                !
 ! A133  A(64,67,71)           119.0986         estimate D2E/DX2                !
 ! A134  A(69,67,71)           119.6391         estimate D2E/DX2                !
 ! A135  A(65,69,67)           117.9541         estimate D2E/DX2                !
 ! A136  A(65,69,72)           121.4682         estimate D2E/DX2                !
 ! A137  A(67,69,72)           120.5752         estimate D2E/DX2                !
 ! A138  A(69,72,73)           111.2165         estimate D2E/DX2                !
 ! A139  A(69,72,74)           111.5438         estimate D2E/DX2                !
 ! A140  A(69,72,75)           111.0248         estimate D2E/DX2                !
 ! A141  A(73,72,74)           108.1974         estimate D2E/DX2                !
 ! A142  A(73,72,75)           107.0078         estimate D2E/DX2                !
 ! A143  A(74,72,75)           107.6562         estimate D2E/DX2                !
 ! A144  A(77,76,81)           119.3347         estimate D2E/DX2                !
 ! A145  A(77,76,83)           120.3179         estimate D2E/DX2                !
 ! A146  A(81,76,83)           120.3351         estimate D2E/DX2                !
 ! A147  A(76,77,78)           121.3925         estimate D2E/DX2                !
 ! A148  A(76,77,84)           120.314          estimate D2E/DX2                !
 ! A149  A(78,77,84)           118.2877         estimate D2E/DX2                !
 ! A150  A(77,78,79)           119.1417         estimate D2E/DX2                !
 ! A151  A(77,78,85)           121.1482         estimate D2E/DX2                !
 ! A152  A(79,78,85)           119.696          estimate D2E/DX2                !
 ! A153  A(2,79,78)            118.762          estimate D2E/DX2                !
 ! A154  A(2,79,80)            122.8009         estimate D2E/DX2                !
 ! A155  A(78,79,80)           118.4257         estimate D2E/DX2                !
 ! A156  A(79,80,81)           121.216          estimate D2E/DX2                !
 ! A157  A(79,80,86)           119.419          estimate D2E/DX2                !
 ! A158  A(81,80,86)           119.3649         estimate D2E/DX2                !
 ! A159  A(76,81,80)           120.3538         estimate D2E/DX2                !
 ! A160  A(76,81,87)           120.0887         estimate D2E/DX2                !
 ! A161  A(80,81,87)           119.5574         estimate D2E/DX2                !
 ! A162  A(78,85,82)           118.2405         estimate D2E/DX2                !
 ! A163  A(78,85,89)           121.1251         estimate D2E/DX2                !
 ! A164  A(82,85,89)           120.6206         estimate D2E/DX2                !
 ! A165  A(1,88,89)            111.0234         estimate D2E/DX2                !
 ! A166  A(1,88,91)            113.4743         estimate D2E/DX2                !
 ! A167  A(2,88,89)            116.2922         estimate D2E/DX2                !
 ! A168  A(2,88,91)            121.6392         estimate D2E/DX2                !
 ! A169  A(89,88,91)           116.4355         estimate D2E/DX2                !
 ! A170  A(85,89,88)           123.0259         estimate D2E/DX2                !
 ! A171  A(85,89,90)           119.8938         estimate D2E/DX2                !
 ! A172  A(88,89,90)           117.0751         estimate D2E/DX2                !
 ! A173  A(88,91,92)           109.2791         estimate D2E/DX2                !
 ! A174  A(88,91,93)           112.6843         estimate D2E/DX2                !
 ! A175  A(88,91,94)           111.439          estimate D2E/DX2                !
 ! A176  A(92,91,93)           107.4625         estimate D2E/DX2                !
 ! A177  A(92,91,94)           108.0029         estimate D2E/DX2                !
 ! A178  A(93,91,94)           107.7905         estimate D2E/DX2                !
 ! A179  A(3,95,96)            121.5487         estimate D2E/DX2                !
 ! A180  A(3,95,97)            112.8392         estimate D2E/DX2                !
 ! A181  A(3,95,98)            105.1445         estimate D2E/DX2                !
 ! A182  A(96,95,97)           107.3949         estimate D2E/DX2                !
 ! A183  A(96,95,98)           106.0251         estimate D2E/DX2                !
 ! A184  A(97,95,98)           101.8306         estimate D2E/DX2                !
 ! A185  A(2,97,95)            123.5902         estimate D2E/DX2                !
 ! A186  A(95,98,99)           110.4311         estimate D2E/DX2                !
 ! A187  A(95,98,100)          110.331          estimate D2E/DX2                !
 ! A188  A(95,98,101)          108.399          estimate D2E/DX2                !
 ! A189  A(99,98,100)          109.1852         estimate D2E/DX2                !
 ! A190  A(99,98,101)          109.509          estimate D2E/DX2                !
 ! A191  A(100,98,101)         108.9603         estimate D2E/DX2                !
 ! D1    D(4,1,2,79)           -72.38           estimate D2E/DX2                !
 ! D2    D(4,1,2,97)           152.0091         estimate D2E/DX2                !
 ! D3    D(5,1,2,79)            60.9501         estimate D2E/DX2                !
 ! D4    D(5,1,2,97)           -74.6607         estimate D2E/DX2                !
 ! D5    D(2,1,4,7)           -175.5209         estimate D2E/DX2                !
 ! D6    D(2,1,4,11)           -46.4585         estimate D2E/DX2                !
 ! D7    D(2,1,4,22)            70.2234         estimate D2E/DX2                !
 ! D8    D(5,1,4,7)             47.7887         estimate D2E/DX2                !
 ! D9    D(5,1,4,11)           176.8512         estimate D2E/DX2                !
 ! D10   D(5,1,4,22)           -66.467          estimate D2E/DX2                !
 ! D11   D(88,1,4,7)          -145.0314         estimate D2E/DX2                !
 ! D12   D(88,1,4,11)          -15.9689         estimate D2E/DX2                !
 ! D13   D(88,1,4,22)          100.7129         estimate D2E/DX2                !
 ! D14   D(2,1,5,33)           120.8895         estimate D2E/DX2                !
 ! D15   D(4,1,5,33)           -82.408          estimate D2E/DX2                !
 ! D16   D(88,1,5,33)          126.4209         estimate D2E/DX2                !
 ! D17   D(4,1,88,89)          -46.2221         estimate D2E/DX2                !
 ! D18   D(4,1,88,91)           87.1614         estimate D2E/DX2                !
 ! D19   D(5,1,88,89)          103.2378         estimate D2E/DX2                !
 ! D20   D(5,1,88,91)         -123.3787         estimate D2E/DX2                !
 ! D21   D(1,2,79,78)           71.3381         estimate D2E/DX2                !
 ! D22   D(1,2,79,80)         -107.4085         estimate D2E/DX2                !
 ! D23   D(88,2,79,78)          -5.6159         estimate D2E/DX2                !
 ! D24   D(88,2,79,80)         175.6375         estimate D2E/DX2                !
 ! D25   D(97,2,79,78)        -147.4816         estimate D2E/DX2                !
 ! D26   D(97,2,79,80)          33.7718         estimate D2E/DX2                !
 ! D27   D(79,2,88,89)           0.1152         estimate D2E/DX2                !
 ! D28   D(79,2,88,91)        -152.4661         estimate D2E/DX2                !
 ! D29   D(97,2,88,89)         139.7652         estimate D2E/DX2                !
 ! D30   D(97,2,88,91)         -12.8161         estimate D2E/DX2                !
 ! D31   D(1,2,97,95)            4.7503         estimate D2E/DX2                !
 ! D32   D(79,2,97,95)        -131.2434         estimate D2E/DX2                !
 ! D33   D(88,2,97,95)          85.3042         estimate D2E/DX2                !
 ! D34   D(1,4,7,6)            -45.8934         estimate D2E/DX2                !
 ! D35   D(1,4,7,9)             77.1429         estimate D2E/DX2                !
 ! D36   D(1,4,7,10)          -166.3998         estimate D2E/DX2                !
 ! D37   D(11,4,7,6)           177.5383         estimate D2E/DX2                !
 ! D38   D(11,4,7,9)           -59.4254         estimate D2E/DX2                !
 ! D39   D(11,4,7,10)           57.0319         estimate D2E/DX2                !
 ! D40   D(22,4,7,6)            71.6466         estimate D2E/DX2                !
 ! D41   D(22,4,7,9)          -165.3171         estimate D2E/DX2                !
 ! D42   D(22,4,7,10)          -48.8598         estimate D2E/DX2                !
 ! D43   D(1,4,11,12)           90.7631         estimate D2E/DX2                !
 ! D44   D(1,4,11,13)          -83.6668         estimate D2E/DX2                !
 ! D45   D(7,4,11,12)         -130.1399         estimate D2E/DX2                !
 ! D46   D(7,4,11,13)           55.4302         estimate D2E/DX2                !
 ! D47   D(22,4,11,12)         -27.4289         estimate D2E/DX2                !
 ! D48   D(22,4,11,13)         158.1412         estimate D2E/DX2                !
 ! D49   D(1,4,22,23)            2.4956         estimate D2E/DX2                !
 ! D50   D(1,4,22,24)         -178.6534         estimate D2E/DX2                !
 ! D51   D(7,4,22,23)         -127.411          estimate D2E/DX2                !
 ! D52   D(7,4,22,24)           51.44           estimate D2E/DX2                !
 ! D53   D(11,4,22,23)         129.3104         estimate D2E/DX2                !
 ! D54   D(11,4,22,24)         -51.8386         estimate D2E/DX2                !
 ! D55   D(1,5,33,45)          172.8575         estimate D2E/DX2                !
 ! D56   D(1,5,33,58)           59.8352         estimate D2E/DX2                !
 ! D57   D(8,6,7,4)            -44.2356         estimate D2E/DX2                !
 ! D58   D(8,6,7,9)           -165.9682         estimate D2E/DX2                !
 ! D59   D(8,6,7,10)            76.3697         estimate D2E/DX2                !
 ! D60   D(34,6,7,4)          -161.7762         estimate D2E/DX2                !
 ! D61   D(34,6,7,9)            76.4913         estimate D2E/DX2                !
 ! D62   D(34,6,7,10)          -41.1709         estimate D2E/DX2                !
 ! D63   D(58,6,7,4)            72.1343         estimate D2E/DX2                !
 ! D64   D(58,6,7,9)           -49.5982         estimate D2E/DX2                !
 ! D65   D(58,6,7,10)         -167.2604         estimate D2E/DX2                !
 ! D66   D(7,6,34,35)          -44.161          estimate D2E/DX2                !
 ! D67   D(7,6,34,36)          134.8724         estimate D2E/DX2                !
 ! D68   D(8,6,34,35)         -161.3428         estimate D2E/DX2                !
 ! D69   D(8,6,34,36)           17.6906         estimate D2E/DX2                !
 ! D70   D(58,6,34,35)          82.836          estimate D2E/DX2                !
 ! D71   D(58,6,34,36)         -98.1306         estimate D2E/DX2                !
 ! D72   D(7,6,58,33)         -103.8919         estimate D2E/DX2                !
 ! D73   D(7,6,58,59)           74.088          estimate D2E/DX2                !
 ! D74   D(8,6,58,33)           13.3478         estimate D2E/DX2                !
 ! D75   D(8,6,58,59)         -168.6723         estimate D2E/DX2                !
 ! D76   D(34,6,58,33)         130.4254         estimate D2E/DX2                !
 ! D77   D(34,6,58,59)         -51.5947         estimate D2E/DX2                !
 ! D78   D(4,11,12,14)        -174.7375         estimate D2E/DX2                !
 ! D79   D(4,11,12,15)           4.7113         estimate D2E/DX2                !
 ! D80   D(13,11,12,14)         -0.2818         estimate D2E/DX2                !
 ! D81   D(13,11,12,15)        179.167          estimate D2E/DX2                !
 ! D82   D(4,11,13,16)         175.1253         estimate D2E/DX2                !
 ! D83   D(4,11,13,17)          -3.8745         estimate D2E/DX2                !
 ! D84   D(12,11,13,16)          0.5505         estimate D2E/DX2                !
 ! D85   D(12,11,13,17)       -178.4494         estimate D2E/DX2                !
 ! D86   D(11,12,14,18)         -0.0549         estimate D2E/DX2                !
 ! D87   D(11,12,14,19)        179.9386         estimate D2E/DX2                !
 ! D88   D(15,12,14,18)       -179.5022         estimate D2E/DX2                !
 ! D89   D(15,12,14,19)          0.4913         estimate D2E/DX2                !
 ! D90   D(11,13,16,18)         -0.4837         estimate D2E/DX2                !
 ! D91   D(11,13,16,20)        179.6231         estimate D2E/DX2                !
 ! D92   D(17,13,16,18)        178.5253         estimate D2E/DX2                !
 ! D93   D(17,13,16,20)         -1.3679         estimate D2E/DX2                !
 ! D94   D(12,14,18,16)          0.1283         estimate D2E/DX2                !
 ! D95   D(12,14,18,21)       -179.9221         estimate D2E/DX2                !
 ! D96   D(19,14,18,16)       -179.8652         estimate D2E/DX2                !
 ! D97   D(19,14,18,21)          0.0845         estimate D2E/DX2                !
 ! D98   D(13,16,18,14)          0.1399         estimate D2E/DX2                !
 ! D99   D(13,16,18,21)       -179.8097         estimate D2E/DX2                !
 ! D100  D(20,16,18,14)       -179.9675         estimate D2E/DX2                !
 ! D101  D(20,16,18,21)          0.0828         estimate D2E/DX2                !
 ! D102  D(4,22,23,25)         178.9302         estimate D2E/DX2                !
 ! D103  D(4,22,23,26)          -1.4639         estimate D2E/DX2                !
 ! D104  D(24,22,23,25)          0.0384         estimate D2E/DX2                !
 ! D105  D(24,22,23,26)        179.6443         estimate D2E/DX2                !
 ! D106  D(4,22,24,27)        -178.6361         estimate D2E/DX2                !
 ! D107  D(4,22,24,28)           2.689          estimate D2E/DX2                !
 ! D108  D(23,22,24,27)          0.2087         estimate D2E/DX2                !
 ! D109  D(23,22,24,28)       -178.4661         estimate D2E/DX2                !
 ! D110  D(22,23,25,29)         -0.3169         estimate D2E/DX2                !
 ! D111  D(22,23,25,30)        179.0281         estimate D2E/DX2                !
 ! D112  D(26,23,25,29)       -179.9192         estimate D2E/DX2                !
 ! D113  D(26,23,25,30)         -0.5743         estimate D2E/DX2                !
 ! D114  D(22,24,27,29)         -0.1775         estimate D2E/DX2                !
 ! D115  D(22,24,27,31)       -179.8316         estimate D2E/DX2                !
 ! D116  D(28,24,27,29)        178.5046         estimate D2E/DX2                !
 ! D117  D(28,24,27,31)         -1.1494         estimate D2E/DX2                !
 ! D118  D(23,25,29,27)          0.3484         estimate D2E/DX2                !
 ! D119  D(23,25,29,32)        179.9723         estimate D2E/DX2                !
 ! D120  D(30,25,29,27)       -178.9874         estimate D2E/DX2                !
 ! D121  D(30,25,29,32)          0.6365         estimate D2E/DX2                !
 ! D122  D(24,27,29,25)         -0.1026         estimate D2E/DX2                !
 ! D123  D(24,27,29,32)       -179.7274         estimate D2E/DX2                !
 ! D124  D(31,27,29,25)        179.5505         estimate D2E/DX2                !
 ! D125  D(31,27,29,32)         -0.0743         estimate D2E/DX2                !
 ! D126  D(5,33,45,46)        -162.1525         estimate D2E/DX2                !
 ! D127  D(5,33,45,50)          80.7046         estimate D2E/DX2                !
 ! D128  D(5,33,45,54)         -36.8356         estimate D2E/DX2                !
 ! D129  D(58,33,45,46)        -47.2854         estimate D2E/DX2                !
 ! D130  D(58,33,45,50)       -164.4282         estimate D2E/DX2                !
 ! D131  D(58,33,45,54)         78.0316         estimate D2E/DX2                !
 ! D132  D(5,33,58,6)           39.2856         estimate D2E/DX2                !
 ! D133  D(5,33,58,59)        -138.807          estimate D2E/DX2                !
 ! D134  D(45,33,58,6)         -69.5552         estimate D2E/DX2                !
 ! D135  D(45,33,58,59)        112.3522         estimate D2E/DX2                !
 ! D136  D(6,34,35,37)        -179.2038         estimate D2E/DX2                !
 ! D137  D(6,34,35,38)           1.2577         estimate D2E/DX2                !
 ! D138  D(36,34,35,37)          1.7383         estimate D2E/DX2                !
 ! D139  D(36,34,35,38)       -177.8002         estimate D2E/DX2                !
 ! D140  D(6,34,36,39)         179.4901         estimate D2E/DX2                !
 ! D141  D(6,34,36,40)          -1.5721         estimate D2E/DX2                !
 ! D142  D(35,34,36,39)         -1.4491         estimate D2E/DX2                !
 ! D143  D(35,34,36,40)        177.4886         estimate D2E/DX2                !
 ! D144  D(34,35,37,41)         -0.79           estimate D2E/DX2                !
 ! D145  D(34,35,37,42)        179.7506         estimate D2E/DX2                !
 ! D146  D(38,35,37,41)        178.7498         estimate D2E/DX2                !
 ! D147  D(38,35,37,42)         -0.7096         estimate D2E/DX2                !
 ! D148  D(34,36,39,41)          0.2074         estimate D2E/DX2                !
 ! D149  D(34,36,39,43)        179.6546         estimate D2E/DX2                !
 ! D150  D(40,36,39,41)       -178.7366         estimate D2E/DX2                !
 ! D151  D(40,36,39,43)          0.7107         estimate D2E/DX2                !
 ! D152  D(35,37,41,39)         -0.4905         estimate D2E/DX2                !
 ! D153  D(35,37,41,44)       -179.729          estimate D2E/DX2                !
 ! D154  D(42,37,41,39)        178.9662         estimate D2E/DX2                !
 ! D155  D(42,37,41,44)         -0.2722         estimate D2E/DX2                !
 ! D156  D(36,39,41,37)          0.7787         estimate D2E/DX2                !
 ! D157  D(36,39,41,44)       -179.9829         estimate D2E/DX2                !
 ! D158  D(43,39,41,37)       -178.6657         estimate D2E/DX2                !
 ! D159  D(43,39,41,44)          0.5727         estimate D2E/DX2                !
 ! D160  D(33,45,46,47)         66.6893         estimate D2E/DX2                !
 ! D161  D(33,45,46,48)       -173.3499         estimate D2E/DX2                !
 ! D162  D(33,45,46,49)        -54.7704         estimate D2E/DX2                !
 ! D163  D(50,45,46,47)        178.3795         estimate D2E/DX2                !
 ! D164  D(50,45,46,48)        -61.6597         estimate D2E/DX2                !
 ! D165  D(50,45,46,49)         56.9198         estimate D2E/DX2                !
 ! D166  D(54,45,46,47)        -57.4162         estimate D2E/DX2                !
 ! D167  D(54,45,46,48)         62.5446         estimate D2E/DX2                !
 ! D168  D(54,45,46,49)       -178.876          estimate D2E/DX2                !
 ! D169  D(33,45,50,51)        174.9999         estimate D2E/DX2                !
 ! D170  D(33,45,50,52)        -65.7412         estimate D2E/DX2                !
 ! D171  D(33,45,50,53)         55.6518         estimate D2E/DX2                !
 ! D172  D(46,45,50,51)         60.6404         estimate D2E/DX2                !
 ! D173  D(46,45,50,52)        179.8994         estimate D2E/DX2                !
 ! D174  D(46,45,50,53)        -58.7077         estimate D2E/DX2                !
 ! D175  D(54,45,50,51)        -65.9162         estimate D2E/DX2                !
 ! D176  D(54,45,50,52)         53.3428         estimate D2E/DX2                !
 ! D177  D(54,45,50,53)        174.7357         estimate D2E/DX2                !
 ! D178  D(33,45,54,55)         46.6217         estimate D2E/DX2                !
 ! D179  D(33,45,54,56)        166.0909         estimate D2E/DX2                !
 ! D180  D(33,45,54,57)        -74.6718         estimate D2E/DX2                !
 ! D181  D(46,45,54,55)        168.1823         estimate D2E/DX2                !
 ! D182  D(46,45,54,56)        -72.3486         estimate D2E/DX2                !
 ! D183  D(46,45,54,57)         46.8887         estimate D2E/DX2                !
 ! D184  D(50,45,54,55)        -66.842          estimate D2E/DX2                !
 ! D185  D(50,45,54,56)         52.6271         estimate D2E/DX2                !
 ! D186  D(50,45,54,57)        171.8645         estimate D2E/DX2                !
 ! D187  D(6,58,59,60)         169.603          estimate D2E/DX2                !
 ! D188  D(6,58,59,61)          55.2896         estimate D2E/DX2                !
 ! D189  D(6,58,59,62)         -69.1666         estimate D2E/DX2                !
 ! D190  D(33,58,59,60)        -12.2493         estimate D2E/DX2                !
 ! D191  D(33,58,59,61)       -126.5627         estimate D2E/DX2                !
 ! D192  D(33,58,59,62)        108.9811         estimate D2E/DX2                !
 ! D193  D(58,59,62,63)        130.0805         estimate D2E/DX2                !
 ! D194  D(58,59,62,64)        -51.524          estimate D2E/DX2                !
 ! D195  D(60,59,62,63)       -110.0275         estimate D2E/DX2                !
 ! D196  D(60,59,62,64)         68.3681         estimate D2E/DX2                !
 ! D197  D(61,59,62,63)          6.1243         estimate D2E/DX2                !
 ! D198  D(61,59,62,64)       -175.4802         estimate D2E/DX2                !
 ! D199  D(59,62,63,65)        179.7203         estimate D2E/DX2                !
 ! D200  D(59,62,63,66)         -0.7376         estimate D2E/DX2                !
 ! D201  D(64,62,63,65)          1.2919         estimate D2E/DX2                !
 ! D202  D(64,62,63,66)       -179.1659         estimate D2E/DX2                !
 ! D203  D(59,62,64,67)       -179.2651         estimate D2E/DX2                !
 ! D204  D(59,62,64,68)          1.5189         estimate D2E/DX2                !
 ! D205  D(63,62,64,67)         -0.8343         estimate D2E/DX2                !
 ! D206  D(63,62,64,68)        179.9497         estimate D2E/DX2                !
 ! D207  D(62,63,65,69)         -0.7039         estimate D2E/DX2                !
 ! D208  D(62,63,65,70)        179.0989         estimate D2E/DX2                !
 ! D209  D(66,63,65,69)        179.7542         estimate D2E/DX2                !
 ! D210  D(66,63,65,70)         -0.4431         estimate D2E/DX2                !
 ! D211  D(62,64,67,69)         -0.2216         estimate D2E/DX2                !
 ! D212  D(62,64,67,71)       -179.4501         estimate D2E/DX2                !
 ! D213  D(68,64,67,69)        179.0006         estimate D2E/DX2                !
 ! D214  D(68,64,67,71)         -0.2278         estimate D2E/DX2                !
 ! D215  D(63,65,69,67)         -0.3558         estimate D2E/DX2                !
 ! D216  D(63,65,69,72)       -179.783          estimate D2E/DX2                !
 ! D217  D(70,65,69,67)        179.8412         estimate D2E/DX2                !
 ! D218  D(70,65,69,72)          0.4139         estimate D2E/DX2                !
 ! D219  D(64,67,69,65)          0.8156         estimate D2E/DX2                !
 ! D220  D(64,67,69,72)       -179.7519         estimate D2E/DX2                !
 ! D221  D(71,67,69,65)       -179.9601         estimate D2E/DX2                !
 ! D222  D(71,67,69,72)         -0.5276         estimate D2E/DX2                !
 ! D223  D(65,69,72,73)       -136.0903         estimate D2E/DX2                !
 ! D224  D(65,69,72,74)        -15.1983         estimate D2E/DX2                !
 ! D225  D(65,69,72,75)        104.8736         estimate D2E/DX2                !
 ! D226  D(67,69,72,73)         44.4974         estimate D2E/DX2                !
 ! D227  D(67,69,72,74)        165.3893         estimate D2E/DX2                !
 ! D228  D(67,69,72,75)        -74.5387         estimate D2E/DX2                !
 ! D229  D(81,76,77,78)         -1.179          estimate D2E/DX2                !
 ! D230  D(81,76,77,84)        177.9362         estimate D2E/DX2                !
 ! D231  D(83,76,77,78)       -179.9042         estimate D2E/DX2                !
 ! D232  D(83,76,77,84)         -0.789          estimate D2E/DX2                !
 ! D233  D(77,76,81,80)          1.684          estimate D2E/DX2                !
 ! D234  D(77,76,81,87)       -178.2862         estimate D2E/DX2                !
 ! D235  D(83,76,81,80)       -179.591          estimate D2E/DX2                !
 ! D236  D(83,76,81,87)          0.4388         estimate D2E/DX2                !
 ! D237  D(76,77,78,79)         -1.746          estimate D2E/DX2                !
 ! D238  D(76,77,78,85)        176.8839         estimate D2E/DX2                !
 ! D239  D(84,77,78,79)        179.1214         estimate D2E/DX2                !
 ! D240  D(84,77,78,85)         -2.2487         estimate D2E/DX2                !
 ! D241  D(77,78,79,2)        -174.6907         estimate D2E/DX2                !
 ! D242  D(77,78,79,80)          4.1113         estimate D2E/DX2                !
 ! D243  D(85,78,79,2)           6.6591         estimate D2E/DX2                !
 ! D244  D(85,78,79,80)       -174.5389         estimate D2E/DX2                !
 ! D245  D(77,78,85,82)         -2.1017         estimate D2E/DX2                !
 ! D246  D(77,78,85,89)        179.2409         estimate D2E/DX2                !
 ! D247  D(79,78,85,82)        176.5207         estimate D2E/DX2                !
 ! D248  D(79,78,85,89)         -2.1366         estimate D2E/DX2                !
 ! D249  D(2,79,80,81)         175.0673         estimate D2E/DX2                !
 ! D250  D(2,79,80,86)          -4.8622         estimate D2E/DX2                !
 ! D251  D(78,79,80,81)         -3.6833         estimate D2E/DX2                !
 ! D252  D(78,79,80,86)        176.3871         estimate D2E/DX2                !
 ! D253  D(79,80,81,76)          0.7925         estimate D2E/DX2                !
 ! D254  D(79,80,81,87)       -179.2372         estimate D2E/DX2                !
 ! D255  D(86,80,81,76)       -179.2779         estimate D2E/DX2                !
 ! D256  D(86,80,81,87)          0.6924         estimate D2E/DX2                !
 ! D257  D(78,85,89,88)         -3.7671         estimate D2E/DX2                !
 ! D258  D(78,85,89,90)        177.0923         estimate D2E/DX2                !
 ! D259  D(82,85,89,88)        177.6073         estimate D2E/DX2                !
 ! D260  D(82,85,89,90)         -1.5332         estimate D2E/DX2                !
 ! D261  D(1,88,89,85)         -69.4104         estimate D2E/DX2                !
 ! D262  D(1,88,89,90)         109.7528         estimate D2E/DX2                !
 ! D263  D(2,88,89,85)           4.6682         estimate D2E/DX2                !
 ! D264  D(2,88,89,90)        -176.1686         estimate D2E/DX2                !
 ! D265  D(91,88,89,85)        158.7029         estimate D2E/DX2                !
 ! D266  D(91,88,89,90)        -22.1338         estimate D2E/DX2                !
 ! D267  D(1,88,91,92)         -86.284          estimate D2E/DX2                !
 ! D268  D(1,88,91,93)          33.1072         estimate D2E/DX2                !
 ! D269  D(1,88,91,94)         154.4332         estimate D2E/DX2                !
 ! D270  D(2,88,91,92)        -162.9937         estimate D2E/DX2                !
 ! D271  D(2,88,91,93)         -43.6025         estimate D2E/DX2                !
 ! D272  D(2,88,91,94)          77.7235         estimate D2E/DX2                !
 ! D273  D(89,88,91,92)         44.4618         estimate D2E/DX2                !
 ! D274  D(89,88,91,93)        163.8531         estimate D2E/DX2                !
 ! D275  D(89,88,91,94)        -74.8209         estimate D2E/DX2                !
 ! D276  D(3,95,97,2)          -11.2602         estimate D2E/DX2                !
 ! D277  D(96,95,97,2)        -147.8863         estimate D2E/DX2                !
 ! D278  D(98,95,97,2)         100.9405         estimate D2E/DX2                !
 ! D279  D(3,95,98,99)         172.2504         estimate D2E/DX2                !
 ! D280  D(3,95,98,100)         51.4527         estimate D2E/DX2                !
 ! D281  D(3,95,98,101)        -67.7838         estimate D2E/DX2                !
 ! D282  D(96,95,98,99)        -57.8309         estimate D2E/DX2                !
 ! D283  D(96,95,98,100)      -178.6286         estimate D2E/DX2                !
 ! D284  D(96,95,98,101)        62.1348         estimate D2E/DX2                !
 ! D285  D(97,95,98,99)         54.3762         estimate D2E/DX2                !
 ! D286  D(97,95,98,100)       -66.4215         estimate D2E/DX2                !
 ! D287  D(97,95,98,101)       174.342          estimate D2E/DX2                !
 --------------------------------------------------------------------------------
 Trust Radius=1.00D-02 FncErr=1.00D-07 GrdErr=1.00D-06 EigMax=2.50D+02 EigMin=1.00D-04
 Number of steps in this run=    596 maximum allowed number of steps=    606.
 GradGradGradGradGradGradGradGradGradGradGradGradGradGradGradGradGradGrad

 Stoichiometry    C44H45F3NNiO4PS2
 Framework group  C1[X(C44H45F3NNiO4PS2)]
 Deg. of freedom   297
 Full point group                 C1      NOp   1
 Largest Abelian subgroup         C1      NOp   1
 Largest concise Abelian subgroup C1      NOp   1
                         Standard orientation:                         
 ---------------------------------------------------------------------
 Center     Atomic      Atomic             Coordinates (Angstroms)
 Number     Number       Type             X           Y           Z
 ---------------------------------------------------------------------
      1         28           0        0.999057    0.570368    0.160176
      2          6           0        2.866899    0.855959    0.461938
      3          8           0        1.536896   -0.968867    2.390146
      4         15           0       -0.870123    1.372168   -0.606011
      5          8           0        0.702753   -1.297072   -0.684182
      6          6           0       -2.422764   -0.982048   -0.853274
      7          6           0       -2.501935    0.503119   -0.471846
      8          1           0       -1.821514   -1.052481   -1.765016
      9          1           0       -2.870988    0.620167    0.548264
     10          1           0       -3.217403    0.995451   -1.137765
     11          6           0       -1.366349    3.077376   -0.163061
     12          6           0       -1.005594    4.172516   -0.955260
     13          6           0       -2.021983    3.308169    1.052621
     14          6           0       -1.300072    5.468904   -0.542192
     15          1           0       -0.484841    4.008406   -1.893428
     16          6           0       -2.319539    4.604519    1.459506
     17          1           0       -2.289182    2.475086    1.695949
     18          6           0       -1.958417    5.689699    0.664371
     19          1           0       -1.012734    6.309422   -1.167634
     20          1           0       -2.834207    4.765792    2.402872
     21          1           0       -2.188254    6.701907    0.984016
     22          6           0       -0.702089    1.432271   -2.434822
     23          6           0        0.473612    0.943979   -3.012358
     24          6           0       -1.714291    1.925543   -3.267718
     25          6           0        0.637437    0.948190   -4.395337
     26          1           0        1.263335    0.565978   -2.370090
     27          6           0       -1.553136    1.925169   -4.648775
     28          1           0       -2.625137    2.332235   -2.835218
     29          6           0       -0.376256    1.434960   -5.214466
     30          1           0        1.565466    0.578731   -4.821988
     31          1           0       -2.343639    2.312714   -5.285247
     32          1           0       -0.250953    1.439849   -6.293688
     33         16           0       -0.159052   -2.369147   -0.029233
     34          6           0       -3.805279   -1.533724   -1.161683
     35          6           0       -4.900381   -1.235638   -0.343551
     36          6           0       -4.019951   -2.337295   -2.283479
     37          6           0       -6.160882   -1.755336   -0.619165
     38          1           0       -4.768779   -0.583977    0.514661
     39          6           0       -5.280945   -2.854868   -2.566808
     40          1           0       -3.196977   -2.550927   -2.958224
     41          6           0       -6.355474   -2.571924   -1.729926
     42          1           0       -6.995674   -1.513463    0.032417
     43          1           0       -5.423172   -3.472658   -3.448670
     44          1           0       -7.340181   -2.974325   -1.948025
     45          6           0       -0.190932   -3.666552   -1.370826
     46          6           0       -1.355996   -4.596111   -1.068229
     47          1           0       -2.318771   -4.089186   -1.169407
     48          1           0       -1.336375   -5.439750   -1.766149
     49          1           0       -1.286404   -5.006185   -0.054292
     50          6           0        1.147493   -4.384861   -1.184496
     51          1           0        1.193481   -5.234159   -1.874048
     52          1           0        1.984101   -3.717432   -1.403634
     53          1           0        1.266193   -4.768473   -0.166027
     54          6           0       -0.246879   -3.044267   -2.756470
     55          1           0        0.484851   -2.237459   -2.844164
     56          1           0       -0.015005   -3.811925   -3.502590
     57          1           0       -1.231558   -2.641410   -2.995206
     58          7           0       -1.724835   -1.802957    0.153288
     59          6           0       -2.361321   -2.144808    1.423671
     60          1           0       -1.724334   -2.901021    1.896762
     61          1           0       -3.321457   -2.633434    1.220855
     62          6           0       -2.560535   -0.998348    2.387872
     63          6           0       -3.800783   -0.773492    2.982246
     64          6           0       -1.495220   -0.160729    2.728019
     65          6           0       -3.982530    0.280728    3.876069
     66          1           0       -4.638576   -1.424006    2.739948
     67          6           0       -1.677348    0.882138    3.625440
     68          1           0       -0.518557   -0.313155    2.281405
     69          6           0       -2.925884    1.128190    4.209810
     70          1           0       -4.962033    0.447708    4.317514
     71          1           0       -0.834596    1.525290    3.866780
     72          6           0       -3.107045    2.264597    5.174977
     73          1           0       -2.621327    3.175481    4.810217
     74          1           0       -4.164718    2.484990    5.341628
     75          1           0       -2.659150    2.029820    6.147405
     76          6           0        4.919633    0.716902   -3.288148
     77          6           0        4.134012    1.804684   -2.953395
     78          6           0        3.493531    1.888861   -1.704771
     79          6           0        3.628788    0.814012   -0.783070
     80          6           0        4.472271   -0.256215   -1.123193
     81          6           0        5.101067   -0.310692   -2.355601
     82          1           0        2.691764    3.882848   -2.035450
     83          1           0        5.407756    0.670626   -4.257356
     84          1           0        4.009392    2.627905   -3.653112
     85          6           0        2.732083    3.051778   -1.336267
     86          1           0        4.633072   -1.053495   -0.409903
     87          1           0        5.738138   -1.157460   -2.595244
     88          6           0        2.079746    2.030276    0.811905
     89          6           0        2.102492    3.126092   -0.139069
     90          1           0        1.571565    4.033614    0.138688
     91          6           0        1.795396    2.394133    2.251224
     92          1           0        0.962363    3.104002    2.286903
     93          1           0        1.515376    1.529593    2.856741
     94          1           0        2.665549    2.867880    2.724915
     95         16           0        2.980564   -0.872954    2.514752
     96          8           0        3.619983   -0.725221    3.801666
     97          8           0        3.609805    0.208572    1.547143
     98          6           0        3.631391   -2.444061    1.800125
     99          9           0        4.953117   -2.398137    1.708347
    100          9           0        3.116668   -2.650040    0.592407
    101          9           0        3.276912   -3.444899    2.596372
 ---------------------------------------------------------------------
 Rotational constants (GHZ):           0.0558942           0.0437661           0.0423108
 General basis read from cards:  (5D, 7F)
 ======================================================================================================
                                       Pseudopotential Parameters
 ======================================================================================================
  Center     Atomic      Valence      Angular      Power
  Number     Number     Electrons     Momentum     of R      Exponent        Coefficient   SO-Coeffient
 ======================================================================================================
    1         28           18
                                      F and up 
                                                     2        1.0000000        0.00000000    0.00000000
                                      S - F
                                                     2       26.7400000      317.68227200    0.00000000
                                                     2       11.8600000       58.25539100    0.00000000
                                      P - F
                                                     2       28.8000000      252.47436600    0.00000000
                                                     2       11.7900000       36.08150300    0.00000000
                                      D - F
                                                     2       33.7000000      -18.52295500    0.00000000
                                                     2       11.6600000       -4.55766800    0.00000000
    2          6
                                   No pseudopotential on this center.
    3          8
                                   No pseudopotential on this center.
    4         15
                                   No pseudopotential on this center.
    5          8
                                   No pseudopotential on this center.
    6          6
                                   No pseudopotential on this center.
    7          6
                                   No pseudopotential on this center.
    8          1
                                   No pseudopotential on this center.
    9          1
                                   No pseudopotential on this center.
   10          1
                                   No pseudopotential on this center.
   11          6
                                   No pseudopotential on this center.
   12          6
                                   No pseudopotential on this center.
   13          6
                                   No pseudopotential on this center.
   14          6
                                   No pseudopotential on this center.
   15          1
                                   No pseudopotential on this center.
   16          6
                                   No pseudopotential on this center.
   17          1
                                   No pseudopotential on this center.
   18          6
                                   No pseudopotential on this center.
   19          1
                                   No pseudopotential on this center.
   20          1
                                   No pseudopotential on this center.
   21          1
                                   No pseudopotential on this center.
   22          6
                                   No pseudopotential on this center.
   23          6
                                   No pseudopotential on this center.
   24          6
                                   No pseudopotential on this center.
   25          6
                                   No pseudopotential on this center.
   26          1
                                   No pseudopotential on this center.
   27          6
                                   No pseudopotential on this center.
   28          1
                                   No pseudopotential on this center.
   29          6
                                   No pseudopotential on this center.
   30          1
                                   No pseudopotential on this center.
   31          1
                                   No pseudopotential on this center.
   32          1
                                   No pseudopotential on this center.
   33         16
                                   No pseudopotential on this center.
   34          6
                                   No pseudopotential on this center.
   35          6
                                   No pseudopotential on this center.
   36          6
                                   No pseudopotential on this center.
   37          6
                                   No pseudopotential on this center.
   38          1
                                   No pseudopotential on this center.
   39          6
                                   No pseudopotential on this center.
   40          1
                                   No pseudopotential on this center.
   41          6
                                   No pseudopotential on this center.
   42          1
                                   No pseudopotential on this center.
   43          1
                                   No pseudopotential on this center.
   44          1
                                   No pseudopotential on this center.
   45          6
                                   No pseudopotential on this center.
   46          6
                                   No pseudopotential on this center.
   47          1
                                   No pseudopotential on this center.
   48          1
                                   No pseudopotential on this center.
   49          1
                                   No pseudopotential on this center.
   50          6
                                   No pseudopotential on this center.
   51          1
                                   No pseudopotential on this center.
   52          1
                                   No pseudopotential on this center.
   53          1
                                   No pseudopotential on this center.
   54          6
                                   No pseudopotential on this center.
   55          1
                                   No pseudopotential on this center.
   56          1
                                   No pseudopotential on this center.
   57          1
                                   No pseudopotential on this center.
   58          7
                                   No pseudopotential on this center.
   59          6
                                   No pseudopotential on this center.
   60          1
                                   No pseudopotential on this center.
   61          1
                                   No pseudopotential on this center.
   62          6
                                   No pseudopotential on this center.
   63          6
                                   No pseudopotential on this center.
   64          6
                                   No pseudopotential on this center.
   65          6
                                   No pseudopotential on this center.
   66          1
                                   No pseudopotential on this center.
   67          6
                                   No pseudopotential on this center.
   68          1
                                   No pseudopotential on this center.
   69          6
                                   No pseudopotential on this center.
   70          1
                                   No pseudopotential on this center.
   71          1
                                   No pseudopotential on this center.
   72          6
                                   No pseudopotential on this center.
   73          1
                                   No pseudopotential on this center.
   74          1
                                   No pseudopotential on this center.
   75          1
                                   No pseudopotential on this center.
   76          6
                                   No pseudopotential on this center.
   77          6
                                   No pseudopotential on this center.
   78          6
                                   No pseudopotential on this center.
   79          6
                                   No pseudopotential on this center.
   80          6
                                   No pseudopotential on this center.
   81          6
                                   No pseudopotential on this center.
   82          1
                                   No pseudopotential on this center.
   83          1
                                   No pseudopotential on this center.
   84          1
                                   No pseudopotential on this center.
   85          6
                                   No pseudopotential on this center.
   86          1
                                   No pseudopotential on this center.
   87          1
                                   No pseudopotential on this center.
   88          6
                                   No pseudopotential on this center.
   89          6
                                   No pseudopotential on this center.
   90          1
                                   No pseudopotential on this center.
   91          6
                                   No pseudopotential on this center.
   92          1
                                   No pseudopotential on this center.
   93          1
                                   No pseudopotential on this center.
   94          1
                                   No pseudopotential on this center.
   95         16
                                   No pseudopotential on this center.
   96          8
                                   No pseudopotential on this center.
   97          8
                                   No pseudopotential on this center.
   98          6
                                   No pseudopotential on this center.
   99          9
                                   No pseudopotential on this center.
  100          9
                                   No pseudopotential on this center.
  101          9
                                   No pseudopotential on this center.
 ======================================================================================================
 There are  1111 symmetry adapted cartesian basis functions of A   symmetry.
 There are  1050 symmetry adapted basis functions of A   symmetry.
  1050 basis functions,  2002 primitive gaussians,  1111 cartesian basis functions
   220 alpha electrons      220 beta electrons
       nuclear repulsion energy     10481.1629760561 Hartrees.
 NAtoms=  101 NActive=  101 NUniq=  101 SFac= 1.00D+00 NAtFMM=   60 NAOKFM=T Big=T
 Integral buffers will be    131072 words long.
 Raffenetti 2 integral format.
 Two-electron integral symmetry is turned on.
 Nuclear repulsion after empirical dispersion term =    10480.8371001617 Hartrees.
 One-electron integrals computed using PRISM.
   1 Symmetry operations used in ECPInt.
 ECPInt:  NShTT=   69751 NPrTT=  380066 LenC2=   50020 LenP2D=  140825.
 LDataN:  DoStor=T MaxTD1= 6 Len=  172
 NBasis=  1050 RedAO= T EigKep=  2.71D-04  NBF=  1050
 NBsUse=  1050 1.00D-06 EigRej= -1.00D+00 NBFU=  1050
 ExpMin= 1.00D-02 ExpMax= 2.19D+04 ExpMxC= 3.30D+03 IAcc=3 IRadAn=         5 AccDes= 0.00D+00
 Harris functional with IExCor=  402 and IRadAn=       5 diagonalized for initial guess.
 HarFok:  IExCor=  402 AccDes= 0.00D+00 IRadAn=         5 IDoV= 1 UseB2=F ITyADJ=14
 ICtDFT=  3500011 ScaDFX=  1.000000  1.000000  1.000000  1.000000
 FoFCou: FMM=F IPFlag=           0 FMFlag=      100000 FMFlg1=        2001
         NFxFlg=           0 DoJE=T BraDBF=F KetDBF=T FulRan=T
         wScrn=  0.000000 ICntrl=       500 IOpCl=  0 I1Cent=   200000004 NGrid=           0
         NMat0=    1 NMatS0=      1 NMatT0=    0 NMatD0=    1 NMtDS0=    0 NMtDT0=    0
 Petite list used in FoFCou.
 Requested convergence on RMS density matrix=1.00D-08 within 128 cycles.
 Requested convergence on MAX density matrix=1.00D-06.
 Requested convergence on             energy=1.00D-06.
 No special actions if energy rises.
 EnCoef did     2 forward-backward iterations
 EnCoef did   100 forward-backward iterations
 SCF Done:  E(RB3LYP) =  -3667.87369882     A.U. after   19 cycles
            NFock= 19  Conv=0.96D-08     -V/T= 2.0222
 Hyperfine terms turned off by default for NAtoms > 100.

 **********************************************************************

            Population analysis using the SCF Density.

 **********************************************************************

 Orbital symmetries:
       Occupied  (A) (A) (A) (A) (A) (A) (A) (A) (A) (A) (A) (A)
                 (A) (A) (A) (A) (A) (A) (A) (A) (A) (A) (A) (A)
                 (A) (A) (A) (A) (A) (A) (A) (A) (A) (A) (A) (A)
                 (A) (A) (A) (A) (A) (A) (A) (A) (A) (A) (A) (A)
                 (A) (A) (A) (A) (A) (A) (A) (A) (A) (A) (A) (A)
                 (A) (A) (A) (A) (A) (A) (A) (A) (A) (A) (A) (A)
                 (A) (A) (A) (A) (A) (A) (A) (A) (A) (A) (A) (A)
                 (A) (A) (A) (A) (A) (A) (A) (A) (A) (A) (A) (A)
                 (A) (A) (A) (A) (A) (A) (A) (A) (A) (A) (A) (A)
[...]
 8,0.00028374,-0.00056366,0.00033329,0.00039890,-0.00005490,0.00026651,
 0.00088933,-0.00069295,0.00028062,-0.00030032,0.00042017,0.00061731,0.
 00017823,0.00015249,-0.00006284,-0.00003944,-0.00005361,-0.00001139,-0
 .00002123,-0.00000262,-0.00007553,0.00007585,0.00004379,0.00009447,0.0
 0037614,0.00048757,0.00014442,-0.00007061,-0.00003816,0.00025674,0.000
 00354,0.00001893,0.00001458,0.00000929,0.00001461,-0.00003088,-0.00001
 224,-0.00010124,0.00005408,-0.00004963,0.00004213,-0.00003405,0.000050
 97,0.00005711,-0.00012031,-0.00003411,0.00001407,0.00000044,-0.0000353
 2,0.00000323,0.00000694,-0.00001459,-0.00003494,0.00002631,0.00023847,
 0.00000732,0.00009156,0.00002551,0.00002176,-0.00001658,-0.00000882,0.
 00000519,-0.00000101,0.00001732,0.00004749,-0.00003351,-0.00001029,-0.
 00000102,-0.00000103,0.00000667,0.00001316,0.00000041,-0.00001358,-0.0
 0000162,0.00000121,0.00000956,0.00000305,-0.00001129,-0.00002519,0.000
 01518,-0.00022602,0.00005437,-0.00001130,-0.00006980,-0.00012446,-0.00
 000213,-0.00011835,-0.00044056,-0.00041132,0.00015038,0.00135503,0.000
 46577,-0.00018482,-0.00018658,-0.00042762,0.00001528,0.00001429,-0.000
 02957,-0.00002167,-0.00000055,-0.00003420,-0.00006019,0.00001760,-0.00
 002112,-0.00002472,0.00011140,0.00005054,-0.00013856,0.00086702,-0.002
 34822,-0.00131069,0.00012016,0.00001669,-0.00003919,0.00038993,-0.0001
 0808,-0.00021772,-0.00021140,0.00016783,0.00010878,0.00000594,-0.00004
 395,0.00000277,-0.00010408,0.00007791,0.00007457,-0.00003681,-0.000094
 15,-0.00004148,0.00013486,0.00005012,-0.00006750,-0.00000626,0.0000693
 1,-0.00003263,0.01377623,0.00797017,0.02190530,-0.00076235,-0.00625551
 ,0.00662428,-0.00174405,-0.00220956,-0.00362549,0.01577098,-0.08297717
 ,0.04485866,0.00361405,0.01246741,0.00034909,-0.02011917,0.07107299,0.
 00075109,0.00069139,-0.00047864,-0.00280672,-0.00001855,-0.00351397,0.
 00784504,0.00224037,0.00381955,-0.00030588,0.00016579,-0.00026006,-0.0
 0414825,-0.00160947,0.00001724,0.00011252,0.00037234,0.00039409,0.0000
 0790,0.00004103,0.00002665,0.00003525,0.00005581,0.00007842,-0.0000289
 4,-0.00002956,0.00000015,0.00002784,-0.00010856,0.00001662,0.00003797,
 0.00003835,-0.00001774,-0.00000529,-0.00004601,0.00002400,0.00002942,-
 0.00005520,0.00001221,0.00000269,0.00000285,0.00001068,-0.00001673,0.0
 0002290,0.00000102,0.00001257,0.00000142,0.00001514,-0.00001591,0.0000
 0985,-0.00003398,0.00000169,-0.00002350,0.00000840,-0.00000166,-0.0000
 0943,-0.00000524,-0.00002140,-0.00001157,0.00000980,-0.00000984,-0.000
 01249,0.00000021,0.00010881,-0.00003756,-0.00001459,0.00010412,-0.0000
 2037,0.00016604,-0.00003526,-0.00002360,0.00003591,0.00000349,-0.00003
 120,-0.00002840,0.00000868,0.00016822,-0.00008780,-0.00000052,-0.00000
 664,0.00001806,-0.00002079,0.00000566,-0.00000481,0.00001125,0.0000081
 5,0.00005068,-0.00002144,0.00001704,0.00004329,-0.00001579,-0.00000113
 ,0.00000076,-0.00000237,0.00000862,-0.00000863,0.00454495,-0.00039905,
 -0.00110997,0.00000970,-0.00015856,-0.00003446,-0.00001511,0.00006449,
 -0.00004762,-0.00002406,-0.00000021,-0.00008715,-0.00001797,0.00001527
 ,0.00000367,-0.00000489,-0.00002446,-0.00000943,0.00001768,-0.00004038
 ,0.00005155,0.00001446,0.00000339,0.00007001,-0.00002366,-0.00000557,0
 .00001386,-0.00002838,-0.00000105,0.00000934,0.00000696,0.00000897,-0.
 00000296,-0.00002027,0.00000460,0.00000115,0.00062014,0.00076477,0.000
 39879,-0.00029797,-0.00039728,-0.00014878,-0.00019253,0.00009872,0.000
 03698,0.00004700,-0.00002173,0.00000952,0.00005525,0.00000649,0.000010
 15,0.00062803,0.00003329,-0.00187092,-0.00098802,0.00044499,-0.0003040
 6,-0.00127865,0.00144319,0.00105892,0.00039914,-0.00063920,-0.00046263
 ,-0.00015746,-0.00016005,0.00015087,0.00008442,0.00011730,0.00014395,0
 .00003059,0.00003208,0.00007216,-0.00014632,-0.00006174,-0.00013051,-0
 .00159170,-0.00059107,0.00024907,0.00000486,-0.00006279,-0.00091842,0.
 00002064,-0.00001568,-0.00006337,-0.00010815,-0.00000646,0.00016425,-0
 .00003078,0.00021794,-0.00002889,0.00010086,-0.00007874,0.00009841,-0.
 00003868,-0.00005820,0.00023459,0.00005080,-0.00002463,0.00001186,0.00
 005020,-0.00000767,-0.00003236,-0.00000030,0.00005609,0.00002298,-0.00
 035489,-0.00006841,-0.00028240,-0.00003285,-0.00001160,0.00000492,-0.0
 0000289,-0.00002258,0.00000157,-0.00001712,-0.00009253,0.00000773,0.00
 002656,-0.00000701,-0.00001398,-0.00001889,-0.00001321,-0.00000734,0.0
 0001132,-0.00000212,-0.00000015,-0.00000901,-0.00001561,0.00004164,-0.
 00013145,0.00002181,-0.00003933,0.00002546,-0.00005409,-0.00020551,-0.
 00010222,0.00021168,0.00039276,0.00089183,0.00047304,-0.00077535,0.002
 13722,0.00038353,0.00120648,-0.00025825,-0.00084977,0.00018188,-0.0000
 6635,-0.00003249,0.00001699,-0.00003556,-0.00006439,-0.00010746,-0.000
 01314,-0.00005298,0.00001999,-0.00015873,-0.00005794,0.00025682,-0.001
 44757,-0.00094351,-0.00190633,-0.00006433,0.00002450,0.00007989,-0.000
 45024,0.00043056,0.00076871,0.00046867,-0.00043809,-0.00019676,-0.0000
 5854,0.00005472,0.00004032,0.00018660,-0.00019490,-0.00016952,0.000026
 71,0.00014223,0.00009557,-0.00025332,-0.00003205,0.00011992,0.00003258
 ,-0.00018406,0.00013383,-0.02255240,-0.01083555,-0.02952848,0.00243209
 ,0.00887642,-0.00642453,0.00197215,0.00724879,0.00911834,-0.07476369,0
 .04140110,-0.25663204,-0.03350190,0.00329263,-0.00094844,0.13137083,-0
 .02361806,0.34711669,0.00010180,0.00018391,0.00003747,0.00012271,-0.00
 006229,0.00013222,0.00329716,-0.00046449,-0.00068004,-0.00006826,0.000
 03697,0.00002018,0.00006885,-0.00030768,-0.00017882,0.00002105,0.00009
 679,0.00008327,0.00000729,0.00000484,-0.00000952,-0.00000501,0.0000064
 4,-0.00000243,0.00000657,0.00000103,0.00000500,0.00000419,-0.00002315,
 -0.00000072,0.00002152,-0.00000779,-0.00000875,-0.00000370,-0.00000706
 ,0.00000834,-0.00000936,0.00000866,0.00000258,0.00000399,-0.00000165,-
 0.00000117,-0.00000017,0.00000025,-0.00000541,0.00000207,-0.00000327,-
 0.00000409,0.00000355,0.00000130,0.00000354,0.00000011,-0.00000022,0.0
 0000064,-0.00000067,-0.00000428,-0.00000244,0.00000196,0.00000365,-0.0
 0000051,-0.00000101,-0.00000230,0.00000012,0.00001498,-0.00001065,0.00
 000275,-0.00000197,-0.00001005,-0.00000952,0.00000907,0.00000040,0.000
 00371,-0.00000742,-0.00001224,0.00001435,-0.00002470,0.00001739,0.0000
 0345,0.00000727,0.00000176,-0.00000225,0.00000230,0.00000536,0.0000007
 4,0.00000023,-0.00000274,-0.00000333,-0.00000274,0.00000893,-0.0000091
 7,-0.00000066,0.00000157,-0.00000073,-0.00000164,0.00000123,-0.0000029
 7,0.00016748,0.00042671,0.00058605,-0.00000387,-0.00003986,-0.00001644
 ,-0.00000302,-0.00000054,-0.00001094,-0.00000922,-0.00000481,-0.000008
 23,0.00000104,0.00000104,-0.00000412,0.00000213,0.00000440,0.00000472,
 0.00000361,-0.00000611,0.00000723,0.00000333,0.00000269,0.00000913,-0.
 00000218,-0.00000204,0.00000109,-0.00000192,0.00000135,0.00000313,0.00
 000040,0.00000394,-0.00000108,-0.00000347,0.00000240,0.00000053,0.0000
 4981,-0.00010041,-0.00009123,-0.00000098,0.00000297,0.00003392,-0.0000
 0711,-0.00000067,-0.00000742,0.00000323,0.00000379,-0.00001156,0.00003
 129,-0.00002142,-0.00001569,-0.00005257,0.00020580,0.00031562,-0.00003
 358,-0.00001190,-0.00009575,-0.00001230,-0.00003493,-0.00000579,0.0001
 9366,-0.00025780,0.00007344,-0.00003720,0.00003023,-0.00000646,0.00000
 144,-0.00000611,0.00000949,-0.00000301,0.00000501,-0.00001073,-0.00001
 107,-0.00001834,-0.00002367,-0.00011455,-0.00019520,-0.00022398,0.0000
 6151,0.00007040,-0.00001669,0.00003376,-0.00004099,0.00000941,-0.00001
 309,-0.00001203,-0.00000025,0.00000627,0.00002088,-0.00002214,0.000017
 71,-0.00001402,0.00000180,0.00002021,-0.00003662,-0.00000084,0.0000068
 2,-0.00001448,0.00000516,0.00000428,0.00000449,0.,-0.00001661,0.000001
 61,-0.00001645,-0.00000488,0.00007332,0.00001003,-0.00000792,0.0000094
 5,-0.00000650,-0.00000473,-0.00000302,0.00000441,0.00000048,-0.0000009
 0,0.00001160,0.00000493,0.00000533,0.00000288,0.00000082,-0.00000909,0
 .00000108,-0.00000471,-0.00000222,0.00000122,-0.00000025,-0.00000119,0
 .00000357,0.00002356,0.00003504,-0.00000682,-0.00002342,0.00002030,0.0
 0005801,0.00003088,-0.00003650,-0.00009064,-0.00017595,0.00005318,0.00
 033225,0.00019132,-0.00045598,-0.00015450,0.00008084,0.00011557,0.0000
 1296,0.00000160,0.00001645,-0.00000881,-0.00000343,0.00002050,0.000016
 74,0.00000505,0.00001241,0.00000247,0.00002251,-0.00002887,-0.00004422
 ,-0.00040804,0.00002906,-0.00035716,0.00001348,0.00001048,-0.00005799,
 -0.00007413,-0.00010742,-0.00010823,-0.00000635,0.00009008,0.00005773,
 -0.00000297,-0.00000615,-0.00001156,-0.00001199,0.00003446,-0.00000540
 ,0.00000913,-0.00000608,-0.00000277,0.00002396,-0.00000522,-0.00001569
 ,0.00000262,0.00000210,0.00001176,0.00144391,-0.00088860,0.00044416,0.
 00061007,-0.00060860,0.00075994,0.00055517,-0.00095511,-0.00078869,-0.
 08247398,0.03803468,0.02438178,-0.03488333,0.04709305,0.03361090,0.014
 36131,-0.00971349,-0.00865298,0.09685292,-0.00090666,-0.00036116,-0.00
 003766,0.00255127,-0.00016879,0.00442820,-0.00758473,0.00045498,0.0035
 9061,0.00109808,0.00037164,0.00064576,-0.00083414,0.00155786,0.0002684
 5,-0.00000943,-0.00034915,0.00001122,-0.00023870,-0.00018896,-0.000259
 41,0.00002973,-0.00002932,0.00001696,-0.00000315,0.00000113,-0.0000088
 4,-0.00014657,0.00011151,-0.00000952,-0.00019404,0.00009593,-0.0001447
 2,-0.00004012,-0.00003743,-0.00000666,-0.00001022,-0.00009545,-0.00001
 977,-0.00001619,0.00004226,0.00002439,0.00002737,0.00001173,0.00003746
 ,0.00001716,0.00004589,-0.00001068,0.00001120,0.00000523,-0.00001541,0
 .00000043,-0.00002603,-0.00001171,0.00001644,-0.00000853,0.00000020,-0
 .00001337,-0.00001226,0.00002494,-0.00000230,-0.00001918,0.00000931,-0
 .00024723,-0.00004499,-0.00008575,0.00002225,0.00006164,0.00001481,0.0
 0006215,0.00003747,-0.00007879,-0.00004932,0.00002104,-0.00003506,0.00
 005452,-0.00007185,0.00009125,-0.00001950,-0.00000857,-0.00002773,-0.0
 0000801,-0.00001223,0.00001694,-0.00001408,0.00000345,0.00000769,0.000
 03435,-0.00002981,0.00003029,-0.00001587,-0.00001733,-0.00002708,0.000
 00341,-0.00001156,-0.00002780,0.00098496,-0.00166122,-0.00073887,0.000
 09196,0.00007784,0.00004207,-0.00004291,0.00002045,0.00002429,-0.00002
 954,0.00002098,0.00003616,0.00002991,0.00000469,0.00000034,0.00002416,
 -0.00000706,-0.00002231,-0.00002028,0.00001402,-0.00000177,0.00000389,
 -0.00001718,-0.00001440,-0.00000593,0.00002023,-0.00001739,-0.00000692
 ,-0.00000755,0.00000165,-0.00000964,0.00000047,-0.00001680,-0.00001139
 ,0.,-0.00000906,-0.00027347,-0.00005943,0.00034067,0.00009165,0.000065
 19,-0.00022506,0.00003618,-0.00000554,0.00003984,-0.00006366,0.0000601
 1,-0.00001297,-0.00007039,0.00000122,0.00007998,0.00020757,-0.00028835
 ,-0.00087695,-0.00000812,0.00012984,0.00010222,-0.00002380,-0.00010103
 ,0.00018557,-0.00043255,0.00026430,0.00000815,0.00017744,0.00012057,-0
 .00002484,-0.00001456,-0.00002835,0.00006787,-0.00001048,0.00000759,-0
 .00007692,0.00004112,0.00004101,0.00008152,-0.00008452,0.00053451,0.00
 022865,-0.00008637,-0.00021650,-0.00005952,0.00002196,0.00004268,-0.00
 003497,-0.00004121,0.00002717,0.00001726,-0.00005951,-0.00008727,0.000
 12083,-0.00004665,0.00004143,-0.00000153,0.00007790,0.00010611,-0.0001
 0079,-0.00004845,0.00002010,0.00001206,-0.00004746,0.00000150,-0.00000
 955,-0.00002770,-0.00003021,0.00009778,0.00026291,-0.00006085,0.000038
 02,0.00003753,0.00004583,-0.00003420,-0.00002253,-0.00000497,-0.000004
 09,0.00002996,0.00003341,-0.00008789,-0.00000564,-0.00001223,-0.000018
 63,0.00000154,0.00002659,-0.00000552,-0.00002146,-0.00000458,0.0000031
 4,0.00001595,-0.00000648,0.00000744,-0.00000953,-0.00013981,-0.0001579
 9,0.00006104,-0.00000859,-0.00013639,-0.00020047,-0.00018217,-0.000158
 32,-0.00097915,-0.00042927,0.00036886,0.00032730,0.00051907,-0.0000068
 1,-0.00019249,-0.00009865,0.00020245,0.00003604,-0.00007319,-0.0000509
 1,0.00003347,-0.00003488,-0.00008851,-0.00000503,-0.00004438,-0.000068
 21,0.00027278,0.00009885,-0.00032033,-0.00005817,-0.00023849,0.0002324
 4,0.00005376,0.00006791,-0.00004494,0.00087686,-0.00029126,-0.00138578
 ,-0.00071834,0.00035086,0.00041949,0.00002576,-0.00018527,-0.00005411,
 -0.00002376,0.00008127,-0.00013883,-0.00009366,-0.00013810,0.00000569,
 0.00013320,0.00008469,-0.00006118,0.00006184,0.00009209,0.00000047,0.0
 1562762,-0.02139752,-0.03016838,-0.00017062,0.00005403,0.00755715,-0.0
 0263868,-0.01076536,-0.00203735,0.04202848,-0.24422104,-0.10035160,0.0
 2936883,-0.00223069,-0.01306134,-0.00575618,0.00522762,-0.02733209,-0.
 07225707,0.27344409,-0.00004749,0.00005966,-0.00018039,-0.00011732,-0.
 00010233,-0.00018726,-0.00146359,0.00103535,0.00114238,0.00020885,0.00
 013417,0.00004797,-0.00114646,0.00010842,0.00024410,0.00001467,0.00000
 712,0.00010922,-0.00005506,-0.00003002,-0.00004803,0.00002098,0.000011
 23,0.00002999,-0.00001451,-0.00000979,-0.00000440,-0.00002594,-0.00000
 189,0.00000351,-0.00004366,0.00003376,-0.00003040,-0.00001146,-0.00001
 982,-0.00000060,0.00000509,-0.00004482,-0.00000433,-0.00000489,0.00001
 141,0.00001054,0.00000027,0.00000828,0.00001200,0.00000743,0.00001290,
 0.00000301,-0.00000399,0.00000357,-0.00001608,0.00000010,-0.00001301,-
 0.00000098,0.00000403,-0.00000318,-0.00000043,-0.00001060,-0.00000824,
 0.00000960,-0.00000303,-0.00000772,0.00000239,-0.00003407,-0.00002006,
 -0.00002784,0.00003232,0.00001979,0.00005976,-0.00000048,-0.00000088,-
 0.00000963,-0.00000544,-0.00000186,-0.00002591,0.00002891,0.00003039,-
 0.00001510,-0.00000846,-0.00000459,0.00000094,-0.00001010,-0.00000345,
 0.00000194,0.00000071,0.00000450,0.00002054,0.00000141,-0.00000409,0.0
 0002590,-0.00000898,-0.00000528,-0.00000605,0.00000092,-0.00000035,-0.
 00000824,0.00163723,-0.00049146,-0.00052168,0.00002726,-0.00002244,0.0
 0000147,-0.00001440,0.00002711,-0.00000548,-0.00001166,0.00000745,-0.0
 0001821,0.00000108,0.00000668,0.00000304,0.00000337,-0.00001197,-0.000
 01053,-0.00000059,-0.00000753,0.00001474,0.00000476,-0.00000407,0.0000
 1704,-0.00000892,0.00000428,0.00000009,-0.00001082,-0.00000306,0.00000
 234,-0.00000011,0.00000152,-0.00000485,-0.00000856,0.00000048,-0.00000
 227,0.00011536,0.00019570,0.00016607,-0.00005747,-0.00010474,-0.000109
 82,-0.00004791,0.00002901,0.00002062,-0.00000200,0.00000979,0.00000266
 ,0.00000213,0.00000960,0.00002812,0.00022258,-0.00013174,-0.00029543,-
 0.00019187,0.00010735,-0.00005148,0.00001662,-0.00003769,0.00056336,0.
 00020593,-0.00023142,-0.00004626,-0.00001166,-0.00003545,0.00003993,0.
 00003014,0.00003450,0.00006673,0.00000910,0.00000900,0.00000772,-0.000
 03723,-0.00000787,-0.00002043,-0.00049666,-0.00002011,0.00016463,-0.00
 003301,-0.00010991,-0.00031911,0.00001045,0.00001991,-0.00003980,-0.00
 004163,0.00000849,0.00005590,-0.00003669,0.00003926,0.00003459,0.00001
 298,-0.00000699,0.00003033,0.00000721,0.00002962,0.00005306,0.00000133
 ,0.00000182,0.00000709,0.00000115,-0.00000403,-0.00001405,-0.00000153,
 0.00000575,0.00004402,-0.00002932,-0.00005666,-0.00008115,-0.00000104,
 0.00000276,-0.00000318,-0.00000576,-0.00000800,-0.00000231,0.00000471,
 -0.00001926,-0.00002367,0.00000396,-0.00000782,-0.00001078,-0.00000535
 ,0.00000710,-0.00000314,-0.00000077,-0.00000118,0.00000027,0.00000233,
 -0.00000768,0.00001359,-0.00004017,-0.00002641,-0.00001881,0.00001989,
 -0.00004501,-0.00010066,-0.00006423,0.00008185,0.00010866,0.00016336,0
 .00004022,-0.00036396,0.00040080,0.00046682,0.00044844,-0.00013080,-0.
 00030995,0.00007195,-0.00001269,-0.00003542,-0.00000440,-0.00000091,-0
 .00003305,-0.00005844,-0.00000781,-0.00003299,-0.00001258,-0.00001440,
 0.00000119,0.00005075,-0.00049158,0.00011109,-0.00008079,-0.00002292,0
 .00001561,0.00004551,0.00004440,0.00013343,0.00005986,0.00000974,-0.00
 011399,-0.00002347,-0.00001104,-0.00001738,0.00000385,0.00003716,-0.00
 006270,-0.00006833,-0.00001542,0.00000375,0.00002549,-0.00001972,0.000
 00145,0.00003020,0.00001542,-0.00001470,0.00003866,0.00265330,-0.00251
 964,-0.00314120,0.00089896,0.00083404,0.00431111,-0.00077535,0.0006715
 5,0.00146477,0.02603882,-0.09502009,-0.12997498,0.02639797,-0.01822643
 ,-0.00174481,-0.00436844,-0.04561166,-0.06022211,-0.04927924,0.1592831
 6,0.18824340\\-0.00000564,-0.00000878,0.00001249,0.00000421,0.00000215
 ,-0.00000565,-0.00000017,-0.00000027,0.00000071,0.00000270,0.00000444,
 -0.00000949,0.00000014,0.00000307,-0.00000442,-0.00000245,-0.00000266,
 -0.00000205,0.00000190,-0.00000001,0.00000062,0.00000028,0.00000057,-0
 .00000032,0.00000062,-0.00000014,0.00000022,-0.00000049,-0.00000026,-0
 .00000043,-0.00000051,0.00000197,0.00000431,0.00000023,-0.00000158,-0.
 00000162,0.00000031,0.00000011,-0.00000038,0.00000061,0.00000050,-0.00
 000130,-0.00000032,0.00000004,0.,-0.00000045,-0.00000070,0.00000005,-0
 .00000022,0.00000013,-0.00000048,-0.00000072,-0.00000044,0.00000002,-0
 .00000040,0.,-0.00000050,-0.00000010,-0.00000003,-0.00000045,-0.000000
 19,0.00000002,-0.00000058,-0.00000277,-0.00000241,0.00000149,0.0000017
 4,0.00000174,-0.00000103,-0.00000025,0.00000009,0.00000014,0.00000084,
 0.00000085,0.00000135,-0.00000008,-0.00000012,0.00000038,-0.00000002,0
 .00000035,-0.00000105,-0.00000040,0.00000055,0.00000025,-0.00000065,0.
 00000002,-0.00000062,-0.00000036,0.00000018,-0.00000035,-0.00000018,0.
 00000051,-0.00000020,0.00000009,0.00000054,-0.00000018,-0.00000024,0.0
 0000475,-0.00000086,0.00000050,0.00000134,-0.00000108,-0.00000071,-0.0
 0000050,0.00000083,0.00000104,0.00000123,0.00000079,-0.00000047,0.0000
 0036,0.00000056,0.00000003,0.00000060,0.00000040,-0.00000006,0.0000007
 3,0.00000003,0.00000062,0.00000052,0.00000029,-0.00000039,0.00000045,0
 .00000030,0.00000008,0.00000027,0.00000008,0.00000017,0.00000049,0.000
 00032,0.00000023,0.00000045,0.00000030,-0.00000049,-0.00000368,0.00000
 408,-0.00000018,0.00000122,-0.00000008,-0.00000037,-0.00000065,0.00000
 028,0.00000006,-0.00000005,0.00000058,0.00000027,0.00000010,0.00000053
 ,0.00000268,0.00000167,0.00000003,-0.00000023,-0.00000013,0.00000078,-
 0.00000070,-0.00000003,0.00000036,0.00000056,-0.00000015,0.00000044,-0
 .00000010,0.00000028,-0.00000175,0.00000021,0.00000028,0.00000050,0.00
 000030,-0.00000009,0.00000061,-0.00000094,0.00000009,-0.00000010,0.000
 00215,0.00000155,0.00000217,0.00000041,-0.00000010,-0.00000029,0.00000
 010,0.00000026,0.00000040,0.00000026,0.00000012,-0.00000023,-0.0000039
 8,0.00000041,0.00000048,0.00000018,0.00000101,-0.00000107,0.00000158,-
 0.00000164,-0.00000018,0.00000069,-0.00000077,0.00000081,0.00000001,-0
 .00000036,-0.00000007,0.00000191,-0.00000044,0.00000034,-0.00000018,0.
 00000025,0.00000032,-0.00000194,-0.00000013,-0.00000048,-0.00000005,-0
 .00000033,0.00000002,-0.00000038,-0.00000018,-0.00000029,-0.00000008,-
 0.00000067,-0.00000014,0.00000002,-0.00000022,-0.00000021,-0.00000009,
 -0.00000035,-0.00000036,-0.00000009,-0.00000039,0.00000019,0.00000044,
 0.00000034,-0.00000059,-0.00000065,-0.00000085,0.00000011,-0.00000029,
 0.00000012,-0.00000137,-0.00000010,0.00000151,0.00000121,-0.00000023,-
 0.00000013,0.00000061,0.00000021,0.00000003,-0.00000040,0.00000019,0.0
 0000012,-0.00000046,-0.00000011,0.00000029,-0.00000015,-0.00000007,0.0
 0000024,-0.00000024,-0.00000092,-0.00000049,0.00000069,0.00000023,-0.0
 0000049,0.00000002,0.00000021,-0.00000003,0.00000016,-0.00000078,0.000
 00413,-0.00000156,0.00000122,-0.00000416,-0.00000146,0.00000059,-0.000
 00044,0.,-0.00000053,-0.00000304,0.00000044,-0.00000059,0.00000038,-0.
 00000055,0.00000074,-0.00000053,-0.00000009,-0.00000034,-0.00000103,-0
 .00000039,-0.00000380,0.00000420,0.00000227,0.00000184,0.00000012,0.00
 000165,0.00000252,-0.00000778,-0.00000154,0.00000073,0.00000095,-0.000
 00002,0.00000079,-0.00000123,0.00000024,-0.00000038,-0.00000052,-0.000
 00049,-0.00000060,0.00000034,0.00000136\\\@
 The archive entry for this job was punched.


 YOU ARE IN A MAZE OF TWISTY LITTLE PASSAGES.
 Job cpu time:       2 days  7 hours 55 minutes 17.8 seconds.
 Elapsed time:       0 days  1 hours 45 minutes 32.4 seconds.
 File lengths (MBytes):  RWF=  11874 Int=      0 D2E=      0 Chk=     94 Scr=      2
 Normal termination of Gaussian 16 at Sat Nov 25 19:59:03 2023.
