 Entering Gaussian System, Link 0=g16
 Initial command:
 /public/software/apps/Gaussian/g16/l1.exe "/public/home/LLG_HG/tmp/Gau-39368.inp" -scrdir="/public/home/LLG_HG/tmp/"
 Entering Link 1 = /public/software/apps/Gaussian/g16/l1.exe PID=     39369.
  
 Copyright (c) 1988-2019, Gaussian, Inc.  All Rights Reserved.
  
 This is part of the Gaussian(R) 16 program.  It is based on
 the Gaussian(R) 09 system (copyright 2009, Gaussian, Inc.),
 the Gaussian(R) 03 system (copyright 2003, Gaussian, Inc.),
 the Gaussian(R) 98 system (copyright 1998, Gaussian, Inc.),
 the Gaussian(R) 94 system (copyright 1995, Gaussian, Inc.),
 the Gaussian 92(TM) system (copyright 1992, Gaussian, Inc.),
 the Gaussian 90(TM) system (copyright 1990, Gaussian, Inc.),
 the Gaussian 88(TM) system (copyright 1988, Gaussian, Inc.),
 the Gaussian 86(TM) system (copyright 1986, Carnegie Mellon
 University), and the Gaussian 82(TM) system (copyright 1983,
 Carnegie Mellon University). Gaussian is a federally registered
 trademark of Gaussian, Inc.
  
 This software contains proprietary and confidential information,
 including trade secrets, belonging to Gaussian, Inc.
  
 This software is provided under written license and may be
 used, copied, transmitted, or stored only in accord with that
 written license.
  
 The following legend is applicable only to US Government
 contracts under FAR:
  
                    RESTRICTED RIGHTS LEGEND
  
 Use, reproduction and disclosure by the US Government is
 subject to restrictions as set forth in subparagraphs (a)
 and (c) of the Commercial Computer Software - Restricted
 Rights clause in FAR 52.227-19.
  
 Gaussian, Inc.
 340 Quinnipiac St., Bldg. 40, Wallingford CT 06492
  
  
 ---------------------------------------------------------------
 Warning -- This program may not be used in any manner that
 competes with the business of Gaussian, Inc. or will provide
 assistance to any competitor of Gaussian, Inc.  The licensee
 of this program is prohibited from giving any competitor of
 Gaussian, Inc. access to this program.  By using this program,
 the user acknowledges that Gaussian, Inc. is engaged in the
 business of creating and licensing software in the field of
 computational chemistry and represents and warrants to the
 licensee that it is not a competitor of Gaussian, Inc. and that
 it will not use this program in any manner prohibited above.
 ---------------------------------------------------------------
  

 Cite this work as:
 Gaussian 16, Revision C.01,
 M. J. Frisch, G. W. Trucks, H. B. Schlegel, G. E. Scuseria, 
 M. A. Robb, J. R. Cheeseman, G. Scalmani, V. Barone, 
 G. A. Petersson, H. Nakatsuji, X. Li, M. Caricato, A. V. Marenich, 
 J. Bloino, B. G. Janesko, R. Gomperts, B. Mennucci, H. P. Hratchian, 
 J. V. Ortiz, A. F. Izmaylov, J. L. Sonnenberg, D. Williams-Young, 
 F. Ding, F. Lipparini, F. Egidi, J. Goings, B. Peng, A. Petrone, 
 T. Henderson, D. Ranasinghe, V. G. Zakrzewski, J. Gao, N. Rega, 
 G. Zheng, W. Liang, M. Hada, M. Ehara, K. Toyota, R. Fukuda, 
 J. Hasegawa, M. Ishida, T. Nakajima, Y. Honda, O. Kitao, H. Nakai, 
 T. Vreven, K. Throssell, J. A. Montgomery, Jr., J. E. Peralta, 
 F. Ogliaro, M. J. Bearpark, J. J. Heyd, E. N. Brothers, K. N. Kudin, 
 V. N. Staroverov, T. A. Keith, R. Kobayashi, J. Normand, 
 K. Raghavachari, A. P. Rendell, J. C. Burant, S. S. Iyengar, 
 J. Tomasi, M. Cossi, J. M. Millam, M. Klene, C. Adamo, R. Cammi, 
 J. W. Ochterski, R. L. Martin, K. Morokuma, O. Farkas, 
 J. B. Foresman, and D. J. Fox, Gaussian, Inc., Wallingford CT, 2019.
 
 ******************************************
 Gaussian 16:  ES64L-G16RevC.01  3-Jul-2019
                 3-Dec-2023 
 ******************************************
 %nprocs=32
 Will use up to   32 processors via shared memory.
 %mem=80GB
 ---------------------------------------------------------------
 # m06/def2tzvpp scrf=(smd,solvent=n,n-dimethylformamide) em=gd3
 ---------------------------------------------------------------
 1/38=1,172=1/1;
 2/12=2,17=6,18=5,40=1/2;
 3/5=44,7=202,11=2,25=1,30=1,70=32201,72=148,74=-54,124=31/1,2,3;
 4//1;
 5/5=2,38=5,53=148/2;
 6/7=2,8=2,9=2,10=2,28=1/1;
 99/5=1,9=1/99;
 -------------------
 Title Card Required
 -------------------
 Symbolic Z-matrix:
 Charge =  0 Multiplicity = 1
 Ni                   -0.96632   0.59147  -0.1222 
 C                    -2.84115   0.94701  -0.32333 
 O                    -1.66786  -0.72693  -2.54377 
 P                     0.94208   1.26978   0.7019 
 O                    -0.70895  -1.35578   0.51765 
 C                     2.44635  -1.15018   0.68577 
 C                     2.55923   0.37321   0.48001 
 H                     1.85281  -1.31357   1.58707 
 H                     2.94423   0.59843  -0.51243 
 H                     3.27629   0.76536   1.20602 
 C                     1.48087   3.00368   0.42751 
 C                     1.07005   4.03256   1.288 
 C                     2.21492   3.3361   -0.72157 
 C                     1.38706   5.36116   1.00523 
 H                     0.49511   3.79194   2.17483 
 C                     2.53452   4.66478  -0.99913 
 H                     2.52941   2.56321  -1.4123 
 C                     2.11945   5.68266  -0.1386 
 H                     1.06087   6.14607   1.68146 
 H                     3.11084   4.90236  -1.88875 
 H                     2.36666   6.71737  -0.35621 
 C                     0.78009   1.16034   2.53665 
 C                    -0.39149   0.61674   3.08011 
 C                     1.79685   1.58729   3.40524 
 C                    -0.54737   0.50403   4.46249 
 H                    -1.1835    0.29105   2.41745 
 C                     1.64453   1.46974   4.78539 
 H                     2.70195   2.03403   3.00386 
 C                     0.4707    0.9268    5.31648 
 H                    -1.47187   0.09782   4.86111 
 H                     2.43711   1.80681   5.4472 
 H                     0.35146   0.84142   6.39277 
 S                     0.12088  -2.3769   -0.27066 
 C                     3.8206   -1.77264   0.90789 
 C                     4.91966  -1.40837   0.11725 
 C                     4.01989  -2.71648   1.92213 
 C                     6.16873  -1.99655   0.31237 
 H                     4.80271  -0.65297  -0.65096 
 C                     5.26928  -3.30369   2.12509 
 H                     3.19618  -2.98817   2.57286 
 C                     6.34781  -2.9511    1.3145 
 H                     7.0048   -1.70175  -0.31488 
 H                     5.39933  -4.02974   2.92198 
 H                     7.32106  -3.40658   1.46919 
 C                     0.13829  -3.8348    0.93529 
 C                     1.28615  -4.75062   0.51483 
 H                     2.25886  -4.27503   0.65033 
 H                     1.26053  -5.6623    1.12108 
 H                     1.1922   -5.0502   -0.53478 
 C                    -1.22112  -4.50906   0.69303 
 H                    -1.26557  -5.43489   1.27592 
 H                    -2.04214  -3.8633    1.00892 
 H                    -1.36744  -4.76501  -0.36095 
 C                     0.22778  -3.36015   2.38351 
 H                    -0.486    -2.55509   2.56855 
 H                    -0.00653  -4.19791   3.04915 
 H                     1.22309  -3.00158   2.64426 
 N                     1.71524  -1.84075  -0.40648 
 C                     2.30914  -1.9869   -1.74613 
 H                     1.6631   -2.67811  -2.29677 
 H                     3.27977  -2.48234  -1.64509 
 C                     2.46088  -0.70335  -2.53843 
 C                     3.69476  -0.33316  -3.07664 
 C                     1.3567    0.12993  -2.75818 
 C                     3.83307   0.85977  -3.79248 
 H                     4.55935  -0.97598  -2.93228 
 C                     1.49541   1.31032  -3.4788 
 H                     0.38617  -0.13478  -2.35996 
 C                     2.73778   1.70278  -4.00052 
 H                     4.80567   1.13745  -4.19008 
 H                     0.62758   1.94664  -3.62279 
 C                     2.87197   3.00187  -4.7549 
 H                     2.44771   3.8335   -4.18173 
 H                     3.91824   3.23488  -4.97037 
 H                     2.33415   2.96364  -5.70925 
 C                    -4.70852   0.50949   3.51044 
 C                    -3.93296   1.62194   3.22421 
 C                    -3.3561    1.80631   1.95206 
 C                    -3.54816   0.80772   0.95093 
 C                    -4.38029  -0.28781   1.24777 
 C                    -4.94501  -0.44132   2.50626 
 H                    -2.51509   3.76173   2.40428 
 H                    -5.14514   0.38501   4.49699 
 H                    -3.76464   2.38289   3.98208 
 C                    -2.59691   2.99158   1.64228 
 H                    -4.58186  -1.02421   0.48347 
 H                    -5.57268  -1.30401   2.71045 
 C                    -2.04949   2.13837  -0.60964 
 C                    -2.01729   3.15733   0.4266 
 H                    -1.48552   4.07706   0.20043 
 C                    -1.81773   2.61805  -2.03066 
 H                    -0.96905   3.30951  -2.04565 
 H                    -1.59061   1.80195  -2.7175 
 H                    -2.69499   3.15077  -2.42201 
 S                    -3.12303  -0.60722  -2.53566 
 O                    -3.86839  -0.35812  -3.75738 
 O                    -3.66383   0.41135  -1.43632 
 C                    -3.73602  -2.23812  -1.88189 
 F                    -5.05696  -2.20397  -1.70546 
 F                    -3.1459   -2.52058  -0.71535 
 F                    -3.42783  -3.19188  -2.76356 
 
 Stoichiometry    C44H45F3NNiO4PS2
 Framework group  C1[X(C44H45F3NNiO4PS2)]
 Deg. of freedom   297
 Full point group                 C1      NOp   1
 Largest Abelian subgroup         C1      NOp   1
 Largest concise Abelian subgroup C1      NOp   1
                         Standard orientation:                         
 ---------------------------------------------------------------------
 Center     Atomic      Atomic             Coordinates (Angstroms)
 Number     Number       Type             X           Y           Z
 ---------------------------------------------------------------------
      1         28           0       -0.966317    0.591470   -0.122199
      2          6           0       -2.841145    0.947011   -0.323331
      3          8           0       -1.667861   -0.726926   -2.543765
      4         15           0        0.942079    1.269783    0.701897
      5          8           0       -0.708951   -1.355779    0.517649
      6          6           0        2.446346   -1.150182    0.685771
      7          6           0        2.559229    0.373209    0.480013
      8          1           0        1.852806   -1.313572    1.587067
      9          1           0        2.944230    0.598433   -0.512434
     10          1           0        3.276290    0.765362    1.206024
     11          6           0        1.480866    3.003677    0.427509
     12          6           0        1.070052    4.032564    1.288001
     13          6           0        2.214923    3.336098   -0.721572
     14          6           0        1.387059    5.361165    1.005226
     15          1           0        0.495112    3.791943    2.174832
     16          6           0        2.534518    4.664779   -0.999132
     17          1           0        2.529405    2.563207   -1.412297
     18          6           0        2.119451    5.682662   -0.138597
     19          1           0        1.060866    6.146066    1.681459
     20          1           0        3.110837    4.902362   -1.888751
     21          1           0        2.366659    6.717369   -0.356209
     22          6           0        0.780090    1.160340    2.536651
     23          6           0       -0.391494    0.616741    3.080110
     24          6           0        1.796851    1.587291    3.405240
     25          6           0       -0.547371    0.504033    4.462490
     26          1           0       -1.183495    0.291051    2.417449
     27          6           0        1.644525    1.469744    4.785392
     28          1           0        2.701945    2.034035    3.003865
     29          6           0        0.470700    0.926801    5.316481
     30          1           0       -1.471866    0.097818    4.861111
     31          1           0        2.437113    1.806808    5.447195
     32          1           0        0.351461    0.841418    6.392771
     33         16           0        0.120881   -2.376900   -0.270659
     34          6           0        3.820603   -1.772644    0.907893
     35          6           0        4.919664   -1.408369    0.117253
     36          6           0        4.019886   -2.716482    1.922129
     37          6           0        6.168725   -1.996551    0.312366
     38          1           0        4.802711   -0.652972   -0.650963
     39          6           0        5.269281   -3.303694    2.125089
     40          1           0        3.196181   -2.988170    2.572860
     41          6           0        6.347812   -2.951095    1.314504
     42          1           0        7.004800   -1.701749   -0.314883
     43          1           0        5.399327   -4.029737    2.921975
     44          1           0        7.321056   -3.406578    1.469189
     45          6           0        0.138288   -3.834801    0.935294
     46          6           0        1.286148   -4.750622    0.514834
     47          1           0        2.258855   -4.275027    0.650330
     48          1           0        1.260532   -5.662301    1.121084
     49          1           0        1.192201   -5.050201   -0.534778
     50          6           0       -1.221116   -4.509059    0.693029
     51          1           0       -1.265573   -5.434890    1.275918
     52          1           0       -2.042143   -3.863302    1.008916
     53          1           0       -1.367436   -4.765008   -0.360949
     54          6           0        0.227775   -3.360153    2.383509
     55          1           0       -0.486004   -2.555086    2.568545
     56          1           0       -0.006527   -4.197911    3.049147
     57          1           0        1.223089   -3.001581    2.644264
     58          7           0        1.715235   -1.840747   -0.406483
     59          6           0        2.309140   -1.986897   -1.746129
     60          1           0        1.663103   -2.678111   -2.296766
     61          1           0        3.279765   -2.482335   -1.645085
     62          6           0        2.460881   -0.703354   -2.538427
     63          6           0        3.694755   -0.333160   -3.076638
     64          6           0        1.356695    0.129933   -2.758180
     65          6           0        3.833071    0.859766   -3.792483
     66          1           0        4.559351   -0.975982   -2.932284
     67          6           0        1.495405    1.310317   -3.478804
     68          1           0        0.386173   -0.134778   -2.359960
     69          6           0        2.737776    1.702782   -4.000520
     70          1           0        4.805669    1.137448   -4.190085
     71          1           0        0.627578    1.946637   -3.622786
     72          6           0        2.871969    3.001872   -4.754903
     73          1           0        2.447712    3.833504   -4.181732
     74          1           0        3.918238    3.234875   -4.970368
     75          1           0        2.334147    2.963642   -5.709253
     76          6           0       -4.708524    0.509490    3.510438
     77          6           0       -3.932956    1.621944    3.224213
     78          6           0       -3.356103    1.806309    1.952057
     79          6           0       -3.548158    0.807715    0.950933
     80          6           0       -4.380288   -0.287814    1.247766
     81          6           0       -4.945012   -0.441324    2.506264
     82          1           0       -2.515086    3.761727    2.404281
     83          1           0       -5.145141    0.385008    4.496989
     84          1           0       -3.764636    2.382886    3.982075
     85          6           0       -2.596911    2.991583    1.642276
     86          1           0       -4.581855   -1.024213    0.483465
     87          1           0       -5.572676   -1.304014    2.710450
     88          6           0       -2.049487    2.138366   -0.609638
     89          6           0       -2.017285    3.157332    0.426597
     90          1           0       -1.485524    4.077059    0.200426
     91          6           0       -1.817733    2.618045   -2.030664
     92          1           0       -0.969045    3.309514   -2.045646
     93          1           0       -1.590606    1.801947   -2.717501
     94          1           0       -2.694990    3.150770   -2.422008
     95         16           0       -3.123026   -0.607218   -2.535658
     96          8           0       -3.868393   -0.358122   -3.757383
     97          8           0       -3.663831    0.411354   -1.436324
     98          6           0       -3.736017   -2.238124   -1.881886
     99          9           0       -5.056959   -2.203971   -1.705460
    100          9           0       -3.145904   -2.520580   -0.715351
    101          9           0       -3.427832   -3.191878   -2.763558
 ---------------------------------------------------------------------
 Rotational constants (GHZ):           0.0557568           0.0440498           0.0420864
 Standard basis: def2TZVPP (5D, 7F)
 There are  2771 symmetry adapted cartesian basis functions of A   symmetry.
 There are  2432 symmetry adapted basis functions of A   symmetry.
  2432 basis functions,  3754 primitive gaussians,  2771 cartesian basis functions
   225 alpha electrons      225 beta electrons
       nuclear repulsion energy     11030.3907132058 Hartrees.
 NAtoms=  101 NActive=  101 NUniq=  101 SFac= 1.00D+00 NAtFMM=   60 NAOKFM=T Big=T
 Integral buffers will be    131072 words long.
 Raffenetti 2 integral format.
 Two-electron integral symmetry is turned on.
 Nuclear repulsion after empirical dispersion term =    11030.3496283082 Hartrees.
 ------------------------------------------------------------------------------
 Polarizable Continuum Model (PCM)
 =================================
 Model                : PCM.
 Atomic radii         : SMD-Coulomb.
 Polarization charges : Total charges.
 Charge compensation  : None.
 Solution method      : On-the-fly selection.
 Cavity type          : VdW (van der Waals Surface) (Alpha=1.000).
 Cavity algorithm     : GePol (No added spheres)
                        Default sphere list used, NSphG=  101.
                        Lebedev-Laikov grids with approx.  5.0 points / Ang**2.
                        Smoothing algorithm: York/Karplus (Gamma=1.0000).
                        Polarization charges: spherical gaussians, with
                                              point-specific exponents (IZeta= 3).
                        Self-potential: point-specific (ISelfS= 7).
                        Self-field    : sphere-specific E.n sum rule (ISelfD= 2).
 Solvent              : n,n-DiMethylFormamide, Eps=  37.219000 Eps(inf)=   2.046330
 ------------------------------------------------------------------------------
 ------------------------------------------------------------------------------
 Atomic radii for non-electrostatic terms: SMD-CDS.
 ------------------------------------------------------------------------------
 Nuclear repulsion after PCM non-electrostatic terms =    11030.3421504011 Hartrees.
 One-electron integrals computed using PRISM.
   1 Symmetry operations used in ECPInt.
 ECPInt:  NShTT=  407253 NPrTT= 1157403 LenC2=  302346 LenP2D=  570564.
 LDataN:  DoStor=T MaxTD1= 8 Len=  415
 NBasis=  2432 RedAO= T EigKep=  2.49D-06  NBF=  2432
 NBsUse=  2432 1.00D-06 EigRej= -1.00D+00 NBFU=  2432
 ExpMin= 4.68D-02 ExpMax= 3.52D+05 ExpMxC= 3.39D+03 IAcc=3 IRadAn=         5 AccDes= 0.00D+00
 Harris functional with IExCor= 1009 and IRadAn=       5 diagonalized for initial guess.
 HarFok:  IExCor= 1009 AccDes= 0.00D+00 IRadAn=         5 IDoV= 1 UseB2=F ITyADJ=14
 ICtDFT=  3500011 ScaDFX=  1.000000  1.000000  1.000000  1.000000
 FoFCou: FMM=F IPFlag=           0 FMFlag=      100000 FMFlg1=        2001
         NFxFlg=           0 DoJE=T BraDBF=F KetDBF=T FulRan=T
         wScrn=  0.000000 ICntrl=       500 IOpCl=  0 I1Cent=   200000004 NGrid=           0
         NMat0=    1 NMatS0=      1 NMatT0=    0 NMatD0=    1 NMtDS0=    0 NMtDT0=    0
 Petite list used in FoFCou.
 Requested convergence on RMS density matrix=1.00D-08 within 128 cycles.
 Requested convergence on MAX density matrix=1.00D-06.
 Requested convergence on             energy=1.00D-06.
 No special actions if energy rises.
 Inv3:  Mode=1 IEnd=   136485075.
 Iteration    1 A*A^-1 deviation from unit magnitude is 3.55D-15 for   5622.
 Iteration    1 A*A^-1 deviation from orthogonality  is 2.85D-15 for   3599   2714.
 Iteration    1 A^-1*A deviation from unit magnitude is 3.33D-15 for   5622.
 Iteration    1 A^-1*A deviation from orthogonality  is 6.61D-14 for   4605   3161.
 EnCoef did     3 forward-backward iterations
 Error on total polarization charges =  0.07707
 SCF Done:  E(RM06) =  -5004.38043201     A.U. after   18 cycles
            NFock= 18  Conv=0.18D-08     -V/T= 2.0034
 SMD-CDS (non-electrostatic) energy       (kcal/mol) =      -4.69
 (included in total energy above)
 Hyperfine terms turned off by default for NAtoms > 100.

 **********************************************************************

            Population analysis using the SCF Density.

 **********************************************************************

 Orbital symmetries:
       Occupied  (A) (A) (A) (A) (A) (A) (A) (A) (A) (A) (A) (A)
                 (A) (A) (A) (A) (A) (A) (A) (A) (A) (A) (A) (A)
                 (A) (A) (A) (A) (A) (A) (A) (A) (A) (A) (A) (A)
                 (A) (A) (A) (A) (A) (A) (A) (A) (A) (A) (A) (A)
                 (A) (A) (A) (A) (A) (A) (A) (A) (A) (A) (A) (A)
                 (A) (A) (A) (A) (A) (A) (A) (A) (A) (A) (A) (A)
                 (A) (A) (A) (A) (A) (A) (A) (A) (A) (A) (A) (A)
                 (A) (A) (A) (A) (A) (A) (A) (A) (A) (A) (A) (A)
                 (A) (A) (A) (A) (A) (A) (A) (A) (A) (A) (A) (A)
                 (A) (A) (A) (A) (A) (A) (A) (A) (A) (A) (A) (A)
                 (A) (A) (A) (A) (A) (A) (A) (A) (A) (A) (A) (A)
                 (A) (A) (A) (A) (A) (A) (A) (A) (A) (A) (A) (A)
                 (A) (A) (A) (A) (A) (A) (A) (A) (A) (A) (A) (A)
                 (A) (A) (A) (A) (A) (A) (A) (A) (A) (A) (A) (A)
                 (A) (A) (A) (A) (A) (A) (A) (A) (A) (A) (A) (A)
                 (A) (A) (A) (A) (A) (A) (A) (A) (A) (A) (A) (A)
                 (A) (A) (A) (A) (A) (A) (A) (A) (A) (A) (A) (A)
                 (A) (A) (A) (A) (A) (A) (A) (A) (A) (A) (A) (A)
                 (A) (A) (A) (A) (A) (A) (A) (A) (A)
       Virtual   (A) (A) (A) (A) (A) (A) (A) (A) (A) (A) (A) (A)
                 (A) (A) (A) (A) (A) (A) (A) (A) (A) (A) (A) (A)
                 (A) (A) (A) (A) (A) (A) (A) (A) (A) (A) (A) (A)
                 (A) (A) (A) (A) (A) (A) (A) (A) (A) (A) (A) (A)
                 (A) (A) (A) (A) (A) (A) (A) (A) (A) (A) (A) (A)
                 (A) (A) (A) (A) (A) (A) (A) (A) (A) (A) (A) (A)
                 (A) (A) (A) (A) (A) (A) (A) (A) (A) (A) (A) (A)
                 (A) (A) (A) (A) (A) (A) (A) (A) (A) (A) (A) (A)
                 (A) (A) (A) (A) (A) (A) (A) (A) (A) (A) (A) (A)
                 (A) (A) (A) (A) (A) (A) (A) (A) (A) (A) (A) (A)
                 (A) (A) (A) (A) (A) (A) (A) (A) (A) (A) (A) (A)
                 (A) (A) (A) (A) (A) (A) (A) (A) (A) (A) (A) (A)
                 (A) (A) (A) (A) (A) (A) (A) (A) (A) (A) (A) (A)
                 (A) (A) (A) (A) (A) (A) (A) (A) (A) (A) (A) (A)
                 (A) (A) (A) (A) (A) (A) (A) (A) (A) (A) (A) (A)
                 (A) (A) (A) (A) (A) (A) (A) (A) (A) (A) (A) (A)
                 (A) (A) (A) (A) (A) (A) (A) (A) (A) (A) (A) (A)
                 (A) (A) (A) (A) (A) (A) (A) (A) (A) (A) (A) (A)
                 (A) (A) (A) (A) (A) (A) (A) (A) (A) (A) (A) (A)
                 (A) (A) (A) (A) (A) (A) (A) (A) (A) (A) (A) (A)
                 (A) (A) (A) (A) (A) (A) (A) (A) (A) (A) (A) (A)
                 (A) (A) (A) (A) (A) (A) (A) (A) (A) (A) (A) (A)
                 (A) (A) (A) (A) (A) (A) (A) (A) (A) (A) (A) (A)
                 (A) (A) (A) (A) (A) (A) (A) (A) (A) (A) (A) (A)
                 (A) (A) (A) (A) (A) (A) (A) (A) (A) (A) (A) (A)
                 (A) (A) (A) (A) (A) (A) (A) (A) (A) (A) (A) (A)
                 (A) (A) (A) (A) (A) (A) (A) (A) (A) (A) (A) (A)
                 (A) (A) (A) (A) (A) (A) (A) (A) (A) (A) (A) (A)
                 (A) (A) (A) (A) (A) (A) (A) (A) (A) (A) (A) (A)
                 (A) (A) (A) (A) (A) (A) (A) (A) (A) (A) (A) (A)
                 (A) (A) (A) (A) (A) (A) (A) (A) (A) (A) (A) (A)
                 (A) (A) (A) (A) (A) (A) (A) (A) (A) (A) (A) (A)
                 (A) (A) (A) (A) (A) (A) (A) (A) (A) (A) (A) (A)
                 (A) (A) (A) (A) (A) (A) (A) (A) (A) (A) (A) (A)
                 (A) (A) (A) (A) (A) (A) (A) (A) (A) (A) (A) (A)
                 (A) (A) (A) (A) (A) (A) (A) (A) (A) (A) (A) (A)
                 (A) (A) (A) (A) (A) (A) (A) (A) (A) (A) (A) (A)
                 (A) (A) (A) (A) (A) (A) (A) (A) (A) (A) (A) (A)
                 (A) (A) (A) (A) (A) (A) (A) (A) (A) (A) (A) (A)
                 (A) (A) (A) (A) (A) (A) (A) (A) (A) (A) (A) (A)
                 (A) (A) (A) (A) (A) (A) (A) (A) (A) (A) (A) (A)
                 (A) (A) (A) (A) (A) (A) (A) (A) (A) (A) (A) (A)
                 (A) (A) (A) (A) (A) (A) (A) (A) (A) (A) (A) (A)
                 (A) (A) (A) (A) (A) (A) (A) (A) (A) (A) (A) (A)
                 (A) (A) (A) (A) (A) (A) (A) (A) (A) (A) (A) (A)
                 (A) (A) (A) (A) (A) (A) (A) (A) (A) (A) (A) (A)
                 (A) (A) (A) (A) (A) (A) (A) (A) (A) (A) (A) (A)
                 (A) (A) (A) (A) (A) (A) (A) (A) (A) (A) (A) (A)
                 (A) (A) (A) (A) (A) (A) (A) (A) (A) (A) (A) (A)
                 (A) (A) (A) (A) (A) (A) (A) (A) (A) (A) (A) (A)
                 (A) (A) (A) (A) (A) (A) (A) (A) (A) (A) (A) (A)
                 (A) (A) (A) (A) (A) (A) (A) (A) (A) (A) (A) (A)
                 (A) (A) (A) (A) (A) (A) (A) (A) (A) (A) (A) (A)
                 (A) (A) (A) (A) (A) (A) (A) (A) (A) (A) (A) (A)
                 (A) (A) (A) (A) (A) (A) (A) (A) (A) (A) (A) (A)
                 (A) (A) (A) (A) (A) (A) (A) (A) (A) (A) (A) (A)
                 (A) (A) (A) (A) (A) (A) (A) (A) (A) (A) (A) (A)
                 (A) (A) (A) (A) (A) (A) (A) (A) (A) (A) (A) (A)
                 (A) (A) (A) (A) (A) (A) (A) (A) (A) (A) (A) (A)
                 (A) (A) (A) (A) (A) (A) (A) (A) (A) (A) (A) (A)
                 (A) (A) (A) (A) (A) (A) (A) (A) (A) (A) (A) (A)
                 (A) (A) (A) (A) (A) (A) (A) (A) (A) (A) (A) (A)
                 (A) (A) (A) (A) (A) (A) (A) (A) (A) (A) (A) (A)
                 (A) (A) (A) (A) (A) (A) (A) (A) (A) (A) (A) (A)
                 (A) (A) (A) (A) (A) (A) (A) (A) (A) (A) (A) (A)
                 (A) (A) (A) (A) (A) (A) (A) (A) (A) (A) (A) (A)
                 (A) (A) (A) (A) (A) (A) (A) (A) (A) (A) (A) (A)
                 (A) (A) (A) (A) (A) (A) (A) (A) (A) (A) (A) (A)
                 (A) (A) (A) (A) (A) (A) (A) (A) (A) (A) (A) (A)
                 (A) (A) (A) (A) (A) (A) (A) (A) (A) (A) (A) (A)
                 (A) (A) (A) (A) (A) (A) (A) (A) (A) (A) (A) (A)
                 (A) (A) (A) (A) (A) (A) (A) (A) (A) (A) (A) (A)
                 (A) (A) (A) (A) (A) (A) (A) (A) (A) (A) (A) (A)
                 (A) (A) (A) (A) (A) (A) (A) (A) (A) (A) (A) (A)
                 (A) (A) (A) (A) (A) (A) (A) (A) (A) (A) (A) (A)
                 (A) (A) (A) (A) (A) (A) (A) (A) (A) (A) (A) (A)
                 (A) (A) (A) (A) (A) (A) (A) (A) (A) (A) (A) (A)
                 (A) (A) (A) (A) (A) (A) (A) (A) (A) (A) (A) (A)
                 (A) (A) (A) (A) (A) (A) (A) (A) (A) (A) (A) (A)
                 (A) (A) (A) (A) (A) (A) (A) (A) (A) (A) (A) (A)
                 (A) (A) (A) (A) (A) (A) (A) (A) (A) (A) (A) (A)
                 (A) (A) (A) (A) (A) (A) (A) (A) (A) (A) (A) (A)
                 (A) (A) (A) (A) (A) (A) (A) (A) (A) (A) (A) (A)
                 (A) (A) (A) (A) (A) (A) (A) (A) (A) (A) (A) (A)
                 (A) (A) (A) (A) (A) (A) (A) (A) (A) (A) (A) (A)
                 (A) (A) (A) (A) (A) (A) (A) (A) (A) (A) (A) (A)
                 (A) (A) (A) (A) (A) (A) (A) (A) (A) (A) (A) (A)
                 (A) (A) (A) (A) (A) (A) (A) (A) (A) (A) (A) (A)
                 (A) (A) (A) (A) (A) (A) (A) (A) (A) (A) (A) (A)
                 (A) (A) (A) (A) (A) (A) (A) (A) (A) (A) (A) (A)
                 (A) (A) (A) (A) (A) (A) (A) (A) (A) (A) (A) (A)
                 (A) (A) (A) (A) (A) (A) (A) (A) (A) (A) (A) (A)
                 (A) (A) (A) (A) (A) (A) (A) (A) (A) (A) (A) (A)
                 (A) (A) (A) (A) (A) (A) (A) (A) (A) (A) (A) (A)
                 (A) (A) (A) (A) (A) (A) (A) (A) (A) (A) (A) (A)
                 (A) (A) (A) (A) (A) (A) (A) (A) (A) (A) (A) (A)
                 (A) (A) (A) (A) (A) (A) (A) (A) (A) (A) (A) (A)
                 (A) (A) (A) (A) (A) (A) (A) (A) (A) (A) (A) (A)
                 (A) (A) (A) (A) (A) (A) (A) (A) (A) (A) (A) (A)
                 (A) (A) (A) (A) (A) (A) (A) (A) (A) (A) (A) (A)
                 (A) (A) (A) (A) (A) (A) (A) (A) (A) (A) (A) (A)
                 (A) (A) (A) (A) (A) (A) (A) (A) (A) (A) (A) (A)
                 (A) (A) (A) (A) (A) (A) (A) (A) (A) (A) (A) (A)
                 (A) (A) (A) (A) (A) (A) (A) (A) (A) (A) (A) (A)
                 (A) (A) (A) (A) (A) (A) (A) (A) (A) (A) (A) (A)
                 (A) (A) (A) (A) (A) (A) (A) (A) (A) (A) (A) (A)
                 (A) (A) (A) (A) (A) (A) (A) (A) (A) (A) (A) (A)
                 (A) (A) (A) (A) (A) (A) (A) (A) (A) (A) (A) (A)
                 (A) (A) (A) (A) (A) (A) (A) (A) (A) (A) (A) (A)
                 (A) (A) (A) (A) (A) (A) (A) (A) (A) (A) (A) (A)
                 (A) (A) (A) (A) (A) (A) (A) (A) (A) (A) (A) (A)
                 (A) (A) (A) (A) (A) (A) (A) (A) (A) (A) (A) (A)
                 (A) (A) (A) (A) (A) (A) (A) (A) (A) (A) (A) (A)
                 (A) (A) (A) (A) (A) (A) (A) (A) (A) (A) (A) (A)
                 (A) (A) (A) (A) (A) (A) (A) (A) (A) (A) (A) (A)
                 (A) (A) (A) (A) (A) (A) (A) (A) (A) (A) (A) (A)
                 (A) (A) (A) (A) (A) (A) (A) (A) (A) (A) (A) (A)
                 (A) (A) (A) (A) (A) (A) (A) (A) (A) (A) (A) (A)
                 (A) (A) (A) (A) (A) (A) (A) (A) (A) (A) (A) (A)
                 (A) (A) (A) (A) (A) (A) (A) (A) (A) (A) (A) (A)
                 (A) (A) (A) (A) (A) (A) (A) (A) (A) (A) (A) (A)
                 (A) (A) (A) (A) (A) (A) (A) (A) (A) (A) (A) (A)
                 (A) (A) (A) (A) (A) (A) (A) (A) (A) (A) (A) (A)
                 (A) (A) (A) (A) (A) (A) (A) (A) (A) (A) (A) (A)
                 (A) (A) (A) (A) (A) (A) (A) (A) (A) (A) (A) (A)
                 (A) (A) (A) (A) (A) (A) (A) (A) (A) (A) (A) (A)
                 (A) (A) (A) (A) (A) (A) (A) (A) (A) (A) (A) (A)
                 (A) (A) (A) (A) (A) (A) (A) (A) (A) (A) (A) (A)
                 (A) (A) (A) (A) (A) (A) (A) (A) (A) (A) (A) (A)
                 (A) (A) (A) (A) (A) (A) (A) (A) (A) (A) (A) (A)
                 (A) (A) (A) (A) (A) (A) (A) (A) (A) (A) (A) (A)
                 (A) (A) (A) (A) (A) (A) (A) (A) (A) (A) (A) (A)
                 (A) (A) (A) (A) (A) (A) (A) (A) (A) (A) (A) (A)
                 (A) (A) (A) (A) (A) (A) (A) (A) (A) (A) (A) (A)
                 (A) (A) (A) (A) (A) (A) (A) (A) (A) (A) (A) (A)
                 (A) (A) (A) (A) (A) (A) (A) (A) (A) (A) (A) (A)
                 (A) (A) (A) (A) (A) (A) (A) (A) (A) (A) (A) (A)
                 (A) (A) (A) (A) (A) (A) (A) (A) (A) (A) (A) (A)
                 (A) (A) (A) (A) (A) (A) (A) (A) (A) (A) (A) (A)
                 (A) (A) (A) (A) (A) (A) (A) (A) (A) (A) (A) (A)
                 (A) (A) (A) (A) (A) (A) (A) (A) (A) (A) (A) (A)
                 (A) (A) (A) (A) (A) (A) (A) (A) (A) (A) (A) (A)
                 (A) (A) (A) (A) (A) (A) (A) (A) (A) (A) (A) (A)
                 (A) (A) (A) (A) (A) (A) (A) (A) (A) (A) (A) (A)
                 (A) (A) (A) (A) (A) (A) (A) (A) (A) (A) (A) (A)
                 (A) (A) (A) (A) (A) (A) (A) (A) (A) (A) (A) (A)
                 (A) (A) (A) (A) (A) (A) (A) (A) (A) (A) (A) (A)
                 (A) (A) (A) (A) (A) (A) (A) (A) (A) (A) (A) (A)
                 (A) (A) (A) (A) (A) (A) (A) (A) (A) (A) (A) (A)
                 (A) (A) (A) (A) (A) (A) (A) (A) (A) (A) (A) (A)
                 (A) (A) (A) (A) (A) (A) (A) (A) (A) (A) (A) (A)
                 (A) (A) (A) (A) (A) (A) (A) (A) (A) (A) (A) (A)
                 (A) (A) (A) (A) (A) (A) (A) (A) (A) (A) (A) (A)
                 (A) (A) (A) (A) (A) (A) (A) (A) (A) (A) (A) (A)
                 (A) (A) (A) (A) (A) (A) (A) (A) (A) (A) (A) (A)
                 (A) (A) (A) (A) (A) (A) (A) (A) (A) (A) (A) (A)
                 (A) (A) (A) (A) (A) (A) (A) (A) (A) (A) (A) (A)
                 (A) (A) (A) (A) (A) (A) (A) (A) (A) (A) (A) (A)
                 (A) (A) (A) (A) (A) (A) (A) (A) (A) (A) (A) (A)
                 (A) (A) (A) (A) (A) (A) (A) (A) (A) (A) (A) (A)
                 (A) (A) (A) (A) (A) (A) (A) (A) (A) (A) (A) (A)
                 (A) (A) (A) (A) (A) (A) (A) (A) (A) (A) (A) (A)
                 (A) (A) (A) (A) (A) (A) (A) (A) (A) (A) (A) (A)
                 (A) (A) (A) (A) (A) (A) (A) (A) (A) (A) (A) (A)
                 (A) (A) (A) (A) (A) (A) (A) (A) (A) (A) (A) (A)
                 (A) (A) (A) (A) (A) (A) (A) (A) (A) (A) (A) (A)
                 (A) (A) (A) (A) (A) (A) (A) (A) (A) (A) (A) (A)
                 (A) (A) (A) (A) (A) (A) (A) (A) (A) (A) (A) (A)
                 (A) (A) (A) (A) (A) (A) (A) (A) (A) (A) (A) (A)
                 (A) (A) (A) (A) (A) (A) (A) (A) (A) (A) (A) (A)
                 (A) (A) (A) (A) (A) (A) (A) (A) (A) (A) (A) (A)
                 (A) (A) (A) (A) (A) (A) (A) (A) (A) (A) (A) (A)
                 (A) (A) (A) (A) (A) (A) (A) (A) (A) (A) (A) (A)
                 (A) (A) (A) (A) (A) (A) (A) (A) (A) (A) (A) (A)
                 (A) (A) (A) (A) (A) (A) (A) (A) (A) (A) (A) (A)
                 (A) (A) (A) (A) (A) (A) (A) (A) (A) (A) (A) (A)
                 (A) (A) (A) (A) (A) (A) (A) (A) (A) (A) (A) (A)
                 (A) (A) (A) (A) (A) (A) (A) (A) (A) (A) (A) (A)
                 (A) (A) (A) (A) (A) (A) (A) (A) (A) (A) (A) (A)
                 (A) (A) (A) (A) (A) (A) (A) (A) (A) (A) (A) (A)
                 (A) (A) (A) (A) (A) (A) (A) (A) (A) (A) (A) (A)
                 (A) (A) (A) (A) (A) (A) (A) (A) (A) (A) (A) (A)
                 (A) (A) (A) (A) (A) (A) (A) (A) (A) (A) (A) (A)
                 (A) (A) (A) (A) (A) (A) (A) (A) (A) (A) (A)
 The electronic state is 1-A.
 Alpha  occ. eigenvalues -- -300.04391 -89.28234 -89.15568 -77.23851 -35.92781
 Alpha  occ. eigenvalues --  -31.27209 -31.26936 -31.25341 -24.84271 -24.84219
 Alpha  occ. eigenvalues --  -24.83930 -19.28613 -19.24298 -19.24004 -19.20172
 Alpha  occ. eigenvalues --  -14.41908 -10.53380 -10.29344 -10.29262 -10.27846
 Alpha  occ. eigenvalues --  -10.27583 -10.25365 -10.25154 -10.25025 -10.24836
 Alpha  occ. eigenvalues --  -10.24809 -10.24516 -10.24499 -10.24425 -10.24382
 Alpha  occ. eigenvalues --  -10.24321 -10.24296 -10.24257 -10.24219 -10.24182
 Alpha  occ. eigenvalues --  -10.24172 -10.24143 -10.24134 -10.24127 -10.24084
 Alpha  occ. eigenvalues --  -10.24079 -10.24048 -10.24030 -10.24016 -10.23771
 Alpha  occ. eigenvalues --  -10.23746 -10.23540 -10.23532 -10.23453 -10.23435
 Alpha  occ. eigenvalues --  -10.23413 -10.23386 -10.23285 -10.23265 -10.22772
 Alpha  occ. eigenvalues --  -10.22758 -10.22509 -10.22387 -10.22369 -10.22364
 Alpha  occ. eigenvalues --   -8.26211  -8.15261  -6.65937  -6.17964  -6.17792
 Alpha  occ. eigenvalues --   -6.17683  -6.07000  -6.06749  -6.06250  -4.77869
 Alpha  occ. eigenvalues --   -4.77831  -4.77456  -4.02644  -2.59173  -2.58390
 Alpha  occ. eigenvalues --   -2.56324  -1.38378  -1.30185  -1.29879  -1.18619
 Alpha  occ. eigenvalues --   -1.08313  -1.06413  -1.05452  -0.94900  -0.87923
 Alpha  occ. eigenvalues --   -0.87211  -0.87101  -0.86794  -0.86554  -0.83489
 Alpha  occ. eigenvalues --   -0.83139  -0.80767  -0.79533  -0.79045  -0.77770
 Alpha  occ. eigenvalues --   -0.77473  -0.76406  -0.75845  -0.75779  -0.75758
 Alpha  occ. eigenvalues --   -0.75309  -0.75284  -0.74086  -0.73297  -0.72990
 Alpha  occ. eigenvalues --   -0.70857  -0.70308  -0.70043  -0.69273  -0.68536
 Alpha  occ. eigenvalues --   -0.67379  -0.65091  -0.64847  -0.64424  -0.63800
 Alpha  occ. eigenvalues --   -0.62719  -0.62344  -0.61815  -0.61659  -0.61482
 Alpha  occ. eigenvalues --   -0.61231  -0.60692  -0.60603  -0.59130  -0.58355
 Alpha  occ. eigenvalues --   -0.57859  -0.56782  -0.55762  -0.55395  -0.53204
 Alpha  occ. eigenvalues --   -0.53039  -0.52823  -0.52382  -0.52182  -0.51498
 Alpha  occ. eigenvalues --   -0.51425  -0.51088  -0.50934  -0.49870  -0.49818
 Alpha  occ. eigenvalues --   -0.49352  -0.48929  -0.48610  -0.48471  -0.48308
 Alpha  occ. eigenvalues --   -0.47281  -0.47014  -0.46750  -0.46498  -0.46446
 Alpha  occ. eigenvalues --   -0.46201  -0.46030  -0.45890  -0.45602  -0.45382
 Alpha  occ. eigenvalues --   -0.45321  -0.45039  -0.44738  -0.43998  -0.43846
 Alpha  occ. eigenvalues --   -0.43518  -0.43270  -0.43024  -0.42920  -0.42886
 Alpha  occ. eigenvalues --   -0.42782  -0.42257  -0.42085  -0.42029  -0.41516
 Alpha  occ. eigenvalues --   -0.41088  -0.40984  -0.40784  -0.40689  -0.39981
 Alpha  occ. eigenvalues --   -0.39769  -0.39532  -0.39208  -0.39010  -0.38706
 Alpha  occ. eigenvalues --   -0.38485  -0.38441  -0.38330  -0.38085  -0.37999
 Alpha  occ. eigenvalues --   -0.37971  -0.37672  -0.37465  -0.36908  -0.36377
 Alpha  occ. eigenvalues --   -0.36114  -0.35882  -0.35653  -0.35483  -0.35354
 Alpha  occ. eigenvalues --   -0.35227  -0.35124  -0.34868  -0.34740  -0.34323
 Alpha  occ. eigenvalues --   -0.34266  -0.34094  -0.33835  -0.33020  -0.32903
 Alpha  occ. eigenvalues --   -0.32054  -0.31041  -0.29475  -0.28600  -0.27380
 Alpha  occ. eigenvalues --   -0.27151  -0.26972  -0.26857  -0.26823  -0.26553
 Alpha  occ. eigenvalues --   -0.26036  -0.25768  -0.25093  -0.24467  -0.24026
 Alpha  occ. eigenvalues --   -0.21883  -0.21432  -0.20739  -0.19788  -0.19163
 Alpha virt. eigenvalues --   -0.03203  -0.02874  -0.02211  -0.01751  -0.01714
 Alpha virt. eigenvalues --   -0.01531  -0.01480  -0.00986  -0.00755  -0.00282
 Alpha virt. eigenvalues --    0.00936   0.02285   0.02748   0.02959   0.03613
 Alpha virt. eigenvalues --    0.04007   0.04283   0.04865   0.05131   0.05297
 Alpha virt. eigenvalues --    0.05534   0.05629   0.05944   0.06104   0.06206
 Alpha virt. eigenvalues --    0.06280   0.06823   0.07163   0.07282   0.07712
 Alpha virt. eigenvalues --    0.07894   0.07954   0.08014   0.08283   0.08558
 Alpha virt. eigenvalues --    0.09058   0.09104   0.09413   0.09468   0.09687
 Alpha virt. eigenvalues --    0.10027   0.10107   0.10614   0.10652   0.10689
 Alpha virt. eigenvalues --    0.10988   0.11320   0.11387   0.11706   0.11856
 Alpha virt. eigenvalues --    0.12210   0.12326   0.12336   0.12710   0.12790
 Alpha virt. eigenvalues --    0.12921   0.13065   0.13346   0.13478   0.13667
 Alpha virt. eigenvalues --    0.13981   0.14232   0.14371   0.14529   0.14726
 Alpha virt. eigenvalues --    0.15091   0.15259   0.15685   0.15863   0.15931
 Alpha virt. eigenvalues --    0.16402   0.16710   0.16759   0.16833   0.17161
 Alpha virt. eigenvalues --    0.17253   0.17402   0.17557   0.17755   0.17853
 Alpha virt. eigenvalues --    0.18063   0.18317   0.18527   0.18781   0.18931
 Alpha virt. eigenvalues --    0.19035   0.19194   0.19471   0.19731   0.19837
 Alpha virt. eigenvalues --    0.20088   0.20407   0.20733   0.21041   0.21224
 Alpha virt. eigenvalues --    0.21344   0.21570   0.21777   0.22047   0.22127
 Alpha virt. eigenvalues --    0.22360   0.22410   0.22506   0.22641   0.22940
 Alpha virt. eigenvalues --    0.23235   0.23276   0.23498   0.23631   0.23829
 Alpha virt. eigenvalues --    0.24209   0.24314   0.24529   0.24635   0.24670
 Alpha virt. eigenvalues --    0.25021   0.25135   0.25255   0.25433   0.25669
 Alpha virt. eigenvalues --    0.25847   0.25913   0.26144   0.26372   0.26523
 Alpha virt. eigenvalues --    0.26790   0.27006   0.27237   0.27437   0.27703
 Alpha virt. eigenvalues --    0.27842   0.27972   0.28061   0.28337   0.28522
 Alpha virt. eigenvalues --    0.28648   0.28703   0.28900   0.28978   0.29388
 Alpha virt. eigenvalues --    0.29434   0.29797   0.30013   0.30101   0.30268
 Alpha virt. eigenvalues --    0.30334   0.30606   0.30608   0.30834   0.31012
 Alpha virt. eigenvalues --    0.31432   0.31653   0.31680   0.31785   0.32023
 Alpha virt. eigenvalues --    0.32327   0.32430   0.32667   0.32822   0.32960
 Alpha virt. eigenvalues --    0.33324   0.33540   0.33808   0.33997   0.34040
 Alpha virt. eigenvalues --    0.34127   0.34386   0.34721   0.34757   0.34834
 Alpha virt. eigenvalues --    0.35046   0.35210   0.35333   0.35544   0.35587
 Alpha virt. eigenvalues --    0.35794   0.35872   0.35935   0.36335   0.36455
 Alpha virt. eigenvalues --    0.36649   0.36707   0.36893   0.37050   0.37357
 Alpha virt. eigenvalues --    0.37443   0.37523   0.37653   0.37740   0.37842
 Alpha virt. eigenvalues --    0.38062   0.38213   0.38488   0.38548   0.38851
 Alpha virt. eigenvalues --    0.39061   0.39145   0.39303   0.39581   0.39682
 Alpha virt. eigenvalues --    0.39835   0.39988   0.40031   0.40224   0.40374
 Alpha virt. eigenvalues --    0.40573   0.40609   0.40807   0.41180   0.41274
 Alpha virt. eigenvalues --    0.41513   0.41689   0.41771   0.41919   0.42046
 Alpha virt. eigenvalues --    0.42132   0.42329   0.42383   0.42489   0.42828
 Alpha virt. eigenvalues --    0.43012   0.43066   0.43389   0.43598   0.43741
 Alpha virt. eigenvalues --    0.43878   0.44024   0.44135   0.44222   0.44553
 Alpha virt. eigenvalues --    0.44784   0.44926   0.45084   0.45277   0.45342
 Alpha virt. eigenvalues --    0.45573   0.45696   0.45934   0.46177   0.46216
 Alpha virt. eigenvalues --    0.46344   0.46445   0.46842   0.46963   0.47285
 Alpha virt. eigenvalues --    0.47315   0.47464   0.47580   0.47840   0.47970
 Alpha virt. eigenvalues --    0.48209   0.48272   0.48567   0.48655   0.48812
 Alpha virt. eigenvalues --    0.49135   0.49288   0.49391   0.49422   0.49808
 Alpha virt. eigenvalues --    0.50269   0.50397   0.50789   0.50929   0.50981
 Alpha virt. eigenvalues --    0.51328   0.51650   0.51813   0.51861   0.52029
 Alpha virt. eigenvalues --    0.52232   0.52510   0.52812   0.52933   0.53100
 Alpha virt. eigenvalues --    0.53305   0.53398   0.53630   0.53877   0.54348
 Alpha virt. eigenvalues --    0.54578   0.54648   0.55017   0.55098   0.55494
 Alpha virt. eigenvalues --    0.55771   0.56143   0.56468   0.56506   0.56627
 Alpha virt. eigenvalues --    0.56991   0.57172   0.57382   0.57614   0.57991
 Alpha virt. eigenvalues --    0.58031   0.58193   0.58437   0.58665   0.58872
 Alpha virt. eigenvalues --    0.59189   0.59554   0.59777   0.59825   0.60273
 Alpha virt. eigenvalues --    0.60518   0.60621   0.61021   0.61073   0.61423
 Alpha virt. eigenvalues --    0.61694   0.61847   0.62350   0.62397   0.62569
 Alpha virt. eigenvalues --    0.62756   0.63159   0.63401   0.63549   0.63794
 Alpha virt. eigenvalues --    0.63968   0.64093   0.64222   0.64407   0.64570
 Alpha virt. eigenvalues --    0.64904   0.65192   0.65412   0.65610   0.65739
 Alpha virt. eigenvalues --    0.66188   0.66329   0.66533   0.66905   0.66964
 Alpha virt. eigenvalues --    0.67123   0.67457   0.67507   0.67692   0.67822
 Alpha virt. eigenvalues --    0.68014   0.68321   0.68507   0.68571   0.68864
 Alpha virt. eigenvalues --    0.69224   0.69262   0.69470   0.69747   0.69895
 Alpha virt. eigenvalues --    0.70206   0.70343   0.70541   0.70628   0.70813
 Alpha virt. eigenvalues --    0.70912   0.71228   0.71585   0.71811   0.72119
 Alpha virt. eigenvalues --    0.72230   0.72442   0.72565   0.72988   0.73183
 Alpha virt. eigenvalues --    0.73329   0.73456   0.73813   0.73850   0.74013
 Alpha virt. eigenvalues --    0.74262   0.74611   0.75022   0.75105   0.75473
 Alpha virt. eigenvalues --    0.75905   0.76060   0.76136   0.76461   0.76637
 Alpha virt. eigenvalues --    0.76802   0.77225   0.77386   0.77461   0.77809
 Alpha virt. eigenvalues --    0.78287   0.78338   0.78557   0.78694   0.78812
 Alpha virt. eigenvalues --    0.79177   0.79396   0.79621   0.79820   0.80302
 Alpha virt. eigenvalues --    0.80375   0.80640   0.81153   0.81203   0.81523
 Alpha virt. eigenvalues --    0.81663   0.81752   0.82086   0.82352   0.82468
 Alpha virt. eigenvalues --    0.82787   0.82904   0.83157   0.83363   0.83482
 Alpha virt. eigenvalues --    0.83889   0.84142   0.84216   0.84645   0.84983
 Alpha virt. eigenvalues --    0.85100   0.85326   0.85523   0.85677   0.85805
 Alpha virt. eigenvalues --    0.85956   0.86092   0.86513   0.86636   0.86972
 Alpha virt. eigenvalues --    0.87195   0.87613   0.87887   0.88028   0.88333
 Alpha virt. eigenvalues --    0.88713   0.88785   0.89027   0.89303   0.89409
 Alpha virt. eigenvalues --    0.89663   0.89864   0.90227   0.90313   0.90650
 Alpha virt. eigenvalues --    0.90913   0.91106   0.91386   0.91638   0.91865
 Alpha virt. eigenvalues --    0.92025   0.92192   0.92434   0.92692   0.92809
 Alpha virt. eigenvalues --    0.93063   0.93378   0.93748   0.93786   0.93935
 Alpha virt. eigenvalues --    0.94211   0.94337   0.94522   0.94649   0.94892
 Alpha virt. eigenvalues --    0.95121   0.95174   0.95572   0.95752   0.96134
 Alpha virt. eigenvalues --    0.96445   0.96529   0.96844   0.97000   0.97291
 Alpha virt. eigenvalues --    0.97584   0.97686   0.98012   0.98093   0.98507
 Alpha virt. eigenvalues --    0.98571   0.98777   0.99501   0.99543   0.99591
 Alpha virt. eigenvalues --    0.99937   1.00034   1.00249   1.00591   1.00692
 Alpha virt. eigenvalues --    1.01001   1.01160   1.01315   1.01551   1.01932
 Alpha virt. eigenvalues --    1.02296   1.02571   1.02845   1.03111   1.03367
 Alpha virt. eigenvalues --    1.03982   1.04122   1.04245   1.04487   1.04650
 Alpha virt. eigenvalues --    1.04759   1.04880   1.05169   1.05395   1.05976
 Alpha virt. eigenvalues --    1.06213   1.06590   1.06671   1.06769   1.06959
 Alpha virt. eigenvalues --    1.07144   1.07274   1.07492   1.07851   1.07899
 Alpha virt. eigenvalues --    1.08223   1.08598   1.08869   1.09054   1.09071
 Alpha virt. eigenvalues --    1.09389   1.09570   1.09855   1.10015   1.10129
 Alpha virt. eigenvalues --    1.10291   1.10518   1.10580   1.10979   1.11159
 Alpha virt. eigenvalues --    1.11508   1.11902   1.11906   1.12318   1.12524
 Alpha virt. eigenvalues --    1.12606   1.12812   1.12948   1.13195   1.13427
 Alpha virt. eigenvalues --    1.13704   1.13875   1.14159   1.14527   1.14612
 Alpha virt. eigenvalues --    1.15202   1.15347   1.15439   1.15882   1.16110
 Alpha virt. eigenvalues --    1.16259   1.16590   1.16690   1.16940   1.17036
 Alpha virt. eigenvalues --    1.17357   1.17507   1.17819   1.17914   1.18382
 Alpha virt. eigenvalues --    1.18685   1.18945   1.19202   1.19399   1.19630
 Alpha virt. eigenvalues --    1.19749   1.19886   1.20255   1.20848   1.20891
 Alpha virt. eigenvalues --    1.21097   1.21280   1.21488   1.21836   1.22155
 Alpha virt. eigenvalues --    1.22411   1.22783   1.22939   1.23258   1.23287
 Alpha virt. eigenvalues --    1.23670   1.23793   1.24305   1.24467   1.24594
 Alpha virt. eigenvalues --    1.24704   1.24731   1.25200   1.25419   1.25451
 Alpha virt. eigenvalues --    1.25926   1.25982   1.26174   1.26396   1.26555
 Alpha virt. eigenvalues --    1.26778   1.27191   1.27476   1.27494   1.27863
 Alpha virt. eigenvalues --    1.28003   1.28195   1.28333   1.28587   1.28824
 Alpha virt. eigenvalues --    1.29179   1.29361   1.29586   1.30095   1.30117
 Alpha virt. eigenvalues --    1.30472   1.30593   1.30706   1.30827   1.31237
 Alpha virt. eigenvalues --    1.31556   1.31691   1.31719   1.31743   1.32062
 Alpha virt. eigenvalues --    1.32107   1.32384   1.32943   1.33187   1.33228
 Alpha virt. eigenvalues --    1.33451   1.33927   1.34006   1.34133   1.34490
 Alpha virt. eigenvalues --    1.34537   1.34692   1.35069   1.35206   1.35616
 Alpha virt. eigenvalues --    1.35884   1.36093   1.36124   1.36380   1.36608
 Alpha virt. eigenvalues --    1.36907   1.37136   1.37185   1.37592   1.37892
 Alpha virt. eigenvalues --    1.38101   1.38275   1.38506   1.38716   1.38967
 Alpha virt. eigenvalues --    1.39312   1.39364   1.39642   1.39792   1.39970
 Alpha virt. eigenvalues --    1.40187   1.40440   1.40624   1.40831   1.41113
 Alpha virt. eigenvalues --    1.41372   1.41472   1.41945   1.42309   1.42359
 Alpha virt. eigenvalues --    1.42644   1.42714   1.42933   1.43128   1.43220
 Alpha virt. eigenvalues --    1.43433   1.43754   1.43879   1.44084   1.44255
 Alpha virt. eigenvalues --    1.44420   1.44561   1.45049   1.45256   1.45525
 Alpha virt. eigenvalues --    1.45587   1.46005   1.46039   1.46448   1.46644
 Alpha virt. eigenvalues --    1.46973   1.47319   1.47415   1.47770   1.47923
 Alpha virt. eigenvalues --    1.48023   1.48422   1.48631   1.49060   1.49370
 Alpha virt. eigenvalues --    1.49466   1.50185   1.50373   1.50503   1.50828
 Alpha virt. eigenvalues --    1.51289   1.51495   1.51920   1.51931   1.52060
 Alpha virt. eigenvalues --    1.52313   1.52602   1.52820   1.53221   1.53373
 Alpha virt. eigenvalues --    1.53634   1.53865   1.53920   1.54136   1.54439
 Alpha virt. eigenvalues --    1.54584   1.55338   1.55777   1.55960   1.56074
 Alpha virt. eigenvalues --    1.56348   1.56683   1.56828   1.57074   1.57411
 Alpha virt. eigenvalues --    1.57647   1.57680   1.57924   1.58230   1.58512
 Alpha virt. eigenvalues --    1.58631   1.58974   1.59203   1.59480   1.59543
 Alpha virt. eigenvalues --    1.59950   1.60061   1.60473   1.60665   1.61036
 Alpha virt. eigenvalues --    1.61165   1.61556   1.61824   1.62007   1.62077
 Alpha virt. eigenvalues --    1.62329   1.62785   1.62898   1.63132   1.63935
 Alpha virt. eigenvalues --    1.64075   1.64153   1.64550   1.64680   1.64926
 Alpha virt. eigenvalues --    1.65170   1.65289   1.65757   1.65935   1.66110
 Alpha virt. eigenvalues --    1.66347   1.66700   1.66995   1.67289   1.67549
 Alpha virt. eigenvalues --    1.67672   1.67879   1.68354   1.68391   1.68809
 Alpha virt. eigenvalues --    1.69036   1.69254   1.69833   1.70008   1.70165
 Alpha virt. eigenvalues --    1.70403   1.70830   1.71026   1.71325   1.71713
 Alpha virt. eigenvalues --    1.71824   1.72162   1.72578   1.72814   1.72967
 Alpha virt. eigenvalues --    1.73275   1.73480   1.73620   1.73731   1.74335
 Alpha virt. eigenvalues --    1.74518   1.74932   1.75106   1.75482   1.75616
 Alpha virt. eigenvalues --    1.75903   1.76222   1.76721   1.77224   1.77520
 Alpha virt. eigenvalues --    1.77665   1.77792   1.78366   1.78419   1.78897
 Alpha virt. eigenvalues --    1.79368   1.79500   1.79936   1.80282   1.80376
 Alpha virt. eigenvalues --    1.81141   1.81439   1.81828   1.81988   1.82371
 Alpha virt. eigenvalues --    1.82679   1.82735   1.83026   1.83744   1.83926
 Alpha virt. eigenvalues --    1.84577   1.84706   1.85069   1.85260   1.85497
 Alpha virt. eigenvalues --    1.85876   1.86031   1.86817   1.87261   1.87572
 Alpha virt. eigenvalues --    1.87606   1.88085   1.88566   1.88725   1.89224
 Alpha virt. eigenvalues --    1.89598   1.89734   1.90133   1.90705   1.91147
 Alpha virt. eigenvalues --    1.91571   1.92037   1.92263   1.92550   1.93088
 Alpha virt. eigenvalues --    1.93488   1.93776   1.94693   1.94785   1.95076
 Alpha virt. eigenvalues --    1.95582   1.95827   1.96096   1.96295   1.96929
 Alpha virt. eigenvalues --    1.97533   1.97639   1.97985   1.98236   1.98442
 Alpha virt. eigenvalues --    1.98990   1.99127   1.99364   1.99966   2.00369
 Alpha virt. eigenvalues --    2.00644   2.00756   2.01436   2.01767   2.02229
 Alpha virt. eigenvalues --    2.02406   2.02770   2.03275   2.03443   2.03544
 Alpha virt. eigenvalues --    2.04054   2.04206   2.04347   2.04444   2.04897
 Alpha virt. eigenvalues --    2.05554   2.05639   2.05854   2.06460   2.06566
 Alpha virt. eigenvalues --    2.06842   2.06977   2.07707   2.07884   2.08217
 Alpha virt. eigenvalues --    2.08549   2.08786   2.08908   2.09398   2.09591
 Alpha virt. eigenvalues --    2.09919   2.10249   2.10547   2.10954   2.11212
 Alpha virt. eigenvalues --    2.11588   2.12157   2.12522   2.13239   2.13460
 Alpha virt. eigenvalues --    2.13728   2.14047   2.14543   2.14893   2.15315
 Alpha virt. eigenvalues --    2.15460   2.15997   2.16224   2.16910   2.17348
 Alpha virt. eigenvalues --    2.17768   2.17869   2.18045   2.18891   2.19667
 Alpha virt. eigenvalues --    2.19880   2.20453   2.21007   2.21130   2.21462
 Alpha virt. eigenvalues --    2.21956   2.22355   2.22595   2.23130   2.23553
 Alpha virt. eigenvalues --    2.23661   2.24079   2.24521   2.25072   2.25474
 Alpha virt. eigenvalues --    2.25939   2.26102   2.26720   2.27324   2.27570
 Alpha virt. eigenvalues --    2.27926   2.28189   2.28415   2.28765   2.29038
 Alpha virt. eigenvalues --    2.29444   2.29609   2.30685   2.30763   2.31396
 Alpha virt. eigenvalues --    2.31632   2.31841   2.32079   2.32192   2.32537
 Alpha virt. eigenvalues --    2.32820   2.32915   2.33346   2.33820   2.34107
 Alpha virt. eigenvalues --    2.34258   2.34986   2.35368   2.35625   2.35812
 Alpha virt. eigenvalues --    2.36244   2.36856   2.37020   2.37109   2.37753
 Alpha virt. eigenvalues --    2.38143   2.38398   2.39036   2.39568   2.39688
 Alpha virt. eigenvalues --    2.39875   2.40954   2.41206   2.41847   2.42006
 Alpha virt. eigenvalues --    2.42081   2.42487   2.42967   2.43475   2.43677
 Alpha virt. eigenvalues --    2.43894   2.44449   2.44524   2.45269   2.45659
 Alpha virt. eigenvalues --    2.46132   2.46294   2.46914   2.47047   2.47636
 Alpha virt. eigenvalues --    2.47841   2.48156   2.48570   2.48787   2.48999
 Alpha virt. eigenvalues --    2.49376   2.49751   2.50124   2.50354   2.50618
 Alpha virt. eigenvalues --    2.51133   2.51359   2.51672   2.52100   2.52273
 Alpha virt. eigenvalues --    2.52975   2.53232   2.53498   2.53599   2.54111
 Alpha virt. eigenvalues --    2.54678   2.55376   2.56066   2.56608   2.56806
 Alpha virt. eigenvalues --    2.58018   2.58505   2.58996   2.59625   2.59997
 Alpha virt. eigenvalues --    2.60586   2.61332   2.61742   2.62148   2.62736
 Alpha virt. eigenvalues --    2.63187   2.63650   2.63872   2.64139   2.64996
 Alpha virt. eigenvalues --    2.65063   2.65608   2.66176   2.66472   2.66621
 Alpha virt. eigenvalues --    2.66967   2.67179   2.67251   2.67689   2.67989
 Alpha virt. eigenvalues --    2.68315   2.68504   2.68680   2.68968   2.69183
 Alpha virt. eigenvalues --    2.69308   2.69708   2.69981   2.70187   2.70589
 Alpha virt. eigenvalues --    2.70641   2.70721   2.70802   2.70997   2.71318
 Alpha virt. eigenvalues --    2.71434   2.71619   2.71971   2.72262   2.72451
 Alpha virt. eigenvalues --    2.72646   2.73139   2.73410   2.73722   2.74063
 Alpha virt. eigenvalues --    2.74473   2.74579   2.74748   2.74912   2.74948
 Alpha virt. eigenvalues --    2.75314   2.75546   2.75872   2.76108   2.76371
 Alpha virt. eigenvalues --    2.76602   2.76820   2.77096   2.77306   2.77553
 Alpha virt. eigenvalues --    2.77822   2.78295   2.78419   2.78643   2.78935
 Alpha virt. eigenvalues --    2.79223   2.79336   2.79685   2.79848   2.80113
 Alpha virt. eigenvalues --    2.80349   2.80487   2.80643   2.81073   2.81577
 Alpha virt. eigenvalues --    2.81833   2.82237   2.82361   2.82683   2.82934
 Alpha virt. eigenvalues --    2.83467   2.83651   2.83799   2.84119   2.84290
 Alpha virt. eigenvalues --    2.84663   2.84758   2.85233   2.85521   2.85872
 Alpha virt. eigenvalues --    2.86185   2.86530   2.86788   2.87037   2.87309
 Alpha virt. eigenvalues --    2.87849   2.87915   2.88229   2.88707   2.88860
 Alpha virt. eigenvalues --    2.89082   2.89333   2.89620   2.89721   2.89813
 Alpha virt. eigenvalues --    2.90062   2.90334   2.90598   2.90992   2.91560
 Alpha virt. eigenvalues --    2.91803   2.91978   2.92284   2.92436   2.92629
 Alpha virt. eigenvalues --    2.92886   2.93056   2.93150   2.93526   2.93924
 Alpha virt. eigenvalues --    2.94222   2.94515   2.94695   2.94903   2.95190
 Alpha virt. eigenvalues --    2.95457   2.95653   2.96062   2.96121   2.96508
 Alpha virt. eigenvalues --    2.97088   2.97120   2.97381   2.97434   2.97993
 Alpha virt. eigenvalues --    2.98074   2.98338   2.98500   2.98858   2.99138
 Alpha virt. eigenvalues --    2.99389   2.99504   2.99889   3.00149   3.00282
 Alpha virt. eigenvalues --    3.00450   3.00524   3.00789   3.00852   3.01141
 Alpha virt. eigenvalues --    3.01463   3.01777   3.01849   3.02003   3.02120
 Alpha virt. eigenvalues --    3.02451   3.02504   3.02796   3.02912   3.03205
 Alpha virt. eigenvalues --    3.03262   3.03521   3.03678   3.03792   3.04061
 Alpha virt. eigenvalues --    3.04194   3.04387   3.04644   3.05057   3.05316
 Alpha virt. eigenvalues --    3.05428   3.05696   3.06046   3.06128   3.06504
 Alpha virt. eigenvalues --    3.06767   3.06906   3.07114   3.07234   3.07625
 Alpha virt. eigenvalues --    3.07888   3.07971   3.08345   3.08496   3.08695
 Alpha virt. eigenvalues --    3.09000   3.09214   3.09641   3.09781   3.09859
 Alpha virt. eigenvalues --    3.10270   3.10471   3.10588   3.10873   3.11318
 Alpha virt. eigenvalues --    3.11546   3.11705   3.11970   3.12292   3.12422
 Alpha virt. eigenvalues --    3.12688   3.12953   3.13202   3.13307   3.13566
 Alpha virt. eigenvalues --    3.13751   3.14107   3.14166   3.14207   3.14878
 Alpha virt. eigenvalues --    3.15123   3.15230   3.15324   3.15503   3.15882
 Alpha virt. eigenvalues --    3.16185   3.16275   3.16652   3.16722   3.17047
 Alpha virt. eigenvalues --    3.17214   3.17408   3.17517   3.17735   3.17831
 Alpha virt. eigenvalues --    3.18002   3.18475   3.18576   3.18694   3.18898
 Alpha virt. eigenvalues --    3.19123   3.19460   3.19758   3.19938   3.20167
 Alpha virt. eigenvalues --    3.20357   3.20881   3.21003   3.21032   3.21383
 Alpha virt. eigenvalues --    3.21833   3.22070   3.22295   3.22449   3.22708
 Alpha virt. eigenvalues --    3.23087   3.23348   3.23637   3.23862   3.24049
 Alpha virt. eigenvalues --    3.24371   3.24580   3.24696   3.24911   3.25296
 Alpha virt. eigenvalues --    3.25484   3.25556   3.26030   3.26195   3.26350
 Alpha virt. eigenvalues --    3.26502   3.26724   3.26929   3.27140   3.27201
 Alpha virt. eigenvalues --    3.27311   3.27692   3.27842   3.27994   3.28487
 Alpha virt. eigenvalues --    3.28753   3.28852   3.28960   3.29405   3.29650
 Alpha virt. eigenvalues --    3.29675   3.29903   3.30153   3.30353   3.30511
 Alpha virt. eigenvalues --    3.30865   3.31030   3.31168   3.31604   3.31728
 Alpha virt. eigenvalues --    3.32069   3.32210   3.32434   3.32588   3.32694
 Alpha virt. eigenvalues --    3.32893   3.33193   3.33304   3.33453   3.33749
 Alpha virt. eigenvalues --    3.33823   3.34003   3.34187   3.34733   3.34789
 Alpha virt. eigenvalues --    3.34902   3.35126   3.35381   3.35521   3.36036
 Alpha virt. eigenvalues --    3.36180   3.36293   3.36580   3.36646   3.36960
 Alpha virt. eigenvalues --    3.37004   3.37257   3.37651   3.37927   3.38055
 Alpha virt. eigenvalues --    3.38284   3.38417   3.38675   3.38801   3.39072
 Alpha virt. eigenvalues --    3.39330   3.39785   3.40008   3.40500   3.40659
 Alpha virt. eigenvalues --    3.40736   3.40962   3.41017   3.41429   3.41580
 Alpha virt. eigenvalues --    3.41819   3.42080   3.42378   3.42469   3.42749
 Alpha virt. eigenvalues --    3.43201   3.43349   3.43677   3.43995   3.44088
 Alpha virt. eigenvalues --    3.44436   3.44565   3.44741   3.45203   3.45292
 Alpha virt. eigenvalues --    3.45395   3.46016   3.46063   3.46351   3.46743
 Alpha virt. eigenvalues --    3.46768   3.46875   3.47177   3.47243   3.47669
 Alpha virt. eigenvalues --    3.47868   3.48131   3.48299   3.48526   3.48829
 Alpha virt. eigenvalues --    3.48881   3.49087   3.49236   3.49673   3.49999
 Alpha virt. eigenvalues --    3.50140   3.50389   3.50785   3.50961   3.51148
 Alpha virt. eigenvalues --    3.51436   3.51652   3.52041   3.52267   3.52296
 Alpha virt. eigenvalues --    3.52801   3.53066   3.53187   3.53441   3.53532
 Alpha virt. eigenvalues --    3.53950   3.54060   3.54421   3.54716   3.54920
 Alpha virt. eigenvalues --    3.55295   3.55508   3.55740   3.55995   3.56235
 Alpha virt. eigenvalues --    3.56384   3.56930   3.57178   3.57633   3.58114
 Alpha virt. eigenvalues --    3.58378   3.58548   3.58612   3.59074   3.59231
 Alpha virt. eigenvalues --    3.59378   3.59553   3.60257   3.60678   3.60932
 Alpha virt. eigenvalues --    3.61098   3.61362   3.61578   3.61766   3.61940
 Alpha virt. eigenvalues --    3.62304   3.62723   3.62761   3.63166   3.63691
 Alpha virt. eigenvalues --    3.63824   3.64174   3.64259   3.64664   3.64710
 Alpha virt. eigenvalues --    3.65276   3.65660   3.66249   3.66479   3.66769
 Alpha virt. eigenvalues --    3.67270   3.67540   3.67732   3.68051   3.68299
 Alpha virt. eigenvalues --    3.68680   3.68980   3.69268   3.69813   3.69901
 Alpha virt. eigenvalues --    3.70114   3.70370   3.70829   3.71034   3.71339
 Alpha virt. eigenvalues --    3.71884   3.72059   3.72274   3.72400   3.72537
 Alpha virt. eigenvalues --    3.73092   3.73532   3.73602   3.73742   3.74107
 Alpha virt. eigenvalues --    3.74252   3.74307   3.74549   3.74595   3.75198
 Alpha virt. eigenvalues --    3.75323   3.75469   3.75637   3.75872   3.76173
 Alpha virt. eigenvalues --    3.76213   3.76392   3.76659   3.77090   3.77231
 Alpha virt. eigenvalues --    3.77314   3.77750   3.77953   3.78279   3.78790
 Alpha virt. eigenvalues --    3.78924   3.79033   3.79334   3.79818   3.79949
 Alpha virt. eigenvalues --    3.80006   3.80398   3.80759   3.81075   3.81140
 Alpha virt. eigenvalues --    3.81362   3.81582   3.81672   3.81832   3.82043
 Alpha virt. eigenvalues --    3.82220   3.82514   3.83039   3.83139   3.83429
 Alpha virt. eigenvalues --    3.83606   3.83916   3.84001   3.84075   3.84739
 Alpha virt. eigenvalues --    3.85049   3.85295   3.85645   3.85996   3.86220
 Alpha virt. eigenvalues --    3.86559   3.86871   3.86939   3.87021   3.87435
 Alpha virt. eigenvalues --    3.87710   3.88167   3.88279   3.88601   3.88809
 Alpha virt. eigenvalues --    3.89240   3.89375   3.89644   3.89943   3.90232
 Alpha virt. eigenvalues --    3.90391   3.90729   3.90887   3.91210   3.91594
 Alpha virt. eigenvalues --    3.92173   3.92224   3.92411   3.92630   3.92995
 Alpha virt. eigenvalues --    3.93390   3.93482   3.93772   3.94284   3.94557
 Alpha virt. eigenvalues --    3.94871   3.95198   3.95363   3.95914   3.95985
 Alpha virt. eigenvalues --    3.96463   3.96596   3.96926   3.97211   3.97527
 Alpha virt. eigenvalues --    3.97814   3.98203   3.98550   3.98729   3.99137
 Alpha virt. eigenvalues --    3.99305   3.99740   4.00179   4.00508   4.00673
 Alpha virt. eigenvalues --    4.00732   4.01389   4.01599   4.02030   4.02437
 Alpha virt. eigenvalues --    4.02541   4.03011   4.03329   4.03372   4.03806
 Alpha virt. eigenvalues --    4.04047   4.04212   4.04813   4.04989   4.05685
 Alpha virt. eigenvalues --    4.05984   4.06363   4.06525   4.06744   4.06874
 Alpha virt. eigenvalues --    4.07062   4.07496   4.07770   4.07920   4.08097
 Alpha virt. eigenvalues --    4.08373   4.08874   4.09397   4.09570   4.09857
 Alpha virt. eigenvalues --    4.09895   4.10305   4.10532   4.10776   4.11144
 Alpha virt. eigenvalues --    4.11422   4.11788   4.11917   4.12220   4.12376
 Alpha virt. eigenvalues --    4.12610   4.13221   4.13271   4.13534   4.13902
 Alpha virt. eigenvalues --    4.14188   4.14283   4.14420   4.14870   4.15120
 Alpha virt. eigenvalues --    4.15381   4.15507   4.15593   4.15800   4.15929
 Alpha virt. eigenvalues --    4.16387   4.16549   4.16792   4.16965   4.17070
 Alpha virt. eigenvalues --    4.17402   4.17990   4.18156   4.18577   4.18602
 Alpha virt. eigenvalues --    4.18745   4.18778   4.19061   4.19462   4.19894
 Alpha virt. eigenvalues --    4.20102   4.20261   4.20455   4.20850   4.21051
 Alpha virt. eigenvalues --    4.21268   4.21544   4.21843   4.22018   4.22107
 Alpha virt. eigenvalues --    4.22463   4.22705   4.22957   4.23309   4.23476
 Alpha virt. eigenvalues --    4.23748   4.24073   4.24228   4.24473   4.24604
 Alpha virt. eigenvalues --    4.24713   4.25198   4.25469   4.25734   4.25928
 Alpha virt. eigenvalues --    4.26350   4.26484   4.26536   4.26887   4.27162
 Alpha virt. eigenvalues --    4.27243   4.27623   4.27779   4.28226   4.28424
 Alpha virt. eigenvalues --    4.28466   4.28855   4.29177   4.29296   4.29788
 Alpha virt. eigenvalues --    4.29807   4.30346   4.30569   4.30960   4.31253
 Alpha virt. eigenvalues --    4.31414   4.31726   4.32204   4.32566   4.32739
 Alpha virt. eigenvalues --    4.33142   4.33490   4.33929   4.34468   4.34515
 Alpha virt. eigenvalues --    4.35013   4.35195   4.35438   4.35543   4.36178
 Alpha virt. eigenvalues --    4.36342   4.36877   4.37575   4.37859   4.38012
 Alpha virt. eigenvalues --    4.38536   4.38873   4.38999   4.39563   4.39776
 Alpha virt. eigenvalues --    4.40294   4.40649   4.41474   4.41970   4.42128
 Alpha virt. eigenvalues --    4.42528   4.42841   4.43123   4.43902   4.43955
 Alpha virt. eigenvalues --    4.44250   4.44674   4.44878   4.45332   4.45849
 Alpha virt. eigenvalues --    4.46390   4.46877   4.47096   4.48010   4.48341
 Alpha virt. eigenvalues --    4.48627   4.49125   4.49448   4.49795   4.50314
 Alpha virt. eigenvalues --    4.51012   4.51216   4.51598   4.52375   4.52868
 Alpha virt. eigenvalues --    4.53023   4.53523   4.53872   4.54771   4.54862
 Alpha virt. eigenvalues --    4.54990   4.55519   4.55839   4.56021   4.56723
 Alpha virt. eigenvalues --    4.57074   4.57445   4.57789   4.57886   4.58548
 Alpha virt. eigenvalues --    4.58671   4.59469   4.59724   4.60023   4.60563
 Alpha virt. eigenvalues --    4.60761   4.60941   4.61417   4.61581   4.61765
 Alpha virt. eigenvalues --    4.61974   4.62893   4.63325   4.63436   4.64261
 Alpha virt. eigenvalues --    4.64533   4.64881   4.65174   4.65322   4.65880
 Alpha virt. eigenvalues --    4.66066   4.66309   4.66773   4.66982   4.67568
 Alpha virt. eigenvalues --    4.67912   4.68307   4.68758   4.69049   4.69246
 Alpha virt. eigenvalues --    4.69580   4.70083   4.70247   4.70949   4.71018
 Alpha virt. eigenvalues --    4.71444   4.71535   4.71708   4.72288   4.72737
 Alpha virt. eigenvalues --    4.72857   4.73090   4.73288   4.73368   4.73825
 Alpha virt. eigenvalues --    4.74336   4.74446   4.74681   4.74900   4.75233
 Alpha virt. eigenvalues --    4.75424   4.75727   4.75831   4.75883   4.76247
 Alpha virt. eigenvalues --    4.76922   4.77177   4.77417   4.77849   4.77979
 Alpha virt. eigenvalues --    4.78497   4.79268   4.79354   4.79666   4.79966
 Alpha virt. eigenvalues --    4.80169   4.80780   4.81554   4.82028   4.82662
 Alpha virt. eigenvalues --    4.83012   4.83405   4.84121   4.84435   4.84789
 Alpha virt. eigenvalues --    4.85308   4.85342   4.86072   4.86643   4.86750
 Alpha virt. eigenvalues --    4.87614   4.87983   4.88646   4.89341   4.89570
 Alpha virt. eigenvalues --    4.89709   4.90302   4.90494   4.91078   4.91597
 Alpha virt. eigenvalues --    4.92440   4.93263   4.93353   4.93439   4.93935
 Alpha virt. eigenvalues --    4.94446   4.95001   4.95379   4.97116   4.97314
 Alpha virt. eigenvalues --    4.98108   4.98630   4.99457   4.99653   5.00525
 Alpha virt. eigenvalues --    5.01398   5.01646   5.01842   5.02034   5.02647
 Alpha virt. eigenvalues --    5.03370   5.04017   5.04171   5.04553   5.04837
 Alpha virt. eigenvalues --    5.04997   5.05804   5.06639   5.07461   5.07663
 Alpha virt. eigenvalues --    5.08731   5.08977   5.09362   5.09597   5.10000
 Alpha virt. eigenvalues --    5.10082   5.10701   5.10927   5.11293   5.11589
 Alpha virt. eigenvalues --    5.11955   5.12071   5.12631   5.13186   5.13445
 Alpha virt. eigenvalues --    5.13586   5.13979   5.14080   5.14330   5.14909
 Alpha virt. eigenvalues --    5.15302   5.15509   5.15582   5.16131   5.16592
 Alpha virt. eigenvalues --    5.16706   5.17064   5.17395   5.17740   5.17861
 Alpha virt. eigenvalues --    5.18240   5.18812   5.19334   5.19833   5.20304
 Alpha virt. eigenvalues --    5.20520   5.20791   5.21137   5.21718   5.21929
 Alpha virt. eigenvalues --    5.22217   5.22603   5.22642   5.22767   5.22943
 Alpha virt. eigenvalues --    5.23158   5.23188   5.23526   5.24188   5.24301
 Alpha virt. eigenvalues --    5.24629   5.25070   5.25226   5.25335   5.25668
 Alpha virt. eigenvalues --    5.26092   5.26372   5.26949   5.27150   5.27653
 Alpha virt. eigenvalues --    5.28019   5.28317   5.29056   5.29225   5.29737
 Alpha virt. eigenvalues --    5.30014   5.30356   5.30696   5.31109   5.31496
 Alpha virt. eigenvalues --    5.31803   5.32405   5.32688   5.32891   5.32954
 Alpha virt. eigenvalues --    5.33486   5.33803   5.34380   5.34647   5.35455
 Alpha virt. eigenvalues --    5.35632   5.36273   5.36849   5.38147   5.38457
 Alpha virt. eigenvalues --    5.39145   5.39234   5.39738   5.41007   5.41172
 Alpha virt. eigenvalues --    5.41566   5.42116   5.43364   5.43874   5.44403
 Alpha virt. eigenvalues --    5.45726   5.46437   5.47535   5.47697   5.47806
 Alpha virt. eigenvalues --    5.48571   5.49243   5.50735   5.51252   5.52207
 Alpha virt. eigenvalues --    5.52786   5.53604   5.54856   5.55315   5.57695
 Alpha virt. eigenvalues --    5.58437   5.59237   5.59396   5.59798   5.60620
 Alpha virt. eigenvalues --    5.60934   5.61004   5.61827   5.62202   5.62434
 Alpha virt. eigenvalues --    5.63047   5.63297   5.63353   5.63809   5.64404
 Alpha virt. eigenvalues --    5.64603   5.64964   5.65356   5.65707   5.66183
 Alpha virt. eigenvalues --    5.66527   5.66653   5.67228   5.67598   5.69268
 Alpha virt. eigenvalues --    5.70602   5.71086   5.71716   5.72551   5.73012
 Alpha virt. eigenvalues --    5.74443   5.74787   5.75899   5.77683   5.78221
 Alpha virt. eigenvalues --    5.78306   5.80736   5.82444   5.82771   5.83791
 Alpha virt. eigenvalues --    5.84093   5.86715   5.86941   5.88178   5.88859
 Alpha virt. eigenvalues --    5.92090   5.92677   5.94314   5.94806   5.97130
 Alpha virt. eigenvalues --    5.97574   5.98595   6.01369   6.03084   6.06136
 Alpha virt. eigenvalues --    6.07767   6.08791   6.09509   6.11295   6.13866
 Alpha virt. eigenvalues --    6.15386   6.21074   6.23709   6.25322   6.36833
 Alpha virt. eigenvalues --    6.40521   6.43845   6.46453   6.47594   6.51102
 Alpha virt. eigenvalues --    6.55097   6.56570   6.58356   6.59842   6.60962
 Alpha virt. eigenvalues --    6.65255   6.66247   6.69328   6.71290   6.72204
 Alpha virt. eigenvalues --    6.77586   6.79042   6.80134   6.80584   6.83435
 Alpha virt. eigenvalues --    6.83853   6.84359   6.84481   6.84701   6.85035
 Alpha virt. eigenvalues --    6.85258   6.85867   6.86769   6.88599   6.92010
 Alpha virt. eigenvalues --    6.94848   6.95293   6.96204   6.98576   6.98898
 Alpha virt. eigenvalues --    6.99659   7.02286   7.04617   7.05547   7.06441
 Alpha virt. eigenvalues --    7.09177   7.09665   7.12016   7.12358   7.15293
 Alpha virt. eigenvalues --    7.30230   7.30823   7.34446   7.36106   7.43124
 Alpha virt. eigenvalues --    7.45404   7.56192   7.57062   7.57258   7.81426
 Alpha virt. eigenvalues --    7.82706   7.96463   8.09617   8.16529   8.18896
 Alpha virt. eigenvalues --    8.34670   8.36838   8.37788   8.49454   8.52092
 Alpha virt. eigenvalues --    8.55405   8.75118   8.81954   8.82404   8.85636
 Alpha virt. eigenvalues --    8.97442   9.03588   9.11805   9.12617   9.23801
 Alpha virt. eigenvalues --    9.37338   9.53731   9.66423   9.68374   9.74251
 Alpha virt. eigenvalues --   10.05262  11.58378  11.58835  11.58928  11.59299
 Alpha virt. eigenvalues --   11.59518  11.60186  11.60425  11.60750  11.61769
 Alpha virt. eigenvalues --   12.03673  12.06132  12.09309  12.10366  12.18646
 Alpha virt. eigenvalues --   12.28261  12.32435  16.34804  21.17597  22.41953
 Alpha virt. eigenvalues --   22.70263  22.74721  22.78156  22.80361  22.83698
 Alpha virt. eigenvalues --   22.84831  22.86735  22.93392  23.05853  23.07203
 Alpha virt. eigenvalues --   23.09303  23.10279  23.11288  23.13839  23.16357
 Alpha virt. eigenvalues --   23.16896  23.17645  23.18164  23.18684  23.19974
 Alpha virt. eigenvalues --   23.20976  23.22900  23.23607  23.27161  23.27698
 Alpha virt. eigenvalues --   23.29194  23.30914  23.32090  23.33118  23.36329
 Alpha virt. eigenvalues --   23.37347  23.48215  23.61842  23.63029  23.63901
 Alpha virt. eigenvalues --   23.64469  23.66791  23.75128  23.84920  23.96648
 Alpha virt. eigenvalues --   23.99296  24.07878  24.08432  24.13517  33.04329
 Alpha virt. eigenvalues --   43.77683  44.07547  44.22638  44.32202  57.13413
 Alpha virt. eigenvalues --   57.24840  57.36457
          Condensed to atoms (all electrons):
 Mulliken charges:
               1
     1  Ni   0.043228
     2  C   -0.038840
     3  O   -0.385051
     4  P    0.564597
     5  O   -0.446382
     6  C   -0.019790
     7  C   -0.610966
     8  H    0.290996
     9  H    0.196234
    10  H    0.291854
    11  C   -0.001401
    12  C   -0.409528
    13  C   -0.251177
    14  C   -0.277864
    15  H    0.291770
    16  C   -0.281964
    17  H    0.188525
    18  C   -0.204369
    19  H    0.247598
    20  H    0.259571
    21  H    0.251760
    22  C   -0.024877
    23  C   -0.335267
    24  C   -0.317569
    25  C   -0.280059
    26  H    0.184391
    27  C   -0.256278
    28  H    0.261888
    29  C   -0.183731
    30  H    0.262898
    31  H    0.251512
    32  H    0.251516
    33  S    0.428253
    34  C    0.036243
    35  C   -0.514606
    36  C   -0.445584
    37  C   -0.193913
    38  H    0.349470
    39  C   -0.201923
    40  H    0.325711
    41  C   -0.268212
    42  H    0.249878
    43  H    0.250459
    44  H    0.250282
    45  C    0.084886
    46  C   -0.576482
    47  H    0.190653
    48  H    0.211827
    49  H    0.201812
    50  C   -0.551455
    51  H    0.202972
    52  H    0.192349
    53  H    0.195037
    54  C   -0.582846
    55  H    0.214975
    56  H    0.213015
    57  H    0.152922
    58  N   -0.052263
    59  C   -0.511322
    60  H    0.260219
    61  H    0.282143
    62  C    0.080167
    63  C   -0.366941
    64  C   -0.038754
    65  C   -0.133691
    66  H    0.270010
    67  C   -0.344238
    68  H    0.090355
    69  C   -0.151800
    70  H    0.230598
    71  H    0.290584
    72  C   -0.380966
    73  H    0.159931
    74  H    0.164099
    75  H    0.186604
    76  C   -0.269916
    77  C   -0.207568
    78  C   -0.200350
    79  C   -0.057739
    80  C   -0.393717
    81  C   -0.227584
    82  H    0.222177
    83  H    0.246893
    84  H    0.230284
    85  C   -0.139118
    86  H    0.300252
    87  H    0.246429
    88  C    0.426888
    89  C   -0.430938
    90  H    0.239341
    91  C   -0.592340
    92  H    0.182513
    93  H    0.150949
    94  H    0.223003
    95  S    0.825009
    96  O   -0.438778
    97  O   -0.306770
    98  C    0.565894
    99  F   -0.186077
   100  F   -0.182503
   101  F   -0.189914
 Sum of Mulliken charges =  -0.00000
 Mulliken charges with hydrogens summed into heavy atoms:
               1
     1  Ni   0.043228
     2  C   -0.038840
     3  O   -0.385051
     4  P    0.564597
     5  O   -0.446382
     6  C    0.271206
     7  C   -0.122878
    11  C   -0.001401
    12  C   -0.117758
    13  C   -0.062651
    14  C   -0.030266
    16  C   -0.022393
    18  C    0.047391
    22  C   -0.024877
    23  C   -0.150877
    24  C   -0.055681
    25  C   -0.017161
    27  C   -0.004766
    29  C    0.067785
    33  S    0.428253
    34  C    0.036243
    35  C   -0.165137
    36  C   -0.119873
    37  C    0.055965
    39  C    0.048537
    41  C   -0.017930
    45  C    0.084886
    46  C    0.027810
    50  C    0.038902
    54  C   -0.001934
    58  N   -0.052263
    59  C    0.031039
    62  C    0.080167
    63  C   -0.096932
    64  C    0.051600
    65  C    0.096907
    67  C   -0.053653
    69  C   -0.151800
    72  C    0.129669
    76  C   -0.023023
    77  C    0.022716
    78  C   -0.200350
    79  C   -0.057739
    80  C   -0.093465
    81  C    0.018845
    85  C    0.083059
    88  C    0.426888
    89  C   -0.191597
    91  C   -0.035876
    95  S    0.825009
    96  O   -0.438778
    97  O   -0.306770
    98  C    0.565894
    99  F   -0.186077
   100  F   -0.182503
   101  F   -0.189914
 Electronic spatial extent (au):  <R**2>=          31940.5384
 Charge=              0.0000 electrons
 Dipole moment (field-independent basis, Debye):
    X=             11.3096    Y=             -3.6749    Z=              4.5090  Tot=             12.7178
 Quadrupole moment (field-independent basis, Debye-Ang):
   XX=           -356.0249   YY=           -316.7452   ZZ=           -348.7362
   XY=              5.9659   XZ=            -19.3990   YZ=            -11.6639
 Traceless Quadrupole moment (field-independent basis, Debye-Ang):
   XX=            -15.5228   YY=             23.7568   ZZ=             -8.2341
   XY=              5.9659   XZ=            -19.3990   YZ=            -11.6639
 Octapole moment (field-independent basis, Debye-Ang**2):
  XXX=            115.6945  YYY=            -85.8312  ZZZ=             85.0630  XYY=              8.3092
  XXY=           -102.8283  XXZ=              1.2303  XZZ=             31.1218  YZZ=             17.1298
  YYZ=             -6.1769  XYZ=            -26.5093
 Hexadecapole moment (field-independent basis, Debye-Ang**3):
 XXXX=         -18099.2569 YYYY=         -11859.8121 ZZZZ=         -11227.9356 XXXY=            141.7337
 XXXZ=           -182.6049 YYYX=            409.7475 YYYZ=            -95.6582 ZZZX=            -90.0501
 ZZZY=             -4.1078 XXYY=          -5084.5227 XXZZ=          -4963.0604 YYZZ=          -3865.6458
 XXYZ=           -203.5935 YYXZ=             83.7761 ZZXY=            131.1959
 N-N= 1.103034215040D+04 E-N=-3.387416878812D+04  KE= 4.987562223359D+03
 Unable to Open any file for archive entry.
 1\1\GINC-NODE3\SP\RM06\def2TZVPP\C44H45F3N1Ni1O4P1S2\LLG_HG\03-Dec-202
 3\0\\# m06/def2tzvpp scrf=(smd,solvent=n,n-dimethylformamide) em=gd3\\
 Title Card Required\\0,1\Ni,0,-0.966317,0.59147,-0.122199\C,0,-2.84114
 5,0.947011,-0.323331\O,0,-1.667861,-0.726926,-2.543765\P,0,0.942079,1.
 269783,0.701897\O,0,-0.708951,-1.355779,0.517649\C,0,2.446346,-1.15018
 2,0.685771\C,0,2.559229,0.373209,0.480013\H,0,1.852806,-1.313572,1.587
 067\H,0,2.94423,0.598433,-0.512434\H,0,3.27629,0.765362,1.206024\C,0,1
 .480866,3.003677,0.427509\C,0,1.070052,4.032564,1.288001\C,0,2.214923,
 3.336098,-0.721572\C,0,1.387059,5.361165,1.005226\H,0,0.495112,3.79194
 3,2.174832\C,0,2.534518,4.664779,-0.999132\H,0,2.529405,2.563207,-1.41
 2297\C,0,2.119451,5.682662,-0.138597\H,0,1.060866,6.146066,1.681459\H,
 0,3.110837,4.902362,-1.888751\H,0,2.366659,6.717369,-0.356209\C,0,0.78
 009,1.16034,2.536651\C,0,-0.391494,0.616741,3.08011\C,0,1.796851,1.587
 291,3.40524\C,0,-0.547371,0.504033,4.46249\H,0,-1.183495,0.291051,2.41
 7449\C,0,1.644525,1.469744,4.785392\H,0,2.701945,2.034035,3.003865\C,0
 ,0.4707,0.926801,5.316481\H,0,-1.471866,0.097818,4.861111\H,0,2.437113
 ,1.806808,5.447195\H,0,0.351461,0.841418,6.392771\S,0,0.120881,-2.3769
 ,-0.270659\C,0,3.820603,-1.772644,0.907893\C,0,4.919664,-1.408369,0.11
 7253\C,0,4.019886,-2.716482,1.922129\C,0,6.168725,-1.996551,0.312366\H
 ,0,4.802711,-0.652972,-0.650963\C,0,5.269281,-3.303694,2.125089\H,0,3.
 196181,-2.98817,2.57286\C,0,6.347812,-2.951095,1.314504\H,0,7.0048,-1.
 701749,-0.314883\H,0,5.399327,-4.029737,2.921975\H,0,7.321056,-3.40657
 8,1.469189\C,0,0.138288,-3.834801,0.935294\C,0,1.286148,-4.750622,0.51
 4834\H,0,2.258855,-4.275027,0.65033\H,0,1.260532,-5.662301,1.121084\H,
 0,1.192201,-5.050201,-0.534778\C,0,-1.221116,-4.509059,0.693029\H,0,-1
 .265573,-5.43489,1.275918\H,0,-2.042143,-3.863302,1.008916\H,0,-1.3674
 36,-4.765008,-0.360949\C,0,0.227775,-3.360153,2.383509\H,0,-0.486004,-
 2.555086,2.568545\H,0,-0.006527,-4.197911,3.049147\H,0,1.223089,-3.001
 581,2.644264\N,0,1.715235,-1.840747,-0.406483\C,0,2.30914,-1.986897,-1
 .746129\H,0,1.663103,-2.678111,-2.296766\H,0,3.279765,-2.482335,-1.645
 085\C,0,2.460881,-0.703354,-2.538427\C,0,3.694755,-0.33316,-3.076638\C
 ,0,1.356695,0.129933,-2.75818\C,0,3.833071,0.859766,-3.792483\H,0,4.55
 9351,-0.975982,-2.932284\C,0,1.495405,1.310317,-3.478804\H,0,0.386173,
 -0.134778,-2.35996\C,0,2.737776,1.702782,-4.00052\H,0,4.805669,1.13744
 8,-4.190085\H,0,0.627578,1.946637,-3.622786\C,0,2.871969,3.001872,-4.7
 54903\H,0,2.447712,3.833504,-4.181732\H,0,3.918238,3.234875,-4.970368\
 H,0,2.334147,2.963642,-5.709253\C,0,-4.708524,0.50949,3.510438\C,0,-3.
 932956,1.621944,3.224213\C,0,-3.356103,1.806309,1.952057\C,0,-3.548158
 ,0.807715,0.950933\C,0,-4.380288,-0.287814,1.247766\C,0,-4.945012,-0.4
 41324,2.506264\H,0,-2.515086,3.761727,2.404281\H,0,-5.145141,0.385008,
 4.496989\H,0,-3.764636,2.382886,3.982075\C,0,-2.596911,2.991583,1.6422
 76\H,0,-4.581855,-1.024213,0.483465\H,0,-5.572676,-1.304014,2.71045\C,
 0,-2.049487,2.138366,-0.609638\C,0,-2.017285,3.157332,0.426597\H,0,-1.
 485524,4.077059,0.200426\C,0,-1.817733,2.618045,-2.030664\H,0,-0.96904
 5,3.309514,-2.045646\H,0,-1.590606,1.801947,-2.717501\H,0,-2.69499,3.1
 5077,-2.422008\S,0,-3.123026,-0.607218,-2.535658\O,0,-3.868393,-0.3581
 22,-3.757383\O,0,-3.663831,0.411354,-1.436324\C,0,-3.736017,-2.238124,
 -1.881886\F,0,-5.056959,-2.203971,-1.70546\F,0,-3.145904,-2.52058,-0.7
 15351\F,0,-3.427832,-3.191878,-2.763558\\Version=ES64L-G16RevC.01\Stat
 e=1-A\HF=-5004.380432\RMSD=1.840e-09\Dipole=4.4495436,-1.4458337,1.773
 9684\Quadrupole=-11.5407972,17.6626312,-6.121834,4.4355022,-14.4226962
 ,-8.6718504\PG=C01 [X(C44H45F3N1Ni1O4P1S2)]\\@
 The archive entry for this job was punched.


 EVERYTHING'S GOT A MORAL, IF ONLY YOU CAN FIND IT.

                                    -- LEWIS CARROL, ALICE IN WONDERLAND
 Job cpu time:       2 days  1 hours 38 minutes 19.4 seconds.
 Elapsed time:       0 days  1 hours 33 minutes 54.8 seconds.
 File lengths (MBytes):  RWF=   3813 Int=      0 D2E=      0 Chk=    343 Scr=      2
 Normal termination of Gaussian 16 at Sun Dec  3 23:47:13 2023.
