 Entering Gaussian System, Link 0=g16
 Initial command:
 /public/software/apps/Gaussian/g16/l1.exe "/tmp/Gau-75833.inp" -scrdir="/tmp/"
 Entering Link 1 = /public/software/apps/Gaussian/g16/l1.exe PID=     75834.
  
 Copyright (c) 1988-2019, Gaussian, Inc.  All Rights Reserved.
  
 This is part of the Gaussian(R) 16 program.  It is based on
 the Gaussian(R) 09 system (copyright 2009, Gaussian, Inc.),
 the Gaussian(R) 03 system (copyright 2003, Gaussian, Inc.),
 the Gaussian(R) 98 system (copyright 1998, Gaussian, Inc.),
 the Gaussian(R) 94 system (copyright 1995, Gaussian, Inc.),
 the Gaussian 92(TM) system (copyright 1992, Gaussian, Inc.),
 the Gaussian 90(TM) system (copyright 1990, Gaussian, Inc.),
 the Gaussian 88(TM) system (copyright 1988, Gaussian, Inc.),
 the Gaussian 86(TM) system (copyright 1986, Carnegie Mellon
 University), and the Gaussian 82(TM) system (copyright 1983,
 Carnegie Mellon University). Gaussian is a federally registered
 trademark of Gaussian, Inc.
  
 This software contains proprietary and confidential information,
 including trade secrets, belonging to Gaussian, Inc.
  
 This software is provided under written license and may be
 used, copied, transmitted, or stored only in accord with that
 written license.
  
 The following legend is applicable only to US Government
 contracts under FAR:
  
                    RESTRICTED RIGHTS LEGEND
  
 Use, reproduction and disclosure by the US Government is
 subject to restrictions as set forth in subparagraphs (a)
 and (c) of the Commercial Computer Software - Restricted
 Rights clause in FAR 52.227-19.
  
 Gaussian, Inc.
 340 Quinnipiac St., Bldg. 40, Wallingford CT 06492
  
  
 ---------------------------------------------------------------
 Warning -- This program may not be used in any manner that
 competes with the business of Gaussian, Inc. or will provide
 assistance to any competitor of Gaussian, Inc.  The licensee
 of this program is prohibited from giving any competitor of
 Gaussian, Inc. access to this program.  By using this program,
 the user acknowledges that Gaussian, Inc. is engaged in the
 business of creating and licensing software in the field of
 computational chemistry and represents and warrants to the
 licensee that it is not a competitor of Gaussian, Inc. and that
 it will not use this program in any manner prohibited above.
 ---------------------------------------------------------------
  

 Cite this work as:
 Gaussian 16, Revision C.01,
 M. J. Frisch, G. W. Trucks, H. B. Schlegel, G. E. Scuseria, 
 M. A. Robb, J. R. Cheeseman, G. Scalmani, V. Barone, 
 G. A. Petersson, H. Nakatsuji, X. Li, M. Caricato, A. V. Marenich, 
 J. Bloino, B. G. Janesko, R. Gomperts, B. Mennucci, H. P. Hratchian, 
 J. V. Ortiz, A. F. Izmaylov, J. L. Sonnenberg, D. Williams-Young, 
 F. Ding, F. Lipparini, F. Egidi, J. Goings, B. Peng, A. Petrone, 
 T. Henderson, D. Ranasinghe, V. G. Zakrzewski, J. Gao, N. Rega, 
 G. Zheng, W. Liang, M. Hada, M. Ehara, K. Toyota, R. Fukuda, 
 J. Hasegawa, M. Ishida, T. Nakajima, Y. Honda, O. Kitao, H. Nakai, 
 T. Vreven, K. Throssell, J. A. Montgomery, Jr., J. E. Peralta, 
 F. Ogliaro, M. J. Bearpark, J. J. Heyd, E. N. Brothers, K. N. Kudin, 
 V. N. Staroverov, T. A. Keith, R. Kobayashi, J. Normand, 
 K. Raghavachari, A. P. Rendell, J. C. Burant, S. S. Iyengar, 
 J. Tomasi, M. Cossi, J. M. Millam, M. Klene, C. Adamo, R. Cammi, 
 J. W. Ochterski, R. L. Martin, K. Morokuma, O. Farkas, 
 J. B. Foresman, and D. J. Fox, Gaussian, Inc., Wallingford CT, 2019.
 
 ******************************************
 Gaussian 16:  ES64L-G16RevC.01  3-Jul-2019
                11-Nov-2024 
 ******************************************
 %nprocshared=32
 Will use up to   32 processors via shared memory.
 %mem=80GB
 --------------------------------------------------------------
 # opt=maxcycle=150 freq b3lyp/genecp empiricaldispersion=gd3bj
 --------------------------------------------------------------
 1/6=150,18=20,19=15,26=3,38=1/1,3;
 2/9=110,12=2,17=6,18=5,40=1/2;
 3/5=7,11=2,16=1,17=8,25=1,30=1,71=1,74=-5,124=41/1,2,3;
 4//1;
 5/5=2,38=5/2;
 6/7=2,8=2,9=2,10=2,28=1/1;
 7//1,2,3,16;
 1/6=150,18=20,19=15,26=3/3(2);
 2/9=110/2;
 99//99;
 2/9=110/2;
 3/5=7,6=1,11=2,16=1,17=8,25=1,30=1,71=1,74=-5,82=7,124=41/1,2,3;
 4/5=5,16=3,69=1/1;
 5/5=2,38=5/2;
 7//1,2,3,16;
 1/6=150,18=20,19=15,26=3/3(-5);
 2/9=110/2;
 6/7=2,8=2,9=2,10=2,19=2,28=1/1;
 99/9=1/99;
 ------------------
 B3D3_Pople_Opt_Gas
 ------------------
 Symbolic Z-matrix:
 Charge = -1 Multiplicity = 1
 C                    -1.91412   2.07416   0.00001 
 H                    -1.27845   2.95015   0.00003 
 C                    -1.41918   0.76974  0. 
 C                     0.0088    0.46009  0. 
 C                     1.02171   1.44281  -0.00001 
 C                     0.39372  -0.91444   0.00001 
 C                    -1.9578   -1.49113  0. 
 C                     2.35813   1.08763  -0.00001 
 H                     0.75528   2.49397  -0.00002 
 C                     1.77008  -1.25481   0.00001 
 C                    -0.63024  -1.8966    0. 
 H                    -2.75253  -2.23572  -0.00002 
 C                     2.73601  -0.27165   0. 
 H                     3.12196   1.85969  -0.00002 
 H                     2.04819  -2.30539   0.00001 
 H                    -0.37234  -2.95153   0. 
 H                     3.78857  -0.53981   0. 
 H                    -2.98785   2.21552   0.00001 
 N                    -2.36079  -0.21737  -0.00001 
 

 GradGradGradGradGradGradGradGradGradGradGradGradGradGradGradGradGradGrad
 Berny optimization.
 Initialization pass.
                           ----------------------------
                           !    Initial Parameters    !
                           ! (Angstroms and Degrees)  !
 --------------------------                            --------------------------
 ! Name  Definition              Value          Derivative Info.                !
 --------------------------------------------------------------------------------
 ! R1    R(1,2)                  1.0823         estimate D2E/DX2                !
 ! R2    R(1,3)                  1.3952         estimate D2E/DX2                !
 ! R3    R(1,18)                 1.083          estimate D2E/DX2                !
 ! R4    R(3,4)                  1.4612         estimate D2E/DX2                !
 ! R5    R(3,19)                 1.3642         estimate D2E/DX2                !
 ! R6    R(4,5)                  1.4113         estimate D2E/DX2                !
 ! R7    R(4,6)                  1.4274         estimate D2E/DX2                !
 ! R8    R(5,8)                  1.3828         estimate D2E/DX2                !
 ! R9    R(5,9)                  1.0844         estimate D2E/DX2                !
 ! R10   R(6,10)                 1.4178         estimate D2E/DX2                !
 ! R11   R(6,11)                 1.4188         estimate D2E/DX2                !
 ! R12   R(7,11)                 1.3881         estimate D2E/DX2                !
 ! R13   R(7,12)                 1.089          estimate D2E/DX2                !
 ! R14   R(7,19)                 1.336          estimate D2E/DX2                !
 ! R15   R(8,13)                 1.4108         estimate D2E/DX2                !
 ! R16   R(8,14)                 1.0861         estimate D2E/DX2                !
 ! R17   R(10,13)                1.3783         estimate D2E/DX2                !
 ! R18   R(10,15)                1.0868         estimate D2E/DX2                !
 ! R19   R(11,16)                1.086          estimate D2E/DX2                !
 ! R20   R(13,17)                1.0862         estimate D2E/DX2                !
 ! A1    A(2,1,3)              123.2548         estimate D2E/DX2                !
 ! A2    A(2,1,18)             118.4671         estimate D2E/DX2                !
 ! A3    A(3,1,18)             118.2781         estimate D2E/DX2                !
 ! A4    A(1,3,4)              123.0132         estimate D2E/DX2                !
 ! A5    A(1,3,19)             115.5729         estimate D2E/DX2                !
 ! A6    A(4,3,19)             121.4139         estimate D2E/DX2                !
 ! A7    A(3,4,5)              123.6318         estimate D2E/DX2                !
 ! A8    A(3,4,6)              117.8794         estimate D2E/DX2                !
 ! A9    A(5,4,6)              118.4888         estimate D2E/DX2                !
 ! A10   A(4,5,8)              120.983          estimate D2E/DX2                !
 ! A11   A(4,5,9)              119.9102         estimate D2E/DX2                !
 ! A12   A(8,5,9)              119.1068         estimate D2E/DX2                !
 ! A13   A(4,6,10)             119.5348         estimate D2E/DX2                !
 ! A14   A(4,6,11)             118.1617         estimate D2E/DX2                !
 ! A15   A(10,6,11)            122.3036         estimate D2E/DX2                !
 ! A16   A(11,7,12)            119.8823         estimate D2E/DX2                !
 ! A17   A(11,7,19)            124.5399         estimate D2E/DX2                !
 ! A18   A(12,7,19)            115.5778         estimate D2E/DX2                !
 ! A19   A(5,8,13)             120.4196         estimate D2E/DX2                !
 ! A20   A(5,8,14)             119.8093         estimate D2E/DX2                !
 ! A21   A(13,8,14)            119.7712         estimate D2E/DX2                !
 ! A22   A(6,10,13)            120.6033         estimate D2E/DX2                !
 ! A23   A(6,10,15)            118.7176         estimate D2E/DX2                !
 ! A24   A(13,10,15)           120.6791         estimate D2E/DX2                !
 ! A25   A(6,11,7)             119.2102         estimate D2E/DX2                !
 ! A26   A(6,11,16)            120.0685         estimate D2E/DX2                !
 ! A27   A(7,11,16)            120.7213         estimate D2E/DX2                !
 ! A28   A(8,13,10)            119.9705         estimate D2E/DX2                !
 ! A29   A(8,13,17)            119.829          estimate D2E/DX2                !
 ! A30   A(10,13,17)           120.2005         estimate D2E/DX2                !
 ! A31   A(3,19,7)             118.795          estimate D2E/DX2                !
 ! D1    D(2,1,3,4)             -0.0005         estimate D2E/DX2                !
 ! D2    D(2,1,3,19)           179.9991         estimate D2E/DX2                !
 ! D3    D(18,1,3,4)           179.9999         estimate D2E/DX2                !
 ! D4    D(18,1,3,19)           -0.0005         estimate D2E/DX2                !
 ! D5    D(1,3,4,5)             -0.0011         estimate D2E/DX2                !
 ! D6    D(1,3,4,6)            179.999          estimate D2E/DX2                !
 ! D7    D(19,3,4,5)           179.9993         estimate D2E/DX2                !
 ! D8    D(19,3,4,6)            -0.0005         estimate D2E/DX2                !
 ! D9    D(1,3,19,7)          -179.9991         estimate D2E/DX2                !
 ! D10   D(4,3,19,7)             0.0005         estimate D2E/DX2                !
 ! D11   D(3,4,5,8)            180.0            estimate D2E/DX2                !
 ! D12   D(3,4,5,9)             -0.0002         estimate D2E/DX2                !
 ! D13   D(6,4,5,8)             -0.0002         estimate D2E/DX2                !
 ! D14   D(6,4,5,9)            179.9996         estimate D2E/DX2                !
 ! D15   D(3,4,6,10)          -179.9999         estimate D2E/DX2                !
 ! D16   D(3,4,6,11)             0.0003         estimate D2E/DX2                !
 ! D17   D(5,4,6,10)             0.0002         estimate D2E/DX2                !
 ! D18   D(5,4,6,11)          -179.9995         estimate D2E/DX2                !
 ! D19   D(4,5,8,13)             0.0            estimate D2E/DX2                !
 ! D20   D(4,5,8,14)           179.9999         estimate D2E/DX2                !
 ! D21   D(9,5,8,13)          -179.9998         estimate D2E/DX2                !
 ! D22   D(9,5,8,14)             0.0001         estimate D2E/DX2                !
 ! D23   D(4,6,10,13)           -0.0001         estimate D2E/DX2                !
 ! D24   D(4,6,10,15)          180.0            estimate D2E/DX2                !
 ! D25   D(11,6,10,13)         179.9996         estimate D2E/DX2                !
 ! D26   D(11,6,10,15)          -0.0003         estimate D2E/DX2                !
 ! D27   D(4,6,11,7)            -0.0002         estimate D2E/DX2                !
 ! D28   D(4,6,11,16)          179.9997         estimate D2E/DX2                !
 ! D29   D(10,6,11,7)         -179.9999         estimate D2E/DX2                !
 ! D30   D(10,6,11,16)          -0.0001         estimate D2E/DX2                !
 ! D31   D(12,7,11,6)          179.9989         estimate D2E/DX2                !
 ! D32   D(12,7,11,16)          -0.0009         estimate D2E/DX2                !
 ! D33   D(19,7,11,6)            0.0001         estimate D2E/DX2                !
 ! D34   D(19,7,11,16)        -179.9997         estimate D2E/DX2                !
 ! D35   D(11,7,19,3)           -0.0003         estimate D2E/DX2                !
 ! D36   D(12,7,19,3)         -179.9991         estimate D2E/DX2                !
 ! D37   D(5,8,13,10)            0.0001         estimate D2E/DX2                !
 ! D38   D(5,8,13,17)          180.0            estimate D2E/DX2                !
 ! D39   D(14,8,13,10)        -179.9998         estimate D2E/DX2                !
 ! D40   D(14,8,13,17)           0.0001         estimate D2E/DX2                !
 ! D41   D(6,10,13,8)           -0.0001         estimate D2E/DX2                !
 ! D42   D(6,10,13,17)        -179.9999         estimate D2E/DX2                !
 ! D43   D(15,10,13,8)         179.9998         estimate D2E/DX2                !
 ! D44   D(15,10,13,17)          0.0            estimate D2E/DX2                !
 --------------------------------------------------------------------------------
 Trust Radius=3.00D-01 FncErr=1.00D-07 GrdErr=1.00D-06 EigMax=2.50D+02 EigMin=1.00D-04
 Number of steps in this run=    114 maximum allowed number of steps=    114.
 GradGradGradGradGradGradGradGradGradGradGradGradGradGradGradGradGradGrad

                          Input orientation:                          
 ---------------------------------------------------------------------
 Center     Atomic      Atomic             Coordinates (Angstroms)
 Number     Number       Type             X           Y           Z
 ---------------------------------------------------------------------
      1          6           0       -1.914118    2.074163    0.000012
      2          1           0       -1.278448    2.950152    0.000033
      3          6           0       -1.419177    0.769735   -0.000002
      4          6           0        0.008796    0.460085   -0.000001
      5          6           0        1.021713    1.442812   -0.000009
      6          6           0        0.393722   -0.914444    0.000005
      7          6           0       -1.957800   -1.491133   -0.000003
      8          6           0        2.358130    1.087627   -0.000007
      9          1           0        0.755277    2.493971   -0.000020
     10          6           0        1.770079   -1.254810    0.000008
     11          6           0       -0.630237   -1.896596    0.000002
     12          1           0       -2.752534   -2.235717   -0.000023
     13          6           0        2.736009   -0.271653    0.000003
     14          1           0        3.121957    1.859685   -0.000015
     15          1           0        2.048190   -2.305389    0.000013
     16          1           0       -0.372338   -2.951527    0.000001
     17          1           0        3.788569   -0.539812    0.000004
     18          1           0       -2.987846    2.215518    0.000009
     19          7           0       -2.360790   -0.217371   -0.000008
 ---------------------------------------------------------------------
                    Distance matrix (angstroms):
                    1          2          3          4          5
     1  C    0.000000
     2  H    1.082328   0.000000
     3  C    1.395170   2.184954   0.000000
     4  C    2.510547   2.803111   1.461161   0.000000
     5  C    3.002950   2.750057   2.531991   1.411295   0.000000
     6  C    3.775963   4.210850   2.474482   1.427410   2.439473
     7  C    3.565564   4.492942   2.324143   2.770334   4.181570
     8  C    4.384673   4.085792   3.790660   2.431703   1.382811
     9  H    2.702204   2.084260   2.775111   2.166547   1.084400
    10  C    4.965417   5.193768   3.777583   2.458248   2.799503
    11  C    4.173162   4.889902   2.780602   2.441784   3.725666
    12  H    4.390673   5.391305   3.287945   3.859053   5.270343
    13  C    5.208314   5.147416   4.283697   2.823673   2.424500
    14  H    5.040640   4.533507   4.670106   3.413305   2.141216
    15  H    5.905960   6.219906   4.634547   3.436128   3.886215
    16  H    5.256867   5.970833   3.865703   3.432835   4.610162
    17  H    6.273237   6.152602   5.369873   3.909793   3.403864
    18  H    1.082993   1.860572   2.133310   3.472954   4.083337
    19  N    2.334661   3.347337   1.364190   2.464525   3.767962
                    6          7          8          9         10
     6  C    0.000000
     7  C    2.421203   0.000000
     8  C    2.804851   5.027649   0.000000
     9  H    3.427538   4.820979   2.132356   0.000000
    10  C    1.417818   3.735362   2.415122   3.883707   0.000000
    11  C    1.418843   1.388101   4.223260   4.603990   2.484634
    12  H    3.412432   1.089040   6.096187   5.888522   4.627765
    13  C    2.428886   4.849637   1.410828   3.401761   1.378266
    14  H    3.890894   6.085385   1.086050   2.450203   3.395240
    15  H    2.161479   4.087905   3.407143   4.970461   1.086767
    16  H    2.176363   2.155560   4.875471   5.561022   2.732910
    17  H    3.415455   5.824583   2.166729   4.290070   2.141384
    18  H    4.607783   3.847110   5.463662   3.753466   5.889060
    19  N    2.841346   1.335990   4.896042   4.130526   4.259150
                   11         12         13         14         15
    11  C    0.000000
    12  H    2.149220   0.000000
    13  C    3.737921   5.829378   0.000000
    14  H    5.309294   7.161143   2.166000   0.000000
    15  H    2.709443   4.801230   2.146899   4.301258   0.000000
    16  H    1.085998   2.485501   4.104089   5.946247   2.505284
    17  H    4.622414   6.757375   1.086182   2.490373   2.479149
    18  H    4.740021   4.457450   6.240876   6.120156   6.767589
    19  N    2.411350   2.056012   5.097088   5.862992   4.878414
                   16         17         18         19
    16  H    0.000000
    17  H    4.809316   0.000000
    18  H    5.791307   7.315165   0.000000
    19  N    3.380762   6.157807   2.512399   0.000000
 Stoichiometry    C10H8N(1-)
 Framework group  C1[X(C10H8N)]
 Deg. of freedom    51
 Full point group                 C1      NOp   1
 Largest Abelian subgroup         C1      NOp   1
 Largest concise Abelian subgroup C1      NOp   1
                         Standard orientation:                         
 ---------------------------------------------------------------------
 Center     Atomic      Atomic             Coordinates (Angstroms)
 Number     Number       Type             X           Y           Z
 ---------------------------------------------------------------------
      1          6           0       -1.914118    2.074163    0.000012
      2          1           0       -1.278448    2.950152    0.000033
      3          6           0       -1.419177    0.769735   -0.000002
      4          6           0        0.008796    0.460085   -0.000001
      5          6           0        1.021713    1.442812   -0.000009
      6          6           0        0.393722   -0.914444    0.000005
      7          6           0       -1.957800   -1.491133   -0.000003
      8          6           0        2.358130    1.087627   -0.000007
      9          1           0        0.755277    2.493971   -0.000020
     10          6           0        1.770079   -1.254810    0.000008
     11          6           0       -0.630237   -1.896596    0.000002
     12          1           0       -2.752534   -2.235717   -0.000023
     13          6           0        2.736009   -0.271653    0.000003
     14          1           0        3.121957    1.859685   -0.000015
     15          1           0        2.048190   -2.305389    0.000013
     16          1           0       -0.372338   -2.951527    0.000001
     17          1           0        3.788569   -0.539812    0.000004
     18          1           0       -2.987846    2.215518    0.000009
     19          7           0       -2.360790   -0.217371   -0.000008
 ---------------------------------------------------------------------
 Rotational constants (GHZ):           2.0739771           1.1156733           0.7254340
 General basis read from cards:  (5D, 7F)
 ======================================================================================================
                                       Pseudopotential Parameters
 ======================================================================================================
  Center     Atomic      Valence      Angular      Power
  Number     Number     Electrons     Momentum     of R      Exponent        Coefficient   SO-Coeffient
 ======================================================================================================
    1          6
                                   No pseudopotential on this center.
    2          1
                                   No pseudopotential on this center.
    3          6
                                   No pseudopotential on this center.
    4          6
                                   No pseudopotential on this center.
    5          6
                                   No pseudopotential on this center.
    6          6
                                   No pseudopotential on this center.
    7          6
                                   No pseudopotential on this center.
    8          6
                                   No pseudopotential on this center.
    9          1
                                   No pseudopotential on this center.
   10          6
                                   No pseudopotential on this center.
   11          6
                                   No pseudopotential on this center.
   12          1
                                   No pseudopotential on this center.
   13          6
                                   No pseudopotential on this center.
   14          1
                                   No pseudopotential on this center.
   15          1
                                   No pseudopotential on this center.
   16          1
                                   No pseudopotential on this center.
   17          1
                                   No pseudopotential on this center.
   18          1
                                   No pseudopotential on this center.
   19          7
                                   No pseudopotential on this center.
 ======================================================================================================
 There are   181 symmetry adapted cartesian basis functions of A   symmetry.
 There are   170 symmetry adapted basis functions of A   symmetry.
   170 basis functions,   340 primitive gaussians,   181 cartesian basis functions
    38 alpha electrons       38 beta electrons
       nuclear repulsion energy       539.1077208540 Hartrees.
 NAtoms=   19 NActive=   19 NUniq=   19 SFac= 1.00D+00 NAtFMM=   60 NAOKFM=F Big=F
 Integral buffers will be    131072 words long.
 Raffenetti 2 integral format.
 Two-electron integral symmetry is turned on.
 Nuclear repulsion after empirical dispersion term =      539.0681106060 Hartrees.
 One-electron integrals computed using PRISM.
   1 Symmetry operations used in ECPInt.
 ECPInt:  NShTT=    1830 NPrTT=   12003 LenC2=    1788 LenP2D=    7697.
 LDataN:  DoStor=T MaxTD1= 4 Len=   56
 NBasis=   170 RedAO= T EigKep=  3.59D-04  NBF=   170
 NBsUse=   170 1.00D-06 EigRej= -1.00D+00 NBFU=   170
 ExpMin= 1.61D-01 ExpMax= 4.17D+03 ExpMxC= 6.27D+02 IAcc=3 IRadAn=         5 AccDes= 0.00D+00
 Harris functional with IExCor=  402 and IRadAn=       5 diagonalized for initial guess.
 HarFok:  IExCor=  402 AccDes= 0.00D+00 IRadAn=         5 IDoV= 1 UseB2=F ITyADJ=14
 ICtDFT=  3500011 ScaDFX=  1.000000  1.000000  1.000000  1.000000
 FoFCou: FMM=F IPFlag=           0 FMFlag=      100000 FMFlg1=           0
         NFxFlg=           0 DoJE=T BraDBF=F KetDBF=T FulRan=T
         wScrn=  0.000000 ICntrl=       500 IOpCl=  0 I1Cent=   200000004 NGrid=           0
         NMat0=    1 NMatS0=      1 NMatT0=    0 NMatD0=    1 NMtDS0=    0 NMtDT0=    0
 Petite list used in FoFCou.
 Requested convergence on RMS density matrix=1.00D-08 within 128 cycles.
 Requested convergence on MAX density matrix=1.00D-06.
 Requested convergence on             energy=1.00D-06.
 No special actions if energy rises.
 Integral accuracy reduced to 1.0D-05 until final iterations.
 Initial convergence to 1.0D-05 achieved.  Increase integral accuracy.
 SCF Done:  E(RB3LYP) =  -440.659342558     A.U. after   15 cycles
            NFock= 15  Conv=0.67D-08     -V/T= 2.0061

 **********************************************************************

            Population analysis using the SCF Density.

 **********************************************************************

 Orbital symmetries:
       Occupied  (A) (A) (A) (A) (A) (A) (A) (A) (A) (A) (A) (A)
                 (A) (A) (A) (A) (A) (A) (A) (A) (A) (A) (A) (A)
                 (A) (A) (A) (A) (A) (A) (A) (A) (A) (A) (A) (A)
                 (A) (A)
       Virtual   (A) (A) (A) (A) (A) (A) (A) (A) (A) (A) (A) (A)
                 (A) (A) (A) (A) (A) (A) (A) (A) (A) (A) (A) (A)
                 (A) (A) (A) (A) (A) (A) (A) (A) (A) (A) (A) (A)
                 (A) (A) (A) (A) (A) (A) (A) (A) (A) (A) (A) (A)
                 (A) (A) (A) (A) (A) (A) (A) (A) (A) (A) (A) (A)
                 (A) (A) (A) (A) (A) (A) (A) (A) (A) (A) (A) (A)
                 (A) (A) (A) (A) (A) (A) (A) (A) (A) (A) (A) (A)
                 (A) (A) (A) (A) (A) (A) (A) (A) (A) (A) (A) (A)
                 (A) (A) (A) (A) (A) (A) (A) (A) (A) (A) (A) (A)
                 (A) (A) (A) (A) (A) (A) (A) (A) (A) (A) (A) (A)
                 (A) (A) (A) (A) (A) (A) (A) (A) (A) (A) (A) (A)
 The electronic state is 1-A.
 Alpha  occ. eigenvalues --  -14.10777 -10.03608 -10.02941 -10.02640 -10.02627
 Alpha  occ. eigenvalues --  -10.02569 -10.02506 -10.02451 -10.01691  -9.98178
 Alpha  occ. eigenvalues --   -9.95670  -0.73591  -0.68794  -0.60970  -0.59627
 Alpha  occ. eigenvalues --   -0.56312  -0.49564  -0.45784  -0.45098  -0.40008
 Alpha  occ. eigenvalues --   -0.35241  -0.34207  -0.31336  -0.28624  -0.27973
 Alpha  occ. eigenvalues --   -0.24916  -0.24395  -0.22707  -0.21676  -0.20842
 Alpha  occ. eigenvalues --   -0.18577  -0.17596  -0.16485  -0.12284  -0.09143
 Alpha  occ. eigenvalues --   -0.06467  -0.05562   0.03222
 Alpha virt. eigenvalues --    0.13954   0.15590   0.22973   0.23196   0.26300
 Alpha virt. eigenvalues --    0.26771   0.28640   0.29479   0.30242   0.33034
 Alpha virt. eigenvalues --    0.34201   0.37921   0.38659   0.40940   0.42564
 Alpha virt. eigenvalues --    0.44591   0.47042   0.47949   0.50460   0.51951
 Alpha virt. eigenvalues --    0.57197   0.61908   0.65408   0.67070   0.67326
 Alpha virt. eigenvalues --    0.69914   0.70683   0.71249   0.71662   0.72601
 Alpha virt. eigenvalues --    0.73343   0.74520   0.76178   0.76994   0.77164
 Alpha virt. eigenvalues --    0.77600   0.78409   0.78804   0.82024   0.83529
 Alpha virt. eigenvalues --    0.84375   0.85613   0.86865   0.87715   0.91024
 Alpha virt. eigenvalues --    0.97350   0.97610   0.97956   0.98783   1.01140
 Alpha virt. eigenvalues --    1.03147   1.03792   1.04865   1.07067   1.08835
 Alpha virt. eigenvalues --    1.09203   1.10891   1.12465   1.15439   1.16928
 Alpha virt. eigenvalues --    1.19967   1.21727   1.22625   1.27614   1.29390
 Alpha virt. eigenvalues --    1.34349   1.35301   1.40284   1.40776   1.43211
 Alpha virt. eigenvalues --    1.43260   1.48810   1.53835   1.56248   1.56860
 Alpha virt. eigenvalues --    1.61033   1.61041   1.64672   1.65412   1.65527
 Alpha virt. eigenvalues --    1.67652   1.69827   1.70524   1.78277   1.88471
 Alpha virt. eigenvalues --    1.90371   1.93532   1.94434   1.98570   1.99644
 Alpha virt. eigenvalues --    2.05116   2.06774   2.08007   2.09651   2.11725
 Alpha virt. eigenvalues --    2.12122   2.13536   2.19215   2.20510   2.28156
 Alpha virt. eigenvalues --    2.28425   2.31093   2.36547   2.37058   2.38306
 Alpha virt. eigenvalues --    2.38991   2.43080   2.43725   2.48406   2.50147
 Alpha virt. eigenvalues --    2.51274   2.52806   2.53737   2.64174   2.65080
 Alpha virt. eigenvalues --    2.70548   2.77814   2.79525   2.81415   2.81552
 Alpha virt. eigenvalues --    2.85509   2.87427   2.90991   2.93168   2.97814
 Alpha virt. eigenvalues --    3.03370   3.08014   3.10991   3.17063   3.35206
 Alpha virt. eigenvalues --    3.53826   3.65603
          Condensed to atoms (all electrons):
               1          2          3          4          5          6
     1  C    5.443446   0.333033   0.567289  -0.075396  -0.025067   0.008441
     2  H    0.333033   0.680230  -0.012367  -0.011827   0.002426  -0.000166
     3  C    0.567289  -0.012367   4.583237   0.355055  -0.062514  -0.021980
     4  C   -0.075396  -0.011827   0.355055   4.998150   0.430811   0.451070
     5  C   -0.025067   0.002426  -0.062514   0.430811   5.168971  -0.068007
     6  C    0.008441  -0.000166  -0.021980   0.451070  -0.068007   4.711561
     7  C    0.003139  -0.000187  -0.053071  -0.033544  -0.000624   0.008058
     8  C    0.000587   0.000427   0.006110  -0.006345   0.499575  -0.036408
     9  H    0.005421   0.004625  -0.011440  -0.029931   0.343003   0.005346
    10  C   -0.000292   0.000008   0.011749  -0.023260  -0.066146   0.445165
    11  C    0.002524  -0.000030  -0.042118  -0.055812   0.016080   0.461837
    12  H   -0.000535   0.000005   0.002319   0.002332   0.000051   0.000877
    13  C    0.000013  -0.000005  -0.000079  -0.041529  -0.017714   0.000810
    14  H    0.000002  -0.000003  -0.000186   0.002904  -0.043226   0.001090
    15  H    0.000002   0.000000  -0.000154   0.005832   0.000538  -0.039049
    16  H    0.000014  -0.000000  -0.000032   0.007860  -0.000139  -0.048751
    17  H    0.000000   0.000000   0.000013   0.001108   0.004520   0.002978
    18  H    0.323840  -0.052351  -0.001320   0.007055  -0.000057  -0.000078
    19  N   -0.100481   0.004736   0.425834  -0.029143   0.009977  -0.057791
               7          8          9         10         11         12
     1  C    0.003139   0.000587   0.005421  -0.000292   0.002524  -0.000535
     2  H   -0.000187   0.000427   0.004625   0.000008  -0.000030   0.000005
     3  C   -0.053071   0.006110  -0.011440   0.011749  -0.042118   0.002319
     4  C   -0.033544  -0.006345  -0.029931  -0.023260  -0.055812   0.002332
     5  C   -0.000624   0.499575   0.343003  -0.066146   0.016080   0.000051
     6  C    0.008058  -0.036408   0.005346   0.445165   0.461837   0.000877
     7  C    4.787206   0.000038  -0.000011   0.008045   0.468904   0.348967
     8  C    0.000038   4.952083  -0.058664  -0.024541  -0.000261  -0.000001
     9  H   -0.000011  -0.058664   0.649272   0.000651  -0.000170   0.000000
    10  C    0.008045  -0.024541   0.000651   5.166817  -0.102125  -0.000241
    11  C    0.468904  -0.000261  -0.000170  -0.102125   5.333602  -0.072693
    12  H    0.348967  -0.000001   0.000000  -0.000241  -0.072693   0.722724
    13  C   -0.000341   0.522086   0.004782   0.507833   0.008915   0.000004
    14  H   -0.000000   0.346301  -0.006522   0.004847   0.000013   0.000000
    15  H    0.000128   0.005036   0.000023   0.341607  -0.011546  -0.000011
    16  H   -0.047998   0.000001   0.000003  -0.013346   0.321479  -0.002136
    17  H    0.000003  -0.047815  -0.000227  -0.044024  -0.000228  -0.000000
    18  H    0.000705  -0.000003  -0.000233   0.000004  -0.000033  -0.000049
    19  N    0.519965  -0.000187   0.000065  -0.000049  -0.047241  -0.051709
              13         14         15         16         17         18
     1  C    0.000013   0.000002   0.000002   0.000014   0.000000   0.323840
     2  H   -0.000005  -0.000003   0.000000  -0.000000   0.000000  -0.052351
     3  C   -0.000079  -0.000186  -0.000154  -0.000032   0.000013  -0.001320
     4  C   -0.041529   0.002904   0.005832   0.007860   0.001108   0.007055
     5  C   -0.017714  -0.043226   0.000538  -0.000139   0.004520  -0.000057
     6  C    0.000810   0.001090  -0.039049  -0.048751   0.002978  -0.000078
     7  C   -0.000341  -0.000000   0.000128  -0.047998   0.000003   0.000705
     8  C    0.522086   0.346301   0.005036   0.000001  -0.047815  -0.000003
     9  H    0.004782  -0.006522   0.000023   0.000003  -0.000227  -0.000233
    10  C    0.507833   0.004847   0.341607  -0.013346  -0.044024   0.000004
    11  C    0.008915   0.000013  -0.011546   0.321479  -0.000228  -0.000033
    12  H    0.000004   0.000000  -0.000011  -0.002136  -0.000000  -0.000049
    13  C    4.911731  -0.049534  -0.059287   0.000105   0.343628   0.000000
    14  H   -0.049534   0.691426  -0.000227   0.000000  -0.006441  -0.000000
    15  H   -0.059287  -0.000227   0.686422   0.008576  -0.006843  -0.000000
    16  H    0.000105   0.000000   0.008576   0.736106  -0.000013  -0.000001
    17  H    0.343628  -0.006441  -0.006843  -0.000013   0.690102  -0.000000
    18  H    0.000000  -0.000000  -0.000000  -0.000001  -0.000000   0.658957
    19  N    0.000005   0.000001   0.000014   0.006367  -0.000000   0.001425
              19
     1  C   -0.100481
     2  H    0.004736
     3  C    0.425834
     4  C   -0.029143
     5  C    0.009977
     6  C   -0.057791
     7  C    0.519965
     8  C   -0.000187
     9  H    0.000065
    10  C   -0.000049
    11  C   -0.047241
    12  H   -0.051709
    13  C    0.000005
    14  H    0.000001
    15  H    0.000014
    16  H    0.006367
    17  H   -0.000000
    18  H    0.001425
    19  N    6.801748
 Mulliken charges:
               1
     1  C   -0.485979
     2  H    0.051447
     3  C    0.253656
     4  C    0.044609
     5  C   -0.192459
     6  C    0.174998
     7  C   -0.009382
     8  C   -0.158019
     9  H    0.094006
    10  C   -0.212701
    11  C   -0.281096
    12  H    0.050097
    13  C   -0.131423
    14  H    0.059555
    15  H    0.068938
    16  H    0.031906
    17  H    0.063239
    18  H    0.062142
    19  N   -0.483535
 Sum of Mulliken charges =  -1.00000
 Mulliken charges with hydrogens summed into heavy atoms:
               1
     1  C   -0.372390
     3  C    0.253656
     4  C    0.044609
     5  C   -0.098452
     6  C    0.174998
     7  C    0.040715
     8  C   -0.098464
    10  C   -0.143763
    11  C   -0.249190
    13  C   -0.068184
    19  N   -0.483535
 Electronic spatial extent (au):  <R**2>=           1575.8843
 Charge=             -1.0000 electrons
 Dipole moment (field-independent basis, Debye):
    X=              4.6562    Y=             -1.1077    Z=             -0.0000  Tot=              4.7862
 Quadrupole moment (field-independent basis, Debye-Ang):
   XX=            -87.6449   YY=            -74.0389   ZZ=            -70.9011
   XY=              3.7251   XZ=             -0.0000   YZ=             -0.0000
 Traceless Quadrupole moment (field-independent basis, Debye-Ang):
   XX=            -10.1166   YY=              3.4894   ZZ=              6.6272
   XY=              3.7251   XZ=             -0.0000   YZ=             -0.0000
 Octapole moment (field-independent basis, Debye-Ang**2):
  XXX=             35.5813  YYY=             -8.0006  ZZZ=             -0.0001  XYY=             13.1615
  XXY=            -11.4280  XXZ=             -0.0000  XZZ=             -0.4387  YZZ=             -1.7568
  YYZ=             -0.0001  XYZ=             -0.0001
 Hexadecapole moment (field-independent basis, Debye-Ang**3):
 XXXX=          -1488.6675 YYYY=           -847.7326 ZZZZ=            -74.3387 XXXY=             20.5801
 XXXZ=             -0.0001 YYYX=             31.0324 YYYZ=              0.0002 ZZZX=              0.0001
 ZZZY=             -0.0000 XXYY=           -383.8008 XXZZ=           -260.0775 YYZZ=           -164.7995
 XXYZ=             -0.0001 YYXZ=              0.0001 ZZXY=              4.7769
 N-N= 5.390681106060D+02 E-N=-2.114306269259D+03  KE= 4.379880622359D+02
   1 Symmetry operations used in ECPInt.
 ECPInt:  NShTT=    1830 NPrTT=   12003 LenC2=    1788 LenP2D=    7697.
 LDataN:  DoStor=T MaxTD1= 5 Len=  102
 Calling FoFJK, ICntrl=      2127 FMM=F ISym2X=0 I1Cent= 0 IOpClX= 0 NMat=1 NMatS=1 NMatT=0.
 ***** Axes restored to original set *****
 -------------------------------------------------------------------
 Center     Atomic                   Forces (Hartrees/Bohr)
 Number     Number              X              Y              Z
 -------------------------------------------------------------------
      1        6           0.010778672   -0.014442123   -0.000000393
      2        1           0.000671575    0.001859568   -0.000000155
      3        6          -0.015385088    0.043439554    0.000001592
      4        6           0.012957945    0.002332058   -0.000000247
      5        6          -0.008932224   -0.008100681   -0.000000025
      6        6          -0.005292795   -0.007215399   -0.000000201
      7        6           0.004719709    0.019594712   -0.000001913
      8        6           0.011305136   -0.002958207    0.000000061
      9        1          -0.001431786    0.000521316   -0.000000019
     10        6          -0.000809933    0.002402334    0.000000043
     11        6           0.002610380   -0.009417353    0.000000585
     12        1          -0.002695218   -0.003081984    0.000000732
     13        6           0.000376519    0.006897621   -0.000000131
     14        1           0.001805643    0.001215846    0.000000048
     15        1           0.000181167   -0.001690419    0.000000016
     16        1           0.001384707   -0.001886116    0.000000108
     17        1           0.002429853   -0.000387224    0.000000031
     18        1          -0.000736395    0.000515355    0.000000098
     19        7          -0.013937867   -0.029598858   -0.000000232
 -------------------------------------------------------------------
 Cartesian Forces:  Max     0.043439554 RMS     0.009035046

 GradGradGradGradGradGradGradGradGradGradGradGradGradGradGradGradGradGrad
 Berny optimization.
 FormGI is forming the generalized inverse of G from B-inverse, IUseBI=4.
 Internal  Forces:  Max     0.023074039 RMS     0.004488447
 Search for a local minimum.
 Step number   1 out of a maximum of  114
 All quantities printed in internal units (Hartrees-Bohrs-Radians)
 Mixed Optimization -- RFO/linear search
 Second derivative matrix not updated -- first step.
 ITU=  0
     Eigenvalues ---    0.01543   0.01697   0.01791   0.01835   0.01944
     Eigenvalues ---    0.02035   0.02042   0.02052   0.02123   0.02141
     Eigenvalues ---    0.02153   0.02153   0.02173   0.02240   0.02296
     Eigenvalues ---    0.02355   0.16000   0.16000   0.16000   0.16000
     Eigenvalues ---    0.16000   0.16000   0.16000   0.16000   0.22000
     Eigenvalues ---    0.22348   0.22657   0.24298   0.24618   0.25000
     Eigenvalues ---    0.25000   0.34924   0.35189   0.35258   0.35273
     Eigenvalues ---    0.35279   0.35468   0.35608   0.35635   0.35715
     Eigenvalues ---    0.37751   0.40628   0.41510   0.42517   0.43559
     Eigenvalues ---    0.46314   0.46430   0.47298   0.48620   0.50805
     Eigenvalues ---    0.56533
 RFO step:  Lambda=-5.30143839D-03 EMin= 1.54289915D-02
 Linear search not attempted -- first point.
 Iteration  1 RMS(Cart)=  0.01981518 RMS(Int)=  0.00022557
 Iteration  2 RMS(Cart)=  0.00030963 RMS(Int)=  0.00002929
 Iteration  3 RMS(Cart)=  0.00000008 RMS(Int)=  0.00002929
 Variable       Old X    -DE/DX   Delta X   Delta X   Delta X     New X
                                 (Linear)    (Quad)   (Total)
    R1        2.04530   0.00190   0.00000   0.00524   0.00524   2.05054
    R2        2.63649  -0.01508   0.00000  -0.03212  -0.03212   2.60437
    R3        2.04656   0.00080   0.00000   0.00220   0.00220   2.04876
    R4        2.76119   0.01574   0.00000   0.04423   0.04426   2.80545
    R5        2.57794   0.02307   0.00000   0.04491   0.04498   2.62292
    R6        2.66696  -0.00365   0.00000  -0.00832  -0.00832   2.65864
    R7        2.69741   0.00600   0.00000   0.01479   0.01473   2.71215
    R8        2.61313   0.00925   0.00000   0.01877   0.01879   2.63192
    R9        2.04922   0.00086   0.00000   0.00238   0.00238   2.05160
   R10        2.67929   0.00419   0.00000   0.00974   0.00972   2.68901
   R11        2.68122  -0.00006   0.00000  -0.00152  -0.00158   2.67964
   R12        2.62313   0.00508   0.00000   0.00894   0.00892   2.63205
   R13        2.05799   0.00407   0.00000   0.01149   0.01149   2.06948
   R14        2.52466  -0.00519   0.00000  -0.00925  -0.00922   2.51544
   R15        2.66608  -0.00483   0.00000  -0.01088  -0.01086   2.65522
   R16        2.05234   0.00213   0.00000   0.00596   0.00596   2.05830
   R17        2.60455   0.00563   0.00000   0.01133   0.01133   2.61587
   R18        2.05369   0.00168   0.00000   0.00470   0.00470   2.05840
   R19        2.05224   0.00216   0.00000   0.00603   0.00603   2.05827
   R20        2.05259   0.00245   0.00000   0.00685   0.00685   2.05943
    A1        2.15120   0.00047   0.00000   0.00281   0.00281   2.15402
    A2        2.06764  -0.00066   0.00000  -0.00397  -0.00397   2.06367
    A3        2.06434   0.00019   0.00000   0.00116   0.00116   2.06550
    A4        2.14699  -0.00196   0.00000  -0.01010  -0.01014   2.13685
    A5        2.01713   0.01289   0.00000   0.04807   0.04803   2.06516
    A6        2.11907  -0.01093   0.00000  -0.03797  -0.03789   2.08118
    A7        2.15778  -0.00210   0.00000  -0.00975  -0.00972   2.14806
    A8        2.05738   0.00382   0.00000   0.01871   0.01870   2.07608
    A9        2.06802  -0.00172   0.00000  -0.00895  -0.00898   2.05904
   A10        2.11155   0.00574   0.00000   0.02485   0.02485   2.13641
   A11        2.09283  -0.00416   0.00000  -0.02023  -0.02024   2.07259
   A12        2.07881  -0.00158   0.00000  -0.00462  -0.00462   2.07419
   A13        2.08628  -0.00375   0.00000  -0.01391  -0.01390   2.07237
   A14        2.06231   0.00236   0.00000   0.00736   0.00727   2.06958
   A15        2.13460   0.00139   0.00000   0.00655   0.00663   2.14123
   A16        2.09234  -0.00542   0.00000  -0.02239  -0.02239   2.06995
   A17        2.17363   0.01000   0.00000   0.03972   0.03972   2.21335
   A18        2.01721  -0.00458   0.00000  -0.01733  -0.01733   1.99988
   A19        2.10172  -0.00356   0.00000  -0.01630  -0.01627   2.08545
   A20        2.09107   0.00222   0.00000   0.01081   0.01079   2.10186
   A21        2.09040   0.00134   0.00000   0.00549   0.00547   2.09588
   A22        2.10493   0.00378   0.00000   0.01670   0.01667   2.12160
   A23        2.07201  -0.00216   0.00000  -0.00995  -0.00994   2.06208
   A24        2.10625  -0.00163   0.00000  -0.00675  -0.00674   2.09951
   A25        2.08061  -0.00410   0.00000  -0.02478  -0.02489   2.05572
   A26        2.09559   0.00113   0.00000   0.00682   0.00688   2.10247
   A27        2.10698   0.00297   0.00000   0.01796   0.01802   2.12500
   A28        2.09388  -0.00049   0.00000  -0.00239  -0.00238   2.09150
   A29        2.09141   0.00002   0.00000  -0.00020  -0.00021   2.09120
   A30        2.09789   0.00048   0.00000   0.00259   0.00258   2.10048
   A31        2.07336  -0.00115   0.00000  -0.00303  -0.00290   2.07046
    D1       -0.00001   0.00000   0.00000  -0.00000  -0.00000  -0.00001
    D2        3.14158   0.00000   0.00000   0.00001   0.00001   3.14159
    D3        3.14159  -0.00000   0.00000  -0.00000  -0.00000   3.14159
    D4       -0.00001   0.00000   0.00000   0.00001   0.00001   0.00000
    D5       -0.00002   0.00000   0.00000   0.00001   0.00001  -0.00001
    D6        3.14158   0.00000   0.00000   0.00001   0.00001   3.14158
    D7        3.14158  -0.00000   0.00000  -0.00001  -0.00001   3.14158
    D8       -0.00001  -0.00000   0.00000  -0.00001  -0.00001  -0.00002
    D9       -3.14158  -0.00000   0.00000  -0.00001  -0.00001  -3.14159
   D10        0.00001   0.00000   0.00000   0.00000   0.00000   0.00001
   D11        3.14159  -0.00000   0.00000  -0.00001  -0.00001   3.14159
   D12       -0.00000  -0.00000   0.00000  -0.00000  -0.00000  -0.00001
   D13       -0.00000  -0.00000   0.00000  -0.00000  -0.00000  -0.00001
   D14        3.14159   0.00000   0.00000   0.00000   0.00000   3.14159
   D15       -3.14159   0.00000   0.00000   0.00001   0.00001  -3.14159
   D16        0.00001   0.00000   0.00000   0.00000   0.00000   0.00001
   D17        0.00000   0.00000   0.00000   0.00000   0.00000   0.00001
   D18       -3.14158   0.00000   0.00000  -0.00000  -0.00000  -3.14158
   D19        0.00000   0.00000   0.00000   0.00000   0.00000   0.00000
   D20        3.14159   0.00000   0.00000   0.00000   0.00000  -3.14159
   D21       -3.14159  -0.00000   0.00000  -0.00000  -0.00000  -3.14159
   D22        0.00000  -0.00000   0.00000  -0.00000  -0.00000   0.00000
   D23       -0.00000  -0.00000   0.00000  -0.00000  -0.00000  -0.00000
   D24        3.14159  -0.00000   0.00000  -0.00000  -0.00000   3.14159
   D25        3.14159   0.00000   0.00000   0.00000   0.00000   3.14159
   D26       -0.00001   0.00000   0.00000   0.00000   0.00000  -0.00000
   D27       -0.00000   0.00000   0.00000   0.00001   0.00001   0.00001
   D28        3.14159   0.00000   0.00000   0.00001   0.00001  -3.14159
   D29       -3.14159   0.00000   0.00000   0.00001   0.00001  -3.14159
   D30       -0.00000   0.00000   0.00000   0.00000   0.00000   0.00000
   D31        3.14157   0.00000   0.00000   0.00002   0.00002   3.14159
   D32       -0.00002   0.00000   0.00000   0.00002   0.00002   0.00000
   D33        0.00000  -0.00000   0.00000  -0.00001  -0.00001  -0.00001
   D34       -3.14159  -0.00000   0.00000  -0.00001  -0.00001   3.14158
   D35       -0.00001   0.00000   0.00000   0.00001   0.00001   0.00000
   D36       -3.14158  -0.00000   0.00000  -0.00002  -0.00002   3.14159
   D37        0.00000  -0.00000   0.00000  -0.00000  -0.00000   0.00000
   D38        3.14159   0.00000   0.00000   0.00000   0.00000  -3.14159
   D39       -3.14159  -0.00000   0.00000  -0.00000  -0.00000  -3.14159
   D40        0.00000  -0.00000   0.00000  -0.00000  -0.00000   0.00000
   D41       -0.00000   0.00000   0.00000   0.00000   0.00000  -0.00000
   D42       -3.14159  -0.00000   0.00000  -0.00000  -0.00000  -3.14159
   D43        3.14159   0.00000   0.00000   0.00000   0.00000   3.14159
   D44        0.00000  -0.00000   0.00000  -0.00000  -0.00000  -0.00000
         Item               Value     Threshold  Converged?
 Maximum Force            0.023074     0.000450     NO 
 RMS     Force            0.004488     0.000300     NO 
 Maximum Displacement     0.089575     0.001800     NO 
 RMS     Displacement     0.019715     0.001200     NO 
 Predicted change in Energy=-2.693646D-03
 GradGradGradGradGradGradGradGradGradGradGradGradGradGradGradGradGradGrad

                          Input orientation:                          
 ---------------------------------------------------------------------
 Center     Atomic      Atomic             Coordinates (Angstroms)
 Number     Number       Type             X           Y           Z
 ---------------------------------------------------------------------
      1          6           0       -1.904304    2.091651    0.000013
      2          1           0       -1.246315    2.954492    0.000027
      3          6           0       -1.449811    0.790576    0.000003
      4          6           0       -0.004317    0.452151   -0.000001
      5          6           0        1.012000    1.425007   -0.000009
      6          6           0        0.385832   -0.929008    0.000003
      7          6           0       -1.953791   -1.493027   -0.000012
      8          6           0        2.364293    1.091736   -0.000007
      9          1           0        0.731054    2.473685   -0.000019
     10          6           0        1.772524   -1.248240    0.000007
     11          6           0       -0.628124   -1.920287    0.000001
     12          1           0       -2.747685   -2.247362   -0.000018
     13          6           0        2.743160   -0.261304    0.000003
     14          1           0        3.124633    1.871640   -0.000013
     15          1           0        2.057823   -2.299470    0.000012
     16          1           0       -0.366662   -2.977630    0.000005
     17          1           0        3.799786   -0.528168    0.000005
     18          1           0       -2.974850    2.262919    0.000012
     19          7           0       -2.386092   -0.234067   -0.000010
 ---------------------------------------------------------------------
                    Distance matrix (angstroms):
                    1          2          3          4          5
     1  C    0.000000
     2  H    1.085101   0.000000
     3  C    1.378173   2.173464   0.000000
     4  C    2.509564   2.793612   1.484582   0.000000
     5  C    2.991529   2.727510   2.542246   1.406893   0.000000
     6  C    3.790661   4.212538   2.515264   1.435206   2.435872
     7  C    3.585020   4.503437   2.338554   2.753936   4.160629
     8  C    4.384148   4.062800   3.825975   2.453443   1.392754
     9  H    2.662905   2.034985   2.754819   2.151133   1.085660
    10  C    4.967287   5.174586   3.813163   2.459368   2.779324
    11  C    4.210022   4.913820   2.832657   2.453079   3.725721
    12  H    4.420218   5.414185   3.303565   3.848823   5.255618
    13  C    5.209158   5.124183   4.322899   2.838599   2.416724
    14  H    5.033748   4.503083   4.700451   3.435881   2.159328
    15  H    5.914423   6.206564   4.674599   3.438581   3.868523
    16  H    5.297354   5.996988   3.920789   3.448869   4.613450
    17  H    6.276950   6.131236   5.412703   3.928387   3.403916
    18  H    1.084159   1.861749   2.119797   3.478929   4.073951
    19  N    2.375097   3.386149   1.387990   2.478659   3.781476
                    6          7          8          9         10
     6  C    0.000000
     7  C    2.406648   0.000000
     8  C    2.828023   5.032579   0.000000
     9  H    3.420161   4.789906   2.139451   0.000000
    10  C    1.422963   3.734347   2.413644   3.864892   0.000000
    11  C    1.418005   1.392819   4.245802   4.599386   2.492941
    12  H    3.399556   1.095120   6.105890   5.864291   4.629312
    13  C    2.450066   4.855769   1.405083   3.395399   1.384261
    14  H    3.917226   6.091910   1.089205   2.468133   3.400272
    15  H    2.161878   4.091869   3.405026   4.954122   1.089256
    16  H    2.182453   2.173252   4.900802   5.560739   2.750802
    17  H    3.437406   5.833919   2.164424   4.292813   2.151348
    18  H    4.634931   3.892260   5.466088   3.711893   5.904727
    19  N    2.857710   1.331113   4.931928   4.128986   4.280495
                   11         12         13         14         15
    11  C    0.000000
    12  H    2.144649   0.000000
    13  C    3.757363   5.838990   0.000000
    14  H    5.334969   7.172886   2.166788   0.000000
    15  H    2.712579   4.805790   2.150304   4.305373   0.000000
    16  H    1.089191   2.490494   4.129095   5.975330   2.517544
    17  H    4.641593   6.769417   1.089805   2.492972   2.484341
    18  H    4.796492   4.515998   6.250387   6.112021   6.792878
    19  N    2.435937   2.045508   5.129325   5.899330   4.900435
                   16         17         18         19
    16  H    0.000000
    17  H    4.833132   0.000000
    18  H    5.853717   7.327064   0.000000
    19  N    3.406646   6.192866   2.565459   0.000000
 Stoichiometry    C10H8N(1-)
 Framework group  C1[X(C10H8N)]
 Deg. of freedom    51
 Full point group                 C1      NOp   1
 Largest Abelian subgroup         C1      NOp   1
 Largest concise Abelian subgroup C1      NOp   1
                         Standard orientation:                         
 ---------------------------------------------------------------------
 Center     Atomic      Atomic             Coordinates (Angstroms)
 Number     Number       Type             X           Y           Z
 ---------------------------------------------------------------------
      1          6           0       -1.899433    2.094212    0.000014
      2          1           0       -1.241085    2.956779    0.000028
      3          6           0       -1.445480    0.792948    0.000004
      4          6           0       -0.000127    0.453922   -0.000001
      5          6           0        1.016594    1.426355   -0.000009
      6          6           0        0.389448   -0.927399    0.000004
      7          6           0       -1.950410   -1.490445   -0.000012
      8          6           0        2.368748    1.092523   -0.000006
      9          1           0        0.736084    2.475151   -0.000018
     10          6           0        1.776007   -1.247207    0.000008
     11          6           0       -0.624920   -1.918256    0.000001
     12          1           0       -2.744617   -2.244450   -0.000017
     13          6           0        2.747053   -0.260675    0.000003
     14          1           0        3.129413    1.872110   -0.000012
     15          1           0        2.060868   -2.298556    0.000013
     16          1           0       -0.363898   -2.975708    0.000006
     17          1           0        3.803568   -0.527978    0.000006
     18          1           0       -2.969907    2.265925    0.000013
     19          7           0       -2.382187   -0.231306   -0.000009
 ---------------------------------------------------------------------
 Rotational constants (GHZ):           2.0543112           1.1093759           0.7203630
 Basis read from rwf:  (5D, 7F)
 Pseudo-potential data read from rwf file.
 There are   181 symmetry adapted cartesian basis functions of A   symmetry.
 There are   170 symmetry adapted basis functions of A   symmetry.
   170 basis functions,   340 primitive gaussians,   181 cartesian basis functions
    38 alpha electrons       38 beta electrons
       nuclear repulsion energy       537.3177942819 Hartrees.
 NAtoms=   19 NActive=   19 NUniq=   19 SFac= 1.00D+00 NAtFMM=   60 NAOKFM=F Big=F
 Integral buffers will be    131072 words long.
 Raffenetti 2 integral format.
 Two-electron integral symmetry is turned on.
 Nuclear repulsion after empirical dispersion term =      537.2782738298 Hartrees.
 One-electron integrals computed using PRISM.
   1 Symmetry operations used in ECPInt.
 ECPInt:  NShTT=    1830 NPrTT=   12003 LenC2=    1787 LenP2D=    7683.
 LDataN:  DoStor=T MaxTD1= 4 Len=   56
 NBasis=   170 RedAO= T EigKep=  3.68D-04  NBF=   170
 NBsUse=   170 1.00D-06 EigRej= -1.00D+00 NBFU=   170
 Initial guess from the checkpoint file:  "/tmp/Gau-75834.chk"
 B after Tr=    -0.000000   -0.000000    0.000000
         Rot=    1.000000   -0.000000    0.000000   -0.000086 Ang=  -0.01 deg.
 ExpMin= 1.61D-01 ExpMax= 4.17D+03 ExpMxC= 6.27D+02 IAcc=3 IRadAn=         5 AccDes= 0.00D+00
 Harris functional with IExCor=  402 and IRadAn=       5 diagonalized for initial guess.
 HarFok:  IExCor=  402 AccDes= 0.00D+00 IRadAn=         5 IDoV= 1 UseB2=F ITyADJ=14
 ICtDFT=  3500011 ScaDFX=  1.000000  1.000000  1.000000  1.000000
 FoFCou: FMM=F IPFlag=           0 FMFlag=      100000 FMFlg1=           0
         NFxFlg=           0 DoJE=T BraDBF=F KetDBF=T FulRan=T
         wScrn=  0.000000 ICntrl=       500 IOpCl=  0 I1Cent=   200000004 NGrid=           0
         NMat0=    1 NMatS0=      1 NMatT0=    0 NMatD0=    1 NMtDS0=    0 NMtDT0=    0
 Petite list used in FoFCou.
 Requested convergence on RMS density matrix=1.00D-08 within 128 cycles.
 Requested convergence on MAX density matrix=1.00D-06.
 Requested convergence on             energy=1.00D-06.
 No special actions if energy rises.
 Integral accuracy reduced to 1.0D-05 until final iterations.
 Initial convergence to 1.0D-05 achieved.  Increase integral accuracy.
 SCF Done:  E(RB3LYP) =  -440.662383360     A.U. after   13 cycles
            NFock= 13  Conv=0.47D-08     -V/T= 2.0064
   1 Symmetry operations used in ECPInt.
 ECPInt:  NShTT=    1830 NPrTT=   12003 LenC2=    1787 LenP2D=    7683.
 LDataN:  DoStor=T MaxTD1= 5 Len=  102
 Calling FoFJK, ICntrl=      2127 FMM=F ISym2X=0 I1Cent= 0 IOpClX= 0 NMat=1 NMatS=1 NMatT=0.
 ***** Axes restored to original set *****
 -------------------------------------------------------------------
 Center     Atomic                   Forces (Hartrees/Bohr)
 Number     Number              X              Y              Z
 -------------------------------------------------------------------
      1        6           0.001935980   -0.007234510    0.000000193
      2        1          -0.000800386   -0.000535508    0.000000065
      3        6          -0.001277017    0.011631595   -0.000000751
      4        6           0.006281253    0.000780569    0.000000144
      5        6          -0.003152025   -0.002827260    0.000000098
      6        6          -0.000184182   -0.002210392    0.000000061
      7        6           0.000326943    0.006904256    0.000000895
      8        6           0.002694801   -0.000083582   -0.000000051
      9        1           0.000154926    0.000413950    0.000000000
     10        6          -0.000938675    0.001364665   -0.000000046
     11        6           0.000970933   -0.002074992   -0.000000087
     12        1          -0.000611816   -0.001129456   -0.000000257
     13        6          -0.000738500    0.001339502    0.000000017
     14        1          -0.000704350    0.000097036   -0.000000009
     15        1           0.000052348   -0.000261061   -0.000000015
     16        1          -0.000585454    0.000774363   -0.000000135
     17        1          -0.000120633   -0.000603708    0.000000019
     18        1          -0.000513308    0.000914998   -0.000000012
     19        7          -0.002790838   -0.007260464   -0.000000129
 -------------------------------------------------------------------
 Cartesian Forces:  Max     0.011631595 RMS     0.002607590

 GradGradGradGradGradGradGradGradGradGradGradGradGradGradGradGradGradGrad
 Berny optimization.
 Using GEDIIS/GDIIS optimizer.
 FormGI is forming the generalized inverse of G from B-inverse, IUseBI=4.
 Internal  Forces:  Max     0.006676697 RMS     0.001178640
 Search for a local minimum.
 Step number   2 out of a maximum of  114
 All quantities printed in internal units (Hartrees-Bohrs-Radians)
 Mixed Optimization -- RFO/linear search
 Update second derivatives using D2CorX and points    1    2
 DE= -3.04D-03 DEPred=-2.69D-03 R= 1.13D+00
 TightC=F SS=  1.41D+00  RLast= 1.28D-01 DXNew= 5.0454D-01 3.8454D-01
 Trust test= 1.13D+00 RLast= 1.28D-01 DXMaxT set to 3.85D-01
 ITU=  1  0
 Use linear search instead of GDIIS.
     Eigenvalues ---    0.01548   0.01694   0.01806   0.01836   0.01945
     Eigenvalues ---    0.02037   0.02042   0.02053   0.02124   0.02142
     Eigenvalues ---    0.02153   0.02153   0.02175   0.02241   0.02300
     Eigenvalues ---    0.02357   0.15836   0.16000   0.16000   0.16000
     Eigenvalues ---    0.16000   0.16000   0.16000   0.16083   0.20691
     Eigenvalues ---    0.22062   0.22655   0.24279   0.24580   0.24832
     Eigenvalues ---    0.27038   0.32439   0.34972   0.35192   0.35262
     Eigenvalues ---    0.35276   0.35427   0.35472   0.35642   0.35940
     Eigenvalues ---    0.37852   0.40489   0.41511   0.42438   0.42879
     Eigenvalues ---    0.44203   0.46367   0.47376   0.48981   0.50583
     Eigenvalues ---    0.56502
 RFO step:  Lambda=-2.91904457D-04 EMin= 1.54786234D-02
 Quartic linear search produced a step of  0.19386.
 Iteration  1 RMS(Cart)=  0.00493897 RMS(Int)=  0.00001657
 Iteration  2 RMS(Cart)=  0.00002465 RMS(Int)=  0.00000638
 Iteration  3 RMS(Cart)=  0.00000000 RMS(Int)=  0.00000638
 Variable       Old X    -DE/DX   Delta X   Delta X   Delta X     New X
                                 (Linear)    (Quad)   (Total)
    R1        2.05054  -0.00091   0.00102  -0.00375  -0.00274   2.04781
    R2        2.60437  -0.00668  -0.00623  -0.01279  -0.01901   2.58536
    R3        2.04876   0.00065   0.00043   0.00188   0.00231   2.05107
    R4        2.80545   0.00390   0.00858   0.00746   0.01604   2.82150
    R5        2.62292   0.00412   0.00872   0.00352   0.01225   2.63517
    R6        2.65864  -0.00264  -0.00161  -0.00607  -0.00768   2.65096
    R7        2.71215   0.00059   0.00286   0.00010   0.00294   2.71508
    R8        2.63192   0.00089   0.00364  -0.00032   0.00332   2.63525
    R9        2.05160   0.00036   0.00046   0.00089   0.00135   2.05295
   R10        2.68901  -0.00108   0.00188  -0.00439  -0.00251   2.68650
   R11        2.67964  -0.00025  -0.00031  -0.00078  -0.00110   2.67854
   R12        2.63205   0.00059   0.00173  -0.00037   0.00136   2.63340
   R13        2.06948   0.00122   0.00223   0.00262   0.00485   2.07432
   R14        2.51544  -0.00415  -0.00179  -0.00759  -0.00937   2.50607
   R15        2.65522  -0.00082  -0.00210  -0.00071  -0.00280   2.65242
   R16        2.05830  -0.00042   0.00116  -0.00223  -0.00108   2.05722
   R17        2.61587   0.00015   0.00220  -0.00119   0.00101   2.61688
   R18        2.05840   0.00027   0.00091   0.00026   0.00118   2.05957
   R19        2.05827  -0.00089   0.00117  -0.00383  -0.00266   2.05561
   R20        2.05943   0.00003   0.00133  -0.00082   0.00051   2.05994
    A1        2.15402  -0.00014   0.00055  -0.00138  -0.00083   2.15318
    A2        2.06367  -0.00077  -0.00077  -0.00525  -0.00602   2.05765
    A3        2.06550   0.00091   0.00023   0.00663   0.00685   2.07236
    A4        2.13685   0.00221  -0.00197   0.01114   0.00917   2.14602
    A5        2.06516  -0.00110   0.00931  -0.01244  -0.00313   2.06202
    A6        2.08118  -0.00111  -0.00735   0.00130  -0.00604   2.07515
    A7        2.14806  -0.00008  -0.00188  -0.00003  -0.00190   2.14616
    A8        2.07608  -0.00059   0.00363  -0.00349   0.00013   2.07621
    A9        2.05904   0.00067  -0.00174   0.00352   0.00177   2.06082
   A10        2.13641   0.00063   0.00482   0.00032   0.00514   2.14155
   A11        2.07259  -0.00005  -0.00392   0.00283  -0.00110   2.07149
   A12        2.07419  -0.00058  -0.00090  -0.00315  -0.00404   2.07014
   A13        2.07237  -0.00109  -0.00270  -0.00344  -0.00614   2.06623
   A14        2.06958   0.00030   0.00141   0.00063   0.00202   2.07160
   A15        2.14123   0.00079   0.00129   0.00281   0.00412   2.14535
   A16        2.06995  -0.00146  -0.00434  -0.00468  -0.00902   2.06093
   A17        2.21335   0.00210   0.00770   0.00390   0.01160   2.22495
   A18        1.99988  -0.00064  -0.00336   0.00078  -0.00258   1.99730
   A19        2.08545  -0.00106  -0.00315  -0.00330  -0.00645   2.07900
   A20        2.10186  -0.00006   0.00209  -0.00308  -0.00099   2.10087
   A21        2.09588   0.00112   0.00106   0.00639   0.00744   2.10332
   A22        2.12160   0.00059   0.00323   0.00100   0.00423   2.12583
   A23        2.06208  -0.00031  -0.00193  -0.00043  -0.00235   2.05972
   A24        2.09951  -0.00028  -0.00131  -0.00057  -0.00188   2.09763
   A25        2.05572  -0.00019  -0.00483   0.00029  -0.00456   2.05116
   A26        2.10247   0.00049   0.00133   0.00352   0.00486   2.10733
   A27        2.12500  -0.00030   0.00349  -0.00381  -0.00031   2.12470
   A28        2.09150   0.00026  -0.00046   0.00190   0.00144   2.09294
   A29        2.09120   0.00051  -0.00004   0.00395   0.00391   2.09511
   A30        2.10048  -0.00076   0.00050  -0.00585  -0.00535   2.09513
   A31        2.07046  -0.00051  -0.00056  -0.00263  -0.00316   2.06730
    D1       -0.00001   0.00000  -0.00000   0.00000   0.00000  -0.00001
    D2        3.14159  -0.00000   0.00000  -0.00001  -0.00001   3.14158
    D3        3.14159   0.00000  -0.00000   0.00001   0.00001  -3.14159
    D4        0.00000  -0.00000   0.00000  -0.00001  -0.00001  -0.00001
    D5       -0.00001  -0.00000   0.00000  -0.00001  -0.00001  -0.00002
    D6        3.14158  -0.00000   0.00000  -0.00001  -0.00001   3.14157
    D7        3.14158   0.00000  -0.00000   0.00001   0.00001   3.14158
    D8       -0.00002   0.00000  -0.00000   0.00001   0.00001  -0.00001
    D9       -3.14159   0.00000  -0.00000   0.00001   0.00001  -3.14157
   D10        0.00001  -0.00000   0.00000  -0.00000  -0.00000   0.00001
   D11        3.14159   0.00000  -0.00000   0.00000   0.00000   3.14159
   D12       -0.00001   0.00000  -0.00000   0.00000   0.00000  -0.00000
   D13       -0.00001   0.00000  -0.00000   0.00000   0.00000  -0.00000
   D14        3.14159   0.00000   0.00000   0.00000   0.00000   3.14159
   D15       -3.14159  -0.00000   0.00000  -0.00001  -0.00000  -3.14159
   D16        0.00001  -0.00000   0.00000  -0.00000  -0.00000   0.00000
   D17        0.00001  -0.00000   0.00000  -0.00000  -0.00000   0.00000
   D18       -3.14158  -0.00000  -0.00000  -0.00000  -0.00000  -3.14159
   D19        0.00000  -0.00000   0.00000  -0.00000  -0.00000   0.00000
   D20       -3.14159  -0.00000   0.00000  -0.00000  -0.00000   3.14159
   D21       -3.14159   0.00000  -0.00000   0.00000   0.00000  -3.14159
   D22        0.00000   0.00000  -0.00000   0.00000   0.00000   0.00000
   D23       -0.00000   0.00000  -0.00000   0.00000   0.00000  -0.00000
   D24        3.14159   0.00000  -0.00000   0.00000   0.00000   3.14159
   D25        3.14159   0.00000   0.00000   0.00000   0.00000   3.14159
   D26       -0.00000   0.00000   0.00000   0.00000   0.00000  -0.00000
   D27        0.00001  -0.00000   0.00000  -0.00000  -0.00000   0.00000
   D28       -3.14159  -0.00000   0.00000  -0.00001  -0.00000   3.14159
   D29       -3.14159  -0.00000   0.00000  -0.00000  -0.00000  -3.14159
   D30        0.00000  -0.00000   0.00000  -0.00000  -0.00000  -0.00000
   D31        3.14159  -0.00000   0.00000  -0.00001  -0.00001   3.14158
   D32        0.00000  -0.00000   0.00000  -0.00001  -0.00000  -0.00000
   D33       -0.00001   0.00000  -0.00000   0.00001   0.00001  -0.00000
   D34        3.14158   0.00000  -0.00000   0.00001   0.00001  -3.14159
   D35        0.00000  -0.00000   0.00000  -0.00001  -0.00001  -0.00000
   D36        3.14159   0.00000  -0.00000   0.00001   0.00001  -3.14159
   D37        0.00000   0.00000  -0.00000   0.00000   0.00000   0.00000
   D38       -3.14159   0.00000   0.00000   0.00000   0.00000  -3.14159
   D39       -3.14159   0.00000  -0.00000   0.00000   0.00000  -3.14159
   D40        0.00000   0.00000  -0.00000   0.00000   0.00000   0.00000
   D41       -0.00000  -0.00000   0.00000  -0.00000  -0.00000  -0.00000
   D42       -3.14159  -0.00000  -0.00000  -0.00000  -0.00000   3.14159
   D43        3.14159   0.00000   0.00000   0.00000   0.00000   3.14159
   D44       -0.00000   0.00000  -0.00000   0.00000  -0.00000  -0.00000
         Item               Value     Threshold  Converged?
 Maximum Force            0.006677     0.000450     NO 
 RMS     Force            0.001179     0.000300     NO 
 Maximum Displacement     0.020399     0.001800     NO 
 RMS     Displacement     0.004926     0.001200     NO 
 Predicted change in Energy=-2.224046D-04
 GradGradGradGradGradGradGradGradGradGradGradGradGradGradGradGradGradGrad

                          Input orientation:                          
 ---------------------------------------------------------------------
 Center     Atomic      Atomic             Coordinates (Angstroms)
 Number     Number       Type             X           Y           Z
 ---------------------------------------------------------------------
      1          6           0       -1.910031    2.087073    0.000013
      2          1           0       -1.257110    2.951942    0.000033
      3          6           0       -1.451518    0.798084   -0.000004
      4          6           0        0.001048    0.452661   -0.000003
      5          6           0        1.015961    1.421104   -0.000010
      6          6           0        0.386980   -0.931295    0.000003
      7          6           0       -1.951689   -1.485529   -0.000008
      8          6           0        2.371141    1.092235   -0.000007
      9          1           0        0.735337    2.470608   -0.000020
     10          6           0        1.773262   -1.246373    0.000007
     11          6           0       -0.627879   -1.920813    0.000002
     12          1           0       -2.745069   -2.244121   -0.000017
     13          6           0        2.745701   -0.260464    0.000003
     14          1           0        3.127525    1.875183   -0.000012
     15          1           0        2.059176   -2.298081    0.000012
     16          1           0       -0.373302   -2.978386    0.000004
     17          1           0        3.800748   -0.534572    0.000006
     18          1           0       -2.981584    2.259783    0.000013
     19          7           0       -2.389541   -0.233742   -0.000012
 ---------------------------------------------------------------------
                    Distance matrix (angstroms):
                    1          2          3          4          5
     1  C    0.000000
     2  H    1.083653   0.000000
     3  C    1.368111   2.162614   0.000000
     4  C    2.514663   2.798100   1.493073   0.000000
     5  C    3.000824   2.740495   2.544918   1.402828   0.000000
     6  C    3.792995   4.216937   2.524050   1.436760   2.435035
     7  C    3.572846   4.491502   2.337747   2.751321   4.153969
     8  C    4.395240   4.077095   3.833959   2.454871   1.394513
     9  H    2.673027   2.049762   2.753120   2.147391   1.086374
    10  C    4.967748   5.177741   3.818247   2.455089   2.772894
    11  C    4.207977   4.913214   2.840912   2.455388   3.724328
    12  H    4.410956   5.404913   3.305795   3.848869   5.251592
    13  C    5.214094   5.132450   4.328646   2.835783   2.412399
    14  H    5.042011   4.514912   4.704017   3.434883   2.159836
    15  H    5.914743   6.209709   4.680941   3.435473   3.862724
    16  H    5.293432   5.995824   3.927375   3.451409   4.613628
    17  H    6.283791   6.143102   5.418696   3.925856   3.402897
    18  H    1.085382   1.858197   2.116049   3.487375   4.084574
    19  N    2.369834   3.380974   1.394472   2.487181   3.786285
                    6          7          8          9         10
     6  C    0.000000
     7  C    2.403445   0.000000
     8  C    2.834002   5.033064   0.000000
     9  H    3.419692   4.782377   2.139104   0.000000
    10  C    1.421637   3.732621   2.413825   3.859176   0.000000
    11  C    1.417422   1.393537   4.251186   4.598145   2.494062
    12  H    3.396063   1.097685   6.107935   5.860195   4.627182
    13  C    2.452260   4.854509   1.403599   3.391212   1.384794
    14  H    3.922615   6.090386   1.088634   2.465177   3.402667
    15  H    2.159709   4.092344   3.404639   4.949035   1.089879
    16  H    2.183715   2.172539   4.909371   5.560631   2.758189
    17  H    3.436743   5.830511   2.165705   4.292767   2.148805
    18  H    4.640065   3.884334   5.478579   3.722895   5.907765
    19  N    2.862804   1.326155   4.941893   4.132599   4.284198
                   11         12         13         14         15
    11  C    0.000000
    12  H    2.141733   0.000000
    13  C    3.760027   5.838103   0.000000
    14  H    5.339724   7.173286   2.169511   0.000000
    15  H    2.713410   4.804548   2.150163   4.307842   0.000000
    16  H    1.087782   2.482826   4.137062   5.984390   2.525819
    17  H    4.640518   6.765374   1.090073   2.502028   2.478516
    18  H    4.797636   4.510110   6.257271   6.121203   6.795836
    19  N    2.439193   2.041574   5.135312   5.906402   4.904343
                   16         17         18         19
    16  H    0.000000
    17  H    4.836830   0.000000
    18  H    5.851628   7.335424   0.000000
    19  N    3.405626   6.197595   2.562846   0.000000
 Stoichiometry    C10H8N(1-)
 Framework group  C1[X(C10H8N)]
 Deg. of freedom    51
 Full point group                 C1      NOp   1
 Largest Abelian subgroup         C1      NOp   1
 Largest concise Abelian subgroup C1      NOp   1
                         Standard orientation:                         
 ---------------------------------------------------------------------
 Center     Atomic      Atomic             Coordinates (Angstroms)
 Number     Number       Type             X           Y           Z
 ---------------------------------------------------------------------
      1          6           0       -1.908649    2.086623    0.000014
      2          1           0       -1.256499    2.952073    0.000034
      3          6           0       -1.448987    0.798042   -0.000002
      4          6           0        0.003887    0.453915   -0.000002
      5          6           0        1.017935    1.423261   -0.000009
      6          6           0        0.391052   -0.929697    0.000004
      7          6           0       -1.947122   -1.486016   -0.000006
      8          6           0        2.373408    1.095601   -0.000005
      9          1           0        0.736376    2.472515   -0.000019
     10          6           0        1.777614   -1.243540    0.000008
     11          6           0       -0.622925   -1.920119    0.000003
     12          1           0       -2.739826   -2.245314   -0.000016
     13          6           0        2.749174   -0.256764    0.000004
     14          1           0        3.129094    1.879223   -0.000011
     15          1           0        2.064465   -2.294992    0.000014
     16          1           0       -0.367406   -2.977465    0.000005
     17          1           0        3.804465   -0.529931    0.000008
     18          1           0       -2.980355    2.258377    0.000014
     19          7           0       -2.386090   -0.234619   -0.000011
 ---------------------------------------------------------------------
 Rotational constants (GHZ):           2.0584181           1.1063637           0.7195943
 Basis read from rwf:  (5D, 7F)
 Pseudo-potential data read from rwf file.
 There are   181 symmetry adapted cartesian basis functions of A   symmetry.
 There are   170 symmetry adapted basis functions of A   symmetry.
   170 basis functions,   340 primitive gaussians,   181 cartesian basis functions
    38 alpha electrons       38 beta electrons
       nuclear repulsion energy       537.2179731566 Hartrees.
 NAtoms=   19 NActive=   19 NUniq=   19 SFac= 1.00D+00 NAtFMM=   60 NAOKFM=F Big=F
 Integral buffers will be    131072 words long.
 Raffenetti 2 integral format.
 Two-electron integral symmetry is turned on.
 Nuclear repulsion after empirical dispersion term =      537.1784687407 Hartrees.
 One-electron integrals computed using PRISM.
   1 Symmetry operations used in ECPInt.
 ECPInt:  NShTT=    1830 NPrTT=   12003 LenC2=    1787 LenP2D=    7681.
 LDataN:  DoStor=T MaxTD1= 4 Len=   56
 NBasis=   170 RedAO= T EigKep=  3.68D-04  NBF=   170
 NBsUse=   170 1.00D-06 EigRej= -1.00D+00 NBFU=   170
 Initial guess from the checkpoint file:  "/tmp/Gau-75834.chk"
 B after Tr=     0.000000    0.000000    0.000000
         Rot=    1.000000    0.000000    0.000000   -0.000575 Ang=   0.07 deg.
 ExpMin= 1.61D-01 ExpMax= 4.17D+03 ExpMxC= 6.27D+02 IAcc=3 IRadAn=         5 AccDes= 0.00D+00
 Harris functional with IExCor=  402 and IRadAn=       5 diagonalized for initial guess.
 HarFok:  IExCor=  402 AccDes= 0.00D+00 IRadAn=         5 IDoV= 1 UseB2=F ITyADJ=14
 ICtDFT=  3500011 ScaDFX=  1.000000  1.000000  1.000000  1.000000
 FoFCou: FMM=F IPFlag=           0 FMFlag=      100000 FMFlg1=           0
         NFxFlg=           0 DoJE=T BraDBF=F KetDBF=T FulRan=T
         wScrn=  0.000000 ICntrl=       500 IOpCl=  0 I1Cent=   200000004 NGrid=           0
         NMat0=    1 NMatS0=      1 NMatT0=    0 NMatD0=    1 NMtDS0=    0 NMtDT0=    0
 Petite list used in FoFCou.
 Requested convergence on RMS density matrix=1.00D-08 within 128 cycles.
 Requested convergence on MAX density matrix=1.00D-06.
 Requested convergence on             energy=1.00D-06.
 No special actions if energy rises.
 Integral accuracy reduced to 1.0D-05 until final iterations.
 Initial convergence to 1.0D-05 achieved.  Increase integral accuracy.
 SCF Done:  E(RB3LYP) =  -440.662609599     A.U. after   12 cycles
            NFock= 12  Conv=0.37D-08     -V/T= 2.0064
   1 Symmetry operations used in ECPInt.
 ECPInt:  NShTT=    1830 NPrTT=   12003 LenC2=    1787 LenP2D=    7681.
 LDataN:  DoStor=T MaxTD1= 5 Len=  102
 Calling FoFJK, ICntrl=      2127 FMM=F ISym2X=0 I1Cent= 0 IOpClX= 0 NMat=1 NMatS=1 NMatT=0.
 ***** Axes restored to original set *****
 -------------------------------------------------------------------
 Center     Atomic                   Forces (Hartrees/Bohr)
 Number     Number              X              Y              Z
 -------------------------------------------------------------------
      1        6          -0.000617446    0.000378041   -0.000000210
      2        1           0.000147827    0.000460498   -0.000000112
      3        6           0.001877892   -0.000253896    0.000001049
      4        6           0.000667416    0.000270959   -0.000000229
      5        6          -0.001360671    0.000099115   -0.000000080
      6        6          -0.000421914   -0.000946808   -0.000000025
      7        6          -0.001345185    0.000585256   -0.000000649
      8        6           0.000710508   -0.000122533    0.000000027
      9        1           0.000021181    0.000230903   -0.000000013
     10        6          -0.000099636    0.000031195    0.000000039
     11        6           0.001070903    0.000459537    0.000000150
     12        1           0.000104027   -0.000306583    0.000000211
     13        6          -0.000059567    0.000259838   -0.000000013
     14        1          -0.000289220   -0.000009250    0.000000017
     15        1           0.000127392    0.000086910   -0.000000006
     16        1          -0.000262718    0.000110292    0.000000043
     17        1          -0.000125441   -0.000218608   -0.000000014
     18        1           0.000214322    0.000226898    0.000000016
     19        7          -0.000359671   -0.001341763   -0.000000201
 -------------------------------------------------------------------
 Cartesian Forces:  Max     0.001877892 RMS     0.000501810

 GradGradGradGradGradGradGradGradGradGradGradGradGradGradGradGradGradGrad
 Berny optimization.
 Using GEDIIS/GDIIS optimizer.
 FormGI is forming the generalized inverse of G from B-inverse, IUseBI=4.
 Internal  Forces:  Max     0.001248095 RMS     0.000294280
 Search for a local minimum.
 Step number   3 out of a maximum of  114
 All quantities printed in internal units (Hartrees-Bohrs-Radians)
 Mixed Optimization -- En-DIIS/RFO-DIIS
 Update second derivatives using D2CorX and points    1    2    3
 DE= -2.26D-04 DEPred=-2.22D-04 R= 1.02D+00
 TightC=F SS=  1.41D+00  RLast= 4.21D-02 DXNew= 6.4671D-01 1.2634D-01
 Trust test= 1.02D+00 RLast= 4.21D-02 DXMaxT set to 3.85D-01
 ITU=  1  1  0
 Use linear search instead of GDIIS.
     Eigenvalues ---    0.01548   0.01695   0.01805   0.01836   0.01945
     Eigenvalues ---    0.02036   0.02042   0.02053   0.02124   0.02141
     Eigenvalues ---    0.02153   0.02153   0.02175   0.02240   0.02301
     Eigenvalues ---    0.02357   0.14657   0.16000   0.16000   0.16000
     Eigenvalues ---    0.16000   0.16000   0.16020   0.16051   0.20840
[...]
 1,0.0064258,-0.1336459,0.0000025,0.0000006,0.0000036,0.0885896,-0.3926
 231,-0.4257148,0.0000003,-0.0266913,0.0472054,-0.000002,-0.000001,-0.0
 000009,-0.2139601,-1.3612137,-0.1426921,0.0000002,-0.419444,-0.2536852
 ,-0.0000021,-0.0000072,0.0000055,-0.3740007,-0.1599186,-0.2189928,-0.0
 000018,-0.2253984,-0.1959339,-0.0000019,-0.000002,-0.0000022,0.0435907
 ,0.1791726,0.0851348,0.0000012,-0.1388564,0.4688185,-0.0000006,0.00000
 19,-0.0000042,-0.1366741,-0.124574,-0.1295343,0.0000009,-0.157363,-0.1
 02307,0.0000015,0.0000007,0.0000021,0.1088442,0.0133752,0.0370803,-0.0
 000004,0.102022,-0.2017964,0.0000018,-0.0000012,0.0000013,0.0969137,0.
 0007675,0.0846318,-0.0000007,0.0091594,-0.2399314,0.0000011,-0.0000003
 ,-0.0000017,0.1281184,-0.2678108,0.0736637,-0.000001,0.081567,0.035828
 1,0.0000006,-0.000001,0.0000002,0.0927916,-0.1931308,0.0909794,-0.0000
 002,0.0281604,-0.00437,-0.0000024,0.000002,-0.0000022,0.1458086,-0.525
 6228,-0.3447624,-0.0000044,0.9118046,-1.2707959,-0.0000054,0.0000016,-
 0.0000075,-0.3946078\Polar=171.578148,-8.851305,151.3127292,0.0000287,
 0.0001033,36.2110017\Quadrupole=-7.7413793,2.8308542,4.9105251,2.16854
 17,-0.0000158,-0.0000138\PG=C01 [X(C10H8N1)]\NImag=1\\0.65859601,-0.02
 080518,0.74901152,0.00000205,0.00001155,0.05324986,-0.16186103,-0.1381
 3972,-0.00000336,0.17031672,-0.13251410,-0.23490277,-0.00000496,0.1496
 7525,0.24790332,-0.00000333,-0.00000523,-0.01143095,0.00000342,0.00000
 521,0.01062261,-0.14728618,0.11107867,0.00000125,0.00955481,-0.0226786
 9,-0.00000039,0.53292676,0.11120995,-0.38698323,-0.00000489,0.00748361
 ,-0.01287198,0.00000022,-0.07067867,0.76094377,0.00000112,-0.00000432,
 -0.05217391,0.00000022,-0.00000020,-0.00453250,-0.00000066,0.00000568,
 0.17555224,-0.02038919,0.02826493,0.00000016,-0.00081081,-0.00127876,0
 .00000012,-0.17536518,0.02044448,0.00000034,0.61554791,0.03473189,0.00
 080588,-0.00000013,-0.00116187,0.00088221,0.00000004,0.02863560,-0.122
 07275,-0.00000009,0.04366364,0.64283233,0.00000044,-0.00000022,0.00801
 680,0.,0.00000002,-0.00242712,0.00000016,0.00000003,-0.06977810,-0.000
 00064,-0.00000191,0.14693412,0.00026333,-0.00799873,0.00000006,-0.0025
 0268,-0.00101556,-0.00000001,-0.04096596,-0.01801784,0.00000004,-0.210
 67214,-0.07443635,0.00000054,0.68675209,0.00446229,-0.00515086,0.00000
 007,0.00113106,-0.00142225,-0.00000017,-0.00920902,0.01865306,-0.00000
 008,-0.11946225,-0.22335783,0.00000112,-0.02795443,0.71248412,0.000000
 04,-0.00000013,0.00264273,0.00000005,0.00000009,-0.00075401,-0.0000000
 4,-0.00000015,0.00154022,0.00000088,0.00000133,-0.05840494,0.00000051,
 -0.00000499,0.12191384,-0.01090805,-0.00815520,-0.00000009,0.00021586,
 -0.00047199,0.00000002,0.01094149,0.05040281,0.00000015,-0.13521613,0.
 02802081,-0.00000037,0.04290855,-0.01674301,0.00000022,0.69003854,-0.0
 0808582,-0.00327534,0.00000007,-0.00014923,-0.00129154,0.00000003,0.03
 501251,0.00832579,0.00000025,0.05423741,-0.23899973,0.00000068,-0.0456
 2491,-0.04729023,0.00000015,0.02656772,0.62702127,0.,0.,0.00124223,0.,
 0.,0.00009901,0.00000012,0.00000006,0.00256425,-0.00000053,0.00000062,
 -0.06885371,0.00000045,0.00000031,0.00380392,0.00000115,-0.00000175,0.
 16384020,-0.01198891,-0.00774092,0.00000006,0.00056391,-0.00252146,0.,
 0.03171284,-0.01965582,-0.00000007,-0.00711737,0.01277288,-0.00000015,
 -0.00341302,-0.00242604,0.,-0.07176826,-0.03619243,-0.00000040,0.71088
 538,0.00037599,0.01480179,-0.00000005,0.00059317,0.00083558,0.,-0.0230
 7556,-0.07956256,-0.00000009,0.00544855,-0.00949516,0.00000010,0.00294
 932,0.00120071,-0.00000006,0.00295070,0.03848470,-0.00000008,-0.003270
 47,0.72838377,-0.00000013,-0.00000001,0.00292617,-0.00000003,-0.000000
 09,0.00335775,0.00000017,-0.00000045,-0.00374627,-0.00000003,0.0000001
 2,-0.00527523,-0.00000003,-0.00000002,0.00097183,-0.00000030,-0.000000
 20,0.00290720,0.00000522,-0.00000023,0.15086304,-0.00060122,0.00564364
 ,-0.00000007,0.00009794,0.00066742,0.,0.01140005,-0.00328864,0.0000001
 2,-0.05943812,-0.05135909,0.00000020,-0.32681322,0.08542098,-0.0000007
 6,-0.02350160,0.03174871,-0.00000026,0.00177558,-0.00163406,0.00000001
 ,0.69150189,0.00265296,-0.00014444,-0.00000001,0.00033501,0.00096071,0
 .00000003,-0.01148501,-0.01225801,-0.00000009,-0.00417066,0.04452807,-
 0.00000015,0.02081210,-0.13366527,0.00000065,0.03588657,-0.02144034,0.
 00000020,0.00957975,-0.00738089,0.00000004,0.03347686,0.68947899,-0.00
 000007,-0.00000003,-0.00046244,0.,0.00000002,-0.00052939,0.00000002,0.
 00000019,0.00636795,0.00000007,-0.00000032,0.00555587,-0.00000042,0.00
 000077,-0.04720670,-0.00000025,0.00000015,-0.00671096,-0.00000005,0.00
 000003,-0.00033481,0.00000022,-0.00000443,0.09806241,-0.00204882,-0.00
 034987,0.,-0.00327831,0.00122229,0.00000020,0.00018818,-0.00030029,0.0
 0000004,0.01124364,-0.02120074,0.00000014,-0.07668986,0.06837170,-0.00
 000065,-0.00359163,-0.00261513,0.,0.00080735,-0.00063419,0.,-0.0043051
 8,0.03184749,-0.00000028,0.08246037,0.00056115,0.00056489,-0.00000009,
 0.00170200,0.00145249,0.00000005,0.00222572,-0.00265277,-0.00000003,0.
 00652433,-0.02069515,0.00000016,0.06802610,-0.31356488,0.00000280,-0.0
 0399230,-0.00022720,0.00000010,0.00128752,-0.00112833,0.00000001,-0.00
 071572,-0.00497792,0.,-0.07694832,0.33720668,0.00000010,0.00000017,-0.
 00059236,0.00000011,-0.00000013,0.00242923,0.00000007,-0.00000013,-0.0
 0286345,-0.00000017,0.00000011,0.00164244,-0.00000068,0.00000284,-0.03
 339664,0.,0.00000005,0.00670245,-0.00000002,0.,-0.00011888,0.00000003,
 0.00000008,0.00124477,0.00000057,-0.00000299,0.02243872,0.00405315,0.0
 0248012,0.00000001,0.00002441,0.00029843,-0.00000003,-0.00976609,-0.00
 926911,-0.00000015,0.00410043,0.05235638,-0.00000026,-0.04234420,-0.00
 456676,0.,-0.26908943,0.03136736,-0.00000049,0.02099330,-0.01817729,0.
 00000010,0.04181720,-0.04992191,0.00000031,-0.00079119,-0.00084283,0.0
 0000004,0.65698031,0.00159283,0.00150767,0.00000003,-0.00011204,0.0001
 6585,0.00000002,-0.00301248,-0.00962753,-0.00000002,0.03614124,0.00709
 504,0.00000006,-0.02059879,-0.00667196,-0.00000006,0.06529287,-0.13348
 449,0.00000055,0.00026621,-0.00779502,0.00000004,-0.00355559,-0.056570
 51,0.00000043,-0.00069212,0.00051967,0.,0.03231465,0.73234397,0.,0.,0.
 00067621,0.,0.,-0.00002305,-0.00000003,0.00000003,0.00570953,-0.000000
 18,-0.00000007,0.00450850,0.00000013,0.,-0.00623097,-0.00000073,0.0000
 0061,-0.06307154,0.00000005,0.,0.00443585,0.00000002,0.00000040,0.0088
 5312,0.,0.,0.00012215,0.00000085,-0.00000332,0.11347098,0.00904242,0.0
 0843316,0.,0.00021592,0.00153332,-0.00000003,-0.03512630,-0.02274460,-
 0.00000014,0.01986935,-0.02267228,0.00000020,0.00358889,0.00931513,-0.
 00000013,-0.18402869,-0.07781636,0.00000014,-0.31937675,0.03199074,-0.
 00000261,-0.00372840,-0.01438360,0.00000010,0.00042879,-0.00009019,0.,
 -0.06314697,-0.03049038,-0.00000013,0.66630178,0.00352486,-0.00390867,
 -0.00000008,-0.00002923,0.00024085,-0.00000005,-0.00225456,0.00418063,
 0.00000003,-0.02260813,-0.04390079,0.00000021,0.01070954,0.00072604,0.
 00000006,-0.10560568,-0.21117681,0.00000026,0.08726680,-0.14256705,0.0
 0000080,-0.00647892,-0.00165268,0.,-0.00079602,-0.00095618,0.00000003,
 -0.00980110,0.01495914,-0.00000014,-0.04017698,0.70450117,0.00000001,0
 .00000013,-0.00064466,0.,0.00000002,-0.00036305,-0.00000016,-0.0000001
 8,-0.00695466,0.00000011,0.00000016,0.00906580,-0.00000003,0.00000003,
 0.00469125,-0.00000006,0.00000012,-0.05695264,-0.00000221,0.00000032,-
 0.05021669,0.00000004,-0.00000007,0.00048167,-0.00000001,0.,0.00023169
 ,-0.00000021,-0.00000012,0.00889727,0.00000347,-0.00000184,0.07563688,
 0.00028010,-0.00055942,0.,-0.00003922,0.00003244,0.,0.00152935,0.00409
 705,-0.00000008,0.00067009,0.00057745,0.,0.00000257,-0.00010012,0.0000
 0002,-0.00510945,0.00475477,-0.00000015,-0.19942709,-0.11718522,-0.000
 00167,0.00013024,-0.00003717,0.,-0.00000903,-0.00007333,0.,-0.00061080
 ,-0.00194305,0.00000002,-0.01889891,-0.02516787,-0.00000022,0.20614466
 ,-0.00124446,-0.00042218,0.,0.00011299,-0.00058231,-0.00000001,0.00108
 295,-0.00252157,-0.00000002,0.00040350,-0.00119849,0.,-0.00007017,0.00
 045358,0.,0.00230249,0.00152429,0.00000002,-0.11967416,-0.15588753,-0.
 00000124,-0.00030422,-0.00018079,0.,0.00006924,-0.00002825,0.,-0.00021
 772,0.00015339,0.,0.00434250,0.00756397,0.00000002,0.13069463,0.189770
 13,0.00000002,0.00000003,0.00026025,0.,0.00000002,-0.00047472,-0.00000
 007,0.00000004,0.01044162,-0.00000003,0.,-0.00023801,0.,0.,-0.00138716
 ,-0.00000014,0.00000007,0.00734210,-0.00000186,-0.00000120,-0.04207250
 ,-0.00000001,0.00000002,0.00019090,0.,0.,-0.00003150,0.00000002,-0.000
 00002,-0.00013624,-0.00000013,-0.00000025,0.00588308,0.00000186,0.0000
 0138,0.02647118,-0.00190540,-0.00211004,0.,-0.00004568,-0.00020523,0.0
 0000001,0.00250664,0.00515995,0.00000006,-0.00157512,-0.00697078,-0.00
 000002,-0.00738523,0.03278585,-0.00000032,-0.04967402,-0.01765041,0.,-
 0.00749055,0.00480859,-0.00000004,-0.13272139,0.08549750,-0.00000062,-
 0.00560825,0.00179494,-0.00000002,-0.24543166,-0.15400095,0.00000056,0
 .00828655,0.00747388,0.00000001,-0.00052738,0.00013670,-0.00000001,0.7
 3013403,-0.00269051,0.00074689,-0.00000005,-0.00001757,-0.00000562,0.0
 0000001,0.01203622,0.00677558,0.00000021,-0.02424532,-0.04796854,0.000
 00014,0.08055177,-0.00307748,0.00000019,-0.05222679,0.04346834,-0.0000
 0037,-0.01067282,0.00791369,-0.00000003,0.02098806,-0.30806939,0.00000
 193,-0.00020664,0.00161387,0.00000003,-0.09549507,-0.24793870,0.000000
 88,0.01908779,-0.00022241,0.00000011,0.00049425,0.00004970,-0.00000002
 ,0.00079439,0.67419925,0.,-0.00000001,-0.00051962,0.,0.,-0.00026790,-0
 .00000011,-0.00000001,-0.00017518,0.00000020,0.00000026,-0.00482451,-0
 .00000060,0.00000009,0.00518574,0.00000020,-0.00000027,0.00235436,0.00
 000005,-0.00000003,0.00200910,-0.00000018,0.00000193,-0.04961312,0.000
 00003,0.00000004,0.00730770,0.00000025,0.00000089,-0.04852616,-0.00000
 012,0.,0.00444495,0.,0.,-0.00084318,0.00000107,-0.00000359,0.11654747,
 -0.00024309,0.00009871,0.,0.00002513,0.00005750,0.,0.00048010,-0.00182
 977,0.00000001,-0.00430749,0.00417883,-0.00000004,-0.01727739,-0.02590
 891,0.00000020,-0.00031045,0.00100116,0.,0.00000943,0.00038185,0.,-0.1
 8812437,-0.13464415,0.00000090,0.00112910,0.00051240,-0.00000001,0.000
 40911,0.00168650,-0.00000002,0.00021777,-0.00013918,0.,-0.00004921,-0.
 00010020,0.,0.00880111,0.00780356,-0.00000005,0.19894339,-0.00014965,0
 .00014398,0.,0.00001667,-0.00001772,0.,0.00017646,0.00001397,0.,0.0015
 4868,0.00040310,0.00000005,0.00697013,0.00820176,-0.00000007,0.0010459
 1,0.00006011,0.,0.00029464,-0.00024046,0.,-0.13460751,-0.19981971,0.00
 000128,-0.00051886,0.00112860,-0.00000004,0.00432589,-0.00428958,0.000
 00008,-0.00037340,0.00017129,-0.00000001,-0.00005932,-0.00003836,0.,-0
 .02534017,-0.01728577,0.00000010,0.14733461,0.21134721,0.,0.,0.0000419
 2,0.,0.,0.00012402,0.00000004,0.,0.00073177,-0.00000007,0.00000002,0.0
 0727238,0.00000004,-0.00000013,-0.00222650,-0.00000003,0.00000001,-0.0
 0040268,0.,0.00000001,-0.00025033,0.00000085,0.00000135,-0.02225371,0.
 ,-0.00000002,-0.00360232,-0.00000002,0.00000008,0.00537089,0.00000002,
 0.,-0.00123736,0.,0.,0.00027175,0.00000020,0.00000008,-0.00208173,-0.0
 0000101,-0.00000137,0.02018620,-0.00058412,-0.00029787,0.,0.00005424,0
 .00001219,0.,0.00042084,0.00189582,0.,-0.00551766,-0.00044936,-0.00000
 001,-0.00145182,-0.00048058,0.,-0.00422510,0.03135229,-0.00000018,-0.0
 0011707,-0.00003062,0.,-0.00263944,-0.00257949,0.,0.00020737,0.0001310
 2,0.,-0.07800952,0.06824355,-0.00000048,0.00162452,0.00158652,0.000000
 02,-0.00003720,-0.00003826,0.,0.00960736,-0.02306636,0.00000014,0.0003
 0612,-0.00126397,0.00000001,0.07924434,0.00033997,0.00004092,0.,-0.000
 02243,0.00000156,0.,-0.00087668,-0.00068884,0.,0.00187416,0.00176996,0
 .00000002,-0.00016536,0.00069034,0.,0.00033953,-0.00740906,0.00000006,
 0.00018707,0.00013170,0.,-0.00484593,-0.00031631,0.00000003,0.00007992
 ,-0.00013382,0.,0.06797957,-0.30528358,0.00000157,-0.00121428,0.000977
 50,-0.00000003,0.00012864,0.00006790,0.,0.00978469,-0.01954362,0.00000
 012,0.00041216,-0.00124644,0.00000002,-0.07427595,0.32885781,0.,0.0000
 0001,-0.00004335,0.,0.,-0.00008073,0.,0.,-0.00049846,-0.00000001,0.000
 00007,0.00527960,-0.00000004,0.,0.00036217,0.00000006,0.00000007,0.003
 07969,0.,0.,-0.00062867,0.00000002,0.00000002,0.00658383,0.,-0.0000000
 1,-0.00135246,-0.00000052,0.00000154,-0.03019501,0.00000001,0.,-0.0027
 2600,0.,0.,0.00021526,-0.00000002,0.00000010,0.00016971,0.,0.,0.001273
 44,0.00000051,-0.00000175,0.02242589,0.00033645,0.00039371,0.,0.000027
 96,0.00016027,0.00000001,-0.00113189,-0.00132116,-0.00000001,-0.003736
 05,-0.00183250,-0.00000002,0.00075501,-0.00108176,0.,0.00770406,-0.022
 86346,0.00000007,-0.00030507,0.03354563,0.00000002,0.00003057,0.000163
 85,0.,-0.00025432,-0.00031649,0.,0.00217413,-0.00096004,0.00000002,-0.
 07160187,0.06084968,-0.00000038,0.00081675,-0.00080463,0.00000002,0.00
 004652,-0.00002657,0.,-0.00000680,0.00002415,0.,-0.00004139,0.00072283
 ,0.,0.07094565,0.00010147,-0.00009079,0.,-0.00004210,-0.00004486,0.,-0
 .00047285,0.00108573,0.,-0.00426484,-0.00041396,0.,0.00144281,-0.00080
 190,0.00000001,0.00829153,-0.01842660,0.00000006,-0.00305460,-0.007462
 88,-0.00000004,-0.00028498,0.00046613,0.,-0.00033770,-0.00037784,0.,0.
 00228143,0.00052064,0.,0.06092398,-0.31428445,0.00000072,0.00091510,0.
 00071698,0.,-0.00061108,-0.00015862,0.,-0.00011775,0.00001630,0.,-0.00
 120594,0.00071949,0.,-0.06638401,0.33735852,0.00000002,-0.00000004,-0.
 00028310,0.,0.,-0.00044557,-0.00000001,0.00000002,-0.00004858,0.000000
 03,-0.00000002,0.00390446,-0.00000001,0.00000002,0.00118338,0.00000007
 ,0.00000004,-0.00259707,0.00000003,0.00000031,-0.00655887,0.,-0.000000
 01,-0.00022078,0.00000001,-0.00000001,-0.00014552,0.,-0.00000002,-0.00
 203983,-0.00000039,0.00000054,-0.01348342,0.00000004,0.,-0.00270406,0.
 ,0.00000001,-0.00047439,0.,0.,0.00014903,0.,0.,0.00007120,0.00000037,-
 0.00000078,0.01560245,-0.00012044,0.00034411,0.,0.00001025,-0.00001072
 ,0.,0.00014163,-0.00030171,0.,0.00034251,-0.00076787,0.,0.00202882,0.0
 0234736,-0.00000003,-0.00001422,-0.00443493,0.00000001,0.00032010,-0.0
 0088606,0.,-0.00646028,-0.00070450,0.,-0.00051291,0.00002080,0.,-0.019
 27346,0.00984181,-0.00000009,-0.00140661,0.00104813,0.,-0.00023030,-0.
 00004625,0.,-0.30726726,0.06477728,-0.00000087,0.00102440,0.00066669,0
 .,0.00117935,-0.00068715,0.00000001,0.00001978,-0.00016278,0.,0.330360
 06,-0.00007768,-0.00005929,0.,0.00002996,0.00009688,0.,0.00018901,0.00
 018746,0.,-0.00070863,-0.00081635,0.,-0.00025232,-0.00602022,0.0000001
 0,-0.00265483,-0.00353978,0.00000006,-0.00039131,-0.00020566,0.,0.0318
 4035,-0.00117795,0.00000004,0.00167548,-0.00038851,0.,-0.02282815,0.01
 017373,-0.00000009,-0.00030989,0.00104583,0.,-0.00010812,0.00003996,0.
 ,0.06505392,-0.07798701,0.00000042,-0.00075704,0.00107401,-0.00000003,
 0.00057382,0.00108843,-0.00000003,0.00000166,-0.00002445,0.,-0.0714937
 7,0.07656606,0.,0.00000001,0.00005740,0.,0.,0.00011681,0.00000002,-0.0
 0000002,-0.00111369,0.,0.,-0.00062862,0.00000001,0.00000009,0.00637825
 ,0.00000001,0.00000004,0.00823225,0.,0.,-0.00049754,-0.00000023,0.,0.0
 0024309,-0.00000002,0.00000001,0.00043764,0.00000009,-0.00000005,0.000
 82623,0.,0.,0.00029547,0.,0.,0.00000570,-0.00000085,0.00000042,-0.0310
 3341,0.,-0.00000003,-0.00307981,0.,-0.00000003,-0.00416870,0.,0.,0.000
 03503,0.00000096,-0.00000045,0.02364417,-0.33362136,0.04610827,-0.0000
 0006,-0.01258208,0.00390169,0.00000005,-0.01046110,-0.00043481,-0.0000
 0005,0.00077947,0.00218819,0.,0.00026586,-0.00015054,0.,-0.00121853,-0
 .00075253,0.,0.00008672,0.00057211,0.,0.00016189,0.00026691,0.,0.00032
 164,0.00025740,-0.00000002,0.00025706,0.00032352,0.,0.00070507,-0.0001
 3268,0.00000001,0.00001709,0.00022956,0.,-0.00016324,-0.00012904,0.,-0
 .00008967,-0.00003515,0.,-0.00009782,0.00009676,0.,0.00004966,0.000074
 72,0.,-0.00006407,0.00003651,0.,0.35468964,0.04018157,-0.06141875,-0.0
 0000074,-0.02238799,0.00562546,0.00000008,0.03136757,-0.00067338,0.,-0
 .00033178,-0.00509166,-0.00000016,-0.00107233,-0.00100019,0.00000004,0
 .00213269,0.00051387,-0.00000002,-0.00016905,-0.00033350,0.00000003,0.
 00052394,0.00011626,0.,0.00018611,0.00061978,-0.00000001,-0.00046665,-
 0.00055368,0.00000002,-0.00048541,0.00007247,0.,0.00000411,0.00005316,
 0.,0.00004234,0.00042098,-0.00000001,0.00007171,0.00000528,0.,0.000186
 74,-0.00008153,0.,-0.00009471,0.00000551,0.,0.00001877,0.00005721,0.,-
 0.04967322,0.05920126,-0.00000011,-0.00000063,-0.01492789,-0.00000043,
 0.00000017,-0.00181326,0.00000053,-0.00000018,0.00325926,-0.00000011,-
 0.00000013,0.00633637,-0.00000001,0.00000002,-0.00024942,0.00000001,-0
 .00000008,0.00061921,-0.00000008,0.00000007,-0.00150109,0.00000002,0.0
 0000002,0.00033158,-0.00000004,0.,-0.00074905,0.00000004,-0.00000003,-
 0.00057214,0.00000009,0.00000005,0.00018955,0.,0.,0.00014643,-0.000000
 03,-0.00000002,0.00034479,0.,0.,-0.00020942,0.,0.,0.00028669,0.,0.,0.0
 0023115,0.,0.,-0.00006931,0.00000007,0.00000068,0.01401129,0.01898633,
 -0.01668838,-0.00000002,0.00001266,0.00313572,-0.00000004,-0.18170001,
 -0.05285124,-0.00000093,-0.02840816,-0.02627483,-0.00000018,-0.0070496
 1,0.00424904,-0.00000001,0.00684706,0.00014330,0.00000007,-0.14615051,
 0.08127683,-0.00000068,0.00141787,-0.00259249,0.00000006,0.00030306,-0
 .00006418,0.,-0.00234579,-0.00033773,0.00000002,-0.01296656,0.04073096
 ,-0.00000040,0.01534776,-0.01687449,0.00000033,0.00041298,0.00224337,-
 0.00000001,-0.00093721,-0.00005581,-0.00000001,0.00007700,0.00014245,0
 .,-0.00582917,0.00290760,-0.00000017,-0.00007734,0.00018104,0.,0.00096
 377,-0.00003441,0.00000003,0.34109586,-0.03416753,-0.07126721,-0.00000
 072,0.00098246,-0.00702584,-0.00000023,-0.07806119,-0.17025336,-0.0000
 0122,-0.02148054,0.01569381,-0.00000015,0.00574502,-0.00038653,0.00000
 005,-0.03338381,-0.03283723,-0.00000010,0.09411423,-0.37969290,0.00000
 127,-0.00323529,0.01210406,-0.00000007,0.00114767,0.00202486,0.,0.0181
 8275,0.00477597,0.00000004,0.07513075,-0.01576986,0.00000062,0.0035351
 8,-0.03953356,-0.00000007,-0.00644408,-0.01293114,0.00000007,-0.000041
 97,0.00037242,-0.00000002,-0.00029356,0.00035761,0.,-0.00017644,0.0011
 9705,-0.00000007,0.00043077,-0.00011035,0.,-0.00274765,0.00246143,0.00
 000004,-0.01923675,0.69082080,-0.00000016,-0.00000129,0.01196470,0.,-0
 .00000018,0.00639280,-0.00000092,-0.00000028,-0.06428205,-0.00000011,-
 0.00000008,0.01191389,0.00000005,0.00000003,0.00118301,0.00000008,-0.0
 0000003,-0.00419826,-0.00000058,0.00000089,-0.05627008,-0.00000002,0.0
 0000001,-0.00058329,0.,0.,0.00029540,-0.00000002,0.00000001,-0.0020758
 0,-0.00000034,0.00000038,0.02276087,0.00000017,-0.00000014,-0.00334090
 ,0.,-0.00000003,-0.00000461,0.,0.,-0.00007753,0.,0.,-0.00005410,-0.000
 00011,0.00000003,0.00782448,0.,0.,0.00031901,-0.00000002,0.00000012,-0
 .00566475,0.00000196,0.00000056,0.07389723\\-0.00002306,0.00006260,0.0
 0000024,-0.00000656,0.00001103,0.00000009,-0.00019033,-0.00000368,-0.0
 0000103,0.00024622,-0.00010226,0.00000019,-0.00004448,-0.00002290,0.00
 000008,0.00001633,0.00011720,0.00000002,0.00004916,0.00003287,0.000000
 35,0.00003035,0.00002671,-0.00000003,0.00001130,0.00001108,0.00000003,
 0.00001203,0.00002428,-0.00000001,-0.00009991,-0.00008877,-0.00000004,
 -0.00002112,-0.00002787,-0.00000012,0.00000473,-0.00003205,0.,-0.00001
 299,-0.00001021,0.,-0.00000680,-0.00000125,0.,0.00001366,0.00002743,-0
 .00000003,-0.00000383,-0.00000010,0.00000001,0.00000652,0.00002659,0.,
 0.00001880,-0.00005070,0.00000027\\\@
 The archive entry for this job was punched.


 HE WHO LOVES TO READ, AND KNOWS HOW TO REFLECT,
 HAS LAID BY A PERPETUAL FEAST FOR HIS OLD AGE.
 -- UNCLE ESEK, "SCRIBNER'S MONTHLY", SEPT. 1880
 Job cpu time:       0 days  0 hours 13 minutes 53.2 seconds.
 Elapsed time:       0 days  0 hours  0 minutes 26.5 seconds.
 File lengths (MBytes):  RWF=     72 Int=      0 D2E=      0 Chk=      4 Scr=      1
 Normal termination of Gaussian 16 at Mon Nov 11 15:08:16 2024.
