 Entering Gaussian System, Link 0=g16
 Initial command:
 /public/software/g16/g16/l1.exe "/public/home/XGX_HG/tmp/Gau-19428.inp" -scrdir="/public/home/XGX_HG/tmp/"
 Entering Link 1 = /public/software/g16/g16/l1.exe PID=     19448.
  
 Copyright (c) 1988,1990,1992,1993,1995,1998,2003,2009,2016,
            Gaussian, Inc.  All Rights Reserved.
  
 This is part of the Gaussian(R) 16 program.  It is based on
 the Gaussian(R) 09 system (copyright 2009, Gaussian, Inc.),
 the Gaussian(R) 03 system (copyright 2003, Gaussian, Inc.),
 the Gaussian(R) 98 system (copyright 1998, Gaussian, Inc.),
 the Gaussian(R) 94 system (copyright 1995, Gaussian, Inc.),
 the Gaussian 92(TM) system (copyright 1992, Gaussian, Inc.),
 the Gaussian 90(TM) system (copyright 1990, Gaussian, Inc.),
 the Gaussian 88(TM) system (copyright 1988, Gaussian, Inc.),
 the Gaussian 86(TM) system (copyright 1986, Carnegie Mellon
 University), and the Gaussian 82(TM) system (copyright 1983,
 Carnegie Mellon University). Gaussian is a federally registered
 trademark of Gaussian, Inc.
  
 This software contains proprietary and confidential information,
 including trade secrets, belonging to Gaussian, Inc.
  
 This software is provided under written license and may be
 used, copied, transmitted, or stored only in accord with that
 written license.
  
 The following legend is applicable only to US Government
 contracts under FAR:
  
                    RESTRICTED RIGHTS LEGEND
  
 Use, reproduction and disclosure by the US Government is
 subject to restrictions as set forth in subparagraphs (a)
 and (c) of the Commercial Computer Software - Restricted
 Rights clause in FAR 52.227-19.
  
 Gaussian, Inc.
 340 Quinnipiac St., Bldg. 40, Wallingford CT 06492
  
  
 ---------------------------------------------------------------
 Warning -- This program may not be used in any manner that
 competes with the business of Gaussian, Inc. or will provide
 assistance to any competitor of Gaussian, Inc.  The licensee
 of this program is prohibited from giving any competitor of
 Gaussian, Inc. access to this program.  By using this program,
 the user acknowledges that Gaussian, Inc. is engaged in the
 business of creating and licensing software in the field of
 computational chemistry and represents and warrants to the
 licensee that it is not a competitor of Gaussian, Inc. and that
 it will not use this program in any manner prohibited above.
 ---------------------------------------------------------------
  

 Cite this work as:
 Gaussian 16, Revision A.03,
 M. J. Frisch, G. W. Trucks, H. B. Schlegel, G. E. Scuseria, 
 M. A. Robb, J. R. Cheeseman, G. Scalmani, V. Barone, 
 G. A. Petersson, H. Nakatsuji, X. Li, M. Caricato, A. V. Marenich, 
 J. Bloino, B. G. Janesko, R. Gomperts, B. Mennucci, H. P. Hratchian, 
 J. V. Ortiz, A. F. Izmaylov, J. L. Sonnenberg, D. Williams-Young, 
 F. Ding, F. Lipparini, F. Egidi, J. Goings, B. Peng, A. Petrone, 
 T. Henderson, D. Ranasinghe, V. G. Zakrzewski, J. Gao, N. Rega, 
 G. Zheng, W. Liang, M. Hada, M. Ehara, K. Toyota, R. Fukuda, 
 J. Hasegawa, M. Ishida, T. Nakajima, Y. Honda, O. Kitao, H. Nakai, 
 T. Vreven, K. Throssell, J. A. Montgomery, Jr., J. E. Peralta, 
 F. Ogliaro, M. J. Bearpark, J. J. Heyd, E. N. Brothers, K. N. Kudin, 
 V. N. Staroverov, T. A. Keith, R. Kobayashi, J. Normand, 
 K. Raghavachari, A. P. Rendell, J. C. Burant, S. S. Iyengar, 
 J. Tomasi, M. Cossi, J. M. Millam, M. Klene, C. Adamo, R. Cammi, 
 J. W. Ochterski, R. L. Martin, K. Morokuma, O. Farkas, 
 J. B. Foresman, and D. J. Fox, Gaussian, Inc., Wallingford CT, 2016.
 
 ******************************************
 Gaussian 16:  ES64L-G16RevA.03 25-Dec-2016
                11-Aug-2023 
 ******************************************
 %nprocshared=28
 Will use up to   28 processors via shared memory.
 %mem=56GB
 --------------------------------------------------------------
 # opt=maxcycle=150 freq b3lyp/genecp empiricaldispersion=gd3bj
 --------------------------------------------------------------
 1/6=150,18=20,19=15,26=3,38=1/1,3;
 2/9=110,12=2,17=6,18=5,40=1/2;
 3/5=7,11=2,16=1,17=8,25=1,30=1,71=1,74=-5,124=41/1,2,3;
 4//1;
 5/5=2,38=5/2;
 6/7=2,8=2,9=2,10=2,28=1/1;
 7//1,2,3,16;
 1/6=150,18=20,19=15,26=3/3(2);
 2/9=110/2;
 99//99;
 2/9=110/2;
 3/5=7,6=1,11=2,16=1,17=8,25=1,30=1,71=1,74=-5,82=7,124=41/1,2,3;
 4/5=5,16=3,69=1/1;
 5/5=2,38=5/2;
 7//1,2,3,16;
 1/6=150,18=20,19=15,26=3/3(-5);
 2/9=110/2;
 6/7=2,8=2,9=2,10=2,19=2,28=1/1;
 99/9=1/99;
 -------------------
 Title Card Required
 -------------------
 Symbolic Z-matrix:
 Charge =  0 Multiplicity = 2
 C                     0.00092   1.42952   0.11128 
 H                    -0.9288    1.9628   -0.06306 
 H                     0.93132   1.96158  -0.06333 
 N                    -0.00001   0.08113  -0.22911 
 C                    -1.21964  -0.66016   0.03856 
 H                    -1.20077  -1.61055  -0.50555 
 H                    -1.3564   -0.87574   1.11236 
 H                    -2.08094  -0.08063  -0.30698 
 C                     1.21882  -0.66158   0.03858 
 H                     1.19863  -1.61219  -0.50509 
 H                     2.08076  -0.08328  -0.30749 
 H                     1.35561  -0.87665   1.11245 
 

 GradGradGradGradGradGradGradGradGradGradGradGradGradGradGradGradGradGrad
 Berny optimization.
 Initialization pass.
                           ----------------------------
                           !    Initial Parameters    !
                           ! (Angstroms and Degrees)  !
 --------------------------                            --------------------------
 ! Name  Definition              Value          Derivative Info.                !
 --------------------------------------------------------------------------------
 ! R1    R(1,2)                  1.0859         estimate D2E/DX2                !
 ! R2    R(1,3)                  1.0859         estimate D2E/DX2                !
 ! R3    R(1,4)                  1.3907         estimate D2E/DX2                !
 ! R4    R(4,5)                  1.4521         estimate D2E/DX2                !
 ! R5    R(4,9)                  1.4522         estimate D2E/DX2                !
 ! R6    R(5,6)                  1.0953         estimate D2E/DX2                !
 ! R7    R(5,7)                  1.1037         estimate D2E/DX2                !
 ! R8    R(5,8)                  1.0941         estimate D2E/DX2                !
 ! R9    R(9,10)                 1.0953         estimate D2E/DX2                !
 ! R10   R(9,11)                 1.0941         estimate D2E/DX2                !
 ! R11   R(9,12)                 1.1037         estimate D2E/DX2                !
 ! A1    A(2,1,3)              117.8472         estimate D2E/DX2                !
 ! A2    A(2,1,4)              115.8681         estimate D2E/DX2                !
 ! A3    A(3,1,4)              115.8667         estimate D2E/DX2                !
 ! A4    A(1,4,5)              116.7692         estimate D2E/DX2                !
 ! A5    A(1,4,9)              116.7572         estimate D2E/DX2                !
 ! A6    A(5,4,9)              114.1966         estimate D2E/DX2                !
 ! A7    A(4,5,6)              109.6886         estimate D2E/DX2                !
 ! A8    A(4,5,7)              112.5265         estimate D2E/DX2                !
 ! A9    A(4,5,8)              109.4247         estimate D2E/DX2                !
 ! A10   A(6,5,7)              108.4185         estimate D2E/DX2                !
 ! A11   A(6,5,8)              108.4381         estimate D2E/DX2                !
 ! A12   A(7,5,8)              108.2503         estimate D2E/DX2                !
 ! A13   A(4,9,10)             109.689          estimate D2E/DX2                !
 ! A14   A(4,9,11)             109.4244         estimate D2E/DX2                !
 ! A15   A(4,9,12)             112.5215         estimate D2E/DX2                !
 ! A16   A(10,9,11)            108.4371         estimate D2E/DX2                !
 ! A17   A(10,9,12)            108.4284         estimate D2E/DX2                !
 ! A18   A(11,9,12)            108.2465         estimate D2E/DX2                !
 ! D1    D(2,1,4,5)            -37.7386         estimate D2E/DX2                !
 ! D2    D(2,1,4,9)           -177.9551         estimate D2E/DX2                !
 ! D3    D(3,1,4,5)            177.9662         estimate D2E/DX2                !
 ! D4    D(3,1,4,9)             37.7497         estimate D2E/DX2                !
 ! D5    D(1,4,5,6)            164.7822         estimate D2E/DX2                !
 ! D6    D(1,4,5,7)            -74.4404         estimate D2E/DX2                !
 ! D7    D(1,4,5,8)             45.9414         estimate D2E/DX2                !
 ! D8    D(9,4,5,6)            -54.003          estimate D2E/DX2                !
 ! D9    D(9,4,5,7)             66.7744         estimate D2E/DX2                !
 ! D10   D(9,4,5,8)           -172.8439         estimate D2E/DX2                !
 ! D11   D(1,4,9,10)          -164.8083         estimate D2E/DX2                !
 ! D12   D(1,4,9,11)           -45.9686         estimate D2E/DX2                !
 ! D13   D(1,4,9,12)            74.4049         estimate D2E/DX2                !
 ! D14   D(5,4,9,10)            53.9721         estimate D2E/DX2                !
 ! D15   D(5,4,9,11)           172.8118         estimate D2E/DX2                !
 ! D16   D(5,4,9,12)           -66.8148         estimate D2E/DX2                !
 --------------------------------------------------------------------------------
 Trust Radius=3.00D-01 FncErr=1.00D-07 GrdErr=1.00D-06 EigMax=2.50D+02 EigMin=1.00D-04
 Number of steps in this run=    100 maximum allowed number of steps=    100.
 GradGradGradGradGradGradGradGradGradGradGradGradGradGradGradGradGradGrad

                          Input orientation:                          
 ---------------------------------------------------------------------
 Center     Atomic      Atomic             Coordinates (Angstroms)
 Number     Number       Type             X           Y           Z
 ---------------------------------------------------------------------
      1          6           0        0.000920    1.429516    0.111279
      2          1           0       -0.928796    1.962804   -0.063059
      3          1           0        0.931318    1.961584   -0.063328
      4          7           0       -0.000005    0.081134   -0.229114
      5          6           0       -1.219640   -0.660156    0.038561
      6          1           0       -1.200766   -1.610551   -0.505551
      7          1           0       -1.356400   -0.875736    1.112357
      8          1           0       -2.080936   -0.080632   -0.306979
      9          6           0        1.218824   -0.661577    0.038576
     10          1           0        1.198627   -1.612187   -0.505093
     11          1           0        2.080756   -0.083275   -0.307487
     12          1           0        1.355605   -0.876645    1.112446
 ---------------------------------------------------------------------
                    Distance matrix (angstroms):
                    1          2          3          4          5
     1  C    0.000000
     2  H    1.085892   0.000000
     3  H    1.085921   1.860114   0.000000
     4  N    1.390684   2.104972   2.104980   0.000000
     5  C    2.421112   2.640991   3.392716   1.452126   0.000000
     6  H    3.326640   3.610905   4.183478   2.092855   1.095292
     7  H    2.856337   3.101896   3.829657   2.134233   1.103728
     8  H    2.605688   2.358507   3.647422   2.088661   1.094110
     9  C    2.421001   3.392636   2.640837   1.452178   2.438464
    10  H    3.326616   4.183525   3.610879   2.092897   2.655172
    11  H    2.605690   3.647408   2.358446   2.088717   3.368257
    12  H    2.855851   3.829200   3.101291   2.134198   2.798568
                    6          7          8          9         10
     6  H    0.000000
     7  H    1.783760   0.000000
     8  H    1.776171   1.780915   0.000000
     9  C    2.655380   2.798330   3.368282   0.000000
    10  H    2.399394   3.112341   3.624975   1.095282   0.000000
    11  H    3.624940   3.802367   4.161693   1.094130   1.776168
    12  H    3.113128   2.712005   3.802396   1.103703   1.783843
                   11         12
    11  H    0.000000
    12  H    1.780868   0.000000
 Stoichiometry    C3H8N(2)
 Framework group  C1[X(C3H8N)]
 Deg. of freedom    30
 Full point group                 C1      NOp   1
 Largest Abelian subgroup         C1      NOp   1
 Largest concise Abelian subgroup C1      NOp   1
                         Standard orientation:                         
 ---------------------------------------------------------------------
 Center     Atomic      Atomic             Coordinates (Angstroms)
 Number     Number       Type             X           Y           Z
 ---------------------------------------------------------------------
      1          6           0        0.000923    1.429516    0.111279
      2          1           0       -0.928792    1.962806   -0.063059
      3          1           0        0.931322    1.961582   -0.063328
      4          7           0       -0.000005    0.081134   -0.229114
      5          6           0       -1.219641   -0.660154    0.038561
      6          1           0       -1.200769   -1.610549   -0.505551
      7          1           0       -1.356402   -0.875733    1.112357
      8          1           0       -2.080936   -0.080628   -0.306979
      9          6           0        1.218823   -0.661579    0.038576
     10          1           0        1.198624   -1.612189   -0.505093
     11          1           0        2.080756   -0.083279   -0.307487
     12          1           0        1.355603   -0.876648    1.112446
 ---------------------------------------------------------------------
 Rotational constants (GHZ):           9.4025171           8.8862676           4.9359344
 General basis read from cards:  (5D, 7F)
 ======================================================================================================
                                       Pseudopotential Parameters
 ======================================================================================================
  Center     Atomic      Valence      Angular      Power
  Number     Number     Electrons     Momentum     of R      Exponent        Coefficient   SO-Coeffient
 ======================================================================================================
    1          6
                                   No pseudopotential on this center.
    2          1
                                   No pseudopotential on this center.
    3          1
                                   No pseudopotential on this center.
    4          7
                                   No pseudopotential on this center.
    5          6
                                   No pseudopotential on this center.
    6          1
                                   No pseudopotential on this center.
    7          1
                                   No pseudopotential on this center.
    8          1
                                   No pseudopotential on this center.
    9          6
                                   No pseudopotential on this center.
   10          1
                                   No pseudopotential on this center.
   11          1
                                   No pseudopotential on this center.
   12          1
                                   No pseudopotential on this center.
 ======================================================================================================
 There are    76 symmetry adapted cartesian basis functions of A   symmetry.
 There are    72 symmetry adapted basis functions of A   symmetry.
    72 basis functions,   144 primitive gaussians,    76 cartesian basis functions
    17 alpha electrons       16 beta electrons
       nuclear repulsion energy       130.2371630219 Hartrees.
 NAtoms=   12 NActive=   12 NUniq=   12 SFac= 1.00D+00 NAtFMM=   60 NAOKFM=F Big=F
 Integral buffers will be    131072 words long.
 Raffenetti 2 integral format.
 Two-electron integral symmetry is turned on.
 Nuclear repulsion after empirical dispersion term =      130.2243880950 Hartrees.
 One-electron integrals computed using PRISM.
   1 Symmetry operations used in ECPInt.
 ECPInt:  NShTT=     528 NPrTT=    3022 LenC2=     529 LenP2D=    2434.
 LDataN:  DoStor=T MaxTD1= 4 Len=   56
 NBasis=    72 RedAO= T EigKep=  1.01D-02  NBF=    72
 NBsUse=    72 1.00D-06 EigRej= -1.00D+00 NBFU=    72
 ExpMin= 1.61D-01 ExpMax= 4.17D+03 ExpMxC= 6.27D+02 IAcc=3 IRadAn=         5 AccDes= 0.00D+00
 Harris functional with IExCor=  402 and IRadAn=       5 diagonalized for initial guess.
 HarFok:  IExCor=  402 AccDes= 0.00D+00 IRadAn=         5 IDoV= 1 UseB2=F ITyADJ=14
 ICtDFT=  3500011 ScaDFX=  1.000000  1.000000  1.000000  1.000000
 FoFCou: FMM=F IPFlag=           0 FMFlag=      100000 FMFlg1=           0
         NFxFlg=           0 DoJE=T BraDBF=F KetDBF=T FulRan=T
         wScrn=  0.000000 ICntrl=       500 IOpCl=  0 I1Cent=   200000004 NGrid=           0
         NMat0=    1 NMatS0=      1 NMatT0=    0 NMatD0=    1 NMtDS0=    0 NMtDT0=    0
 Petite list used in FoFCou.
 Initial guess <Sx>= 0.0000 <Sy>= 0.0000 <Sz>= 0.5000 <S**2>= 0.7500 S= 0.5000
 Keep R1 and R2 ints in memory in canonical form, NReq=32121208.
 Requested convergence on RMS density matrix=1.00D-08 within 128 cycles.
 Requested convergence on MAX density matrix=1.00D-06.
 Requested convergence on             energy=1.00D-06.
 No special actions if energy rises.
 Integral accuracy reduced to 1.0D-05 until final iterations.
 Initial convergence to 1.0D-05 achieved.  Increase integral accuracy.
 SCF Done:  E(UB3LYP) =  -173.826721411     A.U. after   15 cycles
            NFock= 15  Conv=0.37D-08     -V/T= 2.0065
 <Sx>= 0.0000 <Sy>= 0.0000 <Sz>= 0.5000 <S**2>= 0.7530 S= 0.5015
 <L.S>=  0.00000000000    
 Annihilation of the first spin contaminant:
 S**2 before annihilation     0.7530,   after     0.7500

 **********************************************************************

            Population analysis using the SCF density.

 **********************************************************************

 Orbital symmetries:
 Alpha Orbitals:
       Occupied  (A) (A) (A) (A) (A) (A) (A) (A) (A) (A) (A) (A)
                 (A) (A) (A) (A) (A)
       Virtual   (A) (A) (A) (A) (A) (A) (A) (A) (A) (A) (A) (A)
                 (A) (A) (A) (A) (A) (A) (A) (A) (A) (A) (A) (A)
                 (A) (A) (A) (A) (A) (A) (A) (A) (A) (A) (A) (A)
                 (A) (A) (A) (A) (A) (A) (A) (A) (A) (A) (A) (A)
                 (A) (A) (A) (A) (A) (A) (A)
 Beta  Orbitals:
       Occupied  (A) (A) (A) (A) (A) (A) (A) (A) (A) (A) (A) (A)
                 (A) (A) (A) (A)
       Virtual   (A) (A) (A) (A) (A) (A) (A) (A) (A) (A) (A) (A)
                 (A) (A) (A) (A) (A) (A) (A) (A) (A) (A) (A) (A)
                 (A) (A) (A) (A) (A) (A) (A) (A) (A) (A) (A) (A)
                 (A) (A) (A) (A) (A) (A) (A) (A) (A) (A) (A) (A)
                 (A) (A) (A) (A) (A) (A) (A) (A)
 The electronic state is 2-A.
 Alpha  occ. eigenvalues --  -14.34393 -10.20017 -10.20014 -10.17284  -0.93301
 Alpha  occ. eigenvalues --   -0.71356  -0.69667  -0.57888  -0.47563  -0.47042
 Alpha  occ. eigenvalues --   -0.45725  -0.39691  -0.38133  -0.37542  -0.36819
 Alpha  occ. eigenvalues --   -0.29125  -0.13284
 Alpha virt. eigenvalues --    0.08879   0.13926   0.14819   0.15275   0.15903
 Alpha virt. eigenvalues --    0.16661   0.18172   0.18625   0.22357   0.26309
 Alpha virt. eigenvalues --    0.28980   0.51134   0.51464   0.52372   0.55855
 Alpha virt. eigenvalues --    0.56755   0.58562   0.67898   0.72586   0.74283
 Alpha virt. eigenvalues --    0.80555   0.81698   0.83694   0.85425   0.89378
 Alpha virt. eigenvalues --    0.90869   0.92504   0.97090   0.97279   0.97571
 Alpha virt. eigenvalues --    1.00002   1.11340   1.13508   1.37888   1.41694
 Alpha virt. eigenvalues --    1.41871   1.46083   1.74359   1.91045   1.91877
 Alpha virt. eigenvalues --    1.94287   1.99435   2.04073   2.04448   2.09513
 Alpha virt. eigenvalues --    2.13124   2.19745   2.20672   2.24241   2.26226
 Alpha virt. eigenvalues --    2.53981   2.58536   2.59666   2.78626   2.82220
  Beta  occ. eigenvalues --  -14.33869 -10.20025 -10.20021 -10.16178  -0.92220
  Beta  occ. eigenvalues --   -0.71247  -0.68424  -0.56561  -0.47181  -0.46303
  Beta  occ. eigenvalues --   -0.44809  -0.39549  -0.37812  -0.37426  -0.36220
  Beta  occ. eigenvalues --   -0.24877
  Beta virt. eigenvalues --   -0.00292   0.09083   0.14094   0.15025   0.15485
  Beta virt. eigenvalues --    0.16671   0.17257   0.18751   0.18914   0.22528
  Beta virt. eigenvalues --    0.26737   0.30113   0.51385   0.51620   0.54270
  Beta virt. eigenvalues --    0.56595   0.56913   0.61597   0.69364   0.72724
  Beta virt. eigenvalues --    0.75742   0.81465   0.81873   0.84132   0.85975
  Beta virt. eigenvalues --    0.89639   0.91097   0.92900   0.97323   0.97792
  Beta virt. eigenvalues --    0.98925   1.00464   1.12580   1.14775   1.38650
  Beta virt. eigenvalues --    1.42003   1.43688   1.46901   1.75905   1.92091
  Beta virt. eigenvalues --    1.93332   1.94796   2.00916   2.05122   2.06998
  Beta virt. eigenvalues --    2.11160   2.14841   2.20571   2.21529   2.24363
  Beta virt. eigenvalues --    2.26636   2.55564   2.59309   2.61581   2.79495
  Beta virt. eigenvalues --    2.82671
          Condensed to atoms (all electrons):
               1          2          3          4          5          6
     1  C    5.266359   0.369680   0.369678   0.341878  -0.054108   0.004371
     2  H    0.369680   0.577078  -0.036978  -0.035929  -0.006503   0.000133
     3  H    0.369678  -0.036978   0.577084  -0.035931   0.005265  -0.000236
     4  N    0.341878  -0.035929  -0.035931   6.584162   0.340062  -0.038550
     5  C   -0.054108  -0.006503   0.005265   0.340062   4.963066   0.376017
     6  H    0.004371   0.000133  -0.000236  -0.038550   0.376017   0.577368
     7  H    0.005047  -0.000815  -0.000300  -0.051677   0.356872  -0.042676
     8  H   -0.005250   0.006307   0.000108  -0.034707   0.379393  -0.025235
     9  C   -0.054129   0.005266  -0.006503   0.340057  -0.057890  -0.003831
    10  H    0.004373  -0.000236   0.000133  -0.038540  -0.003829   0.006742
    11  H   -0.005251   0.000108   0.006307  -0.034713   0.005477   0.000102
    12  H    0.005054  -0.000300  -0.000817  -0.051680  -0.004708  -0.001555
               7          8          9         10         11         12
     1  C    0.005047  -0.005250  -0.054129   0.004373  -0.005251   0.005054
     2  H   -0.000815   0.006307   0.005266  -0.000236   0.000108  -0.000300
     3  H   -0.000300   0.000108  -0.006503   0.000133   0.006307  -0.000817
     4  N   -0.051677  -0.034707   0.340057  -0.038540  -0.034713  -0.051680
     5  C    0.356872   0.379393  -0.057890  -0.003829   0.005477  -0.004708
     6  H   -0.042676  -0.025235  -0.003831   0.006742   0.000102  -0.001555
     7  H    0.630058  -0.039746  -0.004710  -0.001556  -0.000367   0.010310
     8  H   -0.039746   0.558035   0.005478   0.000102  -0.000201  -0.000367
     9  C   -0.004710   0.005478   4.963112   0.376007   0.379394   0.356874
    10  H   -0.001556   0.000102   0.376007   0.577346  -0.025238  -0.042650
    11  H   -0.000367  -0.000201   0.379394  -0.025238   0.558061  -0.039760
    12  H    0.010310  -0.000367   0.356874  -0.042650  -0.039760   0.630020
          Atomic-Atomic Spin Densities.
               1          2          3          4          5          6
     1  C    1.041673  -0.014099  -0.014104  -0.179813  -0.009129   0.000071
     2  H   -0.014099  -0.021557   0.004520  -0.001042   0.000546  -0.000023
     3  H   -0.014104   0.004520  -0.021546  -0.001044  -0.000016   0.000008
     4  N   -0.179813  -0.001042  -0.001044   0.388159   0.007229  -0.000139
     5  C   -0.009129   0.000546  -0.000016   0.007229  -0.000708   0.003950
     6  H    0.000071  -0.000023   0.000008  -0.000139   0.003950  -0.005170
     7  H    0.013125  -0.000989  -0.000217  -0.012248  -0.020148  -0.000236
     8  H   -0.000997   0.001371   0.000142  -0.003015   0.002539   0.000465
     9  C   -0.009146  -0.000016   0.000547   0.007252   0.005328   0.000782
    10  H    0.000071   0.000008  -0.000023  -0.000134   0.000780  -0.000705
    11  H   -0.000998   0.000142   0.001373  -0.003020   0.000403   0.000016
    12  H    0.013142  -0.000217  -0.000991  -0.012254  -0.004342   0.000036
               7          8          9         10         11         12
     1  C    0.013125  -0.000997  -0.009146   0.000071  -0.000998   0.013142
     2  H   -0.000989   0.001371  -0.000016   0.000008   0.000142  -0.000217
     3  H   -0.000217   0.000142   0.000547  -0.000023   0.001373  -0.000991
     4  N   -0.012248  -0.003015   0.007252  -0.000134  -0.003020  -0.012254
     5  C   -0.020148   0.002539   0.005328   0.000780   0.000403  -0.004342
     6  H   -0.000236   0.000465   0.000782  -0.000705   0.000016   0.000036
     7  H    0.055769  -0.007525  -0.004346   0.000037  -0.000232   0.004597
     8  H   -0.007525   0.010207   0.000402   0.000016   0.000040  -0.000232
     9  C   -0.004346   0.000402  -0.000688   0.003943   0.002543  -0.020165
    10  H    0.000037   0.000016   0.003943  -0.005175   0.000462  -0.000229
    11  H   -0.000232   0.000040   0.002543   0.000462   0.010224  -0.007532
    12  H    0.004597  -0.000232  -0.020165  -0.000229  -0.007532   0.055778
 Mulliken charges and spin densities:
               1          2
     1  C   -0.247704   0.839795
     2  H    0.122190  -0.031356
     3  H    0.122191  -0.031352
     4  N   -0.284433   0.189930
     5  C   -0.299114  -0.013569
     6  H    0.147349  -0.000945
     7  H    0.139559   0.027586
     8  H    0.156082   0.003413
     9  C   -0.299124  -0.013564
    10  H    0.147344  -0.000949
    11  H    0.156079   0.003420
    12  H    0.139579   0.027590
 Sum of Mulliken charges =  -0.00000   1.00000
 Mulliken charges and spin densities with hydrogens summed into heavy atoms:
               1          2
     1  C   -0.003322   0.777087
     4  N   -0.284433   0.189930
     5  C    0.143876   0.016486
     9  C    0.143879   0.016497
 Electronic spatial extent (au):  <R**2>=            310.4570
 Charge=             -0.0000 electrons
 Dipole moment (field-independent basis, Debye):
    X=             -0.0007    Y=             -1.0675    Z=             -0.1317  Tot=              1.0756
 Quadrupole moment (field-independent basis, Debye-Ang):
   XX=            -24.2318   YY=            -26.4448   ZZ=            -28.6736
   XY=             -0.0015   XZ=             -0.0006   YZ=             -0.5160
 Traceless Quadrupole moment (field-independent basis, Debye-Ang):
   XX=              2.2182   YY=              0.0053   ZZ=             -2.2235
   XY=             -0.0015   XZ=             -0.0006   YZ=             -0.5160
 Octapole moment (field-independent basis, Debye-Ang**2):
  XXX=              0.0010  YYY=             -2.4129  ZZZ=             -0.2226  XYY=             -0.0033
  XXY=              0.9750  XXZ=             -1.4049  XZZ=             -0.0013  YZZ=             -2.8362
  YYZ=             -2.4897  XYZ=             -0.0012
 Hexadecapole moment (field-independent basis, Debye-Ang**3):
 XXXX=           -187.8751 YYYY=           -182.9886 ZZZZ=            -46.0075 XXXY=             -0.0014
 XXXZ=             -0.0023 YYYX=             -0.0060 YYYZ=             -0.0333 ZZZX=             -0.0005
 ZZZY=             -1.7058 XXYY=            -60.5570 XXZZ=            -40.1384 YYZZ=            -41.2126
 XXYZ=             -0.7507 YYXZ=             -0.0003 ZZXY=             -0.0017
 N-N= 1.302243880950D+02 E-N=-6.634515347704D+02  KE= 1.727020960250D+02
                          Isotropic Fermi Contact Couplings
        Atom                 a.u.       MegaHertz       Gauss      10(-4) cm-1
     1  C(13)              0.16063     180.57833      64.43484      60.23445
     2  H(1)              -0.00681     -30.44951     -10.86514     -10.15686
     3  H(1)              -0.00681     -30.43999     -10.86174     -10.15369
     4  N(14)              0.05921      19.12975       6.82597       6.38100
     5  C(13)              0.00354       3.98496       1.42193       1.32924
     6  H(1)               0.00023       1.00899       0.36003       0.33656
     7  H(1)               0.00545      24.35987       8.69221       8.12558
     8  H(1)               0.00139       6.22025       2.21954       2.07485
     9  C(13)              0.00356       3.99768       1.42647       1.33348
    10  H(1)               0.00022       0.99316       0.35438       0.33128
    11  H(1)               0.00139       6.23256       2.22393       2.07896
    12  H(1)               0.00545      24.34181       8.68576       8.11955
 --------------------------------------------------------
       Center         ----  Spin Dipole Couplings  ----
                      3XX-RR        3YY-RR        3ZZ-RR
 --------------------------------------------------------
     1   Atom       -0.418325     -0.422617      0.840942
     2   Atom        0.030969     -0.027830     -0.003139
     3   Atom        0.031087     -0.027953     -0.003135
     4   Atom       -0.311223     -0.294944      0.606167
     5   Atom        0.012602      0.003257     -0.015858
     6   Atom       -0.001314      0.006102     -0.004788
     7   Atom        0.000246      0.003774     -0.004020
     8   Atom        0.009829     -0.003677     -0.006152
     9   Atom        0.012566      0.003297     -0.015863
    10   Atom       -0.001336      0.006124     -0.004788
    11   Atom        0.009810     -0.003660     -0.006151
    12   Atom        0.000229      0.003792     -0.004022
 --------------------------------------------------------
                        XY            XZ            YZ
 --------------------------------------------------------
     1   Atom       -0.000008      0.000172     -0.021771
     2   Atom       -0.047007      0.011276     -0.008845
     3   Atom        0.046924     -0.011296     -0.008843
     4   Atom        0.000015      0.000079      0.084902
     5   Atom        0.015650      0.001115      0.003778
     6   Atom        0.008363      0.001306      0.001955
     7   Atom        0.007714     -0.004597     -0.004264
     8   Atom        0.006953      0.002210      0.001756
     9   Atom       -0.015666     -0.001120      0.003782
    10   Atom       -0.008354     -0.001301      0.001954
    11   Atom       -0.006970     -0.002212      0.001761
    12   Atom       -0.007713      0.004595     -0.004271
 --------------------------------------------------------


 ---------------------------------------------------------------------------------
              Anisotropic Spin Dipole Couplings in Principal Axis System
 ---------------------------------------------------------------------------------

       Atom             a.u.   MegaHertz   Gauss  10(-4) cm-1        Axes

              Baa    -0.4230   -56.761   -20.254   -18.934  0.0010  0.9999  0.0172
     1 C(13)  Bbb    -0.4183   -56.135   -20.030   -18.725  1.0000 -0.0010 -0.0002
              Bcc     0.8413   112.897    40.284    37.658  0.0001 -0.0172  0.9999
 
              Baa    -0.0540   -28.801   -10.277    -9.607  0.4789  0.8766  0.0463
     2 H(1)   Bbb    -0.0062    -3.307    -1.180    -1.103 -0.2134  0.0651  0.9748
              Bcc     0.0602    32.108    11.457    10.710  0.8515 -0.4767  0.2182
 
              Baa    -0.0540   -28.799   -10.276    -9.606 -0.4778  0.8773  0.0464
     3 H(1)   Bbb    -0.0062    -3.308    -1.180    -1.103  0.2137  0.0648  0.9747
              Bcc     0.0602    32.107    11.456    10.710  0.8521  0.4756 -0.2185
 
              Baa    -0.3112   -12.003    -4.283    -4.004  1.0000 -0.0010  0.0000
     4 N(14)  Bbb    -0.3029   -11.681    -4.168    -3.896  0.0010  0.9957 -0.0930
              Bcc     0.6141    23.684     8.451     7.900  0.0001  0.0930  0.9957
 
              Baa    -0.0168    -2.250    -0.803    -0.751  0.1029 -0.2615  0.9597
     5 C(13)  Bbb    -0.0077    -1.039    -0.371    -0.346 -0.5964  0.7560  0.2699
              Bcc     0.0245     3.289     1.174     1.097  0.7961  0.6001  0.0781
 
              Baa    -0.0068    -3.604    -1.286    -1.202  0.8393 -0.5434 -0.0172
     6 H(1)   Bbb    -0.0051    -2.731    -0.975    -0.911 -0.0616 -0.1266  0.9900
              Bcc     0.0119     6.335     2.261     2.113  0.5401  0.8299  0.1397
 
              Baa    -0.0070    -3.761    -1.342    -1.255  0.6457 -0.1666  0.7452
     7 H(1)   Bbb    -0.0052    -2.795    -0.997    -0.932 -0.4766  0.6747  0.5637
              Bcc     0.0123     6.556     2.339     2.187  0.5967  0.7191 -0.3562
 
              Baa    -0.0073    -3.909    -1.395    -1.304 -0.1980  0.7049 -0.6811
     8 H(1)   Bbb    -0.0058    -3.108    -1.109    -1.037 -0.3644  0.5921  0.7187
              Bcc     0.0132     7.017     2.504     2.341  0.9099  0.3905  0.1397
 
              Baa    -0.0168    -2.251    -0.803    -0.751 -0.1028 -0.2611  0.9598
     9 C(13)  Bbb    -0.0077    -1.039    -0.371    -0.347  0.5974  0.7553  0.2695
              Bcc     0.0245     3.290     1.174     1.097  0.7953 -0.6011 -0.0784
 
              Baa    -0.0068    -3.604    -1.286    -1.202  0.8400  0.5423  0.0169
    10 H(1)   Bbb    -0.0051    -2.731    -0.974    -0.911  0.0616 -0.1264  0.9901
              Bcc     0.0119     6.335     2.261     2.113 -0.5390  0.8306  0.1395
 
              Baa    -0.0073    -3.909    -1.395    -1.304  0.1987  0.7047 -0.6811
    11 H(1)   Bbb    -0.0058    -3.108    -1.109    -1.037  0.3654  0.5916  0.7187
              Bcc     0.0132     7.018     2.504     2.341  0.9094 -0.3917 -0.1399
 
              Baa    -0.0071    -3.763    -1.343    -1.255 -0.6458 -0.1658  0.7452
    12 H(1)   Bbb    -0.0052    -2.795    -0.997    -0.932  0.4773  0.6742  0.5636
              Bcc     0.0123     6.559     2.340     2.188 -0.5959  0.7197 -0.3563
 

 ---------------------------------------------------------------------------------

   1 Symmetry operations used in ECPInt.
 ECPInt:  NShTT=     528 NPrTT=    3022 LenC2=     529 LenP2D=    2434.
 LDataN:  DoStor=T MaxTD1= 5 Len=  102
 Calling FoFJK, ICntrl=      2127 FMM=F ISym2X=0 I1Cent= 0 IOpClX= 1 NMat=1 NMatS=1 NMatT=0.
 ***** Axes restored to original set *****
 -------------------------------------------------------------------
 Center     Atomic                   Forces (Hartrees/Bohr)
 Number     Number              X              Y              Z
 -------------------------------------------------------------------
      1        6           0.000004157    0.000094360   -0.000015264
      2        1          -0.000008242   -0.000067326    0.000001348
      3        1          -0.000009033   -0.000077372    0.000005524
      4        7           0.000034781    0.000119693   -0.000022345
      5        6           0.000002858   -0.000039650    0.000024597
      6        1           0.000007468   -0.000017510   -0.000036682
      7        1          -0.000000299    0.000000493    0.000055647
      8        1          -0.000038086    0.000022325   -0.000024711
      9        6          -0.000013147   -0.000011458    0.000004132
     10        1          -0.000008145   -0.000023550   -0.000030517
     11        1           0.000027817    0.000018283   -0.000024860
     12        1          -0.000000129   -0.000018289    0.000063132
 -------------------------------------------------------------------
 Cartesian Forces:  Max     0.000119693 RMS     0.000038500

 GradGradGradGradGradGradGradGradGradGradGradGradGradGradGradGradGradGrad
 Berny optimization.
 FormGI is forming the generalized inverse of G from B-inverse, IUseBI=4.
 Internal  Forces:  Max     0.000083625 RMS     0.000030420
 Search for a local minimum.
 Step number   1 out of a maximum of  100
 All quantities printed in internal units (Hartrees-Bohrs-Radians)
 Mixed Optimization -- En-DIIS/RFO-DIIS
 Second derivative matrix not updated -- first step.
 ITU=  0
     Eigenvalues ---    0.01002   0.01002   0.01815   0.02065   0.03385
     Eigenvalues ---    0.07280   0.07280   0.07630   0.07630   0.16000
     Eigenvalues ---    0.16000   0.16000   0.16000   0.16000   0.16000
     Eigenvalues ---    0.16000   0.16000   0.20257   0.21648   0.33273
     Eigenvalues ---    0.33276   0.34208   0.34209   0.34340   0.34342
     Eigenvalues ---    0.35288   0.35292   0.37961   0.37968   0.47200
 RFO step:  Lambda=-1.88608732D-07 EMin= 1.00156205D-02
 Linear search not attempted -- first point.
 Iteration  1 RMS(Cart)=  0.00025036 RMS(Int)=  0.00000006
 Iteration  2 RMS(Cart)=  0.00000006 RMS(Int)=  0.00000002
 Variable       Old X    -DE/DX   Delta X   Delta X   Delta X     New X
                                 (Linear)    (Quad)   (Total)
    R1        2.05204  -0.00003   0.00000  -0.00007  -0.00007   2.05196
    R2        2.05209  -0.00005   0.00000  -0.00013  -0.00013   2.05196
    R3        2.62801  -0.00005   0.00000  -0.00011  -0.00011   2.62790
    R4        2.74412   0.00004   0.00000   0.00012   0.00012   2.74424
    R5        2.74422   0.00003   0.00000   0.00007   0.00007   2.74429
    R6        2.06980   0.00003   0.00000   0.00010   0.00010   2.06990
    R7        2.08574   0.00005   0.00000   0.00016   0.00016   2.08591
    R8        2.06757   0.00005   0.00000   0.00014   0.00014   2.06771
    R9        2.06978   0.00004   0.00000   0.00010   0.00010   2.06989
   R10        2.06761   0.00004   0.00000   0.00011   0.00011   2.06772
   R11        2.08570   0.00006   0.00000   0.00020   0.00020   2.08589
    A1        2.05682   0.00008   0.00000   0.00048   0.00048   2.05730
    A2        2.02228  -0.00005   0.00000  -0.00038  -0.00038   2.02190
    A3        2.02226  -0.00005   0.00000  -0.00038  -0.00038   2.02188
    A4        2.03801   0.00001   0.00000   0.00004   0.00004   2.03805
    A5        2.03780   0.00004   0.00000   0.00020   0.00020   2.03800
    A6        1.99311  -0.00005   0.00000  -0.00021  -0.00021   1.99289
    A7        1.91443  -0.00002   0.00000  -0.00015  -0.00015   1.91428
    A8        1.96396  -0.00001   0.00000  -0.00002  -0.00002   1.96394
    A9        1.90982   0.00000   0.00000  -0.00000  -0.00000   1.90982
   A10        1.89226   0.00002   0.00000   0.00018   0.00018   1.89244
   A11        1.89260  -0.00000   0.00000  -0.00007  -0.00007   1.89253
   A12        1.88932   0.00001   0.00000   0.00007   0.00007   1.88939
   A13        1.91443  -0.00002   0.00000  -0.00017  -0.00017   1.91426
   A14        1.90982  -0.00000   0.00000  -0.00000  -0.00000   1.90981
   A15        1.96387   0.00000   0.00000   0.00004   0.00004   1.96391
   A16        1.89258   0.00000   0.00000  -0.00006  -0.00006   1.89252
   A17        1.89243   0.00001   0.00000   0.00005   0.00005   1.89248
   A18        1.88926   0.00001   0.00000   0.00014   0.00014   1.88940
    D1       -0.65866  -0.00001   0.00000  -0.00016  -0.00016  -0.65883
    D2       -3.10590   0.00001   0.00000  -0.00012  -0.00012  -3.10602
    D3        3.10610  -0.00001   0.00000   0.00007   0.00007   3.10617
    D4        0.65886   0.00001   0.00000   0.00012   0.00012   0.65897
    D5        2.87599  -0.00001   0.00000  -0.00019  -0.00019   2.87580
    D6       -1.29923  -0.00001   0.00000  -0.00009  -0.00009  -1.29932
    D7        0.80183  -0.00000   0.00000  -0.00001  -0.00001   0.80182
    D8       -0.94253  -0.00000   0.00000  -0.00008  -0.00008  -0.94261
    D9        1.16543   0.00001   0.00000   0.00003   0.00003   1.16546
   D10       -3.01669   0.00001   0.00000   0.00010   0.00010  -3.01659
   D11       -2.87645   0.00001   0.00000   0.00028   0.00028  -2.87616
   D12       -0.80230  -0.00001   0.00000   0.00010   0.00010  -0.80220
   D13        1.29861   0.00001   0.00000   0.00031   0.00031   1.29892
   D14        0.94199   0.00001   0.00000   0.00023   0.00023   0.94222
   D15        3.01613  -0.00001   0.00000   0.00005   0.00005   3.01619
   D16       -1.16614   0.00001   0.00000   0.00026   0.00026  -1.16588
         Item               Value     Threshold  Converged?
 Maximum Force            0.000084     0.000450     YES
 RMS     Force            0.000030     0.000300     YES
 Maximum Displacement     0.000659     0.001800     YES
 RMS     Displacement     0.000250     0.001200     YES
 Predicted change in Energy=-9.430247D-08
 Optimization completed.
    -- Stationary point found.
                           ----------------------------
                           !   Optimized Parameters   !
                           ! (Angstroms and Degrees)  !
 --------------------------                            --------------------------
 ! Name  Definition              Value          Derivative Info.                !
 --------------------------------------------------------------------------------
 ! R1    R(1,2)                  1.0859         -DE/DX =    0.0                 !
 ! R2    R(1,3)                  1.0859         -DE/DX =    0.0                 !
 ! R3    R(1,4)                  1.3907         -DE/DX =   -0.0001              !
 ! R4    R(4,5)                  1.4521         -DE/DX =    0.0                 !
 ! R5    R(4,9)                  1.4522         -DE/DX =    0.0                 !
 ! R6    R(5,6)                  1.0953         -DE/DX =    0.0                 !
 ! R7    R(5,7)                  1.1037         -DE/DX =    0.0001              !
 ! R8    R(5,8)                  1.0941         -DE/DX =    0.0                 !
 ! R9    R(9,10)                 1.0953         -DE/DX =    0.0                 !
 ! R10   R(9,11)                 1.0941         -DE/DX =    0.0                 !
 ! R11   R(9,12)                 1.1037         -DE/DX =    0.0001              !
 ! A1    A(2,1,3)              117.8472         -DE/DX =    0.0001              !
 ! A2    A(2,1,4)              115.8681         -DE/DX =   -0.0001              !
 ! A3    A(3,1,4)              115.8667         -DE/DX =   -0.0001              !
 ! A4    A(1,4,5)              116.7692         -DE/DX =    0.0                 !
 ! A5    A(1,4,9)              116.7572         -DE/DX =    0.0                 !
 ! A6    A(5,4,9)              114.1966         -DE/DX =    0.0                 !
 ! A7    A(4,5,6)              109.6886         -DE/DX =    0.0                 !
 ! A8    A(4,5,7)              112.5265         -DE/DX =    0.0                 !
 ! A9    A(4,5,8)              109.4247         -DE/DX =    0.0                 !
 ! A10   A(6,5,7)              108.4185         -DE/DX =    0.0                 !
 ! A11   A(6,5,8)              108.4381         -DE/DX =    0.0                 !
 ! A12   A(7,5,8)              108.2503         -DE/DX =    0.0                 !
 ! A13   A(4,9,10)             109.689          -DE/DX =    0.0                 !
 ! A14   A(4,9,11)             109.4244         -DE/DX =    0.0                 !
 ! A15   A(4,9,12)             112.5215         -DE/DX =    0.0                 !
 ! A16   A(10,9,11)            108.4371         -DE/DX =    0.0                 !
 ! A17   A(10,9,12)            108.4284         -DE/DX =    0.0                 !
 ! A18   A(11,9,12)            108.2465         -DE/DX =    0.0                 !
 ! D1    D(2,1,4,5)            -37.7386         -DE/DX =    0.0                 !
 ! D2    D(2,1,4,9)           -177.9551         -DE/DX =    0.0                 !
 ! D3    D(3,1,4,5)            177.9662         -DE/DX =    0.0                 !
 ! D4    D(3,1,4,9)             37.7497         -DE/DX =    0.0                 !
 ! D5    D(1,4,5,6)            164.7822         -DE/DX =    0.0                 !
 ! D6    D(1,4,5,7)            -74.4404         -DE/DX =    0.0                 !
 ! D7    D(1,4,5,8)             45.9414         -DE/DX =    0.0                 !
 ! D8    D(9,4,5,6)            -54.003          -DE/DX =    0.0                 !
 ! D9    D(9,4,5,7)             66.7744         -DE/DX =    0.0                 !
 ! D10   D(9,4,5,8)           -172.8439         -DE/DX =    0.0                 !
 ! D11   D(1,4,9,10)          -164.8083         -DE/DX =    0.0                 !
 ! D12   D(1,4,9,11)           -45.9686         -DE/DX =    0.0                 !
 ! D13   D(1,4,9,12)            74.4049         -DE/DX =    0.0                 !
 ! D14   D(5,4,9,10)            53.9721         -DE/DX =    0.0                 !
 ! D15   D(5,4,9,11)           172.8118         -DE/DX =    0.0                 !
 ! D16   D(5,4,9,12)           -66.8148         -DE/DX =    0.0                 !
 --------------------------------------------------------------------------------
 GradGradGradGradGradGradGradGradGradGradGradGradGradGradGradGradGradGrad

                          Input orientation:                          
 ---------------------------------------------------------------------
 Center     Atomic      Atomic             Coordinates (Angstroms)
 Number     Number       Type             X           Y           Z
 ---------------------------------------------------------------------
      1          6           0        0.000920    1.429516    0.111279
      2          1           0       -0.928796    1.962804   -0.063059
      3          1           0        0.931318    1.961584   -0.063328
      4          7           0       -0.000005    0.081134   -0.229114
      5          6           0       -1.219640   -0.660156    0.038561
      6          1           0       -1.200766   -1.610551   -0.505551
      7          1           0       -1.356400   -0.875736    1.112357
      8          1           0       -2.080936   -0.080632   -0.306979
      9          6           0        1.218824   -0.661577    0.038576
     10          1           0        1.198627   -1.612187   -0.505093
     11          1           0        2.080756   -0.083275   -0.307487
     12          1           0        1.355605   -0.876645    1.112446
 ---------------------------------------------------------------------
                    Distance matrix (angstroms):
                    1          2          3          4          5
     1  C    0.000000
     2  H    1.085892   0.000000
     3  H    1.085921   1.860114   0.000000
     4  N    1.390684   2.104972   2.104980   0.000000
     5  C    2.421112   2.640991   3.392716   1.452126   0.000000
     6  H    3.326640   3.610905   4.183478   2.092855   1.095292
     7  H    2.856337   3.101896   3.829657   2.134233   1.103728
     8  H    2.605688   2.358507   3.647422   2.088661   1.094110
     9  C    2.421001   3.392636   2.640837   1.452178   2.438464
    10  H    3.326616   4.183525   3.610879   2.092897   2.655172
    11  H    2.605690   3.647408   2.358446   2.088717   3.368257
    12  H    2.855851   3.829200   3.101291   2.134198   2.798568
                    6          7          8          9         10
     6  H    0.000000
     7  H    1.783760   0.000000
     8  H    1.776171   1.780915   0.000000
     9  C    2.655380   2.798330   3.368282   0.000000
    10  H    2.399394   3.112341   3.624975   1.095282   0.000000
    11  H    3.624940   3.802367   4.161693   1.094130   1.776168
    12  H    3.113128   2.712005   3.802396   1.103703   1.783843
                   11         12
    11  H    0.000000
    12  H    1.780868   0.000000
 Stoichiometry    C3H8N(2)
 Framework group  C1[X(C3H8N)]
 Deg. of freedom    30
 Full point group                 C1      NOp   1
 Largest Abelian subgroup         C1      NOp   1
 Largest concise Abelian subgroup C1      NOp   1
                         Standard orientation:                         
 ---------------------------------------------------------------------
 Center     Atomic      Atomic             Coordinates (Angstroms)
 Number     Number       Type             X           Y           Z
 ---------------------------------------------------------------------
      1          6           0        0.000923    1.429516    0.111279
      2          1           0       -0.928792    1.962806   -0.063059
      3          1           0        0.931322    1.961582   -0.063328
      4          7           0       -0.000005    0.081134   -0.229114
      5          6           0       -1.219641   -0.660154    0.038561
      6          1           0       -1.200769   -1.610549   -0.505551
      7          1           0       -1.356402   -0.875733    1.112357
      8          1           0       -2.080936   -0.080628   -0.306979
      9          6           0        1.218823   -0.661579    0.038576
     10          1           0        1.198624   -1.612189   -0.505093
     11          1           0        2.080756   -0.083279   -0.307487
     12          1           0        1.355603   -0.876648    1.112446
 ---------------------------------------------------------------------
 Rotational constants (GHZ):           9.4025171           8.8862676           4.9359344
 1\1\GINC-NODE91\FOpt\UB3LYP\GenECP\C3H8N1(2)\XGX_HG\11-Aug-2023\0\\# o
 pt=maxcycle=150 freq b3lyp/genecp empiricaldispersion=gd3bj\\Title Car
 d Required\\0,2\C,0.00092,1.429516,0.111279\H,-0.928796,1.962804,-0.06
 3059\H,0.931318,1.961584,-0.063328\N,-0.000005,0.081134,-0.229114\C,-1
 .21964,-0.660156,0.038561\H,-1.200766,-1.610551,-0.505551\H,-1.3564,-0
 .875736,1.112357\H,-2.080936,-0.080632,-0.306979\C,1.218824,-0.661577,
 0.038576\H,1.198627,-1.612187,-0.505093\H,2.080756,-0.083275,-0.307487
 \H,1.355605,-0.876645,1.112446\\Version=ES64L-G16RevA.03\State=2-A\HF=
 -173.8267214\S2=0.753007\S2-1=0.\S2A=0.750006\RMSD=3.664e-09\RMSF=3.85
 0e-05\Dipole=-0.0002838,-0.4199824,-0.0518268\Quadrupole=1.6491842,0.0
 039362,-1.6531204,-0.0011098,-0.0004271,-0.3836512\PG=C01 [X(C3H8N1)]\
 \@


 HAPPINESS IS NOT HAVING WHAT YOU WANT --
 HAPPINESS IS WANTING WHAT YOU HAVE!

              -- FROM MRS. SEVERN'S DESK
 Job cpu time:       0 days  0 hours  2 minutes  2.2 seconds.
 Elapsed time:       0 days  0 hours  0 minutes  5.9 seconds.
 File lengths (MBytes):  RWF=     10 Int=      0 D2E=      0 Chk=      2 Scr=      1
 Normal termination of Gaussian 16 at Fri Aug 11 18:49:10 2023.
 Link1:  Proceeding to internal job step number  2.
 ------------------------------------------------------------------
 #N Geom=AllCheck Guess=TCheck SCRF=Check GenChk UB3LYP/GenECP Freq
 ------------------------------------------------------------------
 1/6=150,10=4,29=7,30=1,38=1,40=1/1,3;
 2/12=2,40=1/2;
 3/5=7,6=2,11=2,14=-4,16=1,17=8,25=1,30=1,70=2,71=2,74=-5,82=7,116=2,124=41,140=1/1,2,3;
 4/5=101/1;
 5/5=2,38=6,98=1/2;
 8/6=4,10=90,11=11/1;
 11/6=1,8=1,9=11,15=111,16=1/1,2,10;
 10/6=1/2;
 6/7=2,8=2,9=2,10=2,28=1/1;
 7/8=1,10=1,25=1/1,2,3,16;
 1/6=150,10=4,30=1/3;
 99//99;
 Structure from the checkpoint file:  "/public/home/XGX_HG/tmp/Gau-19448.chk"
 -------------------
 Title Card Required
 -------------------
 Charge =  0 Multiplicity = 2
 Redundant internal coordinates found in file.  (old form).
 C,0,0.00092,1.429516,0.111279
 H,0,-0.928796,1.962804,-0.063059
 H,0,0.931318,1.961584,-0.063328
 N,0,-0.000005,0.081134,-0.229114
 C,0,-1.21964,-0.660156,0.038561
 H,0,-1.200766,-1.610551,-0.505551
 H,0,-1.3564,-0.875736,1.112357
 H,0,-2.080936,-0.080632,-0.306979
 C,0,1.218824,-0.661577,0.038576
 H,0,1.198627,-1.612187,-0.505093
 H,0,2.080756,-0.083275,-0.307487
 H,0,1.355605,-0.876645,1.112446
 Recover connectivity data from disk.

 GradGradGradGradGradGradGradGradGradGradGradGradGradGradGradGradGradGrad
 Berny optimization.
 Initialization pass.
                           ----------------------------
                           !    Initial Parameters    !
                           ! (Angstroms and Degrees)  !
 --------------------------                            --------------------------
 ! Name  Definition              Value          Derivative Info.                !
 --------------------------------------------------------------------------------
 ! R1    R(1,2)                  1.0859         calculate D2E/DX2 analytically  !
 ! R2    R(1,3)                  1.0859         calculate D2E/DX2 analytically  !
 ! R3    R(1,4)                  1.3907         calculate D2E/DX2 analytically  !
 ! R4    R(4,5)                  1.4521         calculate D2E/DX2 analytically  !
 ! R5    R(4,9)                  1.4522         calculate D2E/DX2 analytically  !
 ! R6    R(5,6)                  1.0953         calculate D2E/DX2 analytically  !
 ! R7    R(5,7)                  1.1037         calculate D2E/DX2 analytically  !
 ! R8    R(5,8)                  1.0941         calculate D2E/DX2 analytically  !
 ! R9    R(9,10)                 1.0953         calculate D2E/DX2 analytically  !
 ! R10   R(9,11)                 1.0941         calculate D2E/DX2 analytically  !
 ! R11   R(9,12)                 1.1037         calculate D2E/DX2 analytically  !
 ! A1    A(2,1,3)              117.8472         calculate D2E/DX2 analytically  !
 ! A2    A(2,1,4)              115.8681         calculate D2E/DX2 analytically  !
 ! A3    A(3,1,4)              115.8667         calculate D2E/DX2 analytically  !
 ! A4    A(1,4,5)              116.7692         calculate D2E/DX2 analytically  !
 ! A5    A(1,4,9)              116.7572         calculate D2E/DX2 analytically  !
 ! A6    A(5,4,9)              114.1966         calculate D2E/DX2 analytically  !
 ! A7    A(4,5,6)              109.6886         calculate D2E/DX2 analytically  !
 ! A8    A(4,5,7)              112.5265         calculate D2E/DX2 analytically  !
 ! A9    A(4,5,8)              109.4247         calculate D2E/DX2 analytically  !
 ! A10   A(6,5,7)              108.4185         calculate D2E/DX2 analytically  !
 ! A11   A(6,5,8)              108.4381         calculate D2E/DX2 analytically  !
 ! A12   A(7,5,8)              108.2503         calculate D2E/DX2 analytically  !
 ! A13   A(4,9,10)             109.689          calculate D2E/DX2 analytically  !
 ! A14   A(4,9,11)             109.4244         calculate D2E/DX2 analytically  !
 ! A15   A(4,9,12)             112.5215         calculate D2E/DX2 analytically  !
 ! A16   A(10,9,11)            108.4371         calculate D2E/DX2 analytically  !
 ! A17   A(10,9,12)            108.4284         calculate D2E/DX2 analytically  !
 ! A18   A(11,9,12)            108.2465         calculate D2E/DX2 analytically  !
 ! D1    D(2,1,4,5)            -37.7386         calculate D2E/DX2 analytically  !
 ! D2    D(2,1,4,9)           -177.9551         calculate D2E/DX2 analytically  !
 ! D3    D(3,1,4,5)            177.9662         calculate D2E/DX2 analytically  !
 ! D4    D(3,1,4,9)             37.7497         calculate D2E/DX2 analytically  !
 ! D5    D(1,4,5,6)            164.7822         calculate D2E/DX2 analytically  !
 ! D6    D(1,4,5,7)            -74.4404         calculate D2E/DX2 analytically  !
 ! D7    D(1,4,5,8)             45.9414         calculate D2E/DX2 analytically  !
 ! D8    D(9,4,5,6)            -54.003          calculate D2E/DX2 analytically  !
 ! D9    D(9,4,5,7)             66.7744         calculate D2E/DX2 analytically  !
 ! D10   D(9,4,5,8)           -172.8439         calculate D2E/DX2 analytically  !
 ! D11   D(1,4,9,10)          -164.8083         calculate D2E/DX2 analytically  !
 ! D12   D(1,4,9,11)           -45.9686         calculate D2E/DX2 analytically  !
 ! D13   D(1,4,9,12)            74.4049         calculate D2E/DX2 analytically  !
 ! D14   D(5,4,9,10)            53.9721         calculate D2E/DX2 analytically  !
 ! D15   D(5,4,9,11)           172.8118         calculate D2E/DX2 analytically  !
 ! D16   D(5,4,9,12)           -66.8148         calculate D2E/DX2 analytically  !
 --------------------------------------------------------------------------------
 Trust Radius=3.00D-01 FncErr=1.00D-07 GrdErr=1.00D-07 EigMax=2.50D+02 EigMin=1.00D-04
 Number of steps in this run=      2 maximum allowed number of steps=      2.
 GradGradGradGradGradGradGradGradGradGradGradGradGradGradGradGradGradGrad

                          Input orientation:                          
 ---------------------------------------------------------------------
 Center     Atomic      Atomic             Coordinates (Angstroms)
 Number     Number       Type             X           Y           Z
 ---------------------------------------------------------------------
      1          6           0        0.000920    1.429516    0.111279
      2          1           0       -0.928796    1.962804   -0.063059
      3          1           0        0.931318    1.961584   -0.063328
      4          7           0       -0.000005    0.081134   -0.229114
      5          6           0       -1.219640   -0.660156    0.038561
      6          1           0       -1.200766   -1.610551   -0.505551
      7          1           0       -1.356400   -0.875736    1.112357
      8          1           0       -2.080936   -0.080632   -0.306979
      9          6           0        1.218824   -0.661577    0.038576
     10          1           0        1.198627   -1.612187   -0.505093
     11          1           0        2.080756   -0.083275   -0.307487
     12          1           0        1.355605   -0.876645    1.112446
 ---------------------------------------------------------------------
                    Distance matrix (angstroms):
                    1          2          3          4          5
     1  C    0.000000
     2  H    1.085892   0.000000
     3  H    1.085921   1.860114   0.000000
     4  N    1.390684   2.104972   2.104980   0.000000
     5  C    2.421112   2.640991   3.392716   1.452126   0.000000
     6  H    3.326640   3.610905   4.183478   2.092855   1.095292
     7  H    2.856337   3.101896   3.829657   2.134233   1.103728
     8  H    2.605688   2.358507   3.647422   2.088661   1.094110
     9  C    2.421001   3.392636   2.640837   1.452178   2.438464
    10  H    3.326616   4.183525   3.610879   2.092897   2.655172
    11  H    2.605690   3.647408   2.358446   2.088717   3.368257
    12  H    2.855851   3.829200   3.101291   2.134198   2.798568
                    6          7          8          9         10
     6  H    0.000000
     7  H    1.783760   0.000000
     8  H    1.776171   1.780915   0.000000
     9  C    2.655380   2.798330   3.368282   0.000000
    10  H    2.399394   3.112341   3.624975   1.095282   0.000000
    11  H    3.624940   3.802367   4.161693   1.094130   1.776168
    12  H    3.113128   2.712005   3.802396   1.103703   1.783843
                   11         12
    11  H    0.000000
    12  H    1.780868   0.000000
 Stoichiometry    C3H8N(2)
 Framework group  C1[X(C3H8N)]
 Deg. of freedom    30
 Full point group                 C1      NOp   1
 Largest Abelian subgroup         C1      NOp   1
 Largest concise Abelian subgroup C1      NOp   1
                         Standard orientation:                         
 ---------------------------------------------------------------------
 Center     Atomic      Atomic             Coordinates (Angstroms)
 Number     Number       Type             X           Y           Z
 ---------------------------------------------------------------------
      1          6           0        0.000923    1.429516    0.111279
      2          1           0       -0.928792    1.962806   -0.063059
      3          1           0        0.931322    1.961582   -0.063328
      4          7           0       -0.000005    0.081134   -0.229114
      5          6           0       -1.219641   -0.660154    0.038561
      6          1           0       -1.200769   -1.610549   -0.505551
      7          1           0       -1.356402   -0.875733    1.112357
      8          1           0       -2.080936   -0.080628   -0.306979
      9          6           0        1.218823   -0.661579    0.038576
     10          1           0        1.198624   -1.612189   -0.505093
     11          1           0        2.080756   -0.083279   -0.307487
     12          1           0        1.355603   -0.876648    1.112446
 ---------------------------------------------------------------------
 Rotational constants (GHZ):           9.4025171           8.8862676           4.9359344
 Basis read from chk: "/public/home/XGX_HG/tmp/Gau-19448.chk" (5D, 7F)
 Pseudo-potential data read from chk file.
 There are    76 symmetry adapted cartesian basis functions of A   symmetry.
 There are    72 symmetry adapted basis functions of A   symmetry.
    72 basis functions,   144 primitive gaussians,    76 cartesian basis functions
    17 alpha electrons       16 beta electrons
       nuclear repulsion energy       130.2371630219 Hartrees.
 NAtoms=   12 NActive=   12 NUniq=   12 SFac= 1.00D+00 NAtFMM=   60 NAOKFM=F Big=F
 Integral buffers will be    131072 words long.
 Raffenetti 2 integral format.
 Two-electron integral symmetry is turned on.
 Nuclear repulsion after empirical dispersion term =      130.2243880950 Hartrees.
 One-electron integrals computed using PRISM.
   1 Symmetry operations used in ECPInt.
 ECPInt:  NShTT=     528 NPrTT=    3022 LenC2=     529 LenP2D=    2434.
 LDataN:  DoStor=T MaxTD1= 4 Len=   56
 NBasis=    72 RedAO= T EigKep=  1.01D-02  NBF=    72
 NBsUse=    72 1.00D-06 EigRej= -1.00D+00 NBFU=    72
 Initial guess from the checkpoint file:  "/public/home/XGX_HG/tmp/Gau-19448.chk"
 B after Tr=    -0.000000    0.000000    0.000000
         Rot=    1.000000   -0.000000    0.000000   -0.000000 Ang=   0.00 deg.
 Initial guess <Sx>= 0.0000 <Sy>= 0.0000 <Sz>= 0.5000 <S**2>= 0.7530 S= 0.5015
 Keep R1 and R2 ints in memory in canonical form, NReq=32121208.
 Requested convergence on RMS density matrix=1.00D-08 within 128 cycles.
 Requested convergence on MAX density matrix=1.00D-06.
 Requested convergence on             energy=1.00D-06.
 No special actions if energy rises.
 SCF Done:  E(UB3LYP) =  -173.826721411     A.U. after    1 cycles
            NFock=  1  Conv=0.16D-08     -V/T= 2.0065
 <Sx>= 0.0000 <Sy>= 0.0000 <Sz>= 0.5000 <S**2>= 0.7530 S= 0.5015
 <L.S>=  0.00000000000    
 Annihilation of the first spin contaminant:
 S**2 before annihilation     0.7530,   after     0.7500
 DoSCS=F DFT=T ScalE2(SS,OS)=  1.000000  1.000000
 Range of M.O.s used for correlation:     1    72
 NBasis=    72 NAE=    17 NBE=    16 NFC=     0 NFV=     0
 NROrb=     72 NOA=    17 NOB=    16 NVA=    55 NVB=    56
   1 Symmetry operations used in ECPInt.
 ECPInt:  NShTT=     528 NPrTT=    3022 LenC2=     529 LenP2D=    2434.
 LDataN:  DoStor=T MaxTD1= 5 Len=  102
 Symmetrizing basis deriv contribution to polar:
 IMax=3 JMax=2 DiffMx= 0.00D+00
 G2DrvN: will do    13 centers at a time, making    1 passes.
 Calling FoFCou, ICntrl=  3107 FMM=F I1Cent=   0 AccDes= 0.00D+00.
 End of G2Drv F.D. properties file   721 does not exist.
 End of G2Drv F.D. properties file   722 does not exist.
 End of G2Drv F.D. properties file   788 does not exist.
          IDoAtm=111111111111
          Differentiating once with respect to electric field.
                with respect to dipole field.
          Differentiating once with respect to nuclear coordinates.
 Keep R1 and R2 ints in memory in canonical form, NReq=32034767.
          There are    39 degrees of freedom in the 1st order CPHF.  IDoFFX=6 NUNeed=     3.
     36 vectors produced by pass  0 Test12= 4.69D-15 2.56D-09 XBig12= 6.60D+01 4.74D+00.
 AX will form    36 AO Fock derivatives at one time.
     36 vectors produced by pass  1 Test12= 4.69D-15 2.56D-09 XBig12= 3.09D+00 4.31D-01.
     36 vectors produced by pass  2 Test12= 4.69D-15 2.56D-09 XBig12= 1.00D-01 8.52D-02.
     36 vectors produced by pass  3 Test12= 4.69D-15 2.56D-09 XBig12= 3.19D-04 2.52D-03.
     36 vectors produced by pass  4 Test12= 4.69D-15 2.56D-09 XBig12= 1.20D-06 1.61D-04.
     34 vectors produced by pass  5 Test12= 4.69D-15 2.56D-09 XBig12= 4.07D-09 1.07D-05.
      9 vectors produced by pass  6 Test12= 4.69D-15 2.56D-09 XBig12= 4.74D-12 3.33D-07.
      2 vectors produced by pass  7 Test12= 4.69D-15 2.56D-09 XBig12= 6.31D-15 1.08D-08.
 InvSVY:  IOpt=1 It=  1 EMax= 1.78D-15
 Solved reduced A of dimension   225 with    39 vectors.
 Isotropic polarizability for W=    0.000000       40.10 Bohr**3.
 End of Minotr F.D. properties file   721 does not exist.
 End of Minotr F.D. properties file   722 does not exist.
 End of Minotr F.D. properties file   788 does not exist.

 **********************************************************************

            Population analysis using the SCF density.

 **********************************************************************

 Orbital symmetries:
 Alpha Orbitals:
       Occupied  (A) (A) (A) (A) (A) (A) (A) (A) (A) (A) (A) (A)
                 (A) (A) (A) (A) (A)
       Virtual   (A) (A) (A) (A) (A) (A) (A) (A) (A) (A) (A) (A)
                 (A) (A) (A) (A) (A) (A) (A) (A) (A) (A) (A) (A)
                 (A) (A) (A) (A) (A) (A) (A) (A) (A) (A) (A) (A)
                 (A) (A) (A) (A) (A) (A) (A) (A) (A) (A) (A) (A)
                 (A) (A) (A) (A) (A) (A) (A)
 Beta  Orbitals:
       Occupied  (A) (A) (A) (A) (A) (A) (A) (A) (A) (A) (A) (A)
                 (A) (A) (A) (A)
       Virtual   (A) (A) (A) (A) (A) (A) (A) (A) (A) (A) (A) (A)
                 (A) (A) (A) (A) (A) (A) (A) (A) (A) (A) (A) (A)
                 (A) (A) (A) (A) (A) (A) (A) (A) (A) (A) (A) (A)
                 (A) (A) (A) (A) (A) (A) (A) (A) (A) (A) (A) (A)
                 (A) (A) (A) (A) (A) (A) (A) (A)
 The electronic state is 2-A.
 Alpha  occ. eigenvalues --  -14.34393 -10.20017 -10.20014 -10.17284  -0.93301
 Alpha  occ. eigenvalues --   -0.71356  -0.69667  -0.57888  -0.47563  -0.47042
 Alpha  occ. eigenvalues --   -0.45725  -0.39691  -0.38133  -0.37542  -0.36819
 Alpha  occ. eigenvalues --   -0.29125  -0.13284
 Alpha virt. eigenvalues --    0.08879   0.13926   0.14819   0.15275   0.15903
 Alpha virt. eigenvalues --    0.16661   0.18172   0.18625   0.22357   0.26309
 Alpha virt. eigenvalues --    0.28980   0.51134   0.51464   0.52372   0.55855
 Alpha virt. eigenvalues --    0.56755   0.58562   0.67898   0.72586   0.74283
 Alpha virt. eigenvalues --    0.80555   0.81698   0.83694   0.85425   0.89378
 Alpha virt. eigenvalues --    0.90869   0.92504   0.97090   0.97279   0.97571
 Alpha virt. eigenvalues --    1.00002   1.11340   1.13508   1.37888   1.41694
 Alpha virt. eigenvalues --    1.41871   1.46083   1.74359   1.91045   1.91877
 Alpha virt. eigenvalues --    1.94287   1.99435   2.04073   2.04448   2.09513
 Alpha virt. eigenvalues --    2.13124   2.19745   2.20672   2.24241   2.26226
 Alpha virt. eigenvalues --    2.53981   2.58536   2.59666   2.78626   2.82220
  Beta  occ. eigenvalues --  -14.33869 -10.20025 -10.20021 -10.16178  -0.92220
  Beta  occ. eigenvalues --   -0.71247  -0.68424  -0.56561  -0.47181  -0.46303
  Beta  occ. eigenvalues --   -0.44809  -0.39549  -0.37812  -0.37426  -0.36220
  Beta  occ. eigenvalues --   -0.24877
  Beta virt. eigenvalues --   -0.00292   0.09083   0.14094   0.15025   0.15485
  Beta virt. eigenvalues --    0.16671   0.17257   0.18751   0.18914   0.22528
  Beta virt. eigenvalues --    0.26737   0.30113   0.51385   0.51620   0.54270
  Beta virt. eigenvalues --    0.56595   0.56913   0.61597   0.69364   0.72724
  Beta virt. eigenvalues --    0.75742   0.81465   0.81873   0.84132   0.85975
  Beta virt. eigenvalues --    0.89639   0.91097   0.92900   0.97323   0.97792
  Beta virt. eigenvalues --    0.98925   1.00464   1.12580   1.14775   1.38650
  Beta virt. eigenvalues --    1.42003   1.43688   1.46901   1.75905   1.92091
  Beta virt. eigenvalues --    1.93332   1.94796   2.00916   2.05122   2.06998
  Beta virt. eigenvalues --    2.11160   2.14841   2.20571   2.21529   2.24363
  Beta virt. eigenvalues --    2.26636   2.55564   2.59309   2.61581   2.79495
  Beta virt. eigenvalues --    2.82671
          Condensed to atoms (all electrons):
               1          2          3          4          5          6
     1  C    5.266359   0.369680   0.369678   0.341878  -0.054108   0.004371
     2  H    0.369680   0.577078  -0.036978  -0.035929  -0.006503   0.000133
     3  H    0.369678  -0.036978   0.577084  -0.035931   0.005265  -0.000236
     4  N    0.341878  -0.035929  -0.035931   6.584162   0.340062  -0.038550
     5  C   -0.054108  -0.006503   0.005265   0.340062   4.963066   0.376017
     6  H    0.004371   0.000133  -0.000236  -0.038550   0.376017   0.577368
     7  H    0.005047  -0.000815  -0.000300  -0.051677   0.356872  -0.042676
     8  H   -0.005250   0.006307   0.000108  -0.034707   0.379393  -0.025235
     9  C   -0.054129   0.005266  -0.006503   0.340057  -0.057890  -0.003831
    10  H    0.004373  -0.000236   0.000133  -0.038540  -0.003829   0.006742
    11  H   -0.005251   0.000108   0.006307  -0.034713   0.005477   0.000102
    12  H    0.005054  -0.000300  -0.000817  -0.051680  -0.004708  -0.001555
               7          8          9         10         11         12
     1  C    0.005047  -0.005250  -0.054129   0.004373  -0.005251   0.005054
     2  H   -0.000815   0.006307   0.005266  -0.000236   0.000108  -0.000300
     3  H   -0.000300   0.000108  -0.006503   0.000133   0.006307  -0.000817
     4  N   -0.051677  -0.034707   0.340057  -0.038540  -0.034713  -0.051680
     5  C    0.356872   0.379393  -0.057890  -0.003829   0.005477  -0.004708
     6  H   -0.042676  -0.025235  -0.003831   0.006742   0.000102  -0.001555
     7  H    0.630058  -0.039746  -0.004710  -0.001556  -0.000367   0.010310
     8  H   -0.039746   0.558035   0.005478   0.000102  -0.000201  -0.000367
     9  C   -0.004710   0.005478   4.963111   0.376007   0.379394   0.356874
    10  H   -0.001556   0.000102   0.376007   0.577347  -0.025238  -0.042650
    11  H   -0.000367  -0.000201   0.379394  -0.025238   0.558061  -0.039760
    12  H    0.010310  -0.000367   0.356874  -0.042650  -0.039760   0.630021
          Atomic-Atomic Spin Densities.
               1          2          3          4          5          6
     1  C    1.041673  -0.014099  -0.014104  -0.179813  -0.009129   0.000071
     2  H   -0.014099  -0.021557   0.004520  -0.001042   0.000546  -0.000023
     3  H   -0.014104   0.004520  -0.021546  -0.001044  -0.000016   0.000008
     4  N   -0.179813  -0.001042  -0.001044   0.388159   0.007229  -0.000139
     5  C   -0.009129   0.000546  -0.000016   0.007229  -0.000708   0.003950
     6  H    0.000071  -0.000023   0.000008  -0.000139   0.003950  -0.005170
     7  H    0.013125  -0.000989  -0.000217  -0.012248  -0.020148  -0.000236
     8  H   -0.000997   0.001371   0.000142  -0.003015   0.002539   0.000465
     9  C   -0.009146  -0.000016   0.000547   0.007252   0.005328   0.000782
    10  H    0.000071   0.000008  -0.000023  -0.000134   0.000780  -0.000705
    11  H   -0.000998   0.000142   0.001373  -0.003020   0.000403   0.000016
    12  H    0.013142  -0.000217  -0.000991  -0.012254  -0.004342   0.000036
               7          8          9         10         11         12
     1  C    0.013125  -0.000997  -0.009146   0.000071  -0.000998   0.013142
     2  H   -0.000989   0.001371  -0.000016   0.000008   0.000142  -0.000217
     3  H   -0.000217   0.000142   0.000547  -0.000023   0.001373  -0.000991
     4  N   -0.012248  -0.003015   0.007252  -0.000134  -0.003020  -0.012254
     5  C   -0.020148   0.002539   0.005328   0.000780   0.000403  -0.004342
     6  H   -0.000236   0.000465   0.000782  -0.000705   0.000016   0.000036
     7  H    0.055769  -0.007525  -0.004346   0.000037  -0.000232   0.004597
     8  H   -0.007525   0.010207   0.000402   0.000016   0.000040  -0.000232
     9  C   -0.004346   0.000402  -0.000688   0.003943   0.002543  -0.020165
    10  H    0.000037   0.000016   0.003943  -0.005175   0.000462  -0.000229
    11  H   -0.000232   0.000040   0.002543   0.000462   0.010224  -0.007532
    12  H    0.004597  -0.000232  -0.020165  -0.000229  -0.007532   0.055778
 Mulliken charges and spin densities:
               1          2
     1  C   -0.247704   0.839795
     2  H    0.122190  -0.031356
     3  H    0.122191  -0.031352
     4  N   -0.284433   0.189930
     5  C   -0.299114  -0.013569
     6  H    0.147349  -0.000945
     7  H    0.139559   0.027586
     8  H    0.156082   0.003413
     9  C   -0.299124  -0.013564
    10  H    0.147344  -0.000949
    11  H    0.156079   0.003420
    12  H    0.139579   0.027590
 Sum of Mulliken charges =  -0.00000   1.00000
 Mulliken charges and spin densities with hydrogens summed into heavy atoms:
               1          2
     1  C   -0.003322   0.777087
     4  N   -0.284433   0.189930
     5  C    0.143876   0.016486
     9  C    0.143879   0.016497
 APT charges:
               1
     1  C    0.073713
     2  H    0.004868
     3  H    0.004860
     4  N   -0.587596
     5  C    0.384028
     6  H   -0.028901
     7  H   -0.085044
     8  H   -0.018006
     9  C    0.383983
    10  H   -0.028865
    11  H   -0.018033
    12  H   -0.085007
 Sum of APT charges =  -0.00000
 APT charges with hydrogens summed into heavy atoms:
               1
     1  C    0.083440
     4  N   -0.587596
     5  C    0.252078
     9  C    0.252078
 Electronic spatial extent (au):  <R**2>=            310.4570
 Charge=              0.0000 electrons
 Dipole moment (field-independent basis, Debye):
    X=             -0.0007    Y=             -1.0675    Z=             -0.1317  Tot=              1.0756
 Quadrupole moment (field-independent basis, Debye-Ang):
   XX=            -24.2318   YY=            -26.4448   ZZ=            -28.6736
   XY=             -0.0015   XZ=             -0.0006   YZ=             -0.5160
 Traceless Quadrupole moment (field-independent basis, Debye-Ang):
   XX=              2.2182   YY=              0.0053   ZZ=             -2.2235
   XY=             -0.0015   XZ=             -0.0006   YZ=             -0.5160
 Octapole moment (field-independent basis, Debye-Ang**2):
  XXX=              0.0010  YYY=             -2.4129  ZZZ=             -0.2226  XYY=             -0.0033
  XXY=              0.9750  XXZ=             -1.4049  XZZ=             -0.0013  YZZ=             -2.8362
  YYZ=             -2.4897  XYZ=             -0.0012
 Hexadecapole moment (field-independent basis, Debye-Ang**3):
 XXXX=           -187.8751 YYYY=           -182.9887 ZZZZ=            -46.0075 XXXY=             -0.0014
 XXXZ=             -0.0023 YYYX=             -0.0060 YYYZ=             -0.0333 ZZZX=             -0.0005
 ZZZY=             -1.7058 XXYY=            -60.5570 XXZZ=            -40.1384 YYZZ=            -41.2126
 XXYZ=             -0.7507 YYXZ=             -0.0003 ZZXY=             -0.0017
 N-N= 1.302243880950D+02 E-N=-6.634515328480D+02  KE= 1.727020953756D+02
  Exact polarizability:  42.424   0.005  48.051  -0.001   0.215  29.841
 Approx polarizability:  52.288   0.007  60.555   0.000   1.625  41.186
                          Isotropic Fermi Contact Couplings
        Atom                 a.u.       MegaHertz       Gauss      10(-4) cm-1
     1  C(13)              0.16063     180.57837      64.43485      60.23446
     2  H(1)              -0.00681     -30.44952     -10.86514     -10.15687
     3  H(1)              -0.00681     -30.43999     -10.86175     -10.15369
     4  N(14)              0.05921      19.12975       6.82597       6.38100
     5  C(13)              0.00354       3.98499       1.42194       1.32925
     6  H(1)               0.00023       1.00895       0.36002       0.33655
     7  H(1)               0.00545      24.35984       8.69220       8.12557
     8  H(1)               0.00139       6.22021       2.21953       2.07484
     9  C(13)              0.00356       3.99771       1.42648       1.33349
    10  H(1)               0.00022       0.99312       0.35437       0.33127
    11  H(1)               0.00139       6.23253       2.22392       2.07895
    12  H(1)               0.00545      24.34178       8.68575       8.11954
 --------------------------------------------------------
       Center         ----  Spin Dipole Couplings  ----
                      3XX-RR        3YY-RR        3ZZ-RR
 --------------------------------------------------------
     1   Atom       -0.418325     -0.422617      0.840942
     2   Atom        0.030969     -0.027830     -0.003139
     3   Atom        0.031087     -0.027953     -0.003135
     4   Atom       -0.311223     -0.294944      0.606167
     5   Atom        0.012602      0.003257     -0.015858
     6   Atom       -0.001314      0.006102     -0.004788
     7   Atom        0.000246      0.003774     -0.004020
     8   Atom        0.009829     -0.003677     -0.006152
     9   Atom        0.012566      0.003297     -0.015863
    10   Atom       -0.001336      0.006124     -0.004788
    11   Atom        0.009810     -0.003660     -0.006151
    12   Atom        0.000229      0.003792     -0.004022
 --------------------------------------------------------
                        XY            XZ            YZ
 --------------------------------------------------------
     1   Atom       -0.000008      0.000172     -0.021771
     2   Atom       -0.047007      0.011276     -0.008845
     3   Atom        0.046924     -0.011296     -0.008843
     4   Atom        0.000015      0.000079      0.084902
     5   Atom        0.015650      0.001115      0.003778
     6   Atom        0.008363      0.001306      0.001955
     7   Atom        0.007714     -0.004597     -0.004264
     8   Atom        0.006953      0.002210      0.001756
     9   Atom       -0.015666     -0.001120      0.003782
    10   Atom       -0.008354     -0.001301      0.001954
    11   Atom       -0.006970     -0.002212      0.001761
    12   Atom       -0.007713      0.004595     -0.004271
 --------------------------------------------------------


 ---------------------------------------------------------------------------------
              Anisotropic Spin Dipole Couplings in Principal Axis System
 ---------------------------------------------------------------------------------

       Atom             a.u.   MegaHertz   Gauss  10(-4) cm-1        Axes

              Baa    -0.4230   -56.761   -20.254   -18.934  0.0010  0.9999  0.0172
     1 C(13)  Bbb    -0.4183   -56.135   -20.030   -18.725  1.0000 -0.0010 -0.0002
              Bcc     0.8413   112.897    40.284    37.658  0.0001 -0.0172  0.9999
 
              Baa    -0.0540   -28.801   -10.277    -9.607  0.4789  0.8766  0.0463
     2 H(1)   Bbb    -0.0062    -3.307    -1.180    -1.103 -0.2134  0.0651  0.9748
              Bcc     0.0602    32.108    11.457    10.710  0.8515 -0.4767  0.2182
 
              Baa    -0.0540   -28.799   -10.276    -9.606 -0.4778  0.8773  0.0464
     3 H(1)   Bbb    -0.0062    -3.308    -1.180    -1.103  0.2137  0.0648  0.9747
              Bcc     0.0602    32.107    11.456    10.710  0.8521  0.4756 -0.2185
 
              Baa    -0.3112   -12.003    -4.283    -4.004  1.0000 -0.0010  0.0000
     4 N(14)  Bbb    -0.3029   -11.681    -4.168    -3.896  0.0010  0.9957 -0.0930
              Bcc     0.6141    23.684     8.451     7.900  0.0001  0.0930  0.9957
 
              Baa    -0.0168    -2.250    -0.803    -0.751  0.1029 -0.2615  0.9597
     5 C(13)  Bbb    -0.0077    -1.039    -0.371    -0.346 -0.5964  0.7560  0.2699
              Bcc     0.0245     3.289     1.174     1.097  0.7961  0.6001  0.0781
 
              Baa    -0.0068    -3.604    -1.286    -1.202  0.8393 -0.5434 -0.0172
     6 H(1)   Bbb    -0.0051    -2.731    -0.975    -0.911 -0.0616 -0.1266  0.9900
              Bcc     0.0119     6.335     2.261     2.113  0.5401  0.8299  0.1397
 
              Baa    -0.0070    -3.761    -1.342    -1.255  0.6457 -0.1666  0.7452
     7 H(1)   Bbb    -0.0052    -2.795    -0.997    -0.932 -0.4766  0.6747  0.5637
              Bcc     0.0123     6.556     2.339     2.187  0.5967  0.7191 -0.3562
 
              Baa    -0.0073    -3.909    -1.395    -1.304 -0.1980  0.7049 -0.6811
     8 H(1)   Bbb    -0.0058    -3.108    -1.109    -1.037 -0.3644  0.5921  0.7187
[...]
   A16        1.89258   0.00000   0.00000  -0.00007  -0.00007   1.89252
   A17        1.89243   0.00001   0.00000   0.00004   0.00004   1.89248
   A18        1.88926   0.00001   0.00000   0.00015   0.00015   1.88940
    D1       -0.65866  -0.00001   0.00000  -0.00007  -0.00007  -0.65874
    D2       -3.10590   0.00001   0.00000  -0.00002  -0.00002  -3.10592
    D3        3.10610  -0.00001   0.00000  -0.00018  -0.00018   3.10592
    D4        0.65886   0.00001   0.00000  -0.00012  -0.00012   0.65874
    D5        2.87599  -0.00001   0.00000  -0.00041  -0.00041   2.87558
    D6       -1.29923  -0.00001   0.00000  -0.00028  -0.00028  -1.29951
    D7        0.80183  -0.00000   0.00000  -0.00023  -0.00023   0.80160
    D8       -0.94253  -0.00000   0.00000  -0.00023  -0.00023  -0.94276
    D9        1.16543   0.00001   0.00000  -0.00010  -0.00010   1.16534
   D10       -3.01669   0.00001   0.00000  -0.00004  -0.00004  -3.01673
   D11       -2.87645   0.00001   0.00000   0.00087   0.00087  -2.87558
   D12       -0.80230  -0.00001   0.00000   0.00070   0.00070  -0.80160
   D13        1.29861   0.00001   0.00000   0.00090   0.00090   1.29951
   D14        0.94199   0.00001   0.00000   0.00076   0.00076   0.94276
   D15        3.01613  -0.00001   0.00000   0.00060   0.00060   3.01673
   D16       -1.16614   0.00001   0.00000   0.00080   0.00080  -1.16534
         Item               Value     Threshold  Converged?
 Maximum Force            0.000084     0.000450     YES
 RMS     Force            0.000030     0.000300     YES
 Maximum Displacement     0.001462     0.001800     YES
 RMS     Displacement     0.000476     0.001200     YES
 Predicted change in Energy=-1.150968D-07
 Optimization completed.
    -- Stationary point found.
                           ----------------------------
                           !   Optimized Parameters   !
                           ! (Angstroms and Degrees)  !
 --------------------------                            --------------------------
 ! Name  Definition              Value          Derivative Info.                !
 --------------------------------------------------------------------------------
 ! R1    R(1,2)                  1.0859         -DE/DX =    0.0                 !
 ! R2    R(1,3)                  1.0859         -DE/DX =    0.0                 !
 ! R3    R(1,4)                  1.3907         -DE/DX =   -0.0001              !
 ! R4    R(4,5)                  1.4521         -DE/DX =    0.0                 !
 ! R5    R(4,9)                  1.4522         -DE/DX =    0.0                 !
 ! R6    R(5,6)                  1.0953         -DE/DX =    0.0                 !
 ! R7    R(5,7)                  1.1037         -DE/DX =    0.0001              !
 ! R8    R(5,8)                  1.0941         -DE/DX =    0.0                 !
 ! R9    R(9,10)                 1.0953         -DE/DX =    0.0                 !
 ! R10   R(9,11)                 1.0941         -DE/DX =    0.0                 !
 ! R11   R(9,12)                 1.1037         -DE/DX =    0.0001              !
 ! A1    A(2,1,3)              117.8472         -DE/DX =    0.0001              !
 ! A2    A(2,1,4)              115.8681         -DE/DX =   -0.0001              !
 ! A3    A(3,1,4)              115.8667         -DE/DX =   -0.0001              !
 ! A4    A(1,4,5)              116.7692         -DE/DX =    0.0                 !
 ! A5    A(1,4,9)              116.7572         -DE/DX =    0.0                 !
 ! A6    A(5,4,9)              114.1966         -DE/DX =    0.0                 !
 ! A7    A(4,5,6)              109.6886         -DE/DX =    0.0                 !
 ! A8    A(4,5,7)              112.5265         -DE/DX =    0.0                 !
 ! A9    A(4,5,8)              109.4247         -DE/DX =    0.0                 !
 ! A10   A(6,5,7)              108.4185         -DE/DX =    0.0                 !
 ! A11   A(6,5,8)              108.4381         -DE/DX =    0.0                 !
 ! A12   A(7,5,8)              108.2503         -DE/DX =    0.0                 !
 ! A13   A(4,9,10)             109.689          -DE/DX =    0.0                 !
 ! A14   A(4,9,11)             109.4244         -DE/DX =    0.0                 !
 ! A15   A(4,9,12)             112.5215         -DE/DX =    0.0                 !
 ! A16   A(10,9,11)            108.4371         -DE/DX =    0.0                 !
 ! A17   A(10,9,12)            108.4284         -DE/DX =    0.0                 !
 ! A18   A(11,9,12)            108.2465         -DE/DX =    0.0                 !
 ! D1    D(2,1,4,5)            -37.7386         -DE/DX =    0.0                 !
 ! D2    D(2,1,4,9)           -177.9551         -DE/DX =    0.0                 !
 ! D3    D(3,1,4,5)            177.9662         -DE/DX =    0.0                 !
 ! D4    D(3,1,4,9)             37.7497         -DE/DX =    0.0                 !
 ! D5    D(1,4,5,6)            164.7822         -DE/DX =    0.0                 !
 ! D6    D(1,4,5,7)            -74.4404         -DE/DX =    0.0                 !
 ! D7    D(1,4,5,8)             45.9414         -DE/DX =    0.0                 !
 ! D8    D(9,4,5,6)            -54.003          -DE/DX =    0.0                 !
 ! D9    D(9,4,5,7)             66.7744         -DE/DX =    0.0                 !
 ! D10   D(9,4,5,8)           -172.8439         -DE/DX =    0.0                 !
 ! D11   D(1,4,9,10)          -164.8083         -DE/DX =    0.0                 !
 ! D12   D(1,4,9,11)           -45.9686         -DE/DX =    0.0                 !
 ! D13   D(1,4,9,12)            74.4049         -DE/DX =    0.0                 !
 ! D14   D(5,4,9,10)            53.9721         -DE/DX =    0.0                 !
 ! D15   D(5,4,9,11)           172.8118         -DE/DX =    0.0                 !
 ! D16   D(5,4,9,12)           -66.8148         -DE/DX =    0.0                 !
 --------------------------------------------------------------------------------
 GradGradGradGradGradGradGradGradGradGradGradGradGradGradGradGradGradGrad


 ----------------------------------------------------------------------

 Electric dipole moment (input orientation):
 (Debye = 10**-18 statcoulomb cm , SI units = C m)
                  (au)            (Debye)         (10**-30 SI)
   Tot        0.423168D+00      0.107559D+01      0.358777D+01
   x         -0.283790D-03     -0.721321D-03     -0.240607D-02
   y         -0.419983D+00     -0.106749D+01     -0.356076D+01
   z         -0.518268D-01     -0.131731D+00     -0.439406D+00

 Dipole polarizability, Alpha (input orientation).
 (esu units = cm**3 , SI units = C**2 m**2 J**-1)
 Alpha(0;0):
               (au)            (10**-24 esu)      (10**-40 SI)
   iso        0.401050D+02      0.594295D+01      0.661242D+01
   aniso      0.161534D+02      0.239369D+01      0.266334D+01
   xx         0.424237D+02      0.628654D+01      0.699472D+01
   yx         0.478835D-02      0.709560D-03      0.789492D-03
   yy         0.480506D+02      0.712036D+01      0.792247D+01
   zx        -0.719880D-03     -0.106675D-03     -0.118692D-03
   zy         0.214601D+00      0.318005D-01      0.353829D-01
   zz         0.298407D+02      0.442194D+01      0.492007D+01

 ----------------------------------------------------------------------

 Dipole orientation:
     6         -0.00000430         -0.12214494         -2.70681220
     1         -1.75728883         -0.57358265         -3.66546637
     1          1.75781749         -0.57172048         -3.66547334
     7          0.00019000         -0.44848099         -0.09914040
     6         -2.30409379          0.22374215          1.23074330
     1         -2.26667261         -0.57675740          3.13911452
     1         -2.56365190          2.28738695          1.38671639
     1         -3.93191816         -0.55940910          0.22490998
     6          2.30393506          0.22683153          1.23031462
     1          2.26752246         -0.57283119          3.13903607
     1          3.93254039         -0.55508684          0.22471035
     1          2.56129365          2.29080314          1.38496367

 Electric dipole moment (dipole orientation):
 (Debye = 10**-18 statcoulomb cm , SI units = C m)
                  (au)            (Debye)         (10**-30 SI)
   Tot        0.423168D+00      0.107559D+01      0.358777D+01
   x          0.000000D+00      0.000000D+00      0.000000D+00
   y          0.000000D+00      0.000000D+00      0.000000D+00
   z          0.423168D+00      0.107559D+01      0.358777D+01

 Dipole polarizability, Alpha (dipole orientation).
 (esu units = cm**3 , SI units = C**2 m**2 J**-1)
 Alpha(0;0):
               (au)            (10**-24 esu)      (10**-40 SI)
   iso        0.401050D+02      0.594295D+01      0.661242D+01
   aniso      0.161534D+02      0.239369D+01      0.266334D+01
   xx         0.424237D+02      0.628654D+01      0.699472D+01
   yx         0.737407D-02      0.109272D-02      0.121582D-02
   yy         0.300617D+02      0.445468D+01      0.495650D+01
   zx        -0.222783D-02     -0.330130D-03     -0.367319D-03
   zy         0.200527D+01      0.297150D+00      0.330624D+00
   zz         0.478296D+02      0.708761D+01      0.788603D+01

 ----------------------------------------------------------------------
 1\1\GINC-NODE91\Freq\UB3LYP\GenECP\C3H8N1(2)\XGX_HG\11-Aug-2023\0\\#N 
 Geom=AllCheck Guess=TCheck SCRF=Check GenChk UB3LYP/GenECP Freq\\Title
  Card Required\\0,2\C,0.00092,1.429516,0.111279\H,-0.928796,1.962804,-
 0.063059\H,0.931318,1.961584,-0.063328\N,-0.000005,0.081134,-0.229114\
 C,-1.21964,-0.660156,0.038561\H,-1.200766,-1.610551,-0.505551\H,-1.356
 4,-0.875736,1.112357\H,-2.080936,-0.080632,-0.306979\C,1.218824,-0.661
 577,0.038576\H,1.198627,-1.612187,-0.505093\H,2.080756,-0.083275,-0.30
 7487\H,1.355605,-0.876645,1.112446\\Version=ES64L-G16RevA.03\State=2-A
 \HF=-173.8267214\S2=0.753007\S2-1=0.\S2A=0.750006\RMSD=1.618e-09\RMSF=
 3.850e-05\ZeroPoint=0.1076113\Thermal=0.113191\Dipole=-0.0002838,-0.41
 99825,-0.0518268\DipoleDeriv=0.0877921,0.0002319,0.0000109,0.0002793,0
 .4125021,0.1329076,-0.0000674,-0.0313384,-0.2791564,-0.0991709,0.08362
 37,-0.0240928,0.0430117,-0.0130664,-0.0031348,-0.082437,0.0956038,0.12
 684,-0.0993133,-0.0834886,0.0241533,-0.0429013,-0.0128998,-0.0031609,0
 .0826273,0.0955029,0.1267918,-0.5781256,-0.0002521,-0.0000251,-0.00016
 75,-0.7515265,-0.028131,-0.0002416,-0.3326636,-0.4331357,0.4351889,0.2
 727593,-0.0649868,0.1954672,0.3163975,-0.040106,-0.0524244,0.0030605,0
 .4004983,0.0411322,0.013869,0.0319051,-0.0509502,-0.1212457,-0.0845232
 ,0.0136965,-0.0932337,-0.0065882,-0.0376966,-0.0818413,-0.0199634,-0.0
 609753,-0.0163484,0.0233953,0.1106433,0.1353742,-0.2010865,-0.0939321,
 0.0336394,-0.0406412,0.1070833,0.0034182,0.0520358,-0.0479486,0.041235
 1,0.0364961,0.4345983,-0.2727799,0.0649473,-0.1955074,0.3168871,-0.040
 1274,0.0524182,0.0030276,0.4004642,0.0411925,-0.0141236,-0.0320184,0.0
 506934,-0.1213178,-0.084418,-0.0138318,-0.0931634,-0.0064694,-0.094125
 8,-0.0334932,0.0407669,-0.1069487,0.0036212,0.0520437,0.0480761,0.0412
 107,0.0364061,-0.0375397,0.0818552,0.0199442,0.0609153,-0.0164217,0.02
 32188,-0.1105107,0.1353843,-0.2010604\Polar=42.4237048,0.0047883,48.05
 05588,-0.0007199,0.2146007,29.8407185\Quadrupole=1.6491838,0.0039361,-
 1.6531199,-0.0011098,-0.0004271,-0.3836511\PG=C01 [X(C3H8N1)]\NImag=0\
 \0.66772195,-0.00007258,0.61298846,-0.00004199,0.03918378,0.08584156,-
 0.27263519,0.12000472,-0.03686226,0.28144120,0.11097380,-0.11786484,0.
 01690481,-0.12894244,0.13009946,-0.06065520,0.02755337,-0.02261639,0.0
 4393913,-0.01942689,0.01794016,-0.27287122,-0.11976117,0.03694512,-0.0
 1383500,-0.01248467,0.00615909,0.28171581,-0.11073538,-0.11754543,0.01
 688228,0.01251514,0.01008388,-0.00267488,0.12870565,0.12974780,0.06075
 307,0.02750067,-0.02265198,-0.00615853,-0.00266335,0.00109442,-0.04402
 866,-0.01939801,0.01797276,-0.10919803,-0.00015629,-0.00004811,0.00129
 633,0.02974902,0.01140818,0.00125639,-0.02977063,-0.01141419,0.5786355
 5,-0.00015637,-0.33721600,-0.08970918,-0.00178931,-0.01730711,-0.00364
 908,0.00176141,-0.01727335,-0.00363444,0.00013410,0.67986396,-0.000043
 50,-0.07603292,-0.04240363,-0.00107842,0.00671543,0.00312766,0.0010858
 2,0.00671878,0.00313084,0.00001236,0.03199270,0.15609090,-0.00184413,-
 0.01016275,0.00493543,0.00073496,0.00310898,-0.00152510,0.00106986,0.0
 0270165,-0.00050454,-0.18714760,-0.05142085,0.01198448,0.53301901,-0.0
 3466034,-0.02698507,0.00842616,-0.00157951,0.00068932,-0.00070281,0.00
 051246,-0.00506720,-0.00106896,-0.05415716,-0.13301508,0.00707046,-0.0
 5560954,0.58914261,-0.00997997,-0.01091149,-0.00213919,0.00082817,0.00
 019035,-0.00067246,0.00010918,-0.00177824,0.00196923,0.03569360,0.0237
 1479,-0.06584317,0.02444944,0.01782803,0.54669332,-0.00549841,-0.00038
 776,-0.00006245,0.00044418,-0.00016641,0.00027600,0.00035487,-0.001583
 31,0.00003815,-0.00332325,-0.03210018,-0.01378227,-0.05213112,0.015882
 64,0.00766873,0.05704864,-0.00391055,0.00086349,-0.00063722,-0.0000718
 8,0.00034918,-0.00004804,-0.00017779,-0.00085485,-0.00018978,-0.003345
 09,-0.02081930,-0.00478660,0.00877061,-0.24245813,-0.11316943,-0.00350
 562,0.26796443,0.00082851,0.00142914,0.00076896,0.00014901,-0.00002689
 ,-0.00018863,0.00013479,0.00034703,0.00038202,-0.00061771,0.00819953,0
 .00516525,0.00492574,-0.11670829,-0.12012985,-0.00805941,0.12465048,0.
 12347041,0.00046019,0.00324427,-0.00034383,-0.00009610,-0.00032233,0.0
 0028416,0.00000649,-0.00021514,-0.00007811,-0.01494556,-0.01392818,0.0
 3214292,-0.05232124,-0.00130081,0.01784380,0.00050539,0.00071046,0.002
 14899,0.05839077,0.00042668,0.00466699,0.00095061,0.00006683,-0.000164
 88,0.00062700,-0.00008737,-0.00015155,-0.00064972,-0.01082378,-0.00942
 901,0.01990120,-0.00084025,-0.05877062,0.03824690,0.00256583,0.0064933
 7,-0.02841790,0.00945842,0.05999177,-0.00072229,0.00041704,0.00256033,
 -0.00012025,0.00011550,-0.00088014,0.00012165,0.00016477,-0.00048804,0
 .01189942,0.00580786,-0.00165207,0.01580136,0.03870775,-0.27979508,0.0
 0003543,0.00235086,-0.01579779,-0.02758075,-0.04821554,0.30470265,0.00
 034740,0.00273712,0.00008617,0.00065113,-0.00109113,-0.00002517,0.0005
 6866,-0.00008772,0.00040236,-0.03070439,0.01441336,-0.00695033,-0.2051
 6570,0.10833371,-0.06495277,0.00120294,0.00029117,0.00077002,0.0038616
 9,-0.00127996,0.00003198,0.23335488,-0.00194144,0.00130757,-0.00037225
 ,0.00003599,-0.00017102,0.00027800,-0.00001736,0.00035958,-0.00004873,
 -0.01700432,0.00930935,-0.00689146,0.11708827,-0.13271143,0.04782274,0
 .02077095,-0.01290950,0.01052700,0.00364190,-0.00262747,0.00095757,-0.
 11900862,0.13822631,-0.00067329,-0.00002990,-0.00027763,-0.00010588,-0
 .00032887,0.00038771,0.00022498,-0.00021270,-0.00005604,0.00753823,-0.
 00525162,0.00236480,-0.06902868,0.04810470,-0.07898848,0.01452035,-0.0
 0850698,0.00635778,-0.02531870,0.01853891,-0.00972544,0.07064894,-0.05
 288842,0.07889124,-0.00178978,0.01013363,-0.00492852,0.00106579,-0.002
 70941,0.00050302,0.00073286,-0.00310896,0.00152403,-0.18696758,0.05144
 139,-0.01196444,-0.03884370,0.01271436,-0.00875109,0.00154946,0.002179
 09,0.00014831,0.00416081,0.00151122,-0.00150930,-0.00309060,-0.0027129
 3,0.00115207,0.53304179,0.03463422,-0.02705363,0.00842715,-0.00051938,
 -0.00506501,-0.00106904,0.00158056,0.00068981,-0.00070496,0.05418159,-
 0.13310627,0.00708434,-0.01265247,0.01138316,-0.00221094,-0.00261191,0
 .00013527,-0.00018158,-0.00216021,-0.00044656,0.00046539,-0.00509417,-
 0.00188617,0.00027963,0.05568192,0.58900920,0.00996311,-0.01092313,-0.
 00213553,-0.00010963,-0.00177950,0.00196772,-0.00082823,0.00019169,-0.
 00067067,-0.03566264,0.02375047,-0.06585427,0.00875385,-0.00222138,-0.
 00244684,-0.00114573,0.00029075,0.00000653,0.00349905,-0.00019064,0.00
 107956,0.00055810,0.00016498,0.00026950,-0.02442946,0.01789219,0.54677
 272,-0.00549512,0.00039711,0.00006019,0.00035709,0.00158293,-0.0000383
 5,0.00044464,0.00016628,-0.00027600,-0.00327041,0.03208063,0.01376669,
 0.00154998,0.00261000,0.00114693,-0.00023286,-0.00079934,-0.00037309,-
 0.00031565,-0.00037026,-0.00008074,0.00039524,0.00003594,-0.00005781,-
 0.05216488,-0.01614870,-0.00782240,0.05706098,0.00391951,0.00085639,-0
 .00063548,0.00017640,-0.00085725,-0.00018954,0.00007185,0.00034905,-0.
 00004796,0.00331198,-0.02085681,-0.00479970,-0.00218177,0.00013547,0.0
 0028831,0.00080090,0.00075925,0.00003453,0.00020431,0.00009116,-0.0003
 4767,-0.00006280,0.00038584,0.00036054,-0.00903066,-0.24255872,-0.1131
 0909,0.00380474,0.26809275,-0.00082597,0.00142797,0.00076917,-0.000134
 47,0.00034720,0.00038298,-0.00014948,-0.00002680,-0.00018889,0.0006289
 5,0.00820053,0.00515581,-0.00014816,-0.00018032,0.00000752,0.00037259,
 0.00003343,0.00024731,-0.00006777,-0.00021033,-0.00032443,0.00012372,0
 .00035665,0.00004153,-0.00508539,-0.11665121,-0.12002739,0.00822763,0.
 12458374,0.12334857,0.00034525,-0.00273598,-0.00008658,0.00056871,0.00
 008758,-0.00040297,0.00065256,0.00109011,0.00002568,-0.03070056,-0.014
 35766,0.00695068,-0.00308178,0.00509678,-0.00055485,0.00039513,0.00006
 268,-0.00012323,-0.00003536,-0.00007700,0.00023970,-0.00138544,-0.0007
 7001,0.00045336,-0.20537476,-0.10818341,0.06509193,0.00117307,-0.00031
 133,-0.00075553,0.23357914,0.00194307,0.00130834,-0.00037218,0.0000171
 2,0.00035952,-0.00004834,-0.00003667,-0.00017242,0.00027829,0.01704760
 ,0.00930011,-0.00690948,0.00271315,-0.00189533,0.00016461,-0.00003626,
 0.00038586,0.00035700,0.00011860,-0.00002690,0.00007459,0.00077232,0.0
 0074336,0.00001881,-0.11693166,-0.13237766,0.04779224,-0.02079276,-0.0
 1288365,0.01054316,0.11882334,0.13787311,0.00067330,-0.00003051,-0.000
 27783,-0.00022548,-0.00021262,-0.00005586,0.00010540,-0.00032946,0.000
 38746,-0.00754608,-0.00524244,0.00237246,-0.00115343,0.00028133,0.0002
 6809,0.00005811,0.00036021,0.00004189,-0.00064608,-0.00008382,0.000290
 79,-0.00045359,0.00001898,0.00044411,0.06916862,0.04806660,-0.07907290
 ,-0.01451778,-0.00847969,0.00636115,-0.07080404,-0.05285535,0.07898627
 ,0.00045709,-0.00324031,0.00034683,0.00000691,0.00021407,0.00007721,-0
 .00009594,0.00032231,-0.00028327,-0.01493090,0.01392166,-0.03212398,0.
 00416144,0.00215740,-0.00350117,-0.00031497,-0.00020374,0.00006806,0.0
 0032857,-0.00055037,0.00188378,-0.00003580,-0.00011836,0.00064644,-0.0
 5231940,0.00129198,-0.01786796,0.00049792,-0.00070312,-0.00218612,0.00
 386403,-0.00363786,0.02534106,0.05838105,-0.00042063,0.00467373,0.0009
 5151,0.00008632,-0.00015126,-0.00064974,-0.00006691,-0.00016531,0.0006
 2695,0.01083298,-0.00945048,0.01993726,-0.00151501,-0.00044770,-0.0001
 8563,0.00037113,0.00009093,-0.00021003,0.00054870,0.00037370,-0.000498
 14,0.00007673,-0.00002642,-0.00008410,0.00083200,-0.05872342,0.0381414
 2,-0.00256656,0.00648653,-0.02842401,0.00127491,-0.00261433,0.01850678
 ,-0.00945365,0.05995404,0.00072422,0.00041598,0.00256215,-0.00012139,0
 .00016483,-0.00048716,0.00012034,0.00011553,-0.00088112,-0.01189201,0.
 00582088,-0.00165457,0.00150961,0.00046335,0.00107692,0.00008050,-0.00
 034768,-0.00032386,-0.00188370,-0.00049667,0.00002968,-0.00023943,0.00
 007495,0.00029090,-0.01582785,0.03860242,-0.27988844,-0.00003527,0.002
 34200,-0.01577334,-0.00003416,0.00095666,-0.00974562,0.02759914,-0.048
 11225,0.30479446\\-0.00000416,-0.00009434,0.00001527,0.00000824,0.0000
 6732,-0.00000135,0.00000903,0.00007737,-0.00000552,-0.00003478,-0.0001
 1969,0.00002234,-0.00000287,0.00003965,-0.00002459,-0.00000747,0.00001
 751,0.00003668,0.00000030,-0.00000049,-0.00005564,0.00003809,-0.000022
 33,0.00002471,0.00001316,0.00001146,-0.00000413,0.00000814,0.00002355,
 0.00003051,-0.00002782,-0.00001828,0.00002486,0.00000013,0.00001829,-0
 .00006313\\\@


 If your ship doesn't come in, swim out to it!
                          -- Jonathan Winters
 Job cpu time:       0 days  0 hours  4 minutes 15.1 seconds.
 Elapsed time:       0 days  0 hours  0 minutes 10.1 seconds.
 File lengths (MBytes):  RWF=     19 Int=      0 D2E=      0 Chk=      2 Scr=      1
 Normal termination of Gaussian 16 at Fri Aug 11 18:49:27 2023.
