 Entering Gaussian System, Link 0=g16
 Initial command:
 /public/software/apps/Gaussian/g16/l1.exe "/public/home/LLG_HG/tmp/Gau-101154.inp" -scrdir="/public/home/LLG_HG/tmp/"
 Entering Link 1 = /public/software/apps/Gaussian/g16/l1.exe PID=    101155.
  
 Copyright (c) 1988-2019, Gaussian, Inc.  All Rights Reserved.
  
 This is part of the Gaussian(R) 16 program.  It is based on
 the Gaussian(R) 09 system (copyright 2009, Gaussian, Inc.),
 the Gaussian(R) 03 system (copyright 2003, Gaussian, Inc.),
 the Gaussian(R) 98 system (copyright 1998, Gaussian, Inc.),
 the Gaussian(R) 94 system (copyright 1995, Gaussian, Inc.),
 the Gaussian 92(TM) system (copyright 1992, Gaussian, Inc.),
 the Gaussian 90(TM) system (copyright 1990, Gaussian, Inc.),
 the Gaussian 88(TM) system (copyright 1988, Gaussian, Inc.),
 the Gaussian 86(TM) system (copyright 1986, Carnegie Mellon
 University), and the Gaussian 82(TM) system (copyright 1983,
 Carnegie Mellon University). Gaussian is a federally registered
 trademark of Gaussian, Inc.
  
 This software contains proprietary and confidential information,
 including trade secrets, belonging to Gaussian, Inc.
  
 This software is provided under written license and may be
 used, copied, transmitted, or stored only in accord with that
 written license.
  
 The following legend is applicable only to US Government
 contracts under FAR:
  
                    RESTRICTED RIGHTS LEGEND
  
 Use, reproduction and disclosure by the US Government is
 subject to restrictions as set forth in subparagraphs (a)
 and (c) of the Commercial Computer Software - Restricted
 Rights clause in FAR 52.227-19.
  
 Gaussian, Inc.
 340 Quinnipiac St., Bldg. 40, Wallingford CT 06492
  
  
 ---------------------------------------------------------------
 Warning -- This program may not be used in any manner that
 competes with the business of Gaussian, Inc. or will provide
 assistance to any competitor of Gaussian, Inc.  The licensee
 of this program is prohibited from giving any competitor of
 Gaussian, Inc. access to this program.  By using this program,
 the user acknowledges that Gaussian, Inc. is engaged in the
 business of creating and licensing software in the field of
 computational chemistry and represents and warrants to the
 licensee that it is not a competitor of Gaussian, Inc. and that
 it will not use this program in any manner prohibited above.
 ---------------------------------------------------------------
  

 Cite this work as:
 Gaussian 16, Revision C.01,
 M. J. Frisch, G. W. Trucks, H. B. Schlegel, G. E. Scuseria, 
 M. A. Robb, J. R. Cheeseman, G. Scalmani, V. Barone, 
 G. A. Petersson, H. Nakatsuji, X. Li, M. Caricato, A. V. Marenich, 
 J. Bloino, B. G. Janesko, R. Gomperts, B. Mennucci, H. P. Hratchian, 
 J. V. Ortiz, A. F. Izmaylov, J. L. Sonnenberg, D. Williams-Young, 
 F. Ding, F. Lipparini, F. Egidi, J. Goings, B. Peng, A. Petrone, 
 T. Henderson, D. Ranasinghe, V. G. Zakrzewski, J. Gao, N. Rega, 
 G. Zheng, W. Liang, M. Hada, M. Ehara, K. Toyota, R. Fukuda, 
 J. Hasegawa, M. Ishida, T. Nakajima, Y. Honda, O. Kitao, H. Nakai, 
 T. Vreven, K. Throssell, J. A. Montgomery, Jr., J. E. Peralta, 
 F. Ogliaro, M. J. Bearpark, J. J. Heyd, E. N. Brothers, K. N. Kudin, 
 V. N. Staroverov, T. A. Keith, R. Kobayashi, J. Normand, 
 K. Raghavachari, A. P. Rendell, J. C. Burant, S. S. Iyengar, 
 J. Tomasi, M. Cossi, J. M. Millam, M. Klene, C. Adamo, R. Cammi, 
 J. W. Ochterski, R. L. Martin, K. Morokuma, O. Farkas, 
 J. B. Foresman, and D. J. Fox, Gaussian, Inc., Wallingford CT, 2019.
 
 ******************************************
 Gaussian 16:  ES64L-G16RevC.01  3-Jul-2019
                25-Nov-2023 
 ******************************************
 %nprocs=32
 Will use up to   32 processors via shared memory.
 %mem=80GB
 ----------------------------------------------------------
 # opt=(maxstep=1,notrust,gdiis) freq genecp em=gd3bj b3lyp
 ----------------------------------------------------------

 Warning!  Use of Opt=GDIIS is deprecated since it is seldom a good choice.

 1/8=1,9=1,18=20,19=11,26=3,38=1/1,3;
 2/9=110,12=2,17=6,18=5,40=1/2;
 3/5=7,11=2,16=1,17=8,25=1,30=1,71=1,74=-5,124=41/1,2,3;
 4//1;
 5/5=2,38=5/2;
 6/7=2,8=2,9=2,10=2,28=1/1;
 7//1,2,3,16;
 1/8=1,9=1,18=20,19=11,26=3/3(2);
 2/9=110/2;
 99//99;
 2/9=110/2;
 3/5=7,6=1,11=2,16=1,17=8,25=1,30=1,71=1,74=-5,82=7,124=41/1,2,3;
 4/5=5,16=3,69=1/1;
 5/5=2,38=5/2;
 7//1,2,3,16;
 1/8=1,9=1,18=20,19=11,26=3/3(-5);
 2/9=110/2;
 6/7=2,8=2,9=2,10=2,19=2,28=1/1;
 99/9=1/99;
 -------------------
 Title Card Required
 -------------------
 Symbolic Z-matrix:
 Charge =  0 Multiplicity = 1
 C                    -2.99737  -0.32969  -0.23741 
 C                    -3.18941  -1.09105  -1.36249 
 C                    -2.11769  -1.34086  -2.25395 
 C                    -0.82968  -0.79423  -1.96925 
 C                    -0.64976  -0.01531  -0.78682 
 C                    -1.72442   0.20821   0.04786 
 H                    -3.27326  -2.53252  -3.6353 
 H                    -3.82285  -0.13823   0.44182 
 H                    -4.16622  -1.51142  -1.58745 
 C                    -2.29013  -2.11857  -3.42585 
 C                     0.23098  -1.04023  -2.87711 
 H                    -1.57959   0.80808   0.94197 
 C                     0.03071  -1.79867  -4.00435 
 C                    -1.24139  -2.34556  -4.28179 
 H                     1.20594  -0.61159  -2.66503 
 H                     0.85359  -1.97705  -4.69034 
 H                    -1.38731  -2.9437   -5.17647 
 C                     2.59782  -2.56304   0.38849 
 C                     1.56179  -1.74037   0.02027 
 C                     1.74423  -0.33632  -0.0715 
 C                     3.02861   0.20382   0.2383 
 C                     4.07757  -0.67245   0.61058 
 C                     3.87047  -2.02708   0.68405 
 H                     2.43806  -3.6353    0.45536 
 H                     0.58477  -2.15593  -0.20417 
 C                     0.68704   0.54443  -0.44867 
 C                     3.21474   1.60383   0.1676 
 H                     5.05202  -0.2485    0.84 
 H                     4.68158  -2.68932   0.97217 
 C                     2.17905   2.42803  -0.18858 
 C                     0.89697   1.91435  -0.50154 
 H                     4.19284   2.01679   0.40089 
 H                     2.33477   3.50264  -0.23976 
 C                    -0.21227   2.85699  -0.87488 
 H                     0.1716    3.86479  -1.05173 
 H                    -0.73484   2.52133  -1.77538 
 H                    -0.96382   2.91641  -0.07913 
 

 GradGradGradGradGradGradGradGradGradGradGradGradGradGradGradGradGradGrad
 Berny optimization.
 Initialization pass.
                           ----------------------------
                           !    Initial Parameters    !
                           ! (Angstroms and Degrees)  !
 --------------------------                            --------------------------
 ! Name  Definition              Value          Derivative Info.                !
 --------------------------------------------------------------------------------
 ! R1    R(1,2)                  1.372          estimate D2E/DX2                !
 ! R2    R(1,6)                  1.4111         estimate D2E/DX2                !
 ! R3    R(1,8)                  1.086          estimate D2E/DX2                !
 ! R4    R(2,3)                  1.4162         estimate D2E/DX2                !
 ! R5    R(2,9)                  1.087          estimate D2E/DX2                !
 ! R6    R(3,4)                  1.4279         estimate D2E/DX2                !
 ! R7    R(3,10)                 1.417          estimate D2E/DX2                !
 ! R8    R(4,5)                  1.4273         estimate D2E/DX2                !
 ! R9    R(4,11)                 1.4176         estimate D2E/DX2                !
 ! R10   R(5,6)                  1.379          estimate D2E/DX2                !
 ! R11   R(5,26)                 1.4882         estimate D2E/DX2                !
 ! R12   R(6,12)                 1.0864         estimate D2E/DX2                !
 ! R13   R(7,10)                 1.0871         estimate D2E/DX2                !
 ! R14   R(10,14)                1.3726         estimate D2E/DX2                !
 ! R15   R(11,13)                1.3733         estimate D2E/DX2                !
 ! R16   R(11,15)                1.0859         estimate D2E/DX2                !
 ! R17   R(13,14)                1.4122         estimate D2E/DX2                !
 ! R18   R(13,16)                1.0861         estimate D2E/DX2                !
 ! R19   R(14,17)                1.0861         estimate D2E/DX2                !
 ! R20   R(18,19)                1.3732         estimate D2E/DX2                !
 ! R21   R(18,23)                1.4122         estimate D2E/DX2                !
 ! R22   R(18,24)                1.0862         estimate D2E/DX2                !
 ! R23   R(19,20)                1.4188         estimate D2E/DX2                !
 ! R24   R(19,25)                1.0852         estimate D2E/DX2                !
 ! R25   R(20,21)                1.4274         estimate D2E/DX2                !
 ! R26   R(20,26)                1.4268         estimate D2E/DX2                !
 ! R27   R(21,22)                1.4166         estimate D2E/DX2                !
 ! R28   R(21,27)                1.4141         estimate D2E/DX2                !
 ! R29   R(22,23)                1.3723         estimate D2E/DX2                !
 ! R30   R(22,28)                1.0872         estimate D2E/DX2                !
 ! R31   R(23,29)                1.086          estimate D2E/DX2                !
 ! R32   R(26,31)                1.3869         estimate D2E/DX2                !
 ! R33   R(27,30)                1.3707         estimate D2E/DX2                !
 ! R34   R(27,32)                1.087          estimate D2E/DX2                !
 ! R35   R(30,31)                1.4162         estimate D2E/DX2                !
 ! R36   R(30,33)                1.087          estimate D2E/DX2                !
 ! R37   R(31,34)                1.5028         estimate D2E/DX2                !
 ! R38   R(34,35)                1.0928         estimate D2E/DX2                !
 ! R39   R(34,36)                1.0939         estimate D2E/DX2                !
 ! R40   R(34,37)                1.0962         estimate D2E/DX2                !
 ! A1    A(2,1,6)              120.2383         estimate D2E/DX2                !
 ! A2    A(2,1,8)              120.2858         estimate D2E/DX2                !
 ! A3    A(6,1,8)              119.4758         estimate D2E/DX2                !
 ! A4    A(1,2,3)              120.5401         estimate D2E/DX2                !
 ! A5    A(1,2,9)              120.6714         estimate D2E/DX2                !
 ! A6    A(3,2,9)              118.7883         estimate D2E/DX2                !
 ! A7    A(2,3,4)              119.3135         estimate D2E/DX2                !
 ! A8    A(2,3,10)             121.6884         estimate D2E/DX2                !
 ! A9    A(4,3,10)             118.998          estimate D2E/DX2                !
 ! A10   A(3,4,5)              119.1962         estimate D2E/DX2                !
 ! A11   A(3,4,11)             118.7362         estimate D2E/DX2                !
 ! A12   A(5,4,11)             122.0671         estimate D2E/DX2                !
 ! A13   A(4,5,6)              119.4498         estimate D2E/DX2                !
 ! A14   A(4,5,26)             120.4461         estimate D2E/DX2                !
 ! A15   A(6,5,26)             120.1026         estimate D2E/DX2                !
 ! A16   A(1,6,5)              121.2573         estimate D2E/DX2                !
 ! A17   A(1,6,12)             119.8109         estimate D2E/DX2                !
 ! A18   A(5,6,12)             118.9315         estimate D2E/DX2                !
 ! A19   A(3,10,7)             118.5799         estimate D2E/DX2                !
 ! A20   A(3,10,14)            120.8981         estimate D2E/DX2                !
 ! A21   A(7,10,14)            120.522          estimate D2E/DX2                !
 ! A22   A(4,11,13)            120.8224         estimate D2E/DX2                !
 ! A23   A(4,11,15)            118.5651         estimate D2E/DX2                !
 ! A24   A(13,11,15)           120.6118         estimate D2E/DX2                !
 ! A25   A(11,13,14)           120.4303         estimate D2E/DX2                !
 ! A26   A(11,13,16)           119.9118         estimate D2E/DX2                !
 ! A27   A(14,13,16)           119.6574         estimate D2E/DX2                !
 ! A28   A(10,14,13)           120.1126         estimate D2E/DX2                !
 ! A29   A(10,14,17)           120.1414         estimate D2E/DX2                !
 ! A30   A(13,14,17)           119.7458         estimate D2E/DX2                !
 ! A31   A(19,18,23)           120.5748         estimate D2E/DX2                !
 ! A32   A(19,18,24)           119.7983         estimate D2E/DX2                !
 ! A33   A(23,18,24)           119.6267         estimate D2E/DX2                !
 ! A34   A(18,19,20)           120.8753         estimate D2E/DX2                !
 ! A35   A(18,19,25)           120.3513         estimate D2E/DX2                !
 ! A36   A(20,19,25)           118.7733         estimate D2E/DX2                !
 ! A37   A(19,20,21)           118.4342         estimate D2E/DX2                !
 ! A38   A(19,20,26)           122.1882         estimate D2E/DX2                !
 ! A39   A(21,20,26)           119.3748         estimate D2E/DX2                !
 ! A40   A(20,21,22)           119.2921         estimate D2E/DX2                !
 ! A41   A(20,21,27)           118.8317         estimate D2E/DX2                !
 ! A42   A(22,21,27)           121.8759         estimate D2E/DX2                !
 ! A43   A(21,22,23)           120.8578         estimate D2E/DX2                !
 ! A44   A(21,22,28)           118.5517         estimate D2E/DX2                !
 ! A45   A(23,22,28)           120.5903         estimate D2E/DX2                !
 ! A46   A(18,23,22)           119.9623         estimate D2E/DX2                !
 ! A47   A(18,23,29)           119.8119         estimate D2E/DX2                !
 ! A48   A(22,23,29)           120.2255         estimate D2E/DX2                !
 ! A49   A(5,26,20)            119.5696         estimate D2E/DX2                !
 ! A50   A(5,26,31)            119.9215         estimate D2E/DX2                !
 ! A51   A(20,26,31)           120.5088         estimate D2E/DX2                !
 ! A52   A(21,27,30)           120.5871         estimate D2E/DX2                !
 ! A53   A(21,27,32)           118.9347         estimate D2E/DX2                !
 ! A54   A(30,27,32)           120.4782         estimate D2E/DX2                !
 ! A55   A(27,30,31)           121.5582         estimate D2E/DX2                !
 ! A56   A(27,30,33)           119.8955         estimate D2E/DX2                !
 ! A57   A(31,30,33)           118.5457         estimate D2E/DX2                !
 ! A58   A(26,31,30)           119.1358         estimate D2E/DX2                !
 ! A59   A(26,31,34)           121.1531         estimate D2E/DX2                !
 ! A60   A(30,31,34)           119.7098         estimate D2E/DX2                !
 ! A61   A(31,34,35)           111.0628         estimate D2E/DX2                !
 ! A62   A(31,34,36)           111.3854         estimate D2E/DX2                !
 ! A63   A(31,34,37)           111.083          estimate D2E/DX2                !
 ! A64   A(35,34,36)           108.5148         estimate D2E/DX2                !
 ! A65   A(35,34,37)           107.9583         estimate D2E/DX2                !
 ! A66   A(36,34,37)           106.6599         estimate D2E/DX2                !
 ! D1    D(6,1,2,3)             -0.3365         estimate D2E/DX2                !
 ! D2    D(6,1,2,9)            179.8081         estimate D2E/DX2                !
 ! D3    D(8,1,2,3)            179.8148         estimate D2E/DX2                !
 ! D4    D(8,1,2,9)             -0.0406         estimate D2E/DX2                !
 ! D5    D(2,1,6,5)             -0.0611         estimate D2E/DX2                !
 ! D6    D(2,1,6,12)          -179.8496         estimate D2E/DX2                !
 ! D7    D(8,1,6,5)            179.7888         estimate D2E/DX2                !
 ! D8    D(8,1,6,12)             0.0003         estimate D2E/DX2                !
 ! D9    D(1,2,3,4)              0.1495         estimate D2E/DX2                !
 ! D10   D(1,2,3,10)          -179.7115         estimate D2E/DX2                !
 ! D11   D(9,2,3,4)           -179.9924         estimate D2E/DX2                !
 ! D12   D(9,2,3,10)             0.1465         estimate D2E/DX2                !
 ! D13   D(2,3,4,5)              0.4189         estimate D2E/DX2                !
 ! D14   D(2,3,4,11)          -179.3455         estimate D2E/DX2                !
 ! D15   D(10,3,4,5)          -179.7163         estimate D2E/DX2                !
 ! D16   D(10,3,4,11)            0.5193         estimate D2E/DX2                !
 ! D17   D(2,3,10,7)            -0.2174         estimate D2E/DX2                !
 ! D18   D(2,3,10,14)          179.7083         estimate D2E/DX2                !
 ! D19   D(4,3,10,7)           179.9211         estimate D2E/DX2                !
 ! D20   D(4,3,10,14)           -0.1532         estimate D2E/DX2                !
 ! D21   D(3,4,5,6)             -0.8043         estimate D2E/DX2                !
 ! D22   D(3,4,5,26)           178.7497         estimate D2E/DX2                !
 ! D23   D(11,4,5,6)           178.9519         estimate D2E/DX2                !
 ! D24   D(11,4,5,26)           -1.4941         estimate D2E/DX2                !
 ! D25   D(3,4,11,13)           -0.5418         estimate D2E/DX2                !
 ! D26   D(3,4,11,15)          179.1563         estimate D2E/DX2                !
 ! D27   D(5,4,11,13)          179.701          estimate D2E/DX2                !
 ! D28   D(5,4,11,15)           -0.601          estimate D2E/DX2                !
 ! D29   D(4,5,6,1)              0.6339         estimate D2E/DX2                !
 ! D30   D(4,5,6,12)          -179.5757         estimate D2E/DX2                !
 ! D31   D(26,5,6,1)          -178.9216         estimate D2E/DX2                !
 ! D32   D(26,5,6,12)            0.8687         estimate D2E/DX2                !
 ! D33   D(4,5,26,20)          -68.5227         estimate D2E/DX2                !
 ! D34   D(4,5,26,31)          111.4937         estimate D2E/DX2                !
 ! D35   D(6,5,26,20)          111.0284         estimate D2E/DX2                !
 ! D36   D(6,5,26,31)          -68.9552         estimate D2E/DX2                !
 ! D37   D(3,10,14,13)          -0.2061         estimate D2E/DX2                !
 ! D38   D(3,10,14,17)         179.9869         estimate D2E/DX2                !
 ! D39   D(7,10,14,13)         179.7181         estimate D2E/DX2                !
 ! D40   D(7,10,14,17)          -0.0888         estimate D2E/DX2                !
 ! D41   D(4,11,13,14)           0.1887         estimate D2E/DX2                !
 ! D42   D(4,11,13,16)         179.9452         estimate D2E/DX2                !
 ! D43   D(15,11,13,14)       -179.5031         estimate D2E/DX2                !
 ! D44   D(15,11,13,16)          0.2533         estimate D2E/DX2                !
 ! D45   D(11,13,14,10)          0.1923         estimate D2E/DX2                !
 ! D46   D(11,13,14,17)       -180.0            estimate D2E/DX2                !
 ! D47   D(16,13,14,10)       -179.5647         estimate D2E/DX2                !
 ! D48   D(16,13,14,17)          0.243          estimate D2E/DX2                !
 ! D49   D(23,18,19,20)         -0.0174         estimate D2E/DX2                !
 ! D50   D(23,18,19,25)       -179.8796         estimate D2E/DX2                !
 ! D51   D(24,18,19,20)        179.8595         estimate D2E/DX2                !
 ! D52   D(24,18,19,25)         -0.0027         estimate D2E/DX2                !
 ! D53   D(19,18,23,22)          0.3185         estimate D2E/DX2                !
 ! D54   D(19,18,23,29)       -179.8828         estimate D2E/DX2                !
 ! D55   D(24,18,23,22)       -179.5585         estimate D2E/DX2                !
 ! D56   D(24,18,23,29)          0.2401         estimate D2E/DX2                !
 ! D57   D(18,19,20,21)         -0.4839         estimate D2E/DX2                !
 ! D58   D(18,19,20,26)       -179.8752         estimate D2E/DX2                !
 ! D59   D(25,19,20,21)        179.3805         estimate D2E/DX2                !
 ! D60   D(25,19,20,26)         -0.0109         estimate D2E/DX2                !
 ! D61   D(19,20,21,22)          0.688          estimate D2E/DX2                !
 ! D62   D(19,20,21,27)       -179.1316         estimate D2E/DX2                !
 ! D63   D(26,20,21,22)       -179.9031         estimate D2E/DX2                !
 ! D64   D(26,20,21,27)          0.2773         estimate D2E/DX2                !
 ! D65   D(19,20,26,5)          -1.2713         estimate D2E/DX2                !
 ! D66   D(19,20,26,31)        178.7122         estimate D2E/DX2                !
 ! D67   D(21,20,26,5)         179.3429         estimate D2E/DX2                !
 ! D68   D(21,20,26,31)         -0.6736         estimate D2E/DX2                !
 ! D69   D(20,21,22,23)         -0.4051         estimate D2E/DX2                !
 ! D70   D(20,21,22,28)        179.7504         estimate D2E/DX2                !
 ! D71   D(27,21,22,23)        179.4088         estimate D2E/DX2                !
 ! D72   D(27,21,22,28)         -0.4357         estimate D2E/DX2                !
 ! D73   D(20,21,27,30)          0.1773         estimate D2E/DX2                !
 ! D74   D(20,21,27,32)       -179.8559         estimate D2E/DX2                !
 ! D75   D(22,21,27,30)       -179.6375         estimate D2E/DX2                !
 ! D76   D(22,21,27,32)          0.3294         estimate D2E/DX2                !
 ! D77   D(21,22,23,18)         -0.1011         estimate D2E/DX2                !
 ! D78   D(21,22,23,29)       -179.8989         estimate D2E/DX2                !
 ! D79   D(28,22,23,18)        179.7402         estimate D2E/DX2                !
 ! D80   D(28,22,23,29)         -0.0576         estimate D2E/DX2                !
 ! D81   D(5,26,31,30)        -179.4116         estimate D2E/DX2                !
 ! D82   D(5,26,31,34)           1.0049         estimate D2E/DX2                !
 ! D83   D(20,26,31,30)          0.6049         estimate D2E/DX2                !
 ! D84   D(20,26,31,34)       -178.9785         estimate D2E/DX2                !
 ! D85   D(21,27,30,31)         -0.2516         estimate D2E/DX2                !
 ! D86   D(21,27,30,33)       -179.9736         estimate D2E/DX2                !
 ! D87   D(32,27,30,31)        179.7821         estimate D2E/DX2                !
 ! D88   D(32,27,30,33)          0.0601         estimate D2E/DX2                !
 ! D89   D(27,30,31,26)         -0.1432         estimate D2E/DX2                !
 ! D90   D(27,30,31,34)        179.4464         estimate D2E/DX2                !
 ! D91   D(33,30,31,26)        179.5824         estimate D2E/DX2                !
 ! D92   D(33,30,31,34)         -0.828          estimate D2E/DX2                !
 ! D93   D(26,31,34,35)       -169.1355         estimate D2E/DX2                !
 ! D94   D(26,31,34,36)        -48.0537         estimate D2E/DX2                !
 ! D95   D(26,31,34,37)         70.6937         estimate D2E/DX2                !
 ! D96   D(30,31,34,35)         11.2834         estimate D2E/DX2                !
 ! D97   D(30,31,34,36)        132.3652         estimate D2E/DX2                !
 ! D98   D(30,31,34,37)       -108.8873         estimate D2E/DX2                !
 --------------------------------------------------------------------------------
 Trust Radius=1.00D-02 FncErr=1.00D-07 GrdErr=1.00D-06 EigMax=2.50D+02 EigMin=1.00D-04
 Number of steps in this run=    214 maximum allowed number of steps=    222.
 GradGradGradGradGradGradGradGradGradGradGradGradGradGradGradGradGradGrad

                          Input orientation:                          
 ---------------------------------------------------------------------
 Center     Atomic      Atomic             Coordinates (Angstroms)
 Number     Number       Type             X           Y           Z
 ---------------------------------------------------------------------
      1          6           0       -2.997368   -0.329686   -0.237408
      2          6           0       -3.189410   -1.091049   -1.362492
      3          6           0       -2.117687   -1.340864   -2.253945
      4          6           0       -0.829678   -0.794226   -1.969254
      5          6           0       -0.649755   -0.015308   -0.786816
      6          6           0       -1.724423    0.208213    0.047864
      7          1           0       -3.273258   -2.532519   -3.635295
      8          1           0       -3.822851   -0.138230    0.441820
      9          1           0       -4.166221   -1.511415   -1.587445
     10          6           0       -2.290130   -2.118567   -3.425853
     11          6           0        0.230976   -1.040227   -2.877112
     12          1           0       -1.579587    0.808076    0.941973
     13          6           0        0.030710   -1.798670   -4.004353
     14          6           0       -1.241392   -2.345565   -4.281793
     15          1           0        1.205938   -0.611586   -2.665028
     16          1           0        0.853593   -1.977054   -4.690337
     17          1           0       -1.387311   -2.943697   -5.176475
     18          6           0        2.597821   -2.563043    0.388490
     19          6           0        1.561788   -1.740374    0.020270
     20          6           0        1.744232   -0.336324   -0.071499
     21          6           0        3.028608    0.203818    0.238298
     22          6           0        4.077573   -0.672450    0.610577
     23          6           0        3.870468   -2.027079    0.684053
     24          1           0        2.438056   -3.635299    0.455360
     25          1           0        0.584765   -2.155935   -0.204170
     26          6           0        0.687044    0.544431   -0.448672
     27          6           0        3.214736    1.603830    0.167602
     28          1           0        5.052021   -0.248503    0.840002
     29          1           0        4.681576   -2.689320    0.972166
     30          6           0        2.179050    2.428032   -0.188578
     31          6           0        0.896965    1.914351   -0.501537
     32          1           0        4.192842    2.016787    0.400892
     33          1           0        2.334771    3.502641   -0.239764
     34          6           0       -0.212268    2.856994   -0.874877
     35          1           0        0.171596    3.864788   -1.051734
     36          1           0       -0.734844    2.521329   -1.775375
     37          1           0       -0.963820    2.916409   -0.079125
 ---------------------------------------------------------------------
                    Distance matrix (angstroms):
                    1          2          3          4          5
     1  C    0.000000
     2  C    1.371994   0.000000
     3  C    2.421310   1.416222   0.000000
     4  C    2.813177   2.454505   1.427876   0.000000
     5  C    2.431454   2.817529   2.462599   1.427321   0.000000
     6  C    1.411065   2.413167   2.802254   2.423678   1.378972
     7  H    4.058846   2.692676   2.159517   3.430516   4.618761
     8  H    1.086015   2.136506   3.408969   3.899063   3.404878
     9  H    2.141332   1.086955   2.160972   3.434043   3.904469
    10  C    3.723770   2.474259   1.417013   2.451220   3.752205
    11  C    4.230261   3.741082   2.448456   1.417642   2.489072
    12  H    2.166921   3.392458   3.888624   3.406608   2.128676
    13  C    5.051440   4.224846   2.808758   2.427098   3.741117
    14  C    4.848121   3.727050   2.426826   2.814960   4.242051
    15  H    4.862159   4.609291   3.427436   2.158980   2.706811
    16  H    6.113289   5.310878   3.894772   3.411272   4.620170
    17  H    5.815472   4.607204   3.412286   3.900954   5.328091
    18  C    6.056878   6.222921   5.541859   4.520555   4.291742
    19  C    4.779366   4.990745   4.343985   3.251540   2.918589
    20  C    4.744507   5.155298   4.548252   3.230505   2.519108
    21  C    6.068221   6.550035   5.922979   4.555848   3.824818
    22  C    7.133818   7.541702   6.858099   5.545401   4.973145
    23  C    7.134242   7.409884   6.705276   5.536365   5.161695
    24  H    6.399284   6.437870   5.775774   4.962714   4.917511
    25  H    4.020941   4.089020   3.488434   2.640156   2.538858
    26  C    3.792573   4.305434   3.831432   2.530735   1.488180
    27  C    6.518647   7.114538   6.555139   5.164699   4.297303
    28  H    8.121580   8.572167   7.884826   6.540957   5.933900
    29  H    8.123861   8.364061   7.645660   6.528189   6.218316
    30  C    5.865381   6.525517   6.077193   4.754598   3.785490
    31  C    4.502366   5.145108   4.770271   3.531555   2.489440
    32  H    7.590289   8.201574   7.625271   6.224556   5.384311
    33  H    6.566464   7.271801   6.880469   5.609629   4.645711
    34  C    4.279963   4.968721   4.811909   3.861381   2.906763
    35  H    5.319687   5.996103   5.812482   4.852917   3.974914
    36  H    3.951284   4.386872   4.130111   3.322573   2.723787
    37  H    3.833732   4.760253   4.917889   4.166461   3.032232
                    6          7          8          9         10
     6  C    0.000000
     7  H    4.845221   0.000000
     8  H    2.163013   4.759995   0.000000
     9  H    3.404958   2.456365   2.474158   0.000000
    10  C    4.219081   1.087089   4.607588   2.695940   0.000000
    11  C    3.733319   3.883482   5.316241   4.606581   2.796409
    12  H    1.086390   5.914346   2.485535   4.297520   5.305471
    13  C    4.850622   3.404547   6.113547   4.851617   2.413150
    14  C    5.049855   2.140419   5.817971   4.063243   1.372594
    15  H    4.076625   4.969366   5.930033   5.552564   3.882311
    16  H    5.819975   4.295643   7.182579   5.919737   3.391451
    17  H    6.110802   2.470039   6.735558   4.759716   2.135555
    18  C    5.145647   7.117678   6.863497   7.124781   6.216014
    19  C    3.820594   6.112963   5.633730   5.953760   5.182284
    20  C    3.513166   6.534457   5.594207   6.213886   5.541133
    21  C    4.756846   7.887064   6.863010   7.618459   6.863559
    22  C    5.895368   8.690340   7.920263   8.572940   7.676696
    23  C    6.058388   8.363316   7.925502   8.367436   7.406258
    24  H    5.680217   7.111166   7.171376   7.231902   6.302383
    25  H    3.314373   5.176754   4.890349   4.990062   4.318062
    26  C    2.484907   5.941901   4.647382   5.392354   4.981840
    27  C    5.133943   8.582860   7.255178   8.201431   7.554648
    28  H    6.837855   9.723954   8.884484   9.615791   8.694932
    29  H    7.091322   9.194165   8.894639   9.285611   8.262748
    30  C    4.496732   8.137235   6.557890   7.598588   7.150180
    31  C    3.175598   6.854623   5.232559   6.208939   5.913850
    32  H    6.197547   9.629623   8.300428   9.288467   8.589182
    33  H    5.235746   8.910824   7.185876   8.319850   7.945996
    34  C    3.186550   6.785015   4.872512   5.935023   5.964998
    35  H    4.263161   7.711508   5.848971   6.928723   6.891812
    36  H    3.107084   5.953506   4.639504   5.298367   5.164458
    37  H    2.815842   6.904395   4.216190   5.668865   6.189561
                   11         12         13         14         15
    11  C    0.000000
    12  H    4.613000   0.000000
    13  C    1.373322   5.818447   0.000000
    14  C    2.417623   6.111265   1.412200   0.000000
    15  H    1.085939   4.773369   2.141056   3.407350   0.000000
    16  H    2.133795   6.737969   1.086062   2.166026   2.467899
    17  H    3.395455   7.179706   2.166966   1.086052   4.297795
    18  C    4.311042   5.396436   5.145036   6.049661   3.881945
    19  C    3.264366   4.148779   4.306412   5.170282   2.934556
    20  C    3.264489   3.658490   4.532323   5.538734   2.663066
    21  C    4.368086   4.700611   5.567534   6.720377   3.523679
    22  C    5.205338   5.857067   6.240436   7.417950   4.356556
    23  C    5.186683   6.148799   6.064409   7.133875   4.507736
    24  H    4.765603   6.010144   5.390506   6.135338   4.516390
    25  H    2.917977   3.844922   3.856942   4.471892   2.970975
    26  C    2.935381   2.672268   4.308568   5.173370   2.553010
    27  C    5.016388   4.921220   6.254617   7.433163   4.119118
    28  H    6.138912   6.716024   7.147332   8.380781   5.216265
    29  H    6.110997   7.171809   6.869465   7.924885   5.442997
    30  C    4.801253   4.246146   6.086091   7.158286   4.039682
    31  C    3.849211   3.072601   5.177513   6.083567   3.340137
    32  H    5.982226   5.922388   7.161510   8.395746   5.022928
    33  H    5.658552   4.896875   6.898168   7.957917   4.907447
    34  C    4.403833   3.060812   5.614968   6.303395   4.152950
    35  H    5.233995   4.047839   6.388471   7.141309   4.869343
    36  H    3.851144   3.321567   4.921057   5.497761   3.791210
    37  H    4.991116   2.422164   6.215181   6.740017   4.882775
                   16         17         18         19         20
    16  H    0.000000
    17  H    2.488449   0.000000
    18  C    5.401870   6.855291   0.000000
    19  C    4.769420   6.095189   1.373221   0.000000
    20  C    4.981856   6.531901   2.428679   1.418825   0.000000
    21  C    5.811913   7.663351   2.804221   2.445195   1.427357
    22  C    6.340010   8.277287   2.411085   2.796086   2.454117
    23  C    6.163449   7.926551   1.412177   2.419258   2.819644
    24  H    5.633693   6.843194   1.086153   2.132578   3.412068
    25  H    4.497773   5.406798   2.137610   1.085190   2.161701
    26  C    4.937341   6.230738   3.742767   2.491068   1.426757
    27  C    6.480532   8.391543   4.218081   3.733315   2.446170
    28  H    7.155371   9.215588   3.403536   3.883216   3.432203
    29  H    6.872024   8.643025   2.167639   3.397011   3.905613
    30  C    6.436416   8.151902   5.041746   4.219033   2.800792
    31  C    5.717600   7.118538   4.871562   3.751171   2.443017
    32  H    7.281618   9.319417   4.849648   4.602562   3.428699
    33  H    7.213081   8.931981   6.103804   5.306065   3.887763
    34  C    6.249945   7.316589   6.234541   5.008428   3.830220
    35  H    6.916044   8.111667   7.019817   5.873642   4.591665
    36  H    5.590669   6.469907   6.452891   5.163426   4.149119
    37  H    6.965073   7.778377   6.551973   5.298510   4.232479
                   21         22         23         24         25
    21  C    0.000000
    22  C    1.416603   0.000000
    23  C    2.425763   1.372338   0.000000
    24  H    3.890332   3.389776   2.165751   0.000000
    25  H    3.425869   3.881269   3.406081   2.461338   0.000000
    26  C    2.463913   3.754796   4.246165   4.620980   2.713341
    27  C    1.414099   2.474301   3.725615   5.304197   4.603346
    28  H    2.158898   1.087160   2.140962   4.295480   4.968397
    29  H    3.411908   2.136195   1.086033   2.489045   4.295594
    30  C    2.418905   3.722368   4.844625   6.102927   4.853323
    31  C    2.831463   4.247894   5.077619   5.838598   4.093058
    32  H    2.160725   2.699861   4.066566   5.918473   5.549408
    33  H    3.404730   4.603458   5.812883   7.172451   5.923113
    34  C    4.333795   5.750329   6.553866   7.137480   5.120016
    35  H    4.819689   6.213410   7.169987   7.978689   6.094110
    36  H    4.856882   6.249188   6.924283   7.276506   5.107529
    37  H    4.837188   6.226656   6.956354   7.401575   5.304943
                   26         27         28         29         30
    26  C    0.000000
    27  C    2.809154   0.000000
    28  H    4.619789   2.694230   0.000000
    29  H    5.332186   4.607611   2.472303   0.000000
    30  C    2.416957   1.370700   4.059037   5.813541   0.000000
    31  C    1.386918   2.432331   4.872592   6.139126   1.416176
    32  H    3.896179   1.087037   2.462224   4.765780   2.138213
    33  H    3.392588   2.132081   4.756093   6.731764   1.087039
    34  C    2.517610   3.794936   6.348044   7.623836   2.524563
    35  H    3.413816   3.982388   6.657055   8.209289   2.615182
    36  H    2.773091   4.496237   6.928201   8.002340   3.319248
    37  H    2.913451   4.386806   6.859432   8.024955   3.182471
                   31         32         33         34         35
    31  C    0.000000
    32  H    3.418724   0.000000
    33  H    2.158350   2.463865   0.000000
    34  C    1.502783   4.662459   2.703264   0.000000
    35  H    2.152459   4.657859   2.338754   1.092831   0.000000
    36  H    2.157287   5.410433   3.569819   1.093917   1.774872
    37  H    2.155243   5.256510   3.354128   1.096167   1.770469
                   36         37
    36  H    0.000000
    37  H    1.756639   0.000000
 Stoichiometry    C21H16
 Framework group  C1[X(C21H16)]
 Deg. of freedom   105
 Full point group                 C1      NOp   1
 Largest Abelian subgroup         C1      NOp   1
 Largest concise Abelian subgroup C1      NOp   1
                         Standard orientation:                         
 ---------------------------------------------------------------------
 Center     Atomic      Atomic             Coordinates (Angstroms)
 Number     Number       Type             X           Y           Z
 ---------------------------------------------------------------------
      1          6           0       -2.516891    1.556174    1.866753
      2          6           0       -3.393461    0.677940    1.281348
      3          6           0       -2.964861   -0.178821    0.238300
      4          6           0       -1.606606   -0.123041   -0.198577
      5          6           0       -0.709040    0.789579    0.432884
      6          6           0       -1.173239    1.610179    1.439215
      7          1           0       -4.883067   -1.128399   -0.048583
      8          1           0       -2.850740    2.213412    2.664256
      9          1           0       -4.429207    0.628260    1.607282
     10          6           0       -3.850821   -1.090678   -0.387415
     11          6           0       -1.194222   -0.976151   -1.253021
     12          1           0       -0.484473    2.306518    1.909275
     13          6           0       -2.078086   -1.849129   -1.838434
     14          6           0       -3.419486   -1.909528   -1.401046
     15          1           0       -0.164131   -0.921565   -1.592426
     16          1           0       -1.746492   -2.495406   -2.645839
     17          1           0       -4.109026   -2.604050   -1.871879
     18          6           0        1.989100   -2.444899    1.255827
     19          6           0        1.133895   -1.402601    0.995111
     20          6           0        1.582408   -0.248706    0.301983
     21          6           0        2.947867   -0.191118   -0.109784
     22          6           0        3.803093   -1.285050    0.170695
     23          6           0        3.336890   -2.389969    0.837867
     24          1           0        1.627725   -3.318976    1.789800
     25          1           0        0.099365   -1.447804    1.319675
     26          6           0        0.718974    0.851199    0.018565
     27          6           0        3.408480    0.962938   -0.784814
     28          1           0        4.839804   -1.230173   -0.152003
     29          1           0        4.001988   -3.222168    1.048956
     30          6           0        2.559618    2.009421   -1.036060
     31          6           0        1.200961    1.973674   -0.638155
     32          1           0        4.447480    1.007582   -1.101255
     33          1           0        2.925528    2.891010   -1.556217
     34          6           0        0.310039    3.149690   -0.923812
     35          1           0        0.794160    3.852531   -1.606395
     36          1           0       -0.638783    2.833034   -1.366664
     37          1           0        0.062198    3.689578   -0.002575
 ---------------------------------------------------------------------
 Rotational constants (GHZ):           0.5094227           0.2600383           0.2148309
 General basis read from cards:  (5D, 7F)
 ======================================================================================================
                                       Pseudopotential Parameters
 ======================================================================================================
  Center     Atomic      Valence      Angular      Power
  Number     Number     Electrons     Momentum     of R      Exponent        Coefficient   SO-Coeffient
 ======================================================================================================
    1          6
                                   No pseudopotential on this center.
    2          6
                                   No pseudopotential on this center.
    3          6
                                   No pseudopotential on this center.
    4          6
                                   No pseudopotential on this center.
    5          6
                                   No pseudopotential on this center.
    6          6
                                   No pseudopotential on this center.
    7          1
                                   No pseudopotential on this center.
    8          1
                                   No pseudopotential on this center.
    9          1
                                   No pseudopotential on this center.
   10          6
                                   No pseudopotential on this center.
   11          6
                                   No pseudopotential on this center.
   12          1
                                   No pseudopotential on this center.
   13          6
                                   No pseudopotential on this center.
   14          6
                                   No pseudopotential on this center.
   15          1
                                   No pseudopotential on this center.
   16          1
                                   No pseudopotential on this center.
   17          1
                                   No pseudopotential on this center.
   18          6
                                   No pseudopotential on this center.
   19          6
                                   No pseudopotential on this center.
   20          6
                                   No pseudopotential on this center.
   21          6
                                   No pseudopotential on this center.
   22          6
                                   No pseudopotential on this center.
   23          6
                                   No pseudopotential on this center.
   24          1
                                   No pseudopotential on this center.
   25          1
                                   No pseudopotential on this center.
   26          6
                                   No pseudopotential on this center.
   27          6
                                   No pseudopotential on this center.
   28          1
                                   No pseudopotential on this center.
   29          1
                                   No pseudopotential on this center.
   30          6
                                   No pseudopotential on this center.
   31          6
                                   No pseudopotential on this center.
   32          1
                                   No pseudopotential on this center.
   33          1
                                   No pseudopotential on this center.
   34          6
                                   No pseudopotential on this center.
   35          1
                                   No pseudopotential on this center.
   36          1
                                   No pseudopotential on this center.
   37          1
                                   No pseudopotential on this center.
 ======================================================================================================
 There are   395 symmetry adapted cartesian basis functions of A   symmetry.
 There are   374 symmetry adapted basis functions of A   symmetry.
   374 basis functions,   700 primitive gaussians,   395 cartesian basis functions
    71 alpha electrons       71 beta electrons
       nuclear repulsion energy      1523.3979616555 Hartrees.
 NAtoms=   37 NActive=   37 NUniq=   37 SFac= 1.00D+00 NAtFMM=   60 NAOKFM=F Big=F
 Integral buffers will be    131072 words long.
 Raffenetti 2 integral format.
 Two-electron integral symmetry is turned on.
 Nuclear repulsion after empirical dispersion term =     1523.3040515615 Hartrees.
 One-electron integrals computed using PRISM.
   1 Symmetry operations used in ECPInt.
 ECPInt:  NShTT=    8778 NPrTT=   48942 LenC2=    7579 LenP2D=   25229.
 LDataN:  DoStor=T MaxTD1= 4 Len=   56
 NBasis=   374 RedAO= T EigKep=  2.28D-04  NBF=   374
 NBsUse=   374 1.00D-06 EigRej= -1.00D+00 NBFU=   374
 ExpMin= 1.61D-01 ExpMax= 3.05D+03 ExpMxC= 4.57D+02 IAcc=3 IRadAn=         5 AccDes= 0.00D+00
 Harris functional with IExCor=  402 and IRadAn=       5 diagonalized for initial guess.
 HarFok:  IExCor=  402 AccDes= 0.00D+00 IRadAn=         5 IDoV= 1 UseB2=F ITyADJ=14
 ICtDFT=  3500011 ScaDFX=  1.000000  1.000000  1.000000  1.000000
 FoFCou: FMM=F IPFlag=           0 FMFlag=      100000 FMFlg1=           0
         NFxFlg=           0 DoJE=T BraDBF=F KetDBF=T FulRan=T
         wScrn=  0.000000 ICntrl=       500 IOpCl=  0 I1Cent=   200000004 NGrid=           0
         NMat0=    1 NMatS0=      1 NMatT0=    0 NMatD0=    1 NMtDS0=    0 NMtDT0=    0
 Petite list used in FoFCou.
 Requested convergence on RMS density matrix=1.00D-08 within 128 cycles.
 Requested convergence on MAX density matrix=1.00D-06.
 Requested convergence on             energy=1.00D-06.
 No special actions if energy rises.
 Integral accuracy reduced to 1.0D-05 until final iterations.
 Initial convergence to 1.0D-05 achieved.  Increase integral accuracy.
 SCF Done:  E(RB3LYP) =  -810.002436591     A.U. after   14 cycles
            NFock= 14  Conv=0.36D-08     -V/T= 2.0066

 **********************************************************************

            Population analysis using the SCF Density.

 **********************************************************************

 Orbital symmetries:
       Occupied  (A) (A) (A) (A) (A) (A) (A) (A) (A) (A) (A) (A)
                 (A) (A) (A) (A) (A) (A) (A) (A) (A) (A) (A) (A)
                 (A) (A) (A) (A) (A) (A) (A) (A) (A) (A) (A) (A)
                 (A) (A) (A) (A) (A) (A) (A) (A) (A) (A) (A) (A)
                 (A) (A) (A) (A) (A) (A) (A) (A) (A) (A) (A) (A)
                 (A) (A) (A) (A) (A) (A) (A) (A) (A) (A) (A)
       Virtual   (A) (A) (A) (A) (A) (A) (A) (A) (A) (A) (A) (A)
                 (A) (A) (A) (A) (A) (A) (A) (A) (A) (A) (A) (A)
                 (A) (A) (A) (A) (A) (A) (A) (A) (A) (A) (A) (A)
                 (A) (A) (A) (A) (A) (A) (A) (A) (A) (A) (A) (A)
                 (A) (A) (A) (A) (A) (A) (A) (A) (A) (A) (A) (A)
                 (A) (A) (A) (A) (A) (A) (A) (A) (A) (A) (A) (A)
                 (A) (A) (A) (A) (A) (A) (A) (A) (A) (A) (A) (A)
                 (A) (A) (A) (A) (A) (A) (A) (A) (A) (A) (A) (A)
                 (A) (A) (A) (A) (A) (A) (A) (A) (A) (A) (A) (A)
                 (A) (A) (A) (A) (A) (A) (A) (A) (A) (A) (A) (A)
                 (A) (A) (A) (A) (A) (A) (A) (A) (A) (A) (A) (A)
                 (A) (A) (A) (A) (A) (A) (A) (A) (A) (A) (A) (A)
                 (A) (A) (A) (A) (A) (A) (A) (A) (A) (A) (A) (A)
                 (A) (A) (A) (A) (A) (A) (A) (A) (A) (A) (A) (A)
                 (A) (A) (A) (A) (A) (A) (A) (A) (A) (A) (A) (A)
                 (A) (A) (A) (A) (A) (A) (A) (A) (A) (A) (A) (A)
                 (A) (A) (A) (A) (A) (A) (A) (A) (A) (A) (A) (A)
                 (A) (A) (A) (A) (A) (A) (A) (A) (A) (A) (A) (A)
                 (A) (A) (A) (A) (A) (A) (A) (A) (A) (A) (A) (A)
                 (A) (A) (A) (A) (A) (A) (A) (A) (A) (A) (A) (A)
                 (A) (A) (A) (A) (A) (A) (A) (A) (A) (A) (A) (A)
                 (A) (A) (A) (A) (A) (A) (A) (A) (A) (A) (A) (A)
                 (A) (A) (A) (A) (A) (A) (A) (A) (A) (A) (A) (A)
                 (A) (A) (A) (A) (A) (A) (A) (A) (A) (A) (A) (A)
                 (A) (A) (A) (A) (A) (A) (A) (A) (A) (A) (A) (A)
                 (A) (A) (A)
 The electronic state is 1-A.
 Alpha  occ. eigenvalues --  -10.18990 -10.18974 -10.18952 -10.18915 -10.18693
 Alpha  occ. eigenvalues --  -10.18571 -10.18539 -10.18466 -10.18362 -10.18359
 Alpha  occ. eigenvalues --  -10.18321 -10.18280 -10.18222 -10.18092 -10.18058
 Alpha  occ. eigenvalues --  -10.18007 -10.17973 -10.17962 -10.17922 -10.17631
 Alpha  occ. eigenvalues --  -10.17346  -0.88153  -0.86540  -0.82761  -0.81595
 Alpha  occ. eigenvalues --   -0.78896  -0.76004  -0.75090  -0.73775  -0.72622
 Alpha  occ. eigenvalues --   -0.70828  -0.67993  -0.62703  -0.61589  -0.60951
 Alpha  occ. eigenvalues --   -0.60273  -0.59183  -0.56460  -0.51712  -0.50975
 Alpha  occ. eigenvalues --   -0.50320  -0.49267  -0.48652  -0.47785  -0.44410
 Alpha  occ. eigenvalues --   -0.44107  -0.43864  -0.42589  -0.41669  -0.41491
 Alpha  occ. eigenvalues --   -0.41146  -0.41094  -0.39835  -0.39155  -0.38295
 Alpha  occ. eigenvalues --   -0.38013  -0.37773  -0.37111  -0.35704  -0.33843
 Alpha  occ. eigenvalues --   -0.33616  -0.33372  -0.32225  -0.31433  -0.31234
 Alpha  occ. eigenvalues --   -0.28057  -0.27435  -0.24198  -0.23552  -0.21306
 Alpha  occ. eigenvalues --   -0.20549
 Alpha virt. eigenvalues --   -0.04032  -0.03301  -0.00791  -0.00040   0.03127
 Alpha virt. eigenvalues --    0.04314   0.09555   0.09971   0.10063   0.10588
 Alpha virt. eigenvalues --    0.11332   0.11710   0.12639   0.14050   0.15497
 Alpha virt. eigenvalues --    0.16496   0.16940   0.17200   0.17629   0.18698
 Alpha virt. eigenvalues --    0.19434   0.19636   0.19760   0.20525   0.21111
 Alpha virt. eigenvalues --    0.21881   0.23544   0.26118   0.26344   0.27107
 Alpha virt. eigenvalues --    0.28715   0.30363   0.31020   0.31675   0.31961
 Alpha virt. eigenvalues --    0.32363   0.33002   0.34289   0.35672   0.36740
 Alpha virt. eigenvalues --    0.39371   0.41082   0.46495   0.48132   0.49481
 Alpha virt. eigenvalues --    0.50013   0.50294   0.50906   0.51532   0.52217
 Alpha virt. eigenvalues --    0.52244   0.53267   0.53391   0.53741   0.54289
 Alpha virt. eigenvalues --    0.55253   0.55817   0.56467   0.56873   0.57600
 Alpha virt. eigenvalues --    0.57996   0.58461   0.59465   0.60025   0.60352
 Alpha virt. eigenvalues --    0.60679   0.60981   0.61766   0.61861   0.62023
 Alpha virt. eigenvalues --    0.62469   0.62520   0.63247   0.63607   0.64362
 Alpha virt. eigenvalues --    0.65121   0.65792   0.66046   0.66358   0.67904
 Alpha virt. eigenvalues --    0.68707   0.69356   0.71397   0.73444   0.74730
 Alpha virt. eigenvalues --    0.75364   0.77174   0.79748   0.80593   0.80964
 Alpha virt. eigenvalues --    0.81145   0.81787   0.82142   0.82814   0.82918
 Alpha virt. eigenvalues --    0.83634   0.84812   0.84918   0.85286   0.85896
 Alpha virt. eigenvalues --    0.86277   0.86932   0.88123   0.89064   0.89967
 Alpha virt. eigenvalues --    0.90767   0.91440   0.91897   0.94162   0.94657
 Alpha virt. eigenvalues --    0.95795   0.96940   0.97891   0.98300   0.99811
 Alpha virt. eigenvalues --    1.01622   1.03585   1.04418   1.05675   1.05979
 Alpha virt. eigenvalues --    1.06537   1.09294   1.10270   1.11919   1.12869
 Alpha virt. eigenvalues --    1.15508   1.16283   1.17985   1.18991   1.20325
 Alpha virt. eigenvalues --    1.22526   1.24292   1.25531   1.26182   1.26596
 Alpha virt. eigenvalues --    1.26842   1.27715   1.29058   1.30715   1.32334
 Alpha virt. eigenvalues --    1.34185   1.34878   1.36197   1.36489   1.36924
 Alpha virt. eigenvalues --    1.38978   1.40522   1.41255   1.41311   1.42081
 Alpha virt. eigenvalues --    1.42373   1.42875   1.43939   1.44707   1.45487
 Alpha virt. eigenvalues --    1.47827   1.48094   1.48782   1.51144   1.54343
 Alpha virt. eigenvalues --    1.57218   1.61974   1.68824   1.70084   1.73800
 Alpha virt. eigenvalues --    1.74124   1.76384   1.77223   1.77427   1.79124
 Alpha virt. eigenvalues --    1.81242   1.82574   1.83312   1.84339   1.85371
 Alpha virt. eigenvalues --    1.86295   1.87550   1.88342   1.88702   1.89400
 Alpha virt. eigenvalues --    1.90563   1.90715   1.91939   1.92046   1.92976
 Alpha virt. eigenvalues --    1.93999   1.94554   1.95322   1.96468   1.96857
 Alpha virt. eigenvalues --    1.98638   1.99824   2.00226   2.00511   2.00901
 Alpha virt. eigenvalues --    2.02199   2.03251   2.04466   2.04656   2.06323
 Alpha virt. eigenvalues --    2.07818   2.08214   2.09148   2.10049   2.11340
 Alpha virt. eigenvalues --    2.14401   2.17162   2.17891   2.20104   2.20839
 Alpha virt. eigenvalues --    2.23611   2.25780   2.26356   2.27138   2.29903
 Alpha virt. eigenvalues --    2.29982   2.30516   2.31019   2.32129   2.32721
 Alpha virt. eigenvalues --    2.33582   2.34985   2.35766   2.36118   2.38205
 Alpha virt. eigenvalues --    2.38852   2.38991   2.40102   2.41446   2.41819
 Alpha virt. eigenvalues --    2.42042   2.44030   2.44555   2.45781   2.46200
 Alpha virt. eigenvalues --    2.46848   2.47597   2.49479   2.50867   2.51540
 Alpha virt. eigenvalues --    2.53410   2.53709   2.55040   2.57562   2.58298
 Alpha virt. eigenvalues --    2.58876   2.59349   2.59512   2.60976   2.61628
 Alpha virt. eigenvalues --    2.62267   2.62809   2.63653   2.64383   2.65090
 Alpha virt. eigenvalues --    2.65639   2.66105   2.69814   2.71342   2.72412
 Alpha virt. eigenvalues --    2.73040   2.73894   2.74586   2.75209   2.76336
 Alpha virt. eigenvalues --    2.80627   2.82448   2.82889   2.83729   2.85230
 Alpha virt. eigenvalues --    2.85848   2.88578   2.94947   2.99767   3.04209
 Alpha virt. eigenvalues --    3.05417   3.06340   3.08084   3.12529   3.18292
 Alpha virt. eigenvalues --    3.18809   3.20239   3.20920   3.21979   3.24299
 Alpha virt. eigenvalues --    3.24539   3.25081   3.25468   3.26956   3.30818
 Alpha virt. eigenvalues --    3.34998   3.35738   3.38929   3.41359   3.41789
 Alpha virt. eigenvalues --    3.44780   3.48678   3.49806   3.50643   3.73928
 Alpha virt. eigenvalues --    3.81211   3.89786   3.91101
          Condensed to atoms (all electrons):
               1          2          3          4          5          6
     1  C    4.878509   0.513127   0.005530  -0.048102  -0.004832   0.460211
     2  C    0.513127   5.027785   0.445343  -0.034729  -0.064398  -0.023557
     3  C    0.005530   0.445343   4.773971   0.455083  -0.012593  -0.056873
     4  C   -0.048102  -0.034729   0.455083   4.824634   0.405776  -0.007022
     5  C   -0.004832  -0.064398  -0.012593   0.405776   5.165845   0.508973
     6  C    0.460211  -0.023557  -0.056873  -0.007022   0.508973   4.952100
     7  H    0.000238  -0.009377  -0.040393   0.004613  -0.000193   0.000011
     8  H    0.360272  -0.033041   0.002256   0.001602   0.002933  -0.034484
     9  H   -0.042666   0.363592  -0.039897   0.004658   0.000679   0.004395
    10  C    0.008093  -0.086653   0.451098  -0.024054   0.014307  -0.000360
    11  C   -0.001511   0.015424  -0.054593   0.451153  -0.098136   0.012551
    12  H   -0.039267   0.004245   0.000809   0.004182  -0.039837   0.363477
    13  C    0.000065  -0.000696  -0.038097  -0.004506   0.009194  -0.000356
    14  C   -0.000398   0.008562  -0.009193  -0.039971  -0.000624   0.000047
    15  H    0.000018  -0.000191   0.005354  -0.030619  -0.017501   0.000050
    16  H   -0.000000   0.000011   0.001177   0.002806  -0.000232   0.000003
    17  H    0.000004  -0.000202   0.002961   0.001068   0.000012  -0.000000
    18  C   -0.000002  -0.000001  -0.000012   0.000106   0.000764   0.000025
    19  C   -0.000055  -0.000030  -0.000647  -0.003792  -0.017511   0.000890
    20  C   -0.000013   0.000044   0.000216  -0.009361  -0.068050  -0.000476
    21  C    0.000002   0.000000   0.000009   0.000103   0.009031  -0.000149
    22  C   -0.000000  -0.000000  -0.000000  -0.000012  -0.000093  -0.000001
    23  C    0.000000   0.000000   0.000000  -0.000003  -0.000015  -0.000000
    24  H   -0.000000  -0.000000  -0.000000  -0.000000   0.000001   0.000000
    25  H    0.000035   0.000050   0.000698   0.003302   0.010450   0.000549
    26  C    0.006752  -0.000029   0.008549  -0.045473   0.319628  -0.063143
    27  C   -0.000000   0.000000   0.000000   0.000041  -0.000719   0.000027
    28  H    0.000000  -0.000000   0.000000   0.000000   0.000002  -0.000000
    29  H    0.000000  -0.000000   0.000000   0.000000  -0.000000   0.000000
    30  C    0.000004   0.000000   0.000003  -0.000011   0.009746   0.000022
    31  C    0.000361   0.000034  -0.000033   0.000560  -0.087740  -0.009193
    32  H    0.000000  -0.000000   0.000000   0.000000   0.000014  -0.000000
    33  H   -0.000000   0.000000  -0.000000   0.000001  -0.000201  -0.000006
    34  C   -0.000220  -0.000014  -0.000107  -0.000829  -0.016304   0.000335
    35  H    0.000002  -0.000001  -0.000001   0.000018   0.000623   0.000276
    36  H    0.000022  -0.000022  -0.000027   0.001341   0.006457   0.000202
    37  H   -0.000215   0.000012   0.000002   0.000005   0.002052   0.000703
               7          8          9         10         11         12
     1  C    0.000238   0.360272  -0.042666   0.008093  -0.001511  -0.039267
     2  C   -0.009377  -0.033041   0.363592  -0.086653   0.015424   0.004245
     3  C   -0.040393   0.002256  -0.039897   0.451098  -0.054593   0.000809
     4  C    0.004613   0.001602   0.004658  -0.024054   0.451153   0.004182
     5  C   -0.000193   0.002933   0.000679   0.014307  -0.098136  -0.039837
     6  C    0.000011  -0.034484   0.004395  -0.000360   0.012551   0.363477
     7  H    0.637367  -0.000011   0.006360   0.363532   0.000562  -0.000000
     8  H   -0.000011   0.626400  -0.005807  -0.000232   0.000020  -0.005195
     9  H    0.006360  -0.005807   0.635369  -0.009010  -0.000203  -0.000192
    10  C    0.363532  -0.000232  -0.009010   5.020353  -0.069729   0.000009
    11  C    0.000562   0.000020  -0.000203  -0.069729   5.065196  -0.000178
    12  H   -0.000000  -0.005195  -0.000192   0.000009  -0.000178   0.622763
    13  C    0.004585  -0.000001   0.000019  -0.020521   0.516338   0.000003
    14  C   -0.043592   0.000003   0.000186   0.519059  -0.021497  -0.000000
    15  H    0.000018   0.000000   0.000002   0.000521   0.360775  -0.000012
    16  H   -0.000195  -0.000000   0.000000   0.004206  -0.033312  -0.000000
    17  H   -0.006215  -0.000000  -0.000012  -0.034829   0.004276   0.000000
    18  C   -0.000000  -0.000000  -0.000000   0.000001  -0.000136   0.000002
    19  C   -0.000000  -0.000000  -0.000000  -0.000002   0.000109   0.000078
    20  C    0.000000   0.000001   0.000000  -0.000013  -0.003560   0.000331
    21  C    0.000000  -0.000000   0.000000  -0.000000  -0.000499  -0.000046
    22  C   -0.000000   0.000000  -0.000000   0.000000  -0.000004   0.000000
    23  C    0.000000  -0.000000  -0.000000   0.000000   0.000011   0.000000
    24  H   -0.000000  -0.000000  -0.000000  -0.000000   0.000002   0.000000
    25  H    0.000000  -0.000001   0.000000  -0.000004  -0.000062   0.000001
    26  C    0.000002  -0.000224   0.000006  -0.000115  -0.019041  -0.003056
    27  C   -0.000000  -0.000000  -0.000000  -0.000000  -0.000026  -0.000003
    28  H    0.000000  -0.000000   0.000000  -0.000000  -0.000000  -0.000000
    29  H   -0.000000   0.000000  -0.000000   0.000000   0.000000  -0.000000
    30  C    0.000000  -0.000000   0.000000  -0.000000  -0.000032  -0.000191
    31  C   -0.000000  -0.000007   0.000000  -0.000001   0.000662   0.001916
    32  H    0.000000  -0.000000  -0.000000  -0.000000  -0.000000  -0.000000
    33  H   -0.000000   0.000000  -0.000000   0.000000   0.000000   0.000003
    34  C   -0.000000   0.000007  -0.000000   0.000001  -0.000120  -0.000767
    35  H   -0.000000   0.000000  -0.000000   0.000000  -0.000008   0.000022
    36  H    0.000000  -0.000008   0.000000   0.000000   0.000329   0.000018
    37  H    0.000000   0.000012  -0.000000  -0.000000   0.000003   0.001442
              13         14         15         16         17         18
     1  C    0.000065  -0.000398   0.000018  -0.000000   0.000004  -0.000002
     2  C   -0.000696   0.008562  -0.000191   0.000011  -0.000202  -0.000001
     3  C   -0.038097  -0.009193   0.005354   0.001177   0.002961  -0.000012
     4  C   -0.004506  -0.039971  -0.030619   0.002806   0.001068   0.000106
     5  C    0.009194  -0.000624  -0.017501  -0.000232   0.000012   0.000764
     6  C   -0.000356   0.000047   0.000050   0.000003  -0.000000   0.000025
     7  H    0.004585  -0.043592   0.000018  -0.000195  -0.006215  -0.000000
     8  H   -0.000001   0.000003   0.000000  -0.000000  -0.000000  -0.000000
     9  H    0.000019   0.000186   0.000002   0.000000  -0.000012  -0.000000
    10  C   -0.020521   0.519059   0.000521   0.004206  -0.034829   0.000001
    11  C    0.516338  -0.021497   0.360775  -0.033312   0.004276  -0.000136
    12  H    0.000003  -0.000000  -0.000012  -0.000000   0.000000   0.000002
    13  C    4.846562   0.499165  -0.041537   0.364797  -0.039782  -0.000034
    14  C    0.499165   4.847145   0.004298  -0.040765   0.364650   0.000001
    15  H   -0.041537   0.004298   0.606613  -0.005742  -0.000185  -0.000255
    16  H    0.364797  -0.040765  -0.005742   0.626940  -0.005568  -0.000000
    17  H   -0.039782   0.364650  -0.000185  -0.005568   0.629433  -0.000000
    18  C   -0.000034   0.000001  -0.000255  -0.000000  -0.000000   4.844027
    19  C   -0.000142   0.000015   0.000056  -0.000000   0.000000   0.520808
    20  C    0.000102  -0.000006   0.003524  -0.000000   0.000000  -0.005186
    21  C   -0.000011   0.000000   0.000581  -0.000000   0.000000  -0.038584
    22  C    0.000001   0.000000  -0.000006   0.000000   0.000000  -0.020659
    23  C    0.000001  -0.000000  -0.000004   0.000000  -0.000000   0.499472
    24  H   -0.000000  -0.000000  -0.000003   0.000000   0.000000   0.364415
    25  H   -0.000255  -0.000006  -0.000122  -0.000003   0.000000  -0.041497
    26  C    0.000824  -0.000009   0.010423   0.000003  -0.000000   0.009113
    27  C   -0.000001   0.000000   0.000037  -0.000000  -0.000000  -0.000691
    28  H   -0.000000   0.000000   0.000000  -0.000000  -0.000000   0.004603
    29  H   -0.000000  -0.000000   0.000000   0.000000  -0.000000  -0.039760
    30  C   -0.000002   0.000000   0.000014  -0.000000   0.000000   0.000063
    31  C    0.000024  -0.000001   0.000757   0.000000   0.000000  -0.000281
    32  H   -0.000000  -0.000000   0.000000  -0.000000  -0.000000   0.000025
    33  H   -0.000000   0.000000  -0.000002  -0.000000   0.000000  -0.000000
    34  C    0.000002   0.000000  -0.000019   0.000000  -0.000000   0.000001
    35  H   -0.000000   0.000000  -0.000001  -0.000000  -0.000000  -0.000000
    36  H    0.000002  -0.000002  -0.000008  -0.000000  -0.000000   0.000000
    37  H    0.000000   0.000000   0.000003   0.000000   0.000000  -0.000000
              19         20         21         22         23         24
     1  C   -0.000055  -0.000013   0.000002  -0.000000   0.000000  -0.000000
     2  C   -0.000030   0.000044   0.000000  -0.000000   0.000000  -0.000000
     3  C   -0.000647   0.000216   0.000009  -0.000000   0.000000  -0.000000
     4  C   -0.003792  -0.009361   0.000103  -0.000012  -0.000003  -0.000000
     5  C   -0.017511  -0.068050   0.009031  -0.000093  -0.000015   0.000001
     6  C    0.000890  -0.000476  -0.000149  -0.000001  -0.000000   0.000000
     7  H   -0.000000   0.000000   0.000000  -0.000000   0.000000  -0.000000
     8  H   -0.000000   0.000001  -0.000000   0.000000  -0.000000  -0.000000
     9  H   -0.000000   0.000000   0.000000  -0.000000  -0.000000  -0.000000
    10  C   -0.000002  -0.000013  -0.000000   0.000000   0.000000  -0.000000
    11  C    0.000109  -0.003560  -0.000499  -0.000004   0.000011   0.000002
    12  H    0.000078   0.000331  -0.000046   0.000000   0.000000   0.000000
    13  C   -0.000142   0.000102  -0.000011   0.000001   0.000001  -0.000000
    14  C    0.000015  -0.000006   0.000000   0.000000  -0.000000  -0.000000
    15  H    0.000056   0.003524   0.000581  -0.000006  -0.000004  -0.000003
    16  H   -0.000000  -0.000000  -0.000000   0.000000   0.000000   0.000000
    17  H    0.000000   0.000000   0.000000   0.000000  -0.000000   0.000000
    18  C    0.520808  -0.005186  -0.038584  -0.020659   0.499472   0.364415
    19  C    5.060360   0.453292  -0.054586  -0.069767  -0.022074  -0.033433
    20  C    0.453292   4.876070   0.453194  -0.025048  -0.040191   0.002829
    21  C   -0.054586   0.453194   4.770869   0.451875  -0.008602   0.001168
    22  C   -0.069767  -0.025048   0.451875   5.021917   0.518746   0.004251
    23  C   -0.022074  -0.040191  -0.008602   0.518746   4.849815  -0.040943
    24  H   -0.033433   0.002829   0.001168   0.004251  -0.040943   0.629629
    25  H    0.359103  -0.029717   0.005440   0.000558   0.004310  -0.005902
    26  C   -0.096662   0.356301  -0.010270   0.014960  -0.000659  -0.000226
    27  C    0.015665  -0.019295   0.436726  -0.087609   0.008586   0.000010
    28  H    0.000566   0.004601  -0.040333   0.362969  -0.043841  -0.000197
    29  H    0.004272   0.001089   0.002895  -0.034803   0.364261  -0.005583
    30  C   -0.001447  -0.066512   0.007864   0.008490  -0.000405  -0.000000
    31  C    0.012246   0.003816  -0.049980  -0.000327   0.000029   0.000003
    32  H   -0.000234   0.004002  -0.038731  -0.008504   0.000158  -0.000000
    33  H    0.000019   0.001365   0.002451  -0.000228   0.000003  -0.000000
    34  C   -0.000112   0.009030  -0.000091  -0.000002   0.000000  -0.000000
    35  H    0.000002  -0.000135   0.000004  -0.000000   0.000000   0.000000
    36  H   -0.000000  -0.000196   0.000041   0.000000  -0.000000  -0.000000
    37  H    0.000003  -0.000242   0.000045   0.000000  -0.000000   0.000000
              25         26         27         28         29         30
     1  C    0.000035   0.006752  -0.000000   0.000000   0.000000   0.000004
     2  C    0.000050  -0.000029   0.000000  -0.000000  -0.000000   0.000000
     3  C    0.000698   0.008549   0.000000   0.000000   0.000000   0.000003
     4  C    0.003302  -0.045473   0.000041   0.000000   0.000000  -0.000011
     5  C    0.010450   0.319628  -0.000719   0.000002  -0.000000   0.009746
     6  C    0.000549  -0.063143   0.000027  -0.000000   0.000000   0.000022
     7  H    0.000000   0.000002  -0.000000   0.000000  -0.000000   0.000000
     8  H   -0.000001  -0.000224  -0.000000  -0.000000   0.000000  -0.000000
     9  H    0.000000   0.000006  -0.000000   0.000000  -0.000000   0.000000
    10  C   -0.000004  -0.000115  -0.000000  -0.000000   0.000000  -0.000000
    11  C   -0.000062  -0.019041  -0.000026  -0.000000   0.000000  -0.000032
    12  H    0.000001  -0.003056  -0.000003  -0.000000  -0.000000  -0.000191
    13  C   -0.000255   0.000824  -0.000001  -0.000000  -0.000000  -0.000002
    14  C   -0.000006  -0.000009   0.000000   0.000000  -0.000000   0.000000
    15  H   -0.000122   0.010423   0.000037   0.000000   0.000000   0.000014
    16  H   -0.000003   0.000003  -0.000000  -0.000000   0.000000  -0.000000
    17  H    0.000000  -0.000000  -0.000000  -0.000000  -0.000000   0.000000
    18  C   -0.041497   0.009113  -0.000691   0.004603  -0.039760   0.000063
    19  C    0.359103  -0.096662   0.015665   0.000566   0.004272  -0.001447
    20  C   -0.029717   0.356301  -0.019295   0.004601   0.001089  -0.066512
    21  C    0.005440  -0.010270   0.436726  -0.040333   0.002895   0.007864
    22  C    0.000558   0.014960  -0.087609   0.362969  -0.034803   0.008490
    23  C    0.004310  -0.000659   0.008586  -0.043841   0.364261  -0.000405
    24  H   -0.005902  -0.000226   0.000010  -0.000197  -0.005583  -0.000000
    25  H    0.610720  -0.017557  -0.000205   0.000018  -0.000188   0.000027
    26  C   -0.017557   5.245300  -0.082336  -0.000192   0.000013   0.019128
    27  C   -0.000205  -0.082336   5.072442  -0.009361  -0.000207   0.470295
    28  H    0.000018  -0.000192  -0.009361   0.639399  -0.006186   0.000236
    29  H   -0.000188   0.000013  -0.000207  -0.006186   0.631630   0.000004
    30  C    0.000027   0.019128   0.470295   0.000236   0.000004   4.970492
    31  C   -0.000081   0.493020  -0.011752   0.000012  -0.000000   0.465294
    32  H    0.000002   0.001234   0.359227   0.006396  -0.000013  -0.037387
    33  H    0.000000   0.004656  -0.036866  -0.000011  -0.000000   0.357678
    34  C   -0.000006  -0.063860   0.008509  -0.000000   0.000000  -0.066111
    35  H   -0.000000   0.004094   0.000220   0.000000  -0.000000  -0.005147
    36  H    0.000000  -0.008459  -0.000245   0.000000  -0.000000   0.002441
    37  H    0.000000  -0.005813  -0.000250  -0.000000  -0.000000   0.000425
              31         32         33         34         35         36
     1  C    0.000361   0.000000  -0.000000  -0.000220   0.000002   0.000022
     2  C    0.000034  -0.000000   0.000000  -0.000014  -0.000001  -0.000022
     3  C   -0.000033   0.000000  -0.000000  -0.000107  -0.000001  -0.000027
     4  C    0.000560   0.000000   0.000001  -0.000829   0.000018   0.001341
     5  C   -0.087740   0.000014  -0.000201  -0.016304   0.000623   0.006457
     6  C   -0.009193  -0.000000  -0.000006   0.000335   0.000276   0.000202
     7  H   -0.000000   0.000000  -0.000000  -0.000000  -0.000000   0.000000
     8  H   -0.000007  -0.000000   0.000000   0.000007   0.000000  -0.000008
     9  H    0.000000  -0.000000  -0.000000  -0.000000  -0.000000   0.000000
    10  C   -0.000001  -0.000000   0.000000   0.000001   0.000000   0.000000
    11  C    0.000662  -0.000000   0.000000  -0.000120  -0.000008   0.000329
    12  H    0.001916  -0.000000   0.000003  -0.000767   0.000022   0.000018
    13  C    0.000024  -0.000000  -0.000000   0.000002  -0.000000   0.000002
    14  C   -0.000001  -0.000000   0.000000   0.000000   0.000000  -0.000002
    15  H    0.000757   0.000000  -0.000002  -0.000019  -0.000001  -0.000008
    16  H    0.000000  -0.000000  -0.000000   0.000000  -0.000000  -0.000000
    17  H    0.000000  -0.000000   0.000000  -0.000000  -0.000000  -0.000000
    18  C   -0.000281   0.000025  -0.000000   0.000001  -0.000000   0.000000
    19  C    0.012246  -0.000234   0.000019  -0.000112   0.000002  -0.000000
    20  C    0.003816   0.004002   0.001365   0.009030  -0.000135  -0.000196
    21  C   -0.049980  -0.038731   0.002451  -0.000091   0.000004   0.000041
    22  C   -0.000327  -0.008504  -0.000228  -0.000002  -0.000000   0.000000
    23  C    0.000029   0.000158   0.000003   0.000000   0.000000  -0.000000
    24  H    0.000003  -0.000000  -0.000000  -0.000000   0.000000  -0.000000
    25  H   -0.000081   0.000002   0.000000  -0.000006  -0.000000   0.000000
    26  C    0.493020   0.001234   0.004656  -0.063860   0.004094  -0.008459
    27  C   -0.011752   0.359227  -0.036866   0.008509   0.000220  -0.000245
    28  H    0.000012   0.006396  -0.000011  -0.000000   0.000000   0.000000
    29  H   -0.000000  -0.000013  -0.000000   0.000000  -0.000000  -0.000000
    30  C    0.465294  -0.037387   0.357678  -0.066111  -0.005147   0.002441
    31  C    4.809119   0.003192  -0.035879   0.369293  -0.028202  -0.022146
    32  H    0.003192   0.635101  -0.005654  -0.000199  -0.000011   0.000003
    33  H   -0.035879  -0.005654   0.638130  -0.010243   0.006453   0.000104
    34  C    0.369293  -0.000199  -0.010243   5.030453   0.368180   0.371574
    35  H   -0.028202  -0.000011   0.006453   0.368180   0.608999  -0.027590
    36  H   -0.022146   0.000003   0.000104   0.371574  -0.027590   0.581766
    37  H   -0.024643   0.000002   0.000313   0.371459  -0.029224  -0.032702
              37
     1  C   -0.000215
     2  C    0.000012
     3  C    0.000002
     4  C    0.000005
     5  C    0.002052
     6  C    0.000703
     7  H    0.000000
     8  H    0.000012
     9  H   -0.000000
    10  C   -0.000000
    11  C    0.000003
    12  H    0.001442
    13  C    0.000000
    14  C    0.000000
    15  H    0.000003
    16  H    0.000000
    17  H    0.000000
    18  C   -0.000000
    19  C    0.000003
    20  C   -0.000242
    21  C    0.000045
    22  C    0.000000
    23  C   -0.000000
    24  H    0.000000
    25  H    0.000000
    26  C   -0.005813
    27  C   -0.000250
    28  H   -0.000000
    29  H   -0.000000
    30  C    0.000425
    31  C   -0.024643
    32  H    0.000002
    33  H    0.000313
    34  C    0.371459
    35  H   -0.029224
    36  H   -0.032702
    37  H    0.596932
 Mulliken charges:
               1
     1  C   -0.095962
     2  C   -0.125289
     3  C    0.099405
     4  C    0.087432
     5  C   -0.037508
     6  C   -0.109229
     7  H    0.082689
     8  H    0.085503
     9  H    0.082518
    10  C   -0.135659
    11  C   -0.124767
    12  H    0.089442
    13  C   -0.095743
    14  C   -0.087069
    15  H    0.103162
    16  H    0.085876
    17  H    0.084390
    18  C   -0.096326
    19  C   -0.126990
    20  C    0.098192
    21  C    0.099582
    22  C   -0.136704
    23  C   -0.088659
    24  H    0.083979
    25  H    0.100342
    26  C   -0.076881
    27  C   -0.122217
    28  H    0.081319
    29  H    0.082577
    30  C   -0.134980
    31  C    0.109928
    32  H    0.081376
    33  H    0.077912
    34  C   -0.369843
    35  H    0.101426
    36  H    0.127103
    37  H    0.119674
 Sum of Mulliken charges =  -0.00000
 Mulliken charges with hydrogens summed into heavy atoms:
               1
     1  C   -0.010459
     2  C   -0.042771
     3  C    0.099405
     4  C    0.087432
     5  C   -0.037508
     6  C   -0.019787
    10  C   -0.052970
    11  C   -0.021606
    13  C   -0.009867
    14  C   -0.002679
    18  C   -0.012347
    19  C   -0.026648
    20  C    0.098192
    21  C    0.099582
    22  C   -0.055385
    23  C   -0.006082
    26  C   -0.076881
    27  C   -0.040841
    30  C   -0.057068
    31  C    0.109928
    34  C   -0.021640
 Electronic spatial extent (au):  <R**2>=           5472.5450
 Charge=              0.0000 electrons
 Dipole moment (field-independent basis, Debye):
    X=             -0.2661    Y=              0.2245    Z=             -0.0963  Tot=              0.3612
 Quadrupole moment (field-independent basis, Debye-Ang):
   XX=           -110.0583   YY=           -113.1949   ZZ=           -119.4522
   XY=              0.8004   XZ=             -3.6094   YZ=              1.2315
 Traceless Quadrupole moment (field-independent basis, Debye-Ang):
   XX=              4.1768   YY=              1.0402   ZZ=             -5.2171
   XY=              0.8004   XZ=             -3.6094   YZ=              1.2315
 Octapole moment (field-independent basis, Debye-Ang**2):
  XXX=             -3.3758  YYY=              1.0862  ZZZ=             -1.5637  XYY=              7.1865
  XXY=            -15.1103  XXZ=             -2.2283  XZZ=             -8.6679  YZZ=              0.7649
  YYZ=              1.0402  XYZ=            -19.9099
 Hexadecapole moment (field-independent basis, Debye-Ang**3):
 XXXX=          -4220.3676 YYYY=          -2023.8486 ZZZZ=           -951.7161 XXXY=             15.1040
 XXXZ=            -84.2051 YYYX=             -5.6576 YYYZ=            -16.3697 ZZZX=            -14.0806
 ZZZY=             32.1246 XXYY=          -1061.3735 XXZZ=           -926.0897 YYZZ=           -452.9532
 XXYZ=             11.4850 YYXZ=             15.4974 ZZXY=              6.1498
 N-N= 1.523304051561D+03 E-N=-4.924512309279D+03  KE= 8.047294744372D+02
   1 Symmetry operations used in ECPInt.
 ECPInt:  NShTT=    8778 NPrTT=   48942 LenC2=    7579 LenP2D=   25229.
 LDataN:  DoStor=T MaxTD1= 5 Len=  102
 Calling FoFJK, ICntrl=      2127 FMM=F ISym2X=0 I1Cent= 0 IOpClX= 0 NMat=1 NMatS=1 NMatT=0.
 ***** Axes restored to original set *****
 -------------------------------------------------------------------
 Center     Atomic                   Forces (Hartrees/Bohr)
 Number     Number              X              Y              Z
 -------------------------------------------------------------------
      1        6          -0.002046745    0.001508786    0.002471336
      2        6          -0.002755289   -0.001263988   -0.000809716
      3        6          -0.001487890   -0.000567412   -0.000293357
      4        6           0.000531455    0.000917314   -0.000597084
      5        6           0.001392194   -0.000031769    0.001848840
      6        6          -0.000416696    0.000610664    0.001946932
      7        1           0.000153973    0.000101743    0.000052549
      8        1           0.000070825   -0.000092667    0.000013041
      9        1           0.000205765    0.000026199    0.000058388
     10        6          -0.002838932   -0.001358610   -0.000773358
     11        6           0.003387580    0.002087573   -0.000786584
     12        1          -0.000280731   -0.001288031    0.000236886
     13        6           0.002509505   -0.000177170   -0.001938484
     14        6          -0.000496501   -0.002002124   -0.002666271
     15        1          -0.001427360   -0.001177706   -0.001163953
     16        1          -0.000078189    0.000019693    0.000080167
     17        1           0.000038292    0.000004469    0.000060667
     18        6          -0.000628619   -0.003253774    0.000099331
     19        6          -0.002882751   -0.001879450    0.000227621
     20        6          -0.000336848   -0.000312349    0.000807414
     21        6           0.001051891    0.000465984    0.000279673
     22        6           0.002932326    0.001058950    0.000699097
     23        6           0.002617907   -0.002027066    0.000790507
     24        1           0.000024512    0.000095412   -0.000027259
     25        1           0.001658629   -0.000125542    0.000885542
     26        6          -0.002215752    0.000401564   -0.000625930
     27        6           0.002820600    0.001306648    0.000531152
     28        1          -0.000189866   -0.000053182    0.000017839
     29        1          -0.000075263    0.000009774   -0.000035944
     30        6           0.000075654    0.003427569    0.000005596
     31        6           0.001200100   -0.000878993    0.001069599
     32        1          -0.000149550   -0.000104437   -0.000107448
     33        1           0.000042155   -0.000236339    0.000031043
     34        6          -0.002408482    0.002828758   -0.001113198
     35        1           0.000018120    0.000234687   -0.000041854
     36        1          -0.000330254    0.000327985   -0.000010301
     37        1           0.000314232    0.001396839   -0.001222478
 -------------------------------------------------------------------
 Cartesian Forces:  Max     0.003427569 RMS     0.001312953

 GradGradGradGradGradGradGradGradGradGradGradGradGradGradGradGradGradGrad
 Berny optimization.
 FormGI is forming the generalized inverse of G from B-inverse, IUseBI=4.
 Internal  Forces:  Max     0.006866312 RMS     0.001631419
 Search for a local minimum.
 Step number   1 out of a maximum of  214
 All quantities printed in internal units (Hartrees-Bohrs-Radians)
 Swapping is turned off.
 Second derivative matrix not updated -- first step.
 ITU=  0
     Eigenvalues ---    0.00729   0.00922   0.01518   0.01665   0.01688
     Eigenvalues ---    0.01781   0.01786   0.01801   0.01801   0.01830
[...]
 ,0.00000453,0.00001723,0.00042271,-0.00123308,0.00055356,-0.00013714,-
 0.00009539,-0.00010741,-0.00000773,-0.00000389,-0.00000641,-0.00003238
 ,-0.00000924,0.00000327,0.,-0.00001654,-0.00000089,-0.00000340,0.00000
 204,0.00002301,0.00000007,-0.00000732,0.00002436,0.00002954,-0.0000456
 2,0.00003904,-0.00000311,-0.00000325,-0.00004814,0.00002222,0.00000094
 ,-0.00001006,0.00001263,-0.00000523,0.00001478,0.00000300,-0.00000127,
 -0.00000989,0.00000023,-0.00000317,-0.00000672,-0.00027898,-0.00009096
 ,-0.00016124,0.00015513,-0.00015717,0.00039423,-0.00089276,0.00061335,
 -0.00030716,-0.00266261,0.00107401,-0.00446556,0.00087120,0.00066518,-
 0.00003510,-0.00022310,0.00044871,0.00006746,0.00001645,-0.00000065,-0
 .00001289,0.00001339,0.00005132,-0.00002849,-0.00447654,-0.00187130,-0
 .00280505,0.00769994,0.02380433,-0.00567262,-0.00001244,-0.00003168,-0
 .00005833,0.00001396,0.00012882,-0.00002013,-0.06313318,-0.04418966,0.
 00408855,-0.00148408,-0.02657193,0.00676690,0.00034184,0.00021530,0.00
 174960,0.06368587,-0.00001966,0.00004366,-0.00000460,-0.00003160,-0.00
 001967,-0.00000600,-0.00002930,-0.00000818,-0.00002755,-0.00012288,-0.
 00002447,0.00013582,0.00031515,-0.00030751,0.00030376,-0.00018427,-0.0
 0003557,-0.00012997,-0.00000890,-0.00000404,-0.00000796,-0.00003060,-0
 .00001290,0.00000472,-0.00000547,-0.00001235,-0.00000526,-0.00000006,0
 .00000558,-0.00000499,-0.00000757,0.00000157,-0.00006165,0.00002675,-0
 .00002688,0.00000474,0.00000342,0.00001345,0.00000333,-0.00000959,-0.0
 0000563,-0.00000938,0.00000181,-0.00000094,0.00006230,0.00000634,-0.00
 000996,-0.00001770,-0.00000293,-0.00000651,-0.00000928,0.00002568,0.00
 008279,0.00006084,0.00005215,-0.00002691,-0.00022437,0.00005239,0.0004
 7721,-0.00030425,0.00231158,0.00146564,0.00313819,-0.00067246,-0.00062
 235,0.00007102,0.00039976,-0.00020158,-0.00003775,-0.00000797,-0.00002
 606,0.00001989,-0.00002757,-0.00001756,0.00001263,-0.00254918,0.001283
 11,0.00014321,-0.00489620,-0.01268380,0.00307706,0.00002974,0.00002759
 ,0.00005662,-0.00000799,-0.00009873,0.00001551,-0.04480908,-0.31056091
 ,0.06975097,0.00033798,-0.01072718,0.00421749,0.00074638,0.00046564,-0
 .00135133,0.04774624,0.32992169,-0.00000828,0.00005018,-0.00001398,-0.
 00000261,-0.00000957,-0.00002598,-0.00002497,-0.00000705,0.00001849,0.
 00006846,-0.00004322,0.00012936,-0.00012396,-0.00036617,0.00015491,-0.
 00010411,0.00005036,-0.00002739,0.00000146,0.00000327,-0.00000081,0.00
 000061,-0.00000720,0.00000360,0.00000375,-0.00000420,0.00000009,0.0000
 0869,0.00000432,-0.00001343,-0.00003128,0.00000009,-0.00005242,-0.0000
 0462,-0.00001990,0.00000755,0.00002427,0.00001780,0.00001142,-0.000016
 94,-0.00000783,0.00000019,0.00001684,-0.00000151,0.00000784,-0.0000000
 8,-0.00000393,-0.00000705,0.00000149,0.,0.00000092,-0.00018424,0.00001
 947,0.00018143,0.00031991,-0.00027614,-0.00061454,-0.00014574,-0.00011
 097,-0.00058100,-0.00488160,0.00262667,0.00633044,0.00036004,0.0005977
 4,0.00037712,0.00006110,-0.00002936,-0.00074330,-0.00000862,0.00002084
 ,0.00003891,-0.00000462,0.00003543,0.00004281,-0.00236099,0.00055165,0
 .00386475,0.00328880,0.01337914,-0.00040917,-0.00007609,0.00003332,0.0
 0013902,0.00002280,0.00006346,-0.00005766,0.00410033,0.06985075,-0.055
 84774,-0.00127909,-0.00545515,0.00393183,0.00158256,-0.00155847,-0.003
 69390,-0.00118031,-0.07801344,0.04890480,-0.00006886,-0.00004008,0.000
 14055,-0.00005005,-0.00007408,-0.00009769,0.00009197,0.00006945,0.0002
 3330,0.00054004,-0.00059113,0.00004856,-0.00056838,-0.00092405,0.00154
 239,-0.00026939,-0.00006938,-0.00038134,-0.00000660,0.00004108,-0.0000
 0340,-0.00004274,0.00001559,-0.00000977,0.00000369,0.00001096,0.000004
 29,0.00003567,0.00002578,-0.00016262,0.00019486,-0.00024794,-0.0000966
 4,0.00002140,-0.00004367,0.00009548,0.00001423,0.00007058,0.00014020,-
 0.00015518,-0.00002217,0.00001223,-0.00021859,0.00005821,-0.00009669,0
 .00001570,-0.00004653,-0.00000205,-0.00001365,0.00000776,0.00000236,-0
 .00015465,-0.00038059,0.00012784,0.00075058,0.00006534,0.00015843,0.00
 134356,-0.00436936,-0.00061769,-0.00106677,0.00048451,-0.00022105,0.00
 028204,-0.00017398,0.00041797,-0.00015475,0.00033280,-0.00022678,0.000
 05982,-0.00003976,0.00005419,-0.00002474,-0.00003406,0.00001018,0.0072
 5182,0.00452528,0.00012532,-0.00091253,-0.00378557,-0.00140837,0.00004
 071,-0.00003343,0.00001643,0.00001510,0.00001001,0.00000976,-0.0254481
 1,0.01662080,-0.01678126,-0.14786018,0.04338233,-0.04183102,-0.0005808
 5,0.00053035,-0.00043055,0.00073823,0.00182498,0.00089500,0.53242432,0
 .00033625,0.00022276,0.00003565,-0.00004132,0.00006120,-0.00016484,0.0
 0029374,0.00021196,0.00017651,0.00003612,-0.00104411,0.00024939,0.0013
 1470,-0.00283088,-0.00037236,0.00064141,-0.00068393,0.00002001,0.00000
 452,-0.00001543,-0.00000176,0.00003648,-0.00000991,0.00001695,-0.00000
 093,-0.00000504,0.00000610,0.00006030,-0.00006066,-0.00022381,-0.00050
 961,-0.00053442,-0.00000888,-0.00006310,0.00006186,0.00005051,0.000323
 75,0.00015734,0.00030822,-0.00029514,-0.00006942,0.00007522,0.00016815
 ,-0.00001806,-0.00002543,-0.00000043,0.00001290,-0.00002298,0.00000653
 ,0.00000391,0.00000008,-0.00024476,-0.00051434,-0.00016697,0.00114372,
 -0.00049671,0.00071688,-0.00387915,-0.00278286,0.00232381,0.00002366,-
 0.00042289,-0.00023426,0.00025108,0.00020326,-0.00013419,-0.00017280,0
 .00014056,-0.00004240,0.00010291,-0.00004372,0.00003151,0.00001623,0.0
 0006686,0.00003199,0.02330286,-0.01989003,0.01631765,-0.00327762,-0.00
 106732,0.00054973,0.00001823,-0.00002445,0.00002236,0.00001253,0.00002
 393,0.00000086,-0.00499886,0.00936759,-0.00388375,0.05053554,-0.126027
 06,0.03663987,-0.00080165,0.00047218,-0.00033622,-0.00193229,0.0002433
 1,-0.00127379,0.04331696,0.56308762,0.00033150,0.00016901,-0.00023631,
 -0.00004341,-0.00006842,-0.00010825,-0.00048556,-0.00017376,-0.0001383
 5,-0.00055218,0.00046287,0.00076130,0.00045740,-0.00176399,-0.00349095
 ,0.00075794,-0.00011808,0.00028971,0.00000136,0.00002514,-0.00001829,0
 .00002639,0.00006555,-0.00001427,0.00002337,-0.00000634,-0.00000670,0.
 00001358,0.00002657,0.00012237,0.00029824,-0.00021408,-0.00020432,0.00
 001706,0.00000454,-0.00002714,-0.00000588,-0.00002352,-0.00025023,0.00
 002627,0.00002984,-0.00008223,-0.00001851,-0.00013987,-0.00012921,0.00
 002255,-0.00005148,0.00000557,0.00000515,0.00002017,0.00000091,0.00016
 522,-0.00023998,-0.00045315,-0.00018056,0.00022354,0.00009269,-0.00080
 016,0.00116971,0.00686612,-0.00031357,0.00039867,-0.00104027,0.0004429
 6,-0.00049331,-0.00046243,-0.00013242,0.00028987,0.00002864,0.00000636
 ,0.00000008,-0.00003221,-0.00006089,0.00003680,0.00015342,-0.00627793,
 0.00964439,-0.00124890,-0.00086405,0.00065844,0.00559689,-0.00002321,-
 0.00000371,0.00000983,-0.00001485,0.00001318,0.00005440,-0.00919614,0.
 00423858,0.00087721,-0.04215736,0.03259000,-0.09705666,0.00009278,0.00
 000820,0.00006870,0.00165812,-0.00063276,-0.00243107,-0.02226878,0.012
 01219,0.52666404,0.00011696,0.00000893,-0.00006014,-0.00003597,0.00001
 535,0.00000017,0.00003886,0.00001484,0.00006018,0.00015545,-0.00006868
 ,0.00026710,-0.00060295,-0.00070124,0.00021885,0.00033295,-0.00022878,
 -0.00015749,-0.00000999,-0.00000179,-0.00000015,-0.00000773,-0.0000006
 6,0.00000961,-0.00000978,-0.00000389,-0.00000713,0.00003716,0.00002100
 ,0.00003568,-0.00010528,-0.00002716,0.00009454,-0.00003169,0.00004735,
 -0.00002637,0.00000952,0.00000243,-0.00002820,0.00002285,0.00000986,-0
 .00001031,0.00001154,-0.00000228,-0.00006008,0.00000492,-0.00000042,-0
 .00001178,0.00000141,-0.00000430,-0.00001134,0.00009022,0.00008917,0.0
 0006426,-0.00033094,0.00010333,-0.00015281,0.00079744,0.00071663,-0.00
 053461,0.00005349,-0.00000175,0.00008171,-0.00002073,-0.00002233,-0.00
 002864,-0.00005290,-0.00003416,-0.00001936,-0.00002559,0.00002375,-0.0
 0001684,0.00001439,0.00003088,-0.00001690,-0.00396651,0.00180508,-0.00
 226206,0.00009082,0.00006148,0.00013223,-0.00001559,0.00000673,-0.0000
 0872,-0.00000230,-0.00000445,0.00000699,0.00086555,0.00185115,-0.00021
 407,0.00643931,0.02399267,-0.00015514,0.00004411,-0.00003158,0.0000314
 3,-0.00047987,-0.00045938,-0.00015086,-0.07020145,-0.07396798,0.002749
 94,0.07493978,-0.00002465,-0.00000280,-0.00004285,-0.00004039,-0.00000
 204,0.00002765,0.00004654,0.00002919,-0.00000504,0.00000343,0.00003458
 ,0.00013525,0.00059076,0.00006753,0.00003311,0.00005389,0.00004591,-0.
 00013743,-0.00001347,-0.00001160,-0.00000557,-0.00002535,-0.00001133,0
 .00001192,-0.00001321,-0.00001188,-0.00000356,-0.00000103,0.00000051,-
 0.00001519,-0.00002022,-0.00004232,0.00003327,0.00000874,-0.00000634,0
 .00000949,0.00000785,0.00000552,0.00004336,-0.00001625,0.00000265,0.00
 000225,-0.00006187,0.00004493,0.00006128,0.00000953,-0.00000790,-0.000
 02158,-0.00000796,-0.00001067,-0.00001635,-0.00015330,-0.00005452,-0.0
 0008058,0.00037927,-0.00022499,0.00019991,-0.00103513,-0.00036907,0.00
 006259,-0.00003902,0.00031363,-0.00010832,0.00008344,-0.00003154,-0.00
 000578,0.00009977,0.00008507,0.00001608,0.00002305,-0.00002880,0.00001
 918,-0.00000425,0.00002824,-0.00000015,0.00307783,-0.00102161,0.001257
 34,0.00043033,0.00015942,0.00027897,0.00003430,-0.00000589,0.00001255,
 0.00001125,0.00000426,0.00001310,-0.00286617,0.00061236,-0.00082600,-0
 .00565549,-0.01675853,0.00031474,0.00004235,-0.00002863,-0.00001541,0.
 00097298,0.00088706,-0.00007181,-0.07024375,-0.29518950,0.00711008,0.0
 7720757,0.32047800,-0.00014946,-0.00005860,-0.00001304,0.00003168,0.00
 002807,0.00008511,0.00026330,0.00005604,0.00001144,0.00004514,-0.00026
 086,-0.00023173,-0.00029239,0.00009237,-0.00031351,-0.00001880,0.00015
 625,0.00008851,-0.00000353,-0.00000540,0.00000038,0.00001216,0.0000007
 6,0.00000402,-0.00000778,0.00000212,0.00000953,-0.00002523,-0.00001669
 ,-0.00007588,-0.00006468,-0.00016897,0.00009144,-0.00000328,-0.0000094
 1,0.00003658,0.00003670,0.00000301,0.00016046,-0.00005952,-0.00000248,
 0.00003897,-0.00010839,0.00005943,0.00000360,0.00000236,-0.00000176,-0
 .00000878,-0.00000925,-0.00000491,-0.00000534,0.00003166,0.00007231,-0
 .00003916,-0.00019619,0.00000858,-0.00020160,0.00024021,0.00078234,0.0
 0013952,0.00008969,0.00001790,0.00010561,-0.00003362,-0.00002757,0.000
 00444,0.00001535,-0.00001096,0.00000509,-0.00002396,0.00001994,0.00000
 108,-0.00000035,-0.00000250,0.00000823,-0.00262183,0.00113064,-0.00037
 946,0.00004229,-0.00007170,-0.00014842,-0.00001208,0.00000482,-0.00000
 359,-0.00000442,-0.00000128,0.00000012,0.00102800,0.00031767,0.0000758
 1,0.00452964,0.01523640,-0.00211823,0.00002482,-0.00002559,-0.00004029
 ,-0.00036083,-0.00025370,0.00033923,0.00224289,0.00509923,-0.04778326,
 0.00095541,-0.00877127,0.04777354,-0.00000102,0.00002451,-0.00003525,0
 .00001808,0.00004907,0.00002784,-0.00006101,-0.00000374,-0.00003522,-0
 .00009285,-0.00001807,-0.00032105,0.00047508,0.00000174,-0.00045009,0.
 00018631,0.00015278,0.00021840,-0.00000073,-0.00001197,0.00001337,0.00
 003469,0.00000811,0.00000381,-0.00000140,-0.00000728,0.00000697,-0.000
 06626,-0.00006579,-0.00007138,0.00045776,-0.00020042,-0.00007697,-0.00
 002867,0.00002101,-0.00002775,-0.00003551,-0.00005947,0.00013623,-0.00
 006594,0.00002728,0.00003438,-0.00034164,0.00020468,-0.00011500,0.0000
 0260,0.00001933,0.00003780,-0.00001938,-0.00000657,-0.00000530,-0.0001
 6901,-0.00003475,-0.00011655,-0.00001049,-0.00024276,0.00007781,-0.000
 82392,0.00058334,0.00061383,0.00014289,0.00013725,-0.00013248,0.000125
 11,-0.00002061,-0.00007544,0.00000998,0.00013558,-0.00001593,0.0000009
 5,0.00001758,-0.00001271,0.00000427,0.00002194,0.00002258,0.00014936,-
 0.00172493,0.00085191,-0.00076558,0.00013888,0.00101103,-0.00001837,-0
 .00000839,-0.00000332,-0.00000836,0.00001402,0.00000302,-0.00115544,0.
 00198452,-0.00073557,-0.00650915,-0.00570193,-0.02354654,-0.00015074,0
 .00005745,-0.00011720,0.00012121,-0.00018952,-0.00049885,-0.04997587,-
 0.01432020,-0.04012000,-0.00213619,-0.00259471,-0.00892732,0.05575948,
 -0.00003456,-0.00005210,0.00001020,-0.00007684,0.00001070,0.00002677,-
 0.00000722,0.00006811,-0.00003960,-0.00031131,-0.00085602,0.00035053,0
 .00020671,0.00011071,0.00091754,-0.00029594,0.00012125,-0.00027599,0.0
 0002017,0.00000363,-0.00000572,-0.00000170,-0.00004419,-0.00000970,0.0
 0001498,0.00001191,-0.00001036,0.00005465,0.00000906,0.00012354,-0.000
 13088,-0.00003552,-0.00004174,0.00004250,-0.00000159,-0.00006261,-0.00
 015708,0.00004197,-0.00038363,0.00013801,-0.00007094,-0.00009305,0.000
 40008,-0.00017171,0.00020472,-0.00002918,0.00003463,0.00002335,0.00003
 109,0.00001743,0.00002928,-0.00009253,0.00011016,0.00000481,0.00009112
 ,-0.00011812,0.00004751,-0.00009046,0.00006015,-0.00130090,0.00021654,
 0.00025407,0.00015062,-0.00007456,-0.00010164,0.00000175,0.00019853,-0
 .00002257,0.00005741,-0.00000394,-0.00002094,0.00001030,-0.00000692,-0
 .00003692,0.00000604,0.00105978,-0.00077705,0.00024984,0.00047618,-0.0
 0036723,-0.00016932,0.00001829,0.00000520,-0.00000060,-0.00000418,0.00
 000003,0.00001524,-0.00032246,-0.00081625,0.00038439,0.00265524,0.0064
 9234,0.01882826,0.00009178,-0.00004441,0.00001182,0.00016664,0.0002093
 0,-0.00008249,-0.01283282,-0.07271302,-0.07643850,-0.00361900,-0.00863
 261,-0.02982238,0.01191457,0.07681055,-0.00012054,-0.00000570,-0.00005
 913,0.00001960,0.00002842,0.00006593,0.00046284,0.00024060,0.00013687,
 0.00009614,-0.00056699,0.00008213,-0.00014926,-0.00033644,-0.00070280,
 0.00023349,0.00003996,-0.00003442,-0.00000351,-0.00001659,-0.00000230,
 0.00000815,0.00000046,0.00001352,-0.00001131,-0.00000291,0.00001542,0.
 00001489,-0.00003537,-0.00015751,-0.00020103,-0.00016439,0.00022500,-0
 .00002806,-0.00002618,0.00009383,0.00011142,0.00003797,0.00017063,-0.0
 0017109,-0.00005215,0.00005858,-0.00000938,0.00009955,0.00012552,-0.00
 000661,0.00003112,-0.00002357,-0.00000600,0.00000083,-0.00000937,0.000
 03397,-0.00003606,-0.00004795,-0.00015069,-0.00008336,-0.00000108,-0.0
 0028056,0.00039867,0.00039633,0.00011142,-0.00029169,0.00002546,0.0000
 1804,0.00020789,-0.00008980,-0.00011320,-0.00004161,-0.00002299,-0.000
 00073,0.00002271,-0.00001192,0.00000603,0.00005224,0.00000763,-0.00099
 300,-0.00095427,0.00079701,-0.00055189,0.00044643,0.00006667,-0.000015
 15,-0.00000676,0.00000069,-0.00000676,0.00001213,0.00000150,0.00086038
 ,0.00106703,-0.00063891,-0.00483195,-0.00075638,-0.01119639,-0.0001038
 7,0.00006410,0.00000633,0.00007191,-0.00006270,-0.00014975,-0.03780527
 ,-0.07802499,-0.27622274,0.00086756,0.00047752,0.00291449,0.04489388,0
 .08405714,0.29979929,0.00023083,0.00015073,-0.00000265,-0.00005075,0.0
 0000842,-0.00014835,-0.00007650,0.00001262,0.00015015,0.00019428,0.000
 33087,0.00021596,0.00032390,-0.00039043,0.00054878,0.00024336,-0.00053
 278,0.00024122,0.00000152,-0.00000274,0.00000688,0.00001069,-0.0000038
 2,0.00001092,0.00000023,-0.00000472,-0.00001007,0.00006574,-0.00001007
 ,-0.00003914,-0.00007183,-0.00006729,-0.00007648,-0.00004887,0.0000804
 4,-0.00009731,0.00007649,0.00002183,0.00000427,-0.00003948,-0.00000980
 ,0.00001225,0.00001745,-0.00001955,-0.00005510,-0.00000219,0.00000825,
 -0.00000979,0.00000448,-0.00000132,-0.00000232,-0.00014202,0.00003791,
 0.00003989,-0.00002304,-0.00025469,0.00006076,-0.00021853,0.00017710,-
 0.00073511,0.00007718,-0.00003398,0.00013334,0.00005912,0.00013058,0.0
 0004782,-0.00001242,0.00006924,-0.00001991,-0.00000175,0.00002279,-0.0
 0000413,0.00003590,0.00004657,-0.00005663,0.00028075,-0.00250609,-0.00
 009334,-0.00039089,-0.00053821,-0.00084408,-0.00000617,-0.00001426,-0.
 00000093,0.00000222,0.00001132,-0.00002537,-0.00141098,0.00311263,-0.0
 0068452,-0.02105634,-0.00056518,0.00787777,-0.00021293,0.00012822,-0.0
 0016096,0.00004294,0.00019183,0.00033176,-0.24605039,-0.01743985,0.116
 41925,-0.00603127,-0.00026665,0.00333159,0.00494974,0.00029473,-0.0022
 4987,0.26922953,-0.00040606,0.00000966,-0.00004767,0.00002270,0.000008
 47,0.00012387,0.00009330,-0.00003322,-0.00017616,-0.00033898,-0.000094
 52,-0.00036206,0.00109603,-0.00095747,-0.00031240,-0.00027958,-0.00022
 296,0.00054964,0.00001638,-0.00000892,0.00000071,0.00002589,0.00000081
 ,-0.00001895,0.00001483,0.00001412,0.00002011,-0.00011518,-0.00003935,
 0.00001757,0.00010283,0.00010175,0.00003455,0.00007189,-0.00007428,0.0
 0005145,-0.00005475,-0.00004948,0.00001669,0.00004162,0.00002796,0.000
 03411,-0.00004214,0.00002004,0.00009813,-0.00001095,0.00000741,0.00002
 152,-0.00000544,0.00000225,0.00001412,0.00007736,0.00008088,0.00000951
 ,0.00002457,0.00007084,0.00000773,-0.00048124,0.00045419,0.00042181,0.
 00021105,-0.00010549,-0.00004596,-0.00016271,0.00003606,-0.00004888,0.
 00008537,-0.00014354,0.00009127,-0.00000250,-0.00001826,0.00000268,-0.
 00000069,-0.00006374,-0.00002098,0.00047454,0.00003539,0.00066006,0.00
 016912,0.00050101,0.00033959,0.00000777,0.00001133,0.00000678,0.000003
 55,-0.00001288,-0.00002308,0.00057132,-0.00184304,0.00058123,0.0151741
 4,0.00185904,-0.01024908,0.00011264,-0.00006519,0.00010190,0.00024927,
 0.00031206,0.00003771,-0.01744043,-0.04989347,0.01117038,-0.02682833,-
 0.00034631,0.01642812,0.00969747,0.00051162,-0.00582023,0.01782533,0.0
 4990723,0.00008641,-0.00002395,0.00007806,0.00002390,-0.00003674,-0.00
 011200,-0.00014899,-0.00002302,0.00001208,0.00013727,-0.00007657,-0.00
 021692,-0.00021329,0.00070184,0.00040673,-0.00019714,0.00026440,0.0000
 3281,-0.00000007,-0.00001259,0.00000924,0.00000369,0.00000662,0.000001
 91,-0.00000752,-0.00000542,-0.00001009,-0.00002208,0.00001542,-0.00009
 550,0.00018982,-0.00002117,-0.00014452,-0.00003726,0.00009761,-0.00016
 068,0.00002520,-0.00001227,0.00008987,-0.00004035,0.00000630,0.0000172
 9,-0.00008945,0.00006132,-0.00001264,-0.00000480,0.00001466,0.00002399
 ,-0.00000465,-0.00000312,0.00000100,0.00002523,-0.00002934,0.00001772,
 0.00003794,0.00004015,-0.00000103,0.00016532,-0.00036543,-0.00051973,-
 0.00005301,-0.00016192,0.00009170,-0.00003616,0.00009150,0.00003119,-0
 .00004435,-0.00003268,-0.00001850,0.00000353,0.00000238,0.00000660,-0.
 00000843,-0.00000267,0.00001286,0.00039557,-0.00008708,0.00061363,-0.0
 0043797,-0.00021870,-0.00076224,0.00000253,-0.00000358,-0.00000157,-0.
 00000389,0.00000228,0.00000279,-0.00123534,0.00149811,-0.00102169,-0.0
 1613312,-0.00159898,0.00830054,-0.00014883,0.00007718,-0.00008205,-0.0
 0012113,0.00008654,0.00018448,0.11616360,0.01023193,-0.11015488,-0.001
 64267,0.00000724,-0.00053490,0.02748705,0.00322553,-0.01563221,-0.1241
 1656,-0.01371579,0.11954666\\-0.00000049,-0.00000140,-0.00000126,0.000
 00061,0.00000138,0.00000267,0.00000145,-0.00000022,-0.00000042,-0.0000
 0125,0.00000027,-0.00000203,-0.00000136,0.00000298,-0.00000053,0.00000
 109,0.00000032,-0.00000037,-0.00000027,0.00000008,-0.00000004,0.000000
 10,-0.00000012,0.00000031,-0.00000009,-0.00000022,0.00000054,0.,0.0000
 0090,0.00000152,-0.00000128,-0.00000091,-0.00000070,-0.00000007,-0.000
 00007,0.00000015,-0.00000179,0.00000003,0.00000041,0.00000107,0.000000
 72,0.00000085,0.00000022,0.00000046,-0.00000010,-0.00000063,0.00000044
 ,-0.00000035,-0.00000043,0.00000030,0.00000004,-0.00000470,0.00000120,
 -0.00000220,0.00000384,-0.00000677,0.00000319,-0.00000468,0.00000501,-
 0.00000275,0.00000191,0.00000713,-0.00000171,0.00000049,-0.00000494,0.
 00000115,0.00000234,0.00000435,-0.00000107,0.00000103,-0.00000025,-0.0
 0000039,0.00000096,0.00000033,-0.00000045,0.00000188,-0.00000497,0.000
 00147,0.00000348,-0.00000862,0.00000278,0.00000033,-0.00000008,-0.0000
 0033,0.00000039,-0.00000054,-0.00000092,-0.00000860,-0.00000214,-0.000
 00289,0.00000612,0.00000820,0.00000168,0.00000004,0.00000073,-0.000000
 08,0.00000075,-0.00000047,0.00000050,-0.00000201,-0.00000033,0.0000010
 3,0.00000020,-0.00000102,0.00000002,-0.00000043,-0.00000055,0.00000016
 ,-0.00000020,-0.00000121,0.00000011\\\@
 The archive entry for this job was punched.


 PICNIC:  A SNACK IN THE GRASS.
 Job cpu time:       0 days  1 hours 36 minutes 32.8 seconds.
 Elapsed time:       0 days  0 hours  3 minutes  2.7 seconds.
 File lengths (MBytes):  RWF=    595 Int=      0 D2E=      0 Chk=     14 Scr=      2
 Normal termination of Gaussian 16 at Sat Nov 25 15:58:17 2023.
