 Entering Gaussian System, Link 0=g16
 Initial command:
 /public/software/apps/Gaussian/g16/l1.exe "/public/home/LLG_HG/tmp/Gau-109361.inp" -scrdir="/public/home/LLG_HG/tmp/"
 Entering Link 1 = /public/software/apps/Gaussian/g16/l1.exe PID=    109362.
  
 Copyright (c) 1988-2019, Gaussian, Inc.  All Rights Reserved.
  
 This is part of the Gaussian(R) 16 program.  It is based on
 the Gaussian(R) 09 system (copyright 2009, Gaussian, Inc.),
 the Gaussian(R) 03 system (copyright 2003, Gaussian, Inc.),
 the Gaussian(R) 98 system (copyright 1998, Gaussian, Inc.),
 the Gaussian(R) 94 system (copyright 1995, Gaussian, Inc.),
 the Gaussian 92(TM) system (copyright 1992, Gaussian, Inc.),
 the Gaussian 90(TM) system (copyright 1990, Gaussian, Inc.),
 the Gaussian 88(TM) system (copyright 1988, Gaussian, Inc.),
 the Gaussian 86(TM) system (copyright 1986, Carnegie Mellon
 University), and the Gaussian 82(TM) system (copyright 1983,
 Carnegie Mellon University). Gaussian is a federally registered
 trademark of Gaussian, Inc.
  
 This software contains proprietary and confidential information,
 including trade secrets, belonging to Gaussian, Inc.
  
 This software is provided under written license and may be
 used, copied, transmitted, or stored only in accord with that
 written license.
  
 The following legend is applicable only to US Government
 contracts under FAR:
  
                    RESTRICTED RIGHTS LEGEND
  
 Use, reproduction and disclosure by the US Government is
 subject to restrictions as set forth in subparagraphs (a)
 and (c) of the Commercial Computer Software - Restricted
 Rights clause in FAR 52.227-19.
  
 Gaussian, Inc.
 340 Quinnipiac St., Bldg. 40, Wallingford CT 06492
  
  
 ---------------------------------------------------------------
 Warning -- This program may not be used in any manner that
 competes with the business of Gaussian, Inc. or will provide
 assistance to any competitor of Gaussian, Inc.  The licensee
 of this program is prohibited from giving any competitor of
 Gaussian, Inc. access to this program.  By using this program,
 the user acknowledges that Gaussian, Inc. is engaged in the
 business of creating and licensing software in the field of
 computational chemistry and represents and warrants to the
 licensee that it is not a competitor of Gaussian, Inc. and that
 it will not use this program in any manner prohibited above.
 ---------------------------------------------------------------
  

 Cite this work as:
 Gaussian 16, Revision C.01,
 M. J. Frisch, G. W. Trucks, H. B. Schlegel, G. E. Scuseria, 
 M. A. Robb, J. R. Cheeseman, G. Scalmani, V. Barone, 
 G. A. Petersson, H. Nakatsuji, X. Li, M. Caricato, A. V. Marenich, 
 J. Bloino, B. G. Janesko, R. Gomperts, B. Mennucci, H. P. Hratchian, 
 J. V. Ortiz, A. F. Izmaylov, J. L. Sonnenberg, D. Williams-Young, 
 F. Ding, F. Lipparini, F. Egidi, J. Goings, B. Peng, A. Petrone, 
 T. Henderson, D. Ranasinghe, V. G. Zakrzewski, J. Gao, N. Rega, 
 G. Zheng, W. Liang, M. Hada, M. Ehara, K. Toyota, R. Fukuda, 
 J. Hasegawa, M. Ishida, T. Nakajima, Y. Honda, O. Kitao, H. Nakai, 
 T. Vreven, K. Throssell, J. A. Montgomery, Jr., J. E. Peralta, 
 F. Ogliaro, M. J. Bearpark, J. J. Heyd, E. N. Brothers, K. N. Kudin, 
 V. N. Staroverov, T. A. Keith, R. Kobayashi, J. Normand, 
 K. Raghavachari, A. P. Rendell, J. C. Burant, S. S. Iyengar, 
 J. Tomasi, M. Cossi, J. M. Millam, M. Klene, C. Adamo, R. Cammi, 
 J. W. Ochterski, R. L. Martin, K. Morokuma, O. Farkas, 
 J. B. Foresman, and D. J. Fox, Gaussian, Inc., Wallingford CT, 2019.
 
 ******************************************
 Gaussian 16:  ES64L-G16RevC.01  3-Jul-2019
                 3-Dec-2023 
 ******************************************
 %nprocs=32
 Will use up to   32 processors via shared memory.
 %mem=80GB
 ---------------------------------------------------------------
 # m06/def2tzvpp scrf=(smd,solvent=n,n-dimethylformamide) em=gd3
 ---------------------------------------------------------------
 1/38=1,172=1/1;
 2/12=2,17=6,18=5,40=1/2;
 3/5=44,7=202,11=2,25=1,30=1,70=32201,72=148,74=-54,124=31/1,2,3;
 4//1;
 5/5=2,38=5,53=148/2;
 6/7=2,8=2,9=2,10=2,28=1/1;
 99/5=1,9=1/99;
 -------------------
 Title Card Required
 -------------------
 Symbolic Z-matrix:
 Charge =  0 Multiplicity = 1
 C                    -2.16378  -0.9952    2.42326 
 C                    -3.18949  -1.01349   1.5077 
 C                    -2.98826  -0.52927   0.18863 
 C                    -1.70222  -0.01638  -0.18111 
 C                    -0.65325   0.00296   0.79164 
 C                    -0.89486  -0.48607   2.06114 
 H                    -5.00117  -0.93079  -0.49016 
 H                    -2.32163  -1.36915   3.43033 
 H                    -4.1679   -1.40043   1.77914 
 C                    -4.02842  -0.54131  -0.77839 
 C                    -1.51175   0.4535   -1.50851 
 H                    -0.09119  -0.47363   2.7912 
 C                    -2.54158   0.42807  -2.42141 
 C                    -3.81366  -0.07249  -2.0538 
 H                    -0.53447   0.83015  -1.79074 
 H                    -2.37872   0.79055  -3.43193 
 H                    -4.61791  -0.08725  -2.78319 
 C                     2.5964   -2.57884  -0.34868 
 C                     1.56079  -1.74603   0.00926 
 C                     1.74618  -0.33763   0.07944 
 C                     3.03643   0.19586  -0.2414 
 C                     4.08446  -0.69158  -0.60251 
 C                     3.87312  -2.04961  -0.65523 
 H                     2.43422  -3.65146  -0.39854 
 H                     0.58468  -2.15642   0.24161 
 C                     0.68988   0.55476   0.44465 
 C                     3.22651   1.59938  -0.19238 
 H                     5.05946  -0.2741   -0.83972 
 H                     4.68163  -2.71854  -0.93431 
 C                     2.19123   2.43396   0.15248 
 C                     0.9053    1.92744   0.47505 
 H                     4.20516   2.00575  -0.43325 
 H                     2.34997   3.50835   0.18601 
 C                    -0.20587   2.88432   0.83383 
 H                     0.17956   3.89687   0.97776 
 H                    -0.96562   2.92072   0.04472 
 H                    -0.71908   2.57538   1.74909 
 
                          Input orientation:                          
 ---------------------------------------------------------------------
 Center     Atomic      Atomic             Coordinates (Angstroms)
 Number     Number       Type             X           Y           Z
 ---------------------------------------------------------------------
      1          6           0       -2.163781   -0.995199    2.423255
      2          6           0       -3.189489   -1.013493    1.507697
      3          6           0       -2.988259   -0.529265    0.188628
      4          6           0       -1.702215   -0.016381   -0.181109
      5          6           0       -0.653247    0.002958    0.791643
      6          6           0       -0.894857   -0.486069    2.061141
      7          1           0       -5.001171   -0.930785   -0.490160
      8          1           0       -2.321626   -1.369154    3.430331
      9          1           0       -4.167903   -1.400432    1.779138
     10          6           0       -4.028422   -0.541313   -0.778394
     11          6           0       -1.511748    0.453499   -1.508505
     12          1           0       -0.091191   -0.473626    2.791204
     13          6           0       -2.541575    0.428068   -2.421410
     14          6           0       -3.813663   -0.072493   -2.053797
     15          1           0       -0.534465    0.830150   -1.790743
     16          1           0       -2.378715    0.790549   -3.431930
     17          1           0       -4.617913   -0.087246   -2.783186
     18          6           0        2.596400   -2.578843   -0.348683
     19          6           0        1.560789   -1.746031    0.009259
     20          6           0        1.746178   -0.337626    0.079439
     21          6           0        3.036428    0.195857   -0.241395
     22          6           0        4.084462   -0.691580   -0.602510
     23          6           0        3.873121   -2.049610   -0.655227
     24          1           0        2.434220   -3.651461   -0.398544
     25          1           0        0.584676   -2.156416    0.241611
     26          6           0        0.689880    0.554755    0.444650
     27          6           0        3.226508    1.599376   -0.192376
     28          1           0        5.059460   -0.274096   -0.839716
     29          1           0        4.681626   -2.718541   -0.934309
     30          6           0        2.191226    2.433964    0.152475
     31          6           0        0.905300    1.927437    0.475052
     32          1           0        4.205157    2.005747   -0.433252
     33          1           0        2.349965    3.508353    0.186008
     34          6           0       -0.205868    2.884320    0.833828
     35          1           0        0.179563    3.896866    0.977758
     36          1           0       -0.965621    2.920721    0.044724
     37          1           0       -0.719078    2.575380    1.749094
 ---------------------------------------------------------------------
                    Distance matrix (angstroms):
                    1          2          3          4          5
     1  C    0.000000
     2  C    1.375012   0.000000
     3  C    2.427018   1.419476   0.000000
     4  C    2.820255   2.461358   1.433061   0.000000
     5  C    2.437250   2.824611   2.469650   1.430718   0.000000
     6  C    1.414393   2.418639   2.809004   2.429016   1.381719
     7  H    4.067299   2.698234   2.161894   3.437260   4.628103
     8  H    1.085799   2.139206   3.414447   3.905914   3.410111
     9  H    2.143736   1.086598   2.163380   3.440608   3.911196
    10  C    3.732754   2.480519   1.420287   2.458362   3.762054
    11  C    4.240591   3.750247   2.454826   1.420931   2.496135
    12  H    2.168653   3.396807   3.894804   3.411615   2.131029
    13  C    5.063516   4.235065   2.815726   2.433312   3.751028
    14  C    4.859783   3.736216   2.432777   2.822822   4.253287
    15  H    4.872817   4.618212   3.433224   2.161290   2.714235
    16  H    6.125217   5.320887   3.901524   3.417108   4.629915
    17  H    5.827021   4.616276   3.418016   3.908596   5.339112
    18  C    5.731570   6.274789   5.973097   5.007233   4.304213
    19  C    4.501505   5.034587   4.712381   3.697989   2.927976
    20  C    4.605828   5.182425   4.739572   3.473111   2.525960
    21  C    5.963317   6.579050   6.083385   4.743777   3.836415
    22  C    6.948955   7.580697   7.118682   5.841156   4.987177
    23  C    6.858062   7.458702   7.078282   5.953417   5.176338
    24  H    6.013309   6.497594   6.284597   5.511005   4.929886
    25  H    3.696216   4.141687   3.926359   3.160429   2.549095
    26  C    3.802712   4.317288   3.843092   2.537694   1.492941
    27  C    6.529055   7.133187   6.580244   5.186821   4.309216
    28  H    7.958780   8.608264   8.117166   6.798561   5.947530
    29  H    7.816824   8.415761   8.054878   6.972977   6.232683
    30  C    5.990132   6.532509   5.967336   4.612413   3.795965
    31  C    4.664392   5.146137   4.612724   3.317847   2.496581
    32  H    7.597939   8.219725   7.652337   6.248970   5.395889
    33  H    6.757304   7.271829   6.693206   5.383186   4.655520
    34  C    4.627134   4.954699   4.450904   3.418072   2.916192
    35  H    5.613646   5.978543   5.499860   4.494170   3.986318
    36  H    4.735760   4.750149   4.001772   3.036468   3.028004
    37  H    3.910332   4.363624   4.150067   3.377790   2.745615
                    6          7          8          9         10
     6  C    0.000000
     7  H    4.854763   0.000000
     8  H    2.165685   4.768897   0.000000
     9  H    3.410046   2.462644   2.477126   0.000000
    10  C    4.229095   1.086742   4.616475   2.701576   0.000000
    11  C    3.742421   3.889645   5.326356   4.615281   2.802920
    12  H    1.085830   5.923196   2.487025   4.301491   5.314922
    13  C    4.862159   3.409666   6.125460   4.861374   2.418660
    14  C    5.061935   2.142849   5.829508   4.071891   1.375706
    15  H    4.086481   4.974321   5.940580   5.560703   3.887608
    16  H    5.831416   4.300497   7.194317   5.929319   3.396563
    17  H    6.122721   2.473138   6.747149   4.768833   2.138426
    18  C    4.730310   7.775551   6.319120   7.188329   6.944382
    19  C    3.439175   6.631242   5.188344   6.005816   5.771570
    20  C    3.305184   6.797279   5.370247   6.244589   5.841521
    21  C    4.606701   8.119988   6.681285   7.650691   7.123475
    22  C    5.650742   9.089476   7.600058   8.618367   8.116182
    23  C    5.705868   8.946065   7.451825   8.426484   8.045155
    24  H    5.210807   7.918050   6.518227   7.307356   7.182134
    25  H    2.879195   5.765357   4.385694   5.051981   4.992959
    26  C    2.491535   5.955565   4.656703   5.403857   4.995956
    27  C    5.139365   8.613077   7.260714   8.219673   7.586829
    28  H    6.626748  10.088098   8.597260   9.657705   9.092017
    29  H    6.712214   9.856465   8.361607   9.349565   8.979397
    30  C    4.657629   7.966498   6.750843   7.601786   6.957213
    31  C    3.403124   6.632305   5.478525   6.205863   5.657514
    32  H    6.200104   9.663485   8.301574   9.306173   8.625454
    33  H    5.477262   8.614079   7.492628   8.313654   7.616672
    34  C    3.652468   6.269203   5.413899   5.911889   5.380162
    35  H    4.640928   7.231943   6.324716   6.899568   6.363068
    36  H    3.959440   5.604093   5.630640   5.651121   4.695099
    37  H    3.082327   5.970241   4.577561   5.263305   5.201320
                   11         12         13         14         15
    11  C    0.000000
    12  H    4.622233   0.000000
    13  C    1.376440   5.829990   0.000000
    14  C    2.423391   6.123050   1.415595   0.000000
    15  H    1.084715   4.784408   2.141939   3.411320   0.000000
    16  H    2.136539   6.749689   1.085848   2.168679   2.469073
    17  H    3.400805   7.191267   2.169703   1.085838   4.301291
    18  C    5.236140   4.638316   6.303689   7.090706   4.847998
    19  C    4.072103   3.476675   5.240634   5.995137   3.777142
    20  C    3.709653   3.278428   5.022485   5.960941   3.172162
    21  C    4.728409   4.407592   5.993372   7.090879   3.943867
    22  C    5.783563   5.385246   6.961780   8.054184   5.006201
    23  C    5.999204   5.484285   7.099762   8.059258   5.386022
    24  H    5.801153   5.162444   6.744856   7.388161   5.553030
    25  H    3.777507   3.128738   4.852286   5.381173   3.781867
    26  C    2.944866   2.678424   4.321186   5.188215   2.563561
    27  C    5.049386   4.919981   6.293754   7.471549   4.158293
    28  H    6.645107   6.304966   7.795545   8.958066   5.780641
    29  H    6.982079   6.457466   8.017933   8.967985   6.366655
    30  C    4.515873   4.541629   5.748731   6.870855   3.711833
    31  C    3.456749   3.481761   4.745371   5.715191   2.900136
    32  H    6.020685   5.916334   7.208345   8.440777   5.068415
    33  H    5.207335   5.348125   6.341447   7.471914   4.404572
    34  C    3.619494   3.888480   4.699497   5.486101   3.349024
    35  H    4.571522   4.739525   5.567001   6.394685   4.192753
    36  H    2.966135   4.453018   3.844316   4.634055   2.815195
    37  H    3.967702   3.282784   5.032449   5.572223   3.950994
                   16         17         18         19         20
    16  H    0.000000
    17  H    2.491064   0.000000
    18  C    6.753590   8.011315   0.000000
    19  C    5.813408   6.980378   1.376295   0.000000
    20  C    5.533284   6.982762   2.434999   1.422287   0.000000
    21  C    6.313236   8.070303   2.811422   2.451789   1.432579
    22  C    7.209368   8.991768   2.416716   2.802687   2.461282
    23  C    7.406891   8.970883   1.415653   2.424991   2.827456
    24  H    7.217841   8.253649   1.085955   2.135380   3.418095
    25  H    5.564278   6.363788   2.138674   1.084066   2.164113
    26  C    4.949722   6.245299   3.752817   2.498332   1.430206
    27  C    6.524372   8.431603   4.228355   3.742596   2.453006
    28  H    7.948553   9.872362   3.408759   3.889479   3.439000
    29  H    8.270444   9.839893   2.170401   3.402311   3.913221
    30  C    6.035986   7.831921   5.054064   4.229695   2.808044
    31  C    5.228937   6.721677   4.883126   3.760452   2.448284
    32  H    7.335949   9.367464   4.859395   4.611327   3.435233
    33  H    6.544948   8.384257   6.115601   5.316257   3.894544
    34  C    5.225116   6.432662   6.252774   5.024056   3.841943
    35  H    5.969869   7.282419   7.038136   5.889657   4.603497
    36  H    4.315274   5.512184   6.564143   5.306843   4.239326
    37  H    5.725646   6.544620   6.477583   5.186464   4.165434
                   21         22         23         24         25
    21  C    0.000000
    22  C    1.419973   0.000000
    23  C    2.431755   1.375387   0.000000
    24  H    3.897333   3.394966   2.168467   0.000000
    25  H    3.431847   3.886745   3.410219   2.462879   0.000000
    26  C    2.470982   3.764715   4.257402   4.630977   2.720798
    27  C    1.417180   2.480479   3.734627   5.314275   4.612331
    28  H    2.161366   1.086821   2.143335   4.300362   4.973539
    29  H    3.417678   2.138987   1.085834   2.491630   4.299276
    30  C    2.424587   3.731403   4.856294   6.115150   4.864210
    31  C    2.837846   4.257636   5.089440   5.850202   4.103066
    32  H    2.162970   2.705326   4.074977   5.928020   5.557601
    33  H    3.409770   4.611906   5.823971   7.184131   5.933713
    34  C    4.347001   5.766893   6.572602   7.155784   5.136604
    35  H    4.831716   6.228910   7.188156   7.997182   6.111322
    36  H    4.850066   6.242673   6.971911   7.412758   5.312203
    37  H    4.871140   6.267142   6.946912   7.302683   5.134411
                   26         27         28         29         30
    26  C    0.000000
    27  C    2.816295   0.000000
    28  H    4.629235   2.699752   0.000000
    29  H    5.343223   4.616518   2.475281   0.000000
    30  C    2.422980   1.373779   4.067530   5.825075   0.000000
    31  C    1.389815   2.437435   4.881845   6.150776   1.419236
    32  H    3.902981   1.086698   2.468346   4.774618   2.140646
    33  H    3.398017   2.134407   4.764493   6.742845   1.086570
    34  C    2.526004   3.805966   6.363963   7.642379   2.532414
    35  H    3.422621   3.991434   6.671846   8.227283   2.620680
    36  H    2.915205   4.401831   6.876823   8.040596   3.195970
    37  H    2.787411   4.504391   6.943555   8.024578   3.322508
                   31         32         33         34         35
    31  C    0.000000
    32  H    3.423478   0.000000
    33  H    2.160995   2.466383   0.000000
    34  C    1.509649   4.672743   2.709496   0.000000
    35  H    2.158253   4.666121   2.342745   1.092942   0.000000
    36  H    2.161514   5.272816   3.370220   1.096009   1.770553
    37  H    2.163704   5.416198   3.568291   1.093865   1.774497
                   36         37
    36  H    0.000000
    37  H    1.756394   0.000000
 Stoichiometry    C21H16
 Framework group  C1[X(C21H16)]
 Deg. of freedom   105
 Full point group                 C1      NOp   1
 Largest Abelian subgroup         C1      NOp   1
 Largest concise Abelian subgroup C1      NOp   1
                         Standard orientation:                         
 ---------------------------------------------------------------------
 Center     Atomic      Atomic             Coordinates (Angstroms)
 Number     Number       Type             X           Y           Z
 ---------------------------------------------------------------------
      1          6           0       -2.163781   -0.995199    2.423255
      2          6           0       -3.189489   -1.013493    1.507697
      3          6           0       -2.988259   -0.529265    0.188628
      4          6           0       -1.702215   -0.016381   -0.181109
      5          6           0       -0.653247    0.002958    0.791643
      6          6           0       -0.894857   -0.486069    2.061141
      7          1           0       -5.001171   -0.930785   -0.490160
      8          1           0       -2.321626   -1.369154    3.430331
      9          1           0       -4.167903   -1.400432    1.779138
     10          6           0       -4.028422   -0.541313   -0.778394
     11          6           0       -1.511748    0.453499   -1.508505
     12          1           0       -0.091191   -0.473626    2.791204
     13          6           0       -2.541575    0.428068   -2.421410
     14          6           0       -3.813663   -0.072493   -2.053797
     15          1           0       -0.534465    0.830150   -1.790743
     16          1           0       -2.378715    0.790549   -3.431930
     17          1           0       -4.617913   -0.087246   -2.783186
     18          6           0        2.596400   -2.578843   -0.348683
     19          6           0        1.560789   -1.746031    0.009259
     20          6           0        1.746178   -0.337626    0.079439
     21          6           0        3.036428    0.195857   -0.241395
     22          6           0        4.084462   -0.691580   -0.602510
     23          6           0        3.873121   -2.049610   -0.655227
     24          1           0        2.434220   -3.651461   -0.398544
     25          1           0        0.584676   -2.156416    0.241611
     26          6           0        0.689880    0.554755    0.444650
     27          6           0        3.226508    1.599376   -0.192376
     28          1           0        5.059460   -0.274096   -0.839716
     29          1           0        4.681626   -2.718541   -0.934309
     30          6           0        2.191226    2.433964    0.152475
     31          6           0        0.905300    1.927437    0.475052
     32          1           0        4.205157    2.005747   -0.433252
     33          1           0        2.349965    3.508353    0.186008
     34          6           0       -0.205868    2.884320    0.833828
     35          1           0        0.179563    3.896866    0.977758
     36          1           0       -0.965621    2.920721    0.044724
     37          1           0       -0.719078    2.575380    1.749094
 ---------------------------------------------------------------------
 Rotational constants (GHZ):           0.5419631           0.2306994           0.2158019
 Standard basis: def2TZVPP (5D, 7F)
 There are   996 symmetry adapted cartesian basis functions of A   symmetry.
 There are   875 symmetry adapted basis functions of A   symmetry.
   875 basis functions,  1343 primitive gaussians,   996 cartesian basis functions
    71 alpha electrons       71 beta electrons
       nuclear repulsion energy      1512.8594066587 Hartrees.
 NAtoms=   37 NActive=   37 NUniq=   37 SFac= 1.00D+00 NAtFMM=   60 NAOKFM=F Big=F
 Integral buffers will be    131072 words long.
 Raffenetti 2 integral format.
 Two-electron integral symmetry is turned on.
 Nuclear repulsion after empirical dispersion term =     1512.8521221987 Hartrees.
 ------------------------------------------------------------------------------
 Polarizable Continuum Model (PCM)
 =================================
 Model                : PCM.
 Atomic radii         : SMD-Coulomb.
 Polarization charges : Total charges.
 Charge compensation  : None.
 Solution method      : On-the-fly selection.
 Cavity type          : VdW (van der Waals Surface) (Alpha=1.000).
 Cavity algorithm     : GePol (No added spheres)
                        Default sphere list used, NSphG=   37.
                        Lebedev-Laikov grids with approx.  5.0 points / Ang**2.
                        Smoothing algorithm: York/Karplus (Gamma=1.0000).
                        Polarization charges: spherical gaussians, with
                                              point-specific exponents (IZeta= 3).
                        Self-potential: point-specific (ISelfS= 7).
                        Self-field    : sphere-specific E.n sum rule (ISelfD= 2).
 Solvent              : n,n-DiMethylFormamide, Eps=  37.219000 Eps(inf)=   2.046330
 ------------------------------------------------------------------------------
 ------------------------------------------------------------------------------
 Atomic radii for non-electrostatic terms: SMD-CDS.
 ------------------------------------------------------------------------------
 Nuclear repulsion after PCM non-electrostatic terms =     1512.8471749830 Hartrees.
 One-electron integrals computed using PRISM.
   1 Symmetry operations used in ECPInt.
 ECPInt:  NShTT=   53628 NPrTT=  150936 LenC2=   47273 LenP2D=   97582.
 LDataN:  DoStor=T MaxTD1= 6 Len=  172
 NBasis=   875 RedAO= T EigKep=  3.18D-06  NBF=   875
 NBsUse=   875 1.00D-06 EigRej= -1.00D+00 NBFU=   875
 ExpMin= 9.52D-02 ExpMax= 1.36D+04 ExpMxC= 4.63D+02 IAcc=3 IRadAn=         5 AccDes= 0.00D+00
 Harris functional with IExCor= 1009 and IRadAn=       5 diagonalized for initial guess.
 HarFok:  IExCor= 1009 AccDes= 0.00D+00 IRadAn=         5 IDoV= 1 UseB2=F ITyADJ=14
 ICtDFT=  3500011 ScaDFX=  1.000000  1.000000  1.000000  1.000000
 FoFCou: FMM=F IPFlag=           0 FMFlag=      100000 FMFlg1=           0
         NFxFlg=           0 DoJE=T BraDBF=F KetDBF=T FulRan=T
         wScrn=  0.000000 ICntrl=       500 IOpCl=  0 I1Cent=   200000004 NGrid=           0
         NMat0=    1 NMatS0=      1 NMatT0=    0 NMatD0=    1 NMtDS0=    0 NMtDT0=    0
 Petite list used in FoFCou.
 Requested convergence on RMS density matrix=1.00D-08 within 128 cycles.
 Requested convergence on MAX density matrix=1.00D-06.
 Requested convergence on             energy=1.00D-06.
 No special actions if energy rises.
 Inv3:  Mode=1 IEnd=    24367500.
 Iteration    1 A*A^-1 deviation from unit magnitude is 3.11D-15 for    374.
 Iteration    1 A*A^-1 deviation from orthogonality  is 2.46D-15 for   2553   1648.
 Iteration    1 A^-1*A deviation from unit magnitude is 3.33D-15 for   1614.
 Iteration    1 A^-1*A deviation from orthogonality  is 6.80D-14 for   1657   1116.
 Error on total polarization charges =  0.06318
 SCF Done:  E(RM06) =  -809.569310798     A.U. after   14 cycles
            NFock= 14  Conv=0.37D-08     -V/T= 2.0057
 SMD-CDS (non-electrostatic) energy       (kcal/mol) =      -3.10
 (included in total energy above)

 **********************************************************************

            Population analysis using the SCF Density.

 **********************************************************************

 Orbital symmetries:
       Occupied  (A) (A) (A) (A) (A) (A) (A) (A) (A) (A) (A) (A)
                 (A) (A) (A) (A) (A) (A) (A) (A) (A) (A) (A) (A)
                 (A) (A) (A) (A) (A) (A) (A) (A) (A) (A) (A) (A)
                 (A) (A) (A) (A) (A) (A) (A) (A) (A) (A) (A) (A)
                 (A) (A) (A) (A) (A) (A) (A) (A) (A) (A) (A) (A)
                 (A) (A) (A) (A) (A) (A) (A) (A) (A) (A) (A)
       Virtual   (A) (A) (A) (A) (A) (A) (A) (A) (A) (A) (A) (A)
                 (A) (A) (A) (A) (A) (A) (A) (A) (A) (A) (A) (A)
                 (A) (A) (A) (A) (A) (A) (A) (A) (A) (A) (A) (A)
                 (A) (A) (A) (A) (A) (A) (A) (A) (A) (A) (A) (A)
                 (A) (A) (A) (A) (A) (A) (A) (A) (A) (A) (A) (A)
                 (A) (A) (A) (A) (A) (A) (A) (A) (A) (A) (A) (A)
                 (A) (A) (A) (A) (A) (A) (A) (A) (A) (A) (A) (A)
                 (A) (A) (A) (A) (A) (A) (A) (A) (A) (A) (A) (A)
                 (A) (A) (A) (A) (A) (A) (A) (A) (A) (A) (A) (A)
                 (A) (A) (A) (A) (A) (A) (A) (A) (A) (A) (A) (A)
                 (A) (A) (A) (A) (A) (A) (A) (A) (A) (A) (A) (A)
                 (A) (A) (A) (A) (A) (A) (A) (A) (A) (A) (A) (A)
                 (A) (A) (A) (A) (A) (A) (A) (A) (A) (A) (A) (A)
                 (A) (A) (A) (A) (A) (A) (A) (A) (A) (A) (A) (A)
                 (A) (A) (A) (A) (A) (A) (A) (A) (A) (A) (A) (A)
                 (A) (A) (A) (A) (A) (A) (A) (A) (A) (A) (A) (A)
                 (A) (A) (A) (A) (A) (A) (A) (A) (A) (A) (A) (A)
                 (A) (A) (A) (A) (A) (A) (A) (A) (A) (A) (A) (A)
                 (A) (A) (A) (A) (A) (A) (A) (A) (A) (A) (A) (A)
                 (A) (A) (A) (A) (A) (A) (A) (A) (A) (A) (A) (A)
                 (A) (A) (A) (A) (A) (A) (A) (A) (A) (A) (A) (A)
                 (A) (A) (A) (A) (A) (A) (A) (A) (A) (A) (A) (A)
                 (A) (A) (A) (A) (A) (A) (A) (A) (A) (A) (A) (A)
                 (A) (A) (A) (A) (A) (A) (A) (A) (A) (A) (A) (A)
                 (A) (A) (A) (A) (A) (A) (A) (A) (A) (A) (A) (A)
                 (A) (A) (A) (A) (A) (A) (A) (A) (A) (A) (A) (A)
                 (A) (A) (A) (A) (A) (A) (A) (A) (A) (A) (A) (A)
                 (A) (A) (A) (A) (A) (A) (A) (A) (A) (A) (A) (A)
                 (A) (A) (A) (A) (A) (A) (A) (A) (A) (A) (A) (A)
                 (A) (A) (A) (A) (A) (A) (A) (A) (A) (A) (A) (A)
                 (A) (A) (A) (A) (A) (A) (A) (A) (A) (A) (A) (A)
                 (A) (A) (A) (A) (A) (A) (A) (A) (A) (A) (A) (A)
                 (A) (A) (A) (A) (A) (A) (A) (A) (A) (A) (A) (A)
                 (A) (A) (A) (A) (A) (A) (A) (A) (A) (A) (A) (A)
                 (A) (A) (A) (A) (A) (A) (A) (A) (A) (A) (A) (A)
                 (A) (A) (A) (A) (A) (A) (A) (A) (A) (A) (A) (A)
                 (A) (A) (A) (A) (A) (A) (A) (A) (A) (A) (A) (A)
                 (A) (A) (A) (A) (A) (A) (A) (A) (A) (A) (A) (A)
                 (A) (A) (A) (A) (A) (A) (A) (A) (A) (A) (A) (A)
                 (A) (A) (A) (A) (A) (A) (A) (A) (A) (A) (A) (A)
                 (A) (A) (A) (A) (A) (A) (A) (A) (A) (A) (A) (A)
                 (A) (A) (A) (A) (A) (A) (A) (A) (A) (A) (A) (A)
                 (A) (A) (A) (A) (A) (A) (A) (A) (A) (A) (A) (A)
                 (A) (A) (A) (A) (A) (A) (A) (A) (A) (A) (A) (A)
                 (A) (A) (A) (A) (A) (A) (A) (A) (A) (A) (A) (A)
                 (A) (A) (A) (A) (A) (A) (A) (A) (A) (A) (A) (A)
                 (A) (A) (A) (A) (A) (A) (A) (A) (A) (A) (A) (A)
                 (A) (A) (A) (A) (A) (A) (A) (A) (A) (A) (A) (A)
                 (A) (A) (A) (A) (A) (A) (A) (A) (A) (A) (A) (A)
                 (A) (A) (A) (A) (A) (A) (A) (A) (A) (A) (A) (A)
                 (A) (A) (A) (A) (A) (A) (A) (A) (A) (A) (A) (A)
                 (A) (A) (A) (A) (A) (A) (A) (A) (A) (A) (A) (A)
                 (A) (A) (A) (A) (A) (A) (A) (A) (A) (A) (A) (A)
                 (A) (A) (A) (A) (A) (A) (A) (A) (A) (A) (A) (A)
                 (A) (A) (A) (A) (A) (A) (A) (A) (A) (A) (A) (A)
                 (A) (A) (A) (A) (A) (A) (A) (A) (A) (A) (A) (A)
                 (A) (A) (A) (A) (A) (A) (A) (A) (A) (A) (A) (A)
                 (A) (A) (A) (A) (A) (A) (A) (A) (A) (A) (A) (A)
                 (A) (A) (A) (A) (A) (A) (A) (A) (A) (A) (A) (A)
                 (A) (A) (A) (A) (A) (A) (A) (A) (A) (A) (A) (A)
                 (A) (A) (A) (A) (A) (A) (A) (A) (A) (A) (A) (A)
                 (A) (A) (A) (A) (A) (A) (A) (A) (A) (A) (A) (A)
                 (A) (A) (A) (A) (A) (A) (A) (A) (A) (A) (A) (A)
                 (A) (A) (A) (A) (A) (A) (A) (A) (A) (A) (A) (A)
                 (A) (A) (A) (A) (A) (A) (A) (A) (A) (A) (A) (A)
                 (A) (A) (A) (A) (A) (A) (A) (A) (A) (A) (A) (A)
                 (A) (A) (A) (A) (A) (A) (A) (A) (A) (A) (A) (A)
 The electronic state is 1-A.
 Alpha  occ. eigenvalues --  -10.25395 -10.25361 -10.25346 -10.25325 -10.25243
 Alpha  occ. eigenvalues --  -10.25069 -10.24944 -10.24171 -10.24152 -10.24147
 Alpha  occ. eigenvalues --  -10.24085 -10.24073 -10.24070 -10.24061 -10.24045
 Alpha  occ. eigenvalues --  -10.24034 -10.23974 -10.23924 -10.23907 -10.23793
 Alpha  occ. eigenvalues --  -10.22512  -0.89742  -0.88260  -0.84291  -0.83225
 Alpha  occ. eigenvalues --   -0.80358  -0.77431  -0.76744  -0.75249  -0.74036
 Alpha  occ. eigenvalues --   -0.72328  -0.69244  -0.64157  -0.63029  -0.62401
 Alpha  occ. eigenvalues --   -0.61700  -0.60675  -0.57972  -0.53117  -0.52208
 Alpha  occ. eigenvalues --   -0.51786  -0.50690  -0.50030  -0.49330  -0.45763
 Alpha  occ. eigenvalues --   -0.45514  -0.45324  -0.43845  -0.43270  -0.43065
 Alpha  occ. eigenvalues --   -0.42753  -0.42141  -0.40828  -0.40712  -0.40024
 Alpha  occ. eigenvalues --   -0.39807  -0.39152  -0.38308  -0.37038  -0.35192
 Alpha  occ. eigenvalues --   -0.35040  -0.34981  -0.34139  -0.33491  -0.32775
 Alpha  occ. eigenvalues --   -0.30063  -0.29475  -0.26075  -0.25515  -0.23350
 Alpha  occ. eigenvalues --   -0.22589
 Alpha virt. eigenvalues --   -0.04666  -0.04311  -0.02115  -0.01091   0.01646
 Alpha virt. eigenvalues --    0.02443   0.05210   0.06141   0.06593   0.06946
 Alpha virt. eigenvalues --    0.07148   0.07813   0.08473   0.08815   0.09367
 Alpha virt. eigenvalues --    0.09445   0.09535   0.09941   0.11009   0.11100
 Alpha virt. eigenvalues --    0.12249   0.12414   0.12997   0.13921   0.14712
 Alpha virt. eigenvalues --    0.15441   0.15825   0.16478   0.16915   0.17625
 Alpha virt. eigenvalues --    0.18038   0.18639   0.19575   0.20021   0.20643
 Alpha virt. eigenvalues --    0.20802   0.20951   0.21204   0.22172   0.22886
 Alpha virt. eigenvalues --    0.23165   0.23746   0.23835   0.24385   0.24499
 Alpha virt. eigenvalues --    0.25229   0.25367   0.25616   0.25737   0.27239
 Alpha virt. eigenvalues --    0.27361   0.27418   0.28018   0.28395   0.28525
 Alpha virt. eigenvalues --    0.28929   0.29131   0.29899   0.29996   0.30610
 Alpha virt. eigenvalues --    0.31072   0.31497   0.31952   0.32708   0.33051
 Alpha virt. eigenvalues --    0.33227   0.34058   0.34133   0.34363   0.34838
 Alpha virt. eigenvalues --    0.35020   0.35430   0.35732   0.35738   0.36344
 Alpha virt. eigenvalues --    0.36454   0.37334   0.37529   0.37748   0.37959
 Alpha virt. eigenvalues --    0.38588   0.38872   0.39276   0.39325   0.39715
 Alpha virt. eigenvalues --    0.40411   0.40508   0.40879   0.41637   0.42545
 Alpha virt. eigenvalues --    0.42825   0.43152   0.43730   0.44291   0.44707
 Alpha virt. eigenvalues --    0.45135   0.45367   0.45865   0.46182   0.46954
 Alpha virt. eigenvalues --    0.47131   0.47580   0.48260   0.48830   0.49554
 Alpha virt. eigenvalues --    0.49713   0.50177   0.50400   0.51244   0.51669
 Alpha virt. eigenvalues --    0.52233   0.52717   0.53339   0.53524   0.54413
 Alpha virt. eigenvalues --    0.55017   0.55696   0.56624   0.57661   0.58868
 Alpha virt. eigenvalues --    0.59699   0.60425   0.60900   0.61659   0.62065
 Alpha virt. eigenvalues --    0.62831   0.63165   0.63879   0.64563   0.65239
 Alpha virt. eigenvalues --    0.65897   0.66134   0.66281   0.66716   0.66866
 Alpha virt. eigenvalues --    0.67742   0.68127   0.68908   0.69214   0.69500
 Alpha virt. eigenvalues --    0.69844   0.70235   0.70722   0.71036   0.71170
 Alpha virt. eigenvalues --    0.71770   0.72243   0.72374   0.73098   0.73598
 Alpha virt. eigenvalues --    0.73969   0.74873   0.76182   0.76876   0.77997
 Alpha virt. eigenvalues --    0.78869   0.79805   0.79979   0.80129   0.80617
 Alpha virt. eigenvalues --    0.81503   0.81858   0.82118   0.82618   0.82796
 Alpha virt. eigenvalues --    0.83387   0.83619   0.85569   0.85785   0.86250
 Alpha virt. eigenvalues --    0.86725   0.87114   0.88152   0.89102   0.89690
 Alpha virt. eigenvalues --    0.90144   0.90790   0.91153   0.92160   0.92680
 Alpha virt. eigenvalues --    0.94019   0.94701   0.95193   0.95525   0.96347
 Alpha virt. eigenvalues --    0.96502   0.97527   0.98905   0.99009   0.99801
 Alpha virt. eigenvalues --    1.00081   1.00271   1.00482   1.02059   1.02878
 Alpha virt. eigenvalues --    1.03701   1.04559   1.05131   1.05992   1.06418
 Alpha virt. eigenvalues --    1.06533   1.07139   1.07544   1.08122   1.08513
 Alpha virt. eigenvalues --    1.09668   1.09942   1.10563   1.11458   1.11638
 Alpha virt. eigenvalues --    1.12034   1.13215   1.13536   1.14486   1.14979
 Alpha virt. eigenvalues --    1.15758   1.16728   1.17342   1.18639   1.19011
 Alpha virt. eigenvalues --    1.19743   1.19795   1.20471   1.20685   1.21292
 Alpha virt. eigenvalues --    1.21836   1.22643   1.23244   1.23834   1.24616
 Alpha virt. eigenvalues --    1.25137   1.25240   1.25928   1.26573   1.26938
 Alpha virt. eigenvalues --    1.27487   1.27900   1.28652   1.28864   1.29806
 Alpha virt. eigenvalues --    1.30319   1.30590   1.31062   1.31709   1.32707
 Alpha virt. eigenvalues --    1.34114   1.34277   1.35178   1.35421   1.35850
 Alpha virt. eigenvalues --    1.36463   1.37202   1.37687   1.38205   1.38672
 Alpha virt. eigenvalues --    1.39819   1.40163   1.41123   1.41459   1.41927
 Alpha virt. eigenvalues --    1.42453   1.42686   1.43417   1.44362   1.45023
 Alpha virt. eigenvalues --    1.45244   1.45910   1.46368   1.47560   1.47857
 Alpha virt. eigenvalues --    1.48457   1.49615   1.50986   1.51985   1.53580
 Alpha virt. eigenvalues --    1.54158   1.54732   1.55244   1.56574   1.56743
 Alpha virt. eigenvalues --    1.57226   1.58107   1.58989   1.59557   1.60690
 Alpha virt. eigenvalues --    1.60770   1.61307   1.62081   1.62389   1.62537
 Alpha virt. eigenvalues --    1.63639   1.63879   1.64870   1.65743   1.66433
 Alpha virt. eigenvalues --    1.67207   1.68180   1.68482   1.69990   1.70649
 Alpha virt. eigenvalues --    1.70798   1.71165   1.72042   1.72432   1.72992
 Alpha virt. eigenvalues --    1.73858   1.74091   1.74658   1.75014   1.76007
 Alpha virt. eigenvalues --    1.76731   1.77302   1.77846   1.78107   1.80035
 Alpha virt. eigenvalues --    1.81954   1.82791   1.83308   1.86553   1.87700
 Alpha virt. eigenvalues --    1.89137   1.90870   1.91459   1.92651   1.94918
 Alpha virt. eigenvalues --    1.95490   1.96534   1.97409   1.98381   1.99320
 Alpha virt. eigenvalues --    1.99665   2.00307   2.01102   2.02192   2.03167
 Alpha virt. eigenvalues --    2.03485   2.05182   2.05533   2.06398   2.07121
 Alpha virt. eigenvalues --    2.07528   2.08349   2.08626   2.09721   2.10972
 Alpha virt. eigenvalues --    2.11868   2.13930   2.16514   2.17711   2.19722
 Alpha virt. eigenvalues --    2.20575   2.22261   2.23468   2.24252   2.24816
 Alpha virt. eigenvalues --    2.25168   2.26337   2.27015   2.28260   2.29950
 Alpha virt. eigenvalues --    2.31013   2.31355   2.32167   2.33267   2.34328
 Alpha virt. eigenvalues --    2.34945   2.35862   2.36770   2.38046   2.38830
 Alpha virt. eigenvalues --    2.40316   2.40651   2.43244   2.43733   2.44025
 Alpha virt. eigenvalues --    2.47379   2.48247   2.50611   2.51274   2.52819
 Alpha virt. eigenvalues --    2.53704   2.56290   2.57316   2.59099   2.61838
 Alpha virt. eigenvalues --    2.62548   2.63129   2.64216   2.65074   2.65753
 Alpha virt. eigenvalues --    2.65863   2.66666   2.66897   2.67931   2.68420
 Alpha virt. eigenvalues --    2.68743   2.69370   2.69564   2.69963   2.70865
 Alpha virt. eigenvalues --    2.71209   2.71640   2.71994   2.72571   2.73010
 Alpha virt. eigenvalues --    2.74055   2.74941   2.75323   2.75718   2.76775
 Alpha virt. eigenvalues --    2.77378   2.78315   2.79133   2.79346   2.80164
 Alpha virt. eigenvalues --    2.81575   2.81955   2.82812   2.83132   2.83939
 Alpha virt. eigenvalues --    2.84753   2.85058   2.85884   2.85983   2.86923
 Alpha virt. eigenvalues --    2.88062   2.88335   2.88724   2.89264   2.90052
 Alpha virt. eigenvalues --    2.90760   2.91108   2.91985   2.92687   2.93009
 Alpha virt. eigenvalues --    2.93399   2.94134   2.94310   2.94874   2.95355
 Alpha virt. eigenvalues --    2.95566   2.96300   2.96617   2.97401   2.97881
 Alpha virt. eigenvalues --    2.98547   2.99031   2.99221   2.99870   3.00099
 Alpha virt. eigenvalues --    3.00239   3.01247   3.02208   3.02668   3.03111
 Alpha virt. eigenvalues --    3.03597   3.04502   3.04588   3.04814   3.05092
 Alpha virt. eigenvalues --    3.06186   3.07249   3.07887   3.08785   3.09345
 Alpha virt. eigenvalues --    3.09593   3.10446   3.11481   3.11912   3.12110
 Alpha virt. eigenvalues --    3.12452   3.12984   3.13902   3.14398   3.14651
 Alpha virt. eigenvalues --    3.14786   3.15868   3.15999   3.16242   3.16988
 Alpha virt. eigenvalues --    3.17115   3.17677   3.18208   3.19393   3.19788
 Alpha virt. eigenvalues --    3.20257   3.21225   3.21829   3.22396   3.22587
 Alpha virt. eigenvalues --    3.23509   3.23715   3.24743   3.25140   3.26762
 Alpha virt. eigenvalues --    3.27514   3.27750   3.28129   3.29253   3.29564
 Alpha virt. eigenvalues --    3.30756   3.31060   3.31898   3.32279   3.33191
 Alpha virt. eigenvalues --    3.33844   3.34530   3.34739   3.35342   3.35711
 Alpha virt. eigenvalues --    3.36058   3.36824   3.37006   3.37365   3.37779
 Alpha virt. eigenvalues --    3.38421   3.38919   3.39721   3.39944   3.41318
 Alpha virt. eigenvalues --    3.41804   3.42192   3.42950   3.43332   3.43457
 Alpha virt. eigenvalues --    3.44184   3.44664   3.44781   3.45424   3.46214
 Alpha virt. eigenvalues --    3.47250   3.47813   3.48571   3.48914   3.49674
 Alpha virt. eigenvalues --    3.50454   3.50687   3.51227   3.52250   3.52733
 Alpha virt. eigenvalues --    3.53748   3.54052   3.55008   3.55578   3.55939
 Alpha virt. eigenvalues --    3.56318   3.57038   3.57330   3.58033   3.58752
 Alpha virt. eigenvalues --    3.60168   3.60754   3.61527   3.62223   3.63697
 Alpha virt. eigenvalues --    3.64407   3.65068   3.66694   3.67585   3.68641
 Alpha virt. eigenvalues --    3.69456   3.70142   3.70342   3.71543   3.71999
 Alpha virt. eigenvalues --    3.72604   3.72773   3.73358   3.73547   3.73768
 Alpha virt. eigenvalues --    3.74885   3.75557   3.75665   3.77132   3.77672
 Alpha virt. eigenvalues --    3.77942   3.78690   3.79477   3.80167   3.80628
 Alpha virt. eigenvalues --    3.81373   3.81526   3.82174   3.82307   3.83495
 Alpha virt. eigenvalues --    3.83615   3.84903   3.85744   3.86311   3.88675
 Alpha virt. eigenvalues --    3.88915   3.89415   3.90190   3.90415   3.91201
 Alpha virt. eigenvalues --    3.91759   3.92003   3.93056   3.94088   3.95129
 Alpha virt. eigenvalues --    3.95604   3.96241   3.96990   3.97805   3.99208
 Alpha virt. eigenvalues --    3.99633   4.00284   4.01139   4.01754   4.02403
 Alpha virt. eigenvalues --    4.03208   4.04221   4.04925   4.05311   4.06876
 Alpha virt. eigenvalues --    4.07497   4.08011   4.08434   4.09258   4.09705
 Alpha virt. eigenvalues --    4.10173   4.10755   4.11137   4.12424   4.13007
 Alpha virt. eigenvalues --    4.13853   4.14077   4.14529   4.15042   4.15669
 Alpha virt. eigenvalues --    4.16243   4.16985   4.17255   4.18115   4.18304
 Alpha virt. eigenvalues --    4.18955   4.19440   4.20293   4.21224   4.21974
 Alpha virt. eigenvalues --    4.23163   4.23597   4.23961   4.24120   4.24953
 Alpha virt. eigenvalues --    4.26106   4.26250   4.26521   4.27572   4.27832
 Alpha virt. eigenvalues --    4.28165   4.28876   4.29726   4.31107   4.31392
 Alpha virt. eigenvalues --    4.33084   4.35018   4.35321   4.36685   4.37589
 Alpha virt. eigenvalues --    4.38826   4.38919   4.40092   4.40606   4.42366
 Alpha virt. eigenvalues --    4.42987   4.43703   4.43961   4.45614   4.45801
 Alpha virt. eigenvalues --    4.47708   4.49044   4.49902   4.50828   4.52292
 Alpha virt. eigenvalues --    4.54347   4.54644   4.55081   4.55789   4.56271
 Alpha virt. eigenvalues --    4.57105   4.57645   4.58595   4.58938   4.59344
 Alpha virt. eigenvalues --    4.60068   4.61875   4.62841   4.63653   4.64426
 Alpha virt. eigenvalues --    4.64729   4.66352   4.68346   4.68986   4.69684
 Alpha virt. eigenvalues --    4.70374   4.71038   4.71676   4.73255   4.73532
 Alpha virt. eigenvalues --    4.73988   4.75257   4.75449   4.77083   4.77245
 Alpha virt. eigenvalues --    4.80025   4.82364   4.82902   4.83414   4.83946
 Alpha virt. eigenvalues --    4.86321   4.88268   4.90137   4.91069   4.91873
 Alpha virt. eigenvalues --    4.94138   4.96245   4.96478   4.97309   4.98896
 Alpha virt. eigenvalues --    4.99551   5.00761   5.02267   5.02767   5.05148
 Alpha virt. eigenvalues --    5.06271   5.07345   5.08933   5.09490   5.10299
 Alpha virt. eigenvalues --    5.10779   5.13197   5.13419   5.15172   5.15426
 Alpha virt. eigenvalues --    5.16209   5.17305   5.18901   5.19550   5.20916
 Alpha virt. eigenvalues --    5.22150   5.22617   5.23329   5.24477   5.24832
 Alpha virt. eigenvalues --    5.27797   5.29491   5.30114   5.31055   5.32905
 Alpha virt. eigenvalues --    5.34283   5.37038   5.39948   5.42548   5.46410
 Alpha virt. eigenvalues --    5.49613   5.52755   5.54606   5.54996   5.56648
 Alpha virt. eigenvalues --    5.57799   5.60560   5.62496   5.62914   5.66416
 Alpha virt. eigenvalues --    5.66927   5.69617   5.75143   5.81849   5.82679
 Alpha virt. eigenvalues --    5.86482   5.89414   5.94450   5.96343   6.00774
 Alpha virt. eigenvalues --    6.01939   6.02670   6.07970   6.10369   6.26365
 Alpha virt. eigenvalues --    6.30732   6.63326   6.66085  22.61564  22.70455
 Alpha virt. eigenvalues --   23.03187  23.04592  23.09658  23.11375  23.13570
 Alpha virt. eigenvalues --   23.15554  23.17561  23.19103  23.21370  23.23630
 Alpha virt. eigenvalues --   23.28162  23.31847  23.33887  23.43213  23.66572
 Alpha virt. eigenvalues --   23.72931  23.78414  24.17162  24.33717
          Condensed to atoms (all electrons):
               1          2          3          4          5          6
     1  C    5.167438   0.399698   0.060934  -0.221887   0.135312   0.295269
     2  C    0.399698   5.223087   0.218278   0.189589  -0.264874   0.047303
     3  C    0.060934   0.218278   5.804136  -0.182192   0.107373  -0.161128
     4  C   -0.221887   0.189589  -0.182192   6.844628  -0.546460   0.220842
     5  C    0.135312  -0.264874   0.107373  -0.546460   7.589305   0.153161
     6  C    0.295269   0.047303  -0.161128   0.220842   0.153161   5.527168
     7  H   -0.002921   0.003201  -0.013947   0.028668  -0.000657   0.000651
     8  H    0.428970  -0.045538   0.011822  -0.002738   0.012295  -0.046344
     9  H   -0.027360   0.369796  -0.016090   0.029321  -0.002706   0.006784
    10  C    0.014741  -0.089588   0.331197  -0.024718   0.049462  -0.009979
    11  C   -0.015686   0.046401  -0.021829   0.204810  -0.069357   0.033831
    12  H   -0.045999   0.015010  -0.006772   0.034207  -0.057833   0.440445
    13  C    0.002272  -0.009660  -0.038390  -0.022883   0.019946  -0.003239
    14  C   -0.002875   0.015169  -0.017330  -0.081936  -0.019923   0.002750
    15  H   -0.000124   0.000428   0.003253  -0.028711  -0.004188  -0.001249
    16  H    0.000032  -0.000047   0.000195   0.011607  -0.000618  -0.000061
    17  H   -0.000018  -0.000382   0.010861  -0.002707  -0.000080   0.000021
    18  C    0.000237  -0.000172   0.000312  -0.002703   0.002939  -0.001767
    19  C    0.003391  -0.002777   0.006020  -0.027090  -0.090725  -0.040849
    20  C   -0.003351   0.002924  -0.002367   0.066467  -0.337930   0.024454
    21  C   -0.000191   0.000101  -0.000489   0.002911   0.087192  -0.000516
    22  C    0.000022  -0.000006   0.000026  -0.000214   0.000862  -0.000031
    23  C   -0.000025   0.000006  -0.000023   0.000205  -0.003203  -0.000113
    24  H    0.000007  -0.000001   0.000003  -0.000018   0.000392   0.000085
    25  H    0.001037  -0.000609   0.001446  -0.009074   0.015947  -0.014715
    26  C    0.001734  -0.014414   0.057225  -0.260943  -0.259311  -0.198373
    27  C    0.000014   0.000001   0.000090   0.002037  -0.048067   0.001460
    28  H    0.000000  -0.000000   0.000000  -0.000006   0.000087  -0.000003
    29  H   -0.000000   0.000000  -0.000000   0.000002  -0.000020   0.000003
    30  C   -0.000031   0.000024  -0.000415   0.000176   0.070757  -0.002640
    31  C   -0.000295   0.000107   0.005355   0.045867  -0.395594  -0.004895
    32  H    0.000000  -0.000000   0.000000  -0.000019   0.000116  -0.000002
    33  H   -0.000002   0.000000  -0.000005  -0.000031   0.001032  -0.000018
    34  C    0.001348  -0.000830   0.007371  -0.007406  -0.126772  -0.011922
    35  H   -0.000054   0.000006  -0.000066   0.000146   0.002509   0.000150
    36  H   -0.000193   0.000608   0.001563   0.013606  -0.031934   0.001793
    37  H    0.002786  -0.001335   0.000823  -0.017467   0.024151  -0.009634
               7          8          9         10         11         12
     1  C   -0.002921   0.428970  -0.027360   0.014741  -0.015686  -0.045999
     2  C    0.003201  -0.045538   0.369796  -0.089588   0.046401   0.015010
     3  C   -0.013947   0.011822  -0.016090   0.331197  -0.021829  -0.006772
     4  C    0.028668  -0.002738   0.029321  -0.024718   0.204810   0.034207
     5  C   -0.000657   0.012295  -0.002706   0.049462  -0.069357  -0.057833
     6  C    0.000651  -0.046344   0.006784  -0.009979   0.033831   0.440445
     7  H    0.401496  -0.000030   0.010904   0.368484  -0.002159  -0.000003
     8  H   -0.000030   0.400708  -0.002164  -0.000333   0.000018  -0.002018
     9  H    0.010904  -0.002164   0.401581   0.002977  -0.000803  -0.000129
    10  C    0.368484  -0.000333   0.002977   5.135743  -0.103202  -0.000165
    11  C   -0.002159   0.000018  -0.000803  -0.103202   5.700640   0.000555
    12  H   -0.000003  -0.002018  -0.000129  -0.000165   0.000555   0.408760
    13  C    0.004283   0.000008   0.000532  -0.038064   0.411082  -0.000047
    14  C   -0.024450  -0.000005  -0.002608   0.460672   0.003451   0.000041
    15  H    0.000016  -0.000003   0.000004  -0.000010   0.383914   0.000026
    16  H   -0.000195   0.000000  -0.000004   0.008538  -0.039228  -0.000001
    17  H   -0.001753  -0.000000  -0.000028  -0.044673   0.013488   0.000000
    18  C   -0.000000   0.000003  -0.000001   0.000013  -0.000469  -0.000325
    19  C   -0.000001   0.000064  -0.000020   0.000184  -0.008070  -0.002155
    20  C   -0.000002  -0.000070   0.000005  -0.000182  -0.035252   0.002629
    21  C    0.000000  -0.000003   0.000001  -0.000004   0.007301   0.000477
    22  C   -0.000000   0.000000  -0.000000   0.000001   0.000034  -0.000008
    23  C    0.000000  -0.000000   0.000000  -0.000001   0.000021   0.000020
    24  H   -0.000000   0.000000  -0.000000   0.000000   0.000002   0.000002
    25  H    0.000000  -0.000006  -0.000002  -0.000039  -0.000181  -0.000114
    26  C    0.000055  -0.000734   0.000048   0.000653  -0.096474  -0.013242
    27  C    0.000000  -0.000000  -0.000000   0.000000  -0.003546  -0.000207
    28  H   -0.000000   0.000000  -0.000000  -0.000000  -0.000002  -0.000000
    29  H    0.000000  -0.000000   0.000000   0.000000  -0.000000   0.000000
    30  C    0.000000  -0.000001   0.000000  -0.000009   0.008096   0.000115
    31  C   -0.000003   0.000009  -0.000012  -0.000000  -0.049503   0.001301
    32  H   -0.000000  -0.000000  -0.000000  -0.000000  -0.000016  -0.000001
    33  H   -0.000000   0.000000  -0.000000   0.000000   0.000134   0.000007
    34  C   -0.000002  -0.000013  -0.000015   0.000159  -0.018663  -0.000258
    35  H   -0.000000   0.000000   0.000000   0.000000   0.000156   0.000007
    36  H   -0.000001  -0.000006   0.000003  -0.000031  -0.008236  -0.000007
    37  H    0.000001   0.000050  -0.000007   0.000028   0.000885  -0.000590
              13         14         15         16         17         18
     1  C    0.002272  -0.002875  -0.000124   0.000032  -0.000018   0.000237
     2  C   -0.009660   0.015169   0.000428  -0.000047  -0.000382  -0.000172
     3  C   -0.038390  -0.017330   0.003253   0.000195   0.010861   0.000312
     4  C   -0.022883  -0.081936  -0.028711   0.011607  -0.002707  -0.002703
     5  C    0.019946  -0.019923  -0.004188  -0.000618  -0.000080   0.002939
     6  C   -0.003239   0.002750  -0.001249  -0.000061   0.000021  -0.001767
     7  H    0.004283  -0.024450   0.000016  -0.000195  -0.001753  -0.000000
     8  H    0.000008  -0.000005  -0.000003   0.000000  -0.000000   0.000003
     9  H    0.000532  -0.002608   0.000004  -0.000004  -0.000028  -0.000001
    10  C   -0.038064   0.460672  -0.000010   0.008538  -0.044673   0.000013
    11  C    0.411082   0.003451   0.383914  -0.039228   0.013488  -0.000469
    12  H   -0.000047   0.000041   0.000026  -0.000001   0.000000  -0.000325
    13  C    5.098990   0.397943   0.012013   0.418283  -0.044439  -0.000038
    14  C    0.397943   5.132587   0.002716  -0.039168   0.427344   0.000000
    15  H    0.012013   0.002716   0.348384  -0.000809  -0.000174   0.000045
    16  H    0.418283  -0.039168  -0.000809   0.396670  -0.002486  -0.000000
    17  H   -0.044439   0.427344  -0.000174  -0.002486   0.399700   0.000000
    18  C   -0.000038   0.000000   0.000045  -0.000000   0.000000   5.117389
    19  C   -0.000322  -0.000070  -0.000248   0.000005  -0.000001   0.436106
    20  C   -0.001264  -0.000074  -0.012893   0.000019   0.000001  -0.027775
    21  C    0.000237   0.000006   0.002600  -0.000001  -0.000000  -0.030804
    22  C    0.000010  -0.000001  -0.000030   0.000000   0.000000  -0.032534
    23  C    0.000002   0.000001   0.000016  -0.000000  -0.000000   0.396140
    24  H   -0.000001  -0.000000  -0.000001  -0.000000   0.000000   0.416646
    25  H    0.000084   0.000005   0.000166  -0.000000  -0.000000   0.016685
    26  C   -0.000549  -0.002683   0.009415   0.000376  -0.000012   0.027019
    27  C   -0.000096  -0.000005  -0.001342   0.000003   0.000000  -0.011743
    28  H   -0.000000   0.000000  -0.000000  -0.000000   0.000000   0.004451
    29  H   -0.000000   0.000000  -0.000000   0.000000  -0.000000  -0.043896
    30  C    0.000038   0.000016   0.002735  -0.000006  -0.000000   0.004061
    31  C   -0.001109  -0.000225  -0.016964   0.000073   0.000003  -0.008355
    32  H   -0.000001   0.000000  -0.000006  -0.000000   0.000000   0.000494
    33  H    0.000002   0.000000   0.000030  -0.000000   0.000000   0.000018
    34  C   -0.000015  -0.000142  -0.000157   0.000026  -0.000000  -0.000174
    35  H   -0.000007   0.000000  -0.000019   0.000000   0.000000   0.000002
    36  H    0.000386  -0.000029   0.000105   0.000027  -0.000004  -0.000001
    37  H    0.000034   0.000006  -0.000042  -0.000001  -0.000000   0.000002
              19         20         21         22         23         24
     1  C    0.003391  -0.003351  -0.000191   0.000022  -0.000025   0.000007
     2  C   -0.002777   0.002924   0.000101  -0.000006   0.000006  -0.000001
     3  C    0.006020  -0.002367  -0.000489   0.000026  -0.000023   0.000003
     4  C   -0.027090   0.066467   0.002911  -0.000214   0.000205  -0.000018
     5  C   -0.090725  -0.337930   0.087192   0.000862  -0.003203   0.000392
     6  C   -0.040849   0.024454  -0.000516  -0.000031  -0.000113   0.000085
     7  H   -0.000001  -0.000002   0.000000  -0.000000   0.000000  -0.000000
     8  H    0.000064  -0.000070  -0.000003   0.000000  -0.000000   0.000000
     9  H   -0.000020   0.000005   0.000001  -0.000000   0.000000  -0.000000
    10  C    0.000184  -0.000182  -0.000004   0.000001  -0.000001   0.000000
    11  C   -0.008070  -0.035252   0.007301   0.000034   0.000021   0.000002
    12  H   -0.002155   0.002629   0.000477  -0.000008   0.000020   0.000002
    13  C   -0.000322  -0.001264   0.000237   0.000010   0.000002  -0.000001
    14  C   -0.000070  -0.000074   0.000006  -0.000001   0.000001  -0.000000
    15  H   -0.000248  -0.012893   0.002600  -0.000030   0.000016  -0.000001
    16  H    0.000005   0.000019  -0.000001   0.000000  -0.000000  -0.000000
    17  H   -0.000001   0.000001  -0.000000   0.000000  -0.000000   0.000000
    18  C    0.436106  -0.027775  -0.030804  -0.032534   0.396140   0.416646
    19  C    5.502921   0.302512  -0.058442  -0.095592  -0.011382  -0.035671
    20  C    0.302512   6.365285  -0.152061  -0.024364  -0.071861   0.010713
    21  C   -0.058442  -0.152061   5.822809   0.336048  -0.027913   0.000096
    22  C   -0.095592  -0.024364   0.336048   5.140439   0.455567   0.008492
    23  C   -0.011382  -0.071861  -0.027913   0.455567   5.139281  -0.038441
    24  H   -0.035671   0.010713   0.000096   0.008492  -0.038441   0.396334
    25  H    0.347436  -0.013903   0.003885   0.001017   0.001226  -0.000602
    26  C   -0.105046  -0.333547   0.237355   0.037473  -0.020570  -0.000527
    27  C    0.050798   0.201303   0.219035  -0.083279   0.017989  -0.000065
    28  H   -0.002220   0.028182  -0.013939   0.370148  -0.024768  -0.000196
    29  H    0.013225  -0.002352   0.010360  -0.044519   0.426878  -0.002332
    30  C   -0.022749  -0.242268   0.078466   0.017057  -0.004518   0.000038
    31  C    0.074382   0.449556  -0.307358  -0.013966   0.004781  -0.000072
    32  H   -0.000805   0.028202  -0.014624   0.002441  -0.002425  -0.000004
    33  H   -0.000127  -0.007063   0.012389  -0.000237  -0.000005   0.000000
    34  C    0.002607   0.048456  -0.014544  -0.000157   0.000066  -0.000001
    35  H   -0.000055  -0.003215   0.001157   0.000012  -0.000000   0.000000
    36  H    0.000188   0.001140  -0.000201  -0.000001  -0.000001   0.000000
    37  H    0.000070   0.001068  -0.000497  -0.000005  -0.000001   0.000000
              25         26         27         28         29         30
     1  C    0.001037   0.001734   0.000014   0.000000  -0.000000  -0.000031
     2  C   -0.000609  -0.014414   0.000001  -0.000000   0.000000   0.000024
     3  C    0.001446   0.057225   0.000090   0.000000  -0.000000  -0.000415
     4  C   -0.009074  -0.260943   0.002037  -0.000006   0.000002   0.000176
     5  C    0.015947  -0.259311  -0.048067   0.000087  -0.000020   0.070757
     6  C   -0.014715  -0.198373   0.001460  -0.000003   0.000003  -0.002640
     7  H    0.000000   0.000055   0.000000  -0.000000   0.000000   0.000000
     8  H   -0.000006  -0.000734  -0.000000   0.000000  -0.000000  -0.000001
     9  H   -0.000002   0.000048  -0.000000  -0.000000   0.000000   0.000000
    10  C   -0.000039   0.000653   0.000000  -0.000000   0.000000  -0.000009
    11  C   -0.000181  -0.096474  -0.003546  -0.000002  -0.000000   0.008096
    12  H   -0.000114  -0.013242  -0.000207  -0.000000   0.000000   0.000115
    13  C    0.000084  -0.000549  -0.000096  -0.000000  -0.000000   0.000038
    14  C    0.000005  -0.002683  -0.000005   0.000000   0.000000   0.000016
    15  H    0.000166   0.009415  -0.001342  -0.000000  -0.000000   0.002735
    16  H   -0.000000   0.000376   0.000003  -0.000000   0.000000  -0.000006
    17  H   -0.000000  -0.000012   0.000000   0.000000  -0.000000  -0.000000
    18  C    0.016685   0.027019  -0.011743   0.004451  -0.043896   0.004061
    19  C    0.347436  -0.105046   0.050798  -0.002220   0.013225  -0.022749
    20  C   -0.013903  -0.333547   0.201303   0.028182  -0.002352  -0.242268
    21  C    0.003885   0.237355   0.219035  -0.013939   0.010360   0.078466
    22  C    0.001017   0.037473  -0.083279   0.370148  -0.044519   0.017057
    23  C    0.001226  -0.020570   0.017989  -0.024768   0.426878  -0.004518
    24  H   -0.000602  -0.000527  -0.000065  -0.000196  -0.002332   0.000038
    25  H    0.338346   0.000580  -0.000282   0.000021  -0.000182   0.000314
    26  C    0.000580   7.346348  -0.313071  -0.000743  -0.000114   0.173123
    27  C   -0.000282  -0.313071   5.162093   0.003137  -0.000385   0.383938
    28  H    0.000021  -0.000743   0.003137   0.402256  -0.001700  -0.002969
    29  H   -0.000182  -0.000114  -0.000385  -0.001700   0.399212  -0.000040
    30  C    0.000314   0.173123   0.383938  -0.002969  -0.000040   5.262798
    31  C   -0.002239  -0.289324   0.186377   0.000625   0.000053   0.095924
    32  H    0.000002  -0.002890   0.369938   0.010685  -0.000027  -0.027666
    33  H   -0.000002   0.028093  -0.040226  -0.000037  -0.000000   0.417018
    34  C    0.000013  -0.138741   0.022538  -0.000004   0.000000  -0.082619
    35  H   -0.000002   0.035615  -0.002936  -0.000000  -0.000000  -0.015076
    36  H    0.000006  -0.018179   0.000078   0.000000  -0.000000   0.001858
    37  H    0.000003  -0.034273   0.000463   0.000000  -0.000000   0.006328
              31         32         33         34         35         36
     1  C   -0.000295   0.000000  -0.000002   0.001348  -0.000054  -0.000193
     2  C    0.000107  -0.000000   0.000000  -0.000830   0.000006   0.000608
     3  C    0.005355   0.000000  -0.000005   0.007371  -0.000066   0.001563
     4  C    0.045867  -0.000019  -0.000031  -0.007406   0.000146   0.013606
     5  C   -0.395594   0.000116   0.001032  -0.126772   0.002509  -0.031934
     6  C   -0.004895  -0.000002  -0.000018  -0.011922   0.000150   0.001793
     7  H   -0.000003  -0.000000  -0.000000  -0.000002  -0.000000  -0.000001
     8  H    0.000009  -0.000000   0.000000  -0.000013   0.000000  -0.000006
     9  H   -0.000012  -0.000000  -0.000000  -0.000015   0.000000   0.000003
    10  C   -0.000000  -0.000000   0.000000   0.000159   0.000000  -0.000031
    11  C   -0.049503  -0.000016   0.000134  -0.018663   0.000156  -0.008236
    12  H    0.001301  -0.000001   0.000007  -0.000258   0.000007  -0.000007
    13  C   -0.001109  -0.000001   0.000002  -0.000015  -0.000007   0.000386
    14  C   -0.000225   0.000000   0.000000  -0.000142   0.000000  -0.000029
    15  H   -0.016964  -0.000006   0.000030  -0.000157  -0.000019   0.000105
    16  H    0.000073  -0.000000  -0.000000   0.000026   0.000000   0.000027
    17  H    0.000003   0.000000   0.000000  -0.000000   0.000000  -0.000004
    18  C   -0.008355   0.000494   0.000018  -0.000174   0.000002  -0.000001
    19  C    0.074382  -0.000805  -0.000127   0.002607  -0.000055   0.000188
    20  C    0.449556   0.028202  -0.007063   0.048456  -0.003215   0.001140
    21  C   -0.307358  -0.014624   0.012389  -0.014544   0.001157  -0.000201
    22  C   -0.013966   0.002441  -0.000237  -0.000157   0.000012  -0.000001
    23  C    0.004781  -0.002425  -0.000005   0.000066  -0.000000  -0.000001
    24  H   -0.000072  -0.000004   0.000000  -0.000001   0.000000   0.000000
    25  H   -0.002239   0.000002  -0.000002   0.000013  -0.000002   0.000006
    26  C   -0.289324  -0.002890   0.028093  -0.138741   0.035615  -0.018179
    27  C    0.186377   0.369938  -0.040226   0.022538  -0.002936   0.000078
    28  H    0.000625   0.010685  -0.000037  -0.000004  -0.000000   0.000000
    29  H    0.000053  -0.000027  -0.000000   0.000000  -0.000000  -0.000000
    30  C    0.095924  -0.027666   0.417018  -0.082619  -0.015076   0.001858
    31  C    6.285323   0.006677  -0.048324   0.218151  -0.031844  -0.041545
    32  H    0.006677   0.401331  -0.001624  -0.000248  -0.000051   0.000009
    33  H   -0.048324  -0.001624   0.412190  -0.006158   0.006258  -0.000225
    34  C    0.218151  -0.000248  -0.006158   5.311252   0.388252   0.432195
    35  H   -0.031844  -0.000051   0.006258   0.388252   0.470596  -0.013195
    36  H   -0.041545   0.000009  -0.000225   0.432195  -0.013195   0.492013
    37  H   -0.041833   0.000010  -0.000256   0.430362  -0.010880  -0.028723
              37
     1  C    0.002786
     2  C   -0.001335
     3  C    0.000823
     4  C   -0.017467
     5  C    0.024151
     6  C   -0.009634
     7  H    0.000001
     8  H    0.000050
     9  H   -0.000007
    10  C    0.000028
    11  C    0.000885
    12  H   -0.000590
    13  C    0.000034
    14  C    0.000006
    15  H   -0.000042
    16  H   -0.000001
    17  H   -0.000000
    18  C    0.000002
    19  C    0.000070
    20  C    0.001068
    21  C   -0.000497
    22  C   -0.000005
    23  C   -0.000001
    24  H    0.000000
    25  H    0.000003
    26  C   -0.034273
    27  C    0.000463
    28  H    0.000000
    29  H   -0.000000
    30  C    0.006328
    31  C   -0.041833
    32  H    0.000010
    33  H   -0.000256
    34  C    0.430362
    35  H   -0.010880
    36  H   -0.028723
    37  H    0.484600
 Mulliken charges:
               1
     1  C   -0.194228
     2  C   -0.101504
     3  C   -0.167238
     4  C   -0.255888
     5  C   -0.012588
     6  C   -0.248692
     7  H    0.228366
     8  H    0.246060
     9  H    0.229992
    10  C   -0.061854
    11  C   -0.342141
    12  H    0.226269
    13  C   -0.206022
    14  C   -0.251183
    15  H    0.301105
    16  H    0.246770
    17  H    0.245341
    18  C   -0.261807
    19  C   -0.235494
    20  C   -0.261124
    21  C   -0.200842
    22  C   -0.074708
    23  C   -0.236951
    24  H    0.245120
    25  H    0.313731
    26  C    0.148647
    27  C   -0.116044
    28  H    0.226996
    29  H    0.245834
    30  C   -0.121873
    31  C   -0.121105
    32  H    0.230503
    33  H    0.227166
    34  C   -0.453954
    35  H    0.172534
    36  H    0.196932
    37  H    0.193874
 Sum of Mulliken charges =  -0.00000
 Mulliken charges with hydrogens summed into heavy atoms:
               1
     1  C    0.051831
     2  C    0.128488
     3  C   -0.167238
     4  C   -0.255888
     5  C   -0.012588
     6  C   -0.022423
    10  C    0.166512
    11  C   -0.041036
    13  C    0.040748
    14  C   -0.005842
    18  C   -0.016687
    19  C    0.078238
    20  C   -0.261124
    21  C   -0.200842
    22  C    0.152288
    23  C    0.008883
    26  C    0.148647
    27  C    0.114459
    30  C    0.105293
    31  C   -0.121105
    34  C    0.109386
 Electronic spatial extent (au):  <R**2>=           5633.7877
 Charge=             -0.0000 electrons
 Dipole moment (field-independent basis, Debye):
    X=             -0.4567    Y=              0.5399    Z=              0.0512  Tot=              0.7090
 Quadrupole moment (field-independent basis, Debye-Ang):
   XX=           -107.1077   YY=           -114.6384   ZZ=           -117.5599
   XY=              3.5820   XZ=             -2.0722   YZ=             -2.4398
 Traceless Quadrupole moment (field-independent basis, Debye-Ang):
   XX=              5.9943   YY=             -1.5364   ZZ=             -4.4579
   XY=              3.5820   XZ=             -2.0722   YZ=             -2.4398
 Octapole moment (field-independent basis, Debye-Ang**2):
  XXX=             -3.0394  YYY=              9.1531  ZZZ=              3.5790  XYY=             26.3045
  XXY=            -17.8765  XXZ=            -25.0282  XZZ=            -29.9818  YZZ=             -0.0638
  YYZ=              2.5945  XYZ=             11.9984
 Hexadecapole moment (field-independent basis, Debye-Ang**3):
 XXXX=          -4482.6890 YYYY=          -1530.4196 ZZZZ=          -1126.0088 XXXY=             94.7129
 XXXZ=            -55.9416 YYYX=            -18.7588 YYYZ=             29.9027 ZZZX=             36.7907
 ZZZY=            -55.8985 XXYY=          -1062.5829 XXZZ=          -1007.7222 YYZZ=           -501.6617
 XXYZ=            -11.4187 YYXZ=            -33.4962 ZZXY=              9.5905
 N-N= 1.512847174983D+03 E-N=-4.904419141061D+03  KE= 8.049579929105D+02
 Unable to Open any file for archive entry.
 1\1\GINC-NODE4\SP\RM06\def2TZVPP\C21H16\LLG_HG\03-Dec-2023\0\\# m06/de
 f2tzvpp scrf=(smd,solvent=n,n-dimethylformamide) em=gd3\\Title Card Re
 quired\\0,1\C,0,-2.163781,-0.995199,2.423255\C,0,-3.189489,-1.013493,1
 .507697\C,0,-2.988259,-0.529265,0.188628\C,0,-1.702215,-0.016381,-0.18
 1109\C,0,-0.653247,0.002958,0.791643\C,0,-0.894857,-0.486069,2.061141\
 H,0,-5.001171,-0.930785,-0.49016\H,0,-2.321626,-1.369154,3.430331\H,0,
 -4.167903,-1.400432,1.779138\C,0,-4.028422,-0.541313,-0.778394\C,0,-1.
 511748,0.453499,-1.508505\H,0,-0.091191,-0.473626,2.791204\C,0,-2.5415
 75,0.428068,-2.42141\C,0,-3.813663,-0.072493,-2.053797\H,0,-0.534465,0
 .83015,-1.790743\H,0,-2.378715,0.790549,-3.43193\H,0,-4.617913,-0.0872
 46,-2.783186\C,0,2.5964,-2.578843,-0.348683\C,0,1.560789,-1.746031,0.0
 09259\C,0,1.746178,-0.337626,0.079439\C,0,3.036428,0.195857,-0.241395\
 C,0,4.084462,-0.69158,-0.60251\C,0,3.873121,-2.04961,-0.655227\H,0,2.4
 3422,-3.651461,-0.398544\H,0,0.584676,-2.156416,0.241611\C,0,0.68988,0
 .554755,0.44465\C,0,3.226508,1.599376,-0.192376\H,0,5.05946,-0.274096,
 -0.839716\H,0,4.681626,-2.718541,-0.934309\C,0,2.191226,2.433964,0.152
 475\C,0,0.9053,1.927437,0.475052\H,0,4.205157,2.005747,-0.433252\H,0,2
 .349965,3.508353,0.186008\C,0,-0.205868,2.88432,0.833828\H,0,0.179563,
 3.896866,0.977758\H,0,-0.965621,2.920721,0.044724\H,0,-0.719078,2.5753
 8,1.749094\\Version=ES64L-G16RevC.01\State=1-A\HF=-809.5693108\RMSD=3.
 662e-09\Dipole=-0.179675,0.2124167,0.0201349\Quadrupole=4.456605,-1.14
 22818,-3.3143232,2.6631381,-1.5406551,-1.8138973\PG=C01 [X(C21H16)]\\@
 The archive entry for this job was punched.


 THE THINKER DIES, BUT HIS THOUGHTS ARE BEYOND THE 
 REACH OF DESTRUCTION.  MEN ARE MORTAL; BUT IDEAS 
 ARE IMMORTAL.
                              -- WALTER LIPPMANN
 Job cpu time:       0 days  3 hours 12 minutes 28.1 seconds.
 Elapsed time:       0 days  0 hours  6 minutes  4.1 seconds.
 File lengths (MBytes):  RWF=    550 Int=      0 D2E=      0 Chk=     47 Scr=      2
 Normal termination of Gaussian 16 at Sun Dec  3 22:16:15 2023.
