 Entering Gaussian System, Link 0=g16
 Initial command:
 /public/software/apps/Gaussian/g16/l1.exe "/public/home/TMJ_HG/tmp/Gau-130328.inp" -scrdir="/public/home/TMJ_HG/tmp/"
 Entering Link 1 = /public/software/apps/Gaussian/g16/l1.exe PID=    130329.
  
 Copyright (c) 1988-2019, Gaussian, Inc.  All Rights Reserved.
  
 This is part of the Gaussian(R) 16 program.  It is based on
 the Gaussian(R) 09 system (copyright 2009, Gaussian, Inc.),
 the Gaussian(R) 03 system (copyright 2003, Gaussian, Inc.),
 the Gaussian(R) 98 system (copyright 1998, Gaussian, Inc.),
 the Gaussian(R) 94 system (copyright 1995, Gaussian, Inc.),
 the Gaussian 92(TM) system (copyright 1992, Gaussian, Inc.),
 the Gaussian 90(TM) system (copyright 1990, Gaussian, Inc.),
 the Gaussian 88(TM) system (copyright 1988, Gaussian, Inc.),
 the Gaussian 86(TM) system (copyright 1986, Carnegie Mellon
 University), and the Gaussian 82(TM) system (copyright 1983,
 Carnegie Mellon University). Gaussian is a federally registered
 trademark of Gaussian, Inc.
  
 This software contains proprietary and confidential information,
 including trade secrets, belonging to Gaussian, Inc.
  
 This software is provided under written license and may be
 used, copied, transmitted, or stored only in accord with that
 written license.
  
 The following legend is applicable only to US Government
 contracts under FAR:
  
                    RESTRICTED RIGHTS LEGEND
  
 Use, reproduction and disclosure by the US Government is
 subject to restrictions as set forth in subparagraphs (a)
 and (c) of the Commercial Computer Software - Restricted
 Rights clause in FAR 52.227-19.
  
 Gaussian, Inc.
 340 Quinnipiac St., Bldg. 40, Wallingford CT 06492
  
  
 ---------------------------------------------------------------
 Warning -- This program may not be used in any manner that
 competes with the business of Gaussian, Inc. or will provide
 assistance to any competitor of Gaussian, Inc.  The licensee
 of this program is prohibited from giving any competitor of
 Gaussian, Inc. access to this program.  By using this program,
 the user acknowledges that Gaussian, Inc. is engaged in the
 business of creating and licensing software in the field of
 computational chemistry and represents and warrants to the
 licensee that it is not a competitor of Gaussian, Inc. and that
 it will not use this program in any manner prohibited above.
 ---------------------------------------------------------------
  

 Cite this work as:
 Gaussian 16, Revision C.01,
 M. J. Frisch, G. W. Trucks, H. B. Schlegel, G. E. Scuseria, 
 M. A. Robb, J. R. Cheeseman, G. Scalmani, V. Barone, 
 G. A. Petersson, H. Nakatsuji, X. Li, M. Caricato, A. V. Marenich, 
 J. Bloino, B. G. Janesko, R. Gomperts, B. Mennucci, H. P. Hratchian, 
 J. V. Ortiz, A. F. Izmaylov, J. L. Sonnenberg, D. Williams-Young, 
 F. Ding, F. Lipparini, F. Egidi, J. Goings, B. Peng, A. Petrone, 
 T. Henderson, D. Ranasinghe, V. G. Zakrzewski, J. Gao, N. Rega, 
 G. Zheng, W. Liang, M. Hada, M. Ehara, K. Toyota, R. Fukuda, 
 J. Hasegawa, M. Ishida, T. Nakajima, Y. Honda, O. Kitao, H. Nakai, 
 T. Vreven, K. Throssell, J. A. Montgomery, Jr., J. E. Peralta, 
 F. Ogliaro, M. J. Bearpark, J. J. Heyd, E. N. Brothers, K. N. Kudin, 
 V. N. Staroverov, T. A. Keith, R. Kobayashi, J. Normand, 
 K. Raghavachari, A. P. Rendell, J. C. Burant, S. S. Iyengar, 
 J. Tomasi, M. Cossi, J. M. Millam, M. Klene, C. Adamo, R. Cammi, 
 J. W. Ochterski, R. L. Martin, K. Morokuma, O. Farkas, 
 J. B. Foresman, and D. J. Fox, Gaussian, Inc., Wallingford CT, 2019.
 
 ******************************************
 Gaussian 16:  ES64L-G16RevC.01  3-Jul-2019
                24-Feb-2024 
 ******************************************
 %nprocshared=32
 Will use up to   32 processors via shared memory.
 %mem=100GB
 %chk=/public/home/TMJ_HG/peptide/111.chk
 ----------------
 #p b3lyp def2svp
 ----------------
 1/38=1,172=1/1;
 2/12=2,17=6,18=5,40=1/2;
 3/5=43,7=101,11=2,25=1,30=1,74=-5/1,2,3;
 4//1;
 5/5=2,38=5/2;
 6/7=2,8=2,9=2,10=2,28=1/1;
 99/5=1,9=1/99;
 Leave Link    1 at Sat Feb 24 05:10:12 2024, MaxMem= 13421772800 cpu:               1.7 elap:               0.1
 (Enter /public/software/apps/Gaussian/g16/l101.exe)
 ----------
 Title: 111
 ----------
 Symbolic Z-matrix:
 Charge =  0 Multiplicity = 3
 C                     7.0632   -5.5453    2.0617 
 H                     7.9942   -5.1065    2.4348 
 H                     6.6707   -6.2294    2.8226 
 H                     7.2743   -6.1365    1.1673 
 C                     5.9955   -4.5149    1.7279 
 O                     5.0228   -4.7879    1.0391 
 N                     6.212    -3.2546    2.2483 
 H                     6.9485   -3.1619    2.9362 
 C                     5.1735   -2.2252    2.2468 
 H                     4.2981   -2.6681    1.7594 
 C                     4.7495   -1.7838    3.6748 
 H                     3.998    -1.0016    3.5213 
 C                     4.075    -2.9479    4.414 
 H                     3.2297   -3.3344    3.8354 
 H                     4.7755   -3.7739    4.5927 
 H                     3.6883   -2.6248    5.3851 
 C                     5.9168   -1.1584    4.4691 
 H                     6.4427   -0.437     3.8288 
 H                     6.6512   -1.9359    4.735 
 C                     5.4803   -0.4371    5.7508 
 H                     5.0175   -1.1217    6.4693 
 H                     6.3391    0.0299    6.2459 
 H                     4.7539    0.3519    5.524 
 C                     5.5394   -1.0131    1.3791 
 O                     4.8345    0.0061    1.3683 
 N                     6.6399   -1.1116    0.6003 
 H                     7.1384   -1.991     0.6156 
 C                     7.1464   -0.0052   -0.1995 
 H                     8.2223   -0.1285   -0.3351 
 H                     6.9752    0.9212    0.3608 
 C                     6.5539    0.2035   -1.6059 
 O                     7.2651    0.6477   -2.499 
 N                     5.2272   -0.0728   -1.7499 
 H                     4.6749   -0.3495   -0.9475 
 C                     4.5186    0.231    -2.9827 
 H                     5.2864    0.3402   -3.7518 
 C                     3.5827   -0.9201   -3.4184 
 H                     4.1867   -1.8067   -3.6461 
 H                     3.0754   -0.6398   -4.348 
 C                     2.524    -1.3256   -2.3967 
 O                     1.6608   -2.1877   -2.7398 
 O                     2.6014   -0.7497   -1.2618 
 C                     3.7994    1.6067   -2.9978 
 O                     3.6082    2.1641   -4.0855 
 N                     3.4116    2.1305   -1.8129 
 H                     3.546     1.6244   -0.9439 
 C                     2.7897    3.4354   -1.6848 
 H                     3.5278    4.1998   -1.9685 
 C                     1.5261    3.6143   -2.584 
 H                     0.6116    3.559    -1.9907 
 H                     1.5095    2.8258   -3.3335 
 C                     1.6038    4.9844   -3.2313 
 O                     1.3096    6.0107   -2.6112 
 N                     2.0882    4.9808   -4.4993 
 H                     2.5685    4.1474   -4.8252 
 H                     2.3361    5.871    -4.9116 
 C                     2.4402    3.6628   -0.1986 
 O                     2.7813    2.8482    0.6636 
 N                     1.7543    4.7954    0.0724 
 H                     1.4924    5.4041   -0.7103 
 C                     1.3078    5.1197    1.4324 
 H                     2.0962    4.8132    2.1253 
 C                     1.0539    6.643     1.5682 
 H                     0.326     6.9302    0.7925 
 C                     0.4432    6.9685    2.9406 
 H                    -0.5187    6.4685    3.088 
 H                     1.1104    6.65      3.7506 
 H                     0.2745    8.0445    3.0442 
 C                     2.3554    7.4364    1.3159 
 H                     2.8395    7.0548    0.4093 
 H                     3.0527    7.2382    2.1427 
 C                     2.1521    8.948     1.1584 
 H                     3.1029    9.4421    0.9292 
 H                     1.4586    9.168     0.3375 
 H                     1.7538    9.4115    2.0675 
 C                     0.0816    4.263     1.8414 
 O                     0.0618    3.6221    2.8844 
 N                    -0.9694    4.2975    0.9687 
 H                    -0.8516    4.7379    0.0602 
 C                    -1.9924    3.2607    0.9562 
 H                    -1.571     2.3449    1.383 
 C                    -3.227     3.6481    1.8007 
 H                    -3.6593    4.5842    1.4275 
 H                    -2.8635    3.8408    2.8179 
 C                    -4.2925    2.5511    1.8723 
 O                    -4.0225    1.3565    1.6735 
 N                    -5.5398    2.9594    2.1891 
 H                    -5.7547    3.9423    2.2718 
 H                    -6.3206    2.3011    2.1056 
 C                    -2.3032    3.025    -0.538 
 O                    -1.9578    3.8477   -1.3916 
 N                    -2.9082    1.8564   -0.8562 
 H                    -3.1355    1.2265   -0.0902 
 C                    -2.9195    1.4101   -2.2503 
 H                    -3.3089    2.2317   -2.8552 
 C                    -1.4621    1.1615   -2.7368 
 H                    -0.9644    2.1297   -2.7087 
 H                    -1.484     0.804    -3.7707 
 C                    -0.6889    0.1533   -1.9037 
 O                    -0.877    -1.0525   -2.287 
 O                     0.0234    0.5085   -0.9223 
 C                    -3.9642    0.2796   -2.4336 
 O                    -5.0886    0.5625   -2.8529 
 N                    -3.615    -0.9772   -2.0488 
 H                    -2.619    -1.1799   -1.9774 
 C                    -4.4787   -2.1298   -2.3085 
 H                    -4.8185   -2.1002   -3.3503 
 C                    -3.7156   -3.461    -2.0548 
 H                    -4.4842   -4.2406   -2.019 
 H                    -3.2334   -3.4293   -1.0745 
 C                    -2.6894   -3.8544   -3.0936 
 N                    -1.3087   -3.8347   -2.8994 
 C                    -0.7644   -4.306    -4.0042 
 H                     0.2965   -4.4082   -4.1817 
 N                    -1.7182   -4.6353   -4.9128 
 H                    -1.5565   -5.0247   -5.8301 
 C                    -2.9452   -4.3577   -4.3477 
 H                    -3.8732   -4.5552   -4.8629 
 C                    -5.7969   -2.1048   -1.5027 
 O                    -6.7599   -2.7444   -1.9088 
 N                    -5.8186   -1.3528   -0.3624 
 H                    -4.9776   -0.8594   -0.0918 
 C                    -7.0647   -1.0344    0.3329 
 H                    -7.8509   -1.4415   -0.314 
 C                    -7.2179   -1.6826    1.7172 
 H                    -7.3164   -2.7654    1.5693 
 H                    -8.1698   -1.3244    2.1253 
 C                    -6.0937   -1.3967    2.723 
 H                    -5.8291   -0.3347    2.695 
 H                    -5.1931   -1.9544    2.4353 
 C                    -6.5027   -1.7779    4.152 
 H                    -6.8315   -2.8281    4.1803 
 H                    -7.373    -1.1776    4.4516 
 C                    -5.4004   -1.5758    5.2052 
 H                    -5.8161   -1.7496    6.207 
 H                    -5.046    -0.542     5.1855 
 N                    -4.2558   -2.4568    5.0119 
 H                    -4.4467   -3.4534    5.0013 
 C                    -3.028    -2.1635    4.4769 
 O                    -2.284    -3.0747    4.1136 
 C                    -2.6232   -0.7026    4.3737 
 H                    -2.7681   -0.1728    5.322 
 H                    -1.5691   -0.6655    4.0946 
 H                    -3.2005   -0.178     3.603 
 C                    -7.2718    0.5011    0.3828 
 O                    -7.6623    1.0724    1.4115 
 N                    -7.0483    1.1448   -0.7826 
 H                    -6.6003    0.6529   -1.5514 
 C                    -7.2346    2.5756   -0.9463 
 H                    -7.9126    2.9307   -0.1686 
 H                    -6.2837    3.1172   -0.8701 
 H                    -7.67      2.7762   -1.9295 
 Rh                    0.0717   -2.6178   -1.4019 
 Rh                    1.111    -1.0149    0.1256 
 O                     1.1753   -4.1121   -0.4923 
 O                    -1.3762   -2.8815    0.0474 
 O                    -0.4133   -1.3807    1.4568 
 O                     2.1364   -2.6152    0.9312 
 O                     2.0866    0.3511    1.6954 
 C                     1.957    -3.7774    0.4418 
 C                    -1.2598   -2.2701    1.159 
 H                     3.0524    0.1714    1.6727 
 H                     2.0322    1.3029    1.4797 
 H                     2.5684   -4.5743    0.8802 
 H                    -1.9628   -2.5541    1.9501 
 
 ITRead=  0  0  0  0  0  0  0  0  0  0  0  0  0  0  0  0  0  0  0  0
 ITRead=  0  0  0  0  0  0  0  0  0  0  0  0  0  0  0  0  0  0  0  0
 ITRead=  0  0  0  0  0  0  0  0  0  0  0  0  0  0  0  0  0  0  0  0
 ITRead=  0  0  0  0  0  0  0  0  0  0  0  0  0  0  0  0  0  0  0  0
 ITRead=  0  0  0  0  0  0  0  0  0  0  0  0  0  0  0  0  0  0  0  0
 ITRead=  0  0  0  0  0  0  0  0  0  0  0  0  0  0  0  0  0  0  0  0
 ITRead=  0  0  0  0  0  0  0  0  0  0  0  0  0  0  0  0  0  0  0  0
 ITRead=  0  0  0  0  0  0  0  0  0  0  0  0  0  0  0  0  0  0  0  0
 ITRead=  0  0  0  0  0
 MicOpt= -1 -1 -1 -1 -1 -1 -1 -1 -1 -1 -1 -1 -1 -1 -1 -1 -1 -1 -1 -1
 MicOpt= -1 -1 -1 -1 -1 -1 -1 -1 -1 -1 -1 -1 -1 -1 -1 -1 -1 -1 -1 -1
 MicOpt= -1 -1 -1 -1 -1 -1 -1 -1 -1 -1 -1 -1 -1 -1 -1 -1 -1 -1 -1 -1
 MicOpt= -1 -1 -1 -1 -1 -1 -1 -1 -1 -1 -1 -1 -1 -1 -1 -1 -1 -1 -1 -1
 MicOpt= -1 -1 -1 -1 -1 -1 -1 -1 -1 -1 -1 -1 -1 -1 -1 -1 -1 -1 -1 -1
 MicOpt= -1 -1 -1 -1 -1 -1 -1 -1 -1 -1 -1 -1 -1 -1 -1 -1 -1 -1 -1 -1
 MicOpt= -1 -1 -1 -1 -1 -1 -1 -1 -1 -1 -1 -1 -1 -1 -1 -1 -1 -1 -1 -1
 MicOpt= -1 -1 -1 -1 -1 -1 -1 -1 -1 -1 -1 -1 -1 -1 -1 -1 -1 -1 -1 -1
 MicOpt= -1 -1 -1 -1 -1
 NAtoms=    165 NQM=      165 NQMF=       0 NMMI=      0 NMMIF=      0
                NMic=       0 NMicF=      0.
                    Isotopes and Nuclear Properties:
 (Nuclear quadrupole moments (NQMom) in fm**2, nuclear magnetic moments (NMagM)
  in nuclear magnetons)

  Atom         1           2           3           4           5           6           7           8           9          10
 IAtWgt=          12           1           1           1          12          16          14           1          12           1
 AtmWgt=  12.0000000   1.0078250   1.0078250   1.0078250  12.0000000  15.9949146  14.0030740   1.0078250  12.0000000   1.0078250
 NucSpn=           0           1           1           1           0           0           2           1           0           1
 AtZEff=  -0.0000000  -0.0000000  -0.0000000  -0.0000000  -0.0000000  -0.0000000  -0.0000000  -0.0000000  -0.0000000  -0.0000000
 NQMom=    0.0000000   0.0000000   0.0000000   0.0000000   0.0000000   0.0000000   2.0440000   0.0000000   0.0000000   0.0000000
 NMagM=    0.0000000   2.7928460   2.7928460   2.7928460   0.0000000   0.0000000   0.4037610   2.7928460   0.0000000   2.7928460
 AtZNuc=   6.0000000   1.0000000   1.0000000   1.0000000   6.0000000   8.0000000   7.0000000   1.0000000   6.0000000   1.0000000

  Atom        11          12          13          14          15          16          17          18          19          20
 IAtWgt=          12           1          12           1           1           1          12           1           1          12
 AtmWgt=  12.0000000   1.0078250  12.0000000   1.0078250   1.0078250   1.0078250  12.0000000   1.0078250   1.0078250  12.0000000
 NucSpn=           0           1           0           1           1           1           0           1           1           0
 AtZEff=  -0.0000000  -0.0000000  -0.0000000  -0.0000000  -0.0000000  -0.0000000  -0.0000000  -0.0000000  -0.0000000  -0.0000000
 NQMom=    0.0000000   0.0000000   0.0000000   0.0000000   0.0000000   0.0000000   0.0000000   0.0000000   0.0000000   0.0000000
 NMagM=    0.0000000   2.7928460   0.0000000   2.7928460   2.7928460   2.7928460   0.0000000   2.7928460   2.7928460   0.0000000
 AtZNuc=   6.0000000   1.0000000   6.0000000   1.0000000   1.0000000   1.0000000   6.0000000   1.0000000   1.0000000   6.0000000

  Atom        21          22          23          24          25          26          27          28          29          30
 IAtWgt=           1           1           1          12          16          14           1          12           1           1
 AtmWgt=   1.0078250   1.0078250   1.0078250  12.0000000  15.9949146  14.0030740   1.0078250  12.0000000   1.0078250   1.0078250
 NucSpn=           1           1           1           0           0           2           1           0           1           1
 AtZEff=  -0.0000000  -0.0000000  -0.0000000  -0.0000000  -0.0000000  -0.0000000  -0.0000000  -0.0000000  -0.0000000  -0.0000000
 NQMom=    0.0000000   0.0000000   0.0000000   0.0000000   0.0000000   2.0440000   0.0000000   0.0000000   0.0000000   0.0000000
 NMagM=    2.7928460   2.7928460   2.7928460   0.0000000   0.0000000   0.4037610   2.7928460   0.0000000   2.7928460   2.7928460
 AtZNuc=   1.0000000   1.0000000   1.0000000   6.0000000   8.0000000   7.0000000   1.0000000   6.0000000   1.0000000   1.0000000

  Atom        31          32          33          34          35          36          37          38          39          40
 IAtWgt=          12          16          14           1          12           1          12           1           1          12
 AtmWgt=  12.0000000  15.9949146  14.0030740   1.0078250  12.0000000   1.0078250  12.0000000   1.0078250   1.0078250  12.0000000
 NucSpn=           0           0           2           1           0           1           0           1           1           0
 AtZEff=  -0.0000000  -0.0000000  -0.0000000  -0.0000000  -0.0000000  -0.0000000  -0.0000000  -0.0000000  -0.0000000  -0.0000000
 NQMom=    0.0000000   0.0000000   2.0440000   0.0000000   0.0000000   0.0000000   0.0000000   0.0000000   0.0000000   0.0000000
 NMagM=    0.0000000   0.0000000   0.4037610   2.7928460   0.0000000   2.7928460   0.0000000   2.7928460   2.7928460   0.0000000
 AtZNuc=   6.0000000   8.0000000   7.0000000   1.0000000   6.0000000   1.0000000   6.0000000   1.0000000   1.0000000   6.0000000

  Atom        41          42          43          44          45          46          47          48          49          50
 IAtWgt=          16          16          12          16          14           1          12           1          12           1
 AtmWgt=  15.9949146  15.9949146  12.0000000  15.9949146  14.0030740   1.0078250  12.0000000   1.0078250  12.0000000   1.0078250
 NucSpn=           0           0           0           0           2           1           0           1           0           1
 AtZEff=  -0.0000000  -0.0000000  -0.0000000  -0.0000000  -0.0000000  -0.0000000  -0.0000000  -0.0000000  -0.0000000  -0.0000000
 NQMom=    0.0000000   0.0000000   0.0000000   0.0000000   2.0440000   0.0000000   0.0000000   0.0000000   0.0000000   0.0000000
 NMagM=    0.0000000   0.0000000   0.0000000   0.0000000   0.4037610   2.7928460   0.0000000   2.7928460   0.0000000   2.7928460
 AtZNuc=   8.0000000   8.0000000   6.0000000   8.0000000   7.0000000   1.0000000   6.0000000   1.0000000   6.0000000   1.0000000

  Atom        51          52          53          54          55          56          57          58          59          60
 IAtWgt=           1          12          16          14           1           1          12          16          14           1
 AtmWgt=   1.0078250  12.0000000  15.9949146  14.0030740   1.0078250   1.0078250  12.0000000  15.9949146  14.0030740   1.0078250
 NucSpn=           1           0           0           2           1           1           0           0           2           1
 AtZEff=  -0.0000000  -0.0000000  -0.0000000  -0.0000000  -0.0000000  -0.0000000  -0.0000000  -0.0000000  -0.0000000  -0.0000000
 NQMom=    0.0000000   0.0000000   0.0000000   2.0440000   0.0000000   0.0000000   0.0000000   0.0000000   2.0440000   0.0000000
 NMagM=    2.7928460   0.0000000   0.0000000   0.4037610   2.7928460   2.7928460   0.0000000   0.0000000   0.4037610   2.7928460
 AtZNuc=   1.0000000   6.0000000   8.0000000   7.0000000   1.0000000   1.0000000   6.0000000   8.0000000   7.0000000   1.0000000

  Atom        61          62          63          64          65          66          67          68          69          70
 IAtWgt=          12           1          12           1          12           1           1           1          12           1
 AtmWgt=  12.0000000   1.0078250  12.0000000   1.0078250  12.0000000   1.0078250   1.0078250   1.0078250  12.0000000   1.0078250
 NucSpn=           0           1           0           1           0           1           1           1           0           1
 AtZEff=  -0.0000000  -0.0000000  -0.0000000  -0.0000000  -0.0000000  -0.0000000  -0.0000000  -0.0000000  -0.0000000  -0.0000000
 NQMom=    0.0000000   0.0000000   0.0000000   0.0000000   0.0000000   0.0000000   0.0000000   0.0000000   0.0000000   0.0000000
 NMagM=    0.0000000   2.7928460   0.0000000   2.7928460   0.0000000   2.7928460   2.7928460   2.7928460   0.0000000   2.7928460
 AtZNuc=   6.0000000   1.0000000   6.0000000   1.0000000   6.0000000   1.0000000   1.0000000   1.0000000   6.0000000   1.0000000

  Atom        71          72          73          74          75          76          77          78          79          80
 IAtWgt=           1          12           1           1           1          12          16          14           1          12
 AtmWgt=   1.0078250  12.0000000   1.0078250   1.0078250   1.0078250  12.0000000  15.9949146  14.0030740   1.0078250  12.0000000
 NucSpn=           1           0           1           1           1           0           0           2           1           0
 AtZEff=  -0.0000000  -0.0000000  -0.0000000  -0.0000000  -0.0000000  -0.0000000  -0.0000000  -0.0000000  -0.0000000  -0.0000000
 NQMom=    0.0000000   0.0000000   0.0000000   0.0000000   0.0000000   0.0000000   0.0000000   2.0440000   0.0000000   0.0000000
 NMagM=    2.7928460   0.0000000   2.7928460   2.7928460   2.7928460   0.0000000   0.0000000   0.4037610   2.7928460   0.0000000
 AtZNuc=   1.0000000   6.0000000   1.0000000   1.0000000   1.0000000   6.0000000   8.0000000   7.0000000   1.0000000   6.0000000

  Atom        81          82          83          84          85          86          87          88          89          90
 IAtWgt=           1          12           1           1          12          16          14           1           1          12
 AtmWgt=   1.0078250  12.0000000   1.0078250   1.0078250  12.0000000  15.9949146  14.0030740   1.0078250   1.0078250  12.0000000
 NucSpn=           1           0           1           1           0           0           2           1           1           0
 AtZEff=  -0.0000000  -0.0000000  -0.0000000  -0.0000000  -0.0000000  -0.0000000  -0.0000000  -0.0000000  -0.0000000  -0.0000000
 NQMom=    0.0000000   0.0000000   0.0000000   0.0000000   0.0000000   0.0000000   2.0440000   0.0000000   0.0000000   0.0000000
 NMagM=    2.7928460   0.0000000   2.7928460   2.7928460   0.0000000   0.0000000   0.4037610   2.7928460   2.7928460   0.0000000
 AtZNuc=   1.0000000   6.0000000   1.0000000   1.0000000   6.0000000   8.0000000   7.0000000   1.0000000   1.0000000   6.0000000

  Atom        91          92          93          94          95          96          97          98          99         100
 IAtWgt=          16          14           1          12           1          12           1           1          12          16
 AtmWgt=  15.9949146  14.0030740   1.0078250  12.0000000   1.0078250  12.0000000   1.0078250   1.0078250  12.0000000  15.9949146
 NucSpn=           0           2           1           0           1           0           1           1           0           0
 AtZEff=  -0.0000000  -0.0000000  -0.0000000  -0.0000000  -0.0000000  -0.0000000  -0.0000000  -0.0000000  -0.0000000  -0.0000000
 NQMom=    0.0000000   2.0440000   0.0000000   0.0000000   0.0000000   0.0000000   0.0000000   0.0000000   0.0000000   0.0000000
 NMagM=    0.0000000   0.4037610   2.7928460   0.0000000   2.7928460   0.0000000   2.7928460   2.7928460   0.0000000   0.0000000
 AtZNuc=   8.0000000   7.0000000   1.0000000   6.0000000   1.0000000   6.0000000   1.0000000   1.0000000   6.0000000   8.0000000

  Atom       101         102         103         104         105         106         107         108         109         110
 IAtWgt=          16          12          16          14           1          12           1          12           1           1
 AtmWgt=  15.9949146  12.0000000  15.9949146  14.0030740   1.0078250  12.0000000   1.0078250  12.0000000   1.0078250   1.0078250
 NucSpn=           0           0           0           2           1           0           1           0           1           1
 AtZEff=  -0.0000000  -0.0000000  -0.0000000  -0.0000000  -0.0000000  -0.0000000  -0.0000000  -0.0000000  -0.0000000  -0.0000000
 NQMom=    0.0000000   0.0000000   0.0000000   2.0440000   0.0000000   0.0000000   0.0000000   0.0000000   0.0000000   0.0000000
 NMagM=    0.0000000   0.0000000   0.0000000   0.4037610   2.7928460   0.0000000   2.7928460   0.0000000   2.7928460   2.7928460
 AtZNuc=   8.0000000   6.0000000   8.0000000   7.0000000   1.0000000   6.0000000   1.0000000   6.0000000   1.0000000   1.0000000

  Atom       111         112         113         114         115         116         117         118         119         120
 IAtWgt=          12          14          12           1          14           1          12           1          12          16
 AtmWgt=  12.0000000  14.0030740  12.0000000   1.0078250  14.0030740   1.0078250  12.0000000   1.0078250  12.0000000  15.9949146
 NucSpn=           0           2           0           1           2           1           0           1           0           0
 AtZEff=  -0.0000000  -0.0000000  -0.0000000  -0.0000000  -0.0000000  -0.0000000  -0.0000000  -0.0000000  -0.0000000  -0.0000000
 NQMom=    0.0000000   2.0440000   0.0000000   0.0000000   2.0440000   0.0000000   0.0000000   0.0000000   0.0000000   0.0000000
 NMagM=    0.0000000   0.4037610   0.0000000   2.7928460   0.4037610   2.7928460   0.0000000   2.7928460   0.0000000   0.0000000
 AtZNuc=   6.0000000   7.0000000   6.0000000   1.0000000   7.0000000   1.0000000   6.0000000   1.0000000   6.0000000   8.0000000

  Atom       121         122         123         124         125         126         127         128         129         130
 IAtWgt=          14           1          12           1          12           1           1          12           1           1
 AtmWgt=  14.0030740   1.0078250  12.0000000   1.0078250  12.0000000   1.0078250   1.0078250  12.0000000   1.0078250   1.0078250
 NucSpn=           2           1           0           1           0           1           1           0           1           1
 AtZEff=  -0.0000000  -0.0000000  -0.0000000  -0.0000000  -0.0000000  -0.0000000  -0.0000000  -0.0000000  -0.0000000  -0.0000000
 NQMom=    2.0440000   0.0000000   0.0000000   0.0000000   0.0000000   0.0000000   0.0000000   0.0000000   0.0000000   0.0000000
 NMagM=    0.4037610   2.7928460   0.0000000   2.7928460   0.0000000   2.7928460   2.7928460   0.0000000   2.7928460   2.7928460
 AtZNuc=   7.0000000   1.0000000   6.0000000   1.0000000   6.0000000   1.0000000   1.0000000   6.0000000   1.0000000   1.0000000

  Atom       131         132         133         134         135         136         137         138         139         140
 IAtWgt=          12           1           1          12           1           1          14           1          12          16
 AtmWgt=  12.0000000   1.0078250   1.0078250  12.0000000   1.0078250   1.0078250  14.0030740   1.0078250  12.0000000  15.9949146
 NucSpn=           0           1           1           0           1           1           2           1           0           0
 AtZEff=  -0.0000000  -0.0000000  -0.0000000  -0.0000000  -0.0000000  -0.0000000  -0.0000000  -0.0000000  -0.0000000  -0.0000000
 NQMom=    0.0000000   0.0000000   0.0000000   0.0000000   0.0000000   0.0000000   2.0440000   0.0000000   0.0000000   0.0000000
 NMagM=    0.0000000   2.7928460   2.7928460   0.0000000   2.7928460   2.7928460   0.4037610   2.7928460   0.0000000   0.0000000
 AtZNuc=   6.0000000   1.0000000   1.0000000   6.0000000   1.0000000   1.0000000   7.0000000   1.0000000   6.0000000   8.0000000

  Atom       141         142         143         144         145         146         147         148         149         150
 IAtWgt=          12           1           1           1          12          16          14           1          12           1
 AtmWgt=  12.0000000   1.0078250   1.0078250   1.0078250  12.0000000  15.9949146  14.0030740   1.0078250  12.0000000   1.0078250
 NucSpn=           0           1           1           1           0           0           2           1           0           1
 AtZEff=  -0.0000000  -0.0000000  -0.0000000  -0.0000000  -0.0000000  -0.0000000  -0.0000000  -0.0000000  -0.0000000  -0.0000000
 NQMom=    0.0000000   0.0000000   0.0000000   0.0000000   0.0000000   0.0000000   2.0440000   0.0000000   0.0000000   0.0000000
 NMagM=    0.0000000   2.7928460   2.7928460   2.7928460   0.0000000   0.0000000   0.4037610   2.7928460   0.0000000   2.7928460
 AtZNuc=   6.0000000   1.0000000   1.0000000   1.0000000   6.0000000   8.0000000   7.0000000   1.0000000   6.0000000   1.0000000

  Atom       151         152         153         154         155         156         157         158         159         160
 IAtWgt=           1           1         103         103          16          16          16          16          16          12
 AtmWgt=   1.0078250   1.0078250 102.9048000 102.9048000  15.9949146  15.9949146  15.9949146  15.9949146  15.9949146  12.0000000
 NucSpn=           1           1           1           1           0           0           0           0           0           0
 AtZEff=  -0.0000000  -0.0000000  -0.0000000  -0.0000000  -0.0000000  -0.0000000  -0.0000000  -0.0000000  -0.0000000  -0.0000000
 NQMom=    0.0000000   0.0000000   0.0000000   0.0000000   0.0000000   0.0000000   0.0000000   0.0000000   0.0000000   0.0000000
 NMagM=    2.7928460   2.7928460  -0.0884000  -0.0884000   0.0000000   0.0000000   0.0000000   0.0000000   0.0000000   0.0000000
 AtZNuc=   1.0000000   1.0000000  45.0000000  45.0000000   8.0000000   8.0000000   8.0000000   8.0000000   8.0000000   6.0000000

  Atom       161         162         163         164         165
 IAtWgt=          12           1           1           1           1
 AtmWgt=  12.0000000   1.0078250   1.0078250   1.0078250   1.0078250
 NucSpn=           0           1           1           1           1
 AtZEff=  -0.0000000  -0.0000000  -0.0000000  -0.0000000  -0.0000000
 NQMom=    0.0000000   0.0000000   0.0000000   0.0000000   0.0000000
 NMagM=    0.0000000   2.7928460   2.7928460   2.7928460   2.7928460
 AtZNuc=   6.0000000   1.0000000   1.0000000   1.0000000   1.0000000
 Leave Link  101 at Sat Feb 24 05:10:12 2024, MaxMem= 13421772800 cpu:               2.3 elap:               0.1
 (Enter /public/software/apps/Gaussian/g16/l202.exe)
 Stoichiometry    C49H77N15O22Rh2(3)
 Framework group  C1[X(C49H77N15O22Rh2)]
 Deg. of freedom   489
 Full point group                 C1      NOp   1
 Largest Abelian subgroup         C1      NOp   1
 Largest concise Abelian subgroup C1      NOp   1
                         Standard orientation:                         
 ---------------------------------------------------------------------
 Center     Atomic      Atomic             Coordinates (Angstroms)
 Number     Number       Type             X           Y           Z
 ---------------------------------------------------------------------
      1          6           0        7.063210   -5.545286    2.061696
      2          1           0        7.994209   -5.106485    2.434796
      3          1           0        6.670711   -6.229387    2.822596
      4          1           0        7.274311   -6.136486    1.167296
      5          6           0        5.995508   -4.514888    1.727896
      6          8           0        5.022808   -4.787890    1.039096
      7          7           0        6.212005   -3.254588    2.248296
      8          1           0        6.948505   -3.161887    2.936196
      9          6           0        5.173503   -2.225190    2.246796
     10          1           0        4.298104   -2.668092    1.759396
     11          6           0        4.749503   -1.783791    3.674796
     12          1           0        3.998001   -1.001592    3.521296
     13          6           0        4.075005   -2.947892    4.413996
     14          1           0        3.229705   -3.334394    3.835396
     15          1           0        4.775506   -3.773891    4.592696
     16          1           0        3.688304   -2.624793    5.385096
     17          6           0        5.916801   -1.158389    4.469096
     18          1           0        6.442700   -0.436988    3.828796
     19          1           0        6.651203   -1.935887    4.734996
     20          6           0        5.480300   -0.437089    5.750796
     21          1           0        5.017501   -1.121690    6.469296
     22          1           0        6.339099    0.029912    6.245896
     23          1           0        4.753899    0.351909    5.523996
     24          6           0        5.539401   -1.013089    1.379096
     25          8           0        4.834499    0.006109    1.368296
     26          7           0        6.639901   -1.111587    0.600296
     27          1           0        7.138403   -1.990986    0.615596
     28          6           0        7.146399   -0.005186   -0.199504
     29          1           0        8.222299   -0.128484   -0.335104
     30          1           0        6.975197    0.921213    0.360796
     31          6           0        6.553899    0.203513   -1.605904
     32          8           0        7.265098    0.647714   -2.499004
     33          7           0        5.227199   -0.072790   -1.749904
     34          1           0        4.674900   -0.349491   -0.947504
     35          6           0        4.518599    0.231009   -2.982704
     36          1           0        5.286399    0.340210   -3.751804
     37          6           0        3.582701   -0.920093   -3.418404
     38          1           0        4.186703   -1.806692   -3.646104
     39          1           0        3.075400   -0.639794   -4.348004
     40          6           0        2.524002   -1.325595   -2.396704
     41          8           0        1.660803   -2.187697   -2.739804
     42          8           0        2.601401   -0.749695   -1.261804
     43          6           0        3.799396    1.606707   -2.997804
     44          8           0        3.608195    2.164107   -4.085504
     45          7           0        3.411595    2.130507   -1.812904
     46          1           0        3.545996    1.624407   -0.943904
     47          6           0        2.789693    3.435406   -1.684804
     48          1           0        3.527791    4.199807   -1.968504
     49          6           0        1.526092    3.614303   -2.584004
     50          1           0        0.611593    3.559002   -1.990704
     51          1           0        1.509494    2.825803   -3.333504
     52          6           0        1.603790    4.984403   -3.231304
     53          8           0        1.309588    6.010703   -2.611204
     54          7           0        2.088190    4.980804   -4.499304
     55          1           0        2.568491    4.147405   -4.825204
     56          1           0        2.336088    5.871005   -4.911604
     57          6           0        2.440192    3.662805   -0.198604
     58          8           0        2.781294    2.848206    0.663596
     59          7           0        1.754290    4.795404    0.072396
     60          1           0        1.492389    5.404103   -0.710304
     61          6           0        1.307790    5.119703    1.432396
     62          1           0        2.096190    4.813204    2.125296
     63          6           0        1.053887    6.643002    1.568196
     64          1           0        0.325986    6.930201    0.792496
     65          6           0        0.443186    6.968501    2.940596
     66          1           0       -0.518713    6.468499    3.087996
     67          1           0        1.110387    6.650002    3.750596
     68          1           0        0.274484    8.044501    3.044196
     69          6           0        2.355385    7.436405    1.315896
     70          1           0        2.839486    7.054806    0.409296
     71          1           0        3.052686    7.238206    2.142696
     72          6           0        2.152083    8.948004    1.158396
     73          1           0        3.102882    9.442106    0.929196
     74          1           0        1.458582    9.168003    0.337496
     75          1           0        1.753782    9.411504    2.067496
     76          6           0        0.081591    4.263001    1.841396
     77          8           0        0.061792    3.622101    2.884396
     78          7           0       -0.969409    4.297499    0.968696
     79          1           0       -0.851610    4.737899    0.060196
     80          6           0       -1.992407    3.260697    0.956196
     81          1           0       -1.571005    2.344897    1.382996
     82          6           0       -3.227008    3.648094    1.800696
     83          1           0       -3.659309    4.584194    1.427496
     84          1           0       -2.863508    3.840795    2.817896
     85          6           0       -4.292506    2.551092    1.872296
     86          8           0       -4.022503    1.356493    1.673496
     87          7           0       -5.539806    2.959390    2.189096
     88          1           0       -5.754708    3.942290    2.271796
     89          1           0       -6.320605    2.301089    2.105596
     90          6           0       -2.303206    3.024996   -0.538004
     91          8           0       -1.957808    3.847697   -1.391604
     92          7           0       -2.908204    1.856395   -0.856204
     93          1           0       -3.135503    1.226495   -0.090204
     94          6           0       -2.919503    1.410095   -2.250304
     95          1           0       -3.308905    2.231694   -2.855204
     96          6           0       -1.462103    1.161498   -2.736804
     97          1           0       -0.964405    2.129699   -2.708704
     98          1           0       -1.484002    0.803998   -3.770704
     99          6           0       -0.688901    0.153299   -1.903704
    100          8           0       -0.876999   -1.052501   -2.287004
    101          8           0        0.023398    0.508500   -0.922304
    102          6           0       -3.964201    0.279593   -2.433604
    103          8           0       -5.088602    0.562491   -2.852904
    104          7           0       -3.614999   -0.977206   -2.048804
    105          1           0       -2.618999   -1.179904   -1.977404
    106          6           0       -4.478697   -2.129808   -2.308504
    107          1           0       -4.818497   -2.100209   -3.350304
    108          6           0       -3.715594   -3.461007   -2.054804
    109          1           0       -4.484193   -4.240608   -2.019004
    110          1           0       -3.233394   -3.429306   -1.074504
    111          6           0       -2.689394   -3.854405   -3.093604
    112          7           0       -1.308694   -3.834702   -2.899404
    113          6           0       -0.764393   -4.306001   -4.004204
    114          1           0        0.296507   -4.408199   -4.181704
    115          7           0       -1.718192   -4.635303   -4.912804
    116          1           0       -1.556491   -5.024702   -5.830104
    117          6           0       -2.945193   -4.357705   -4.347704
    118          1           0       -3.873192   -4.555207   -4.862904
    119          6           0       -5.796897   -2.104810   -1.502704
    120          8           0       -6.759896   -2.744412   -1.908804
    121          7           0       -5.818598   -1.352810   -0.362404
    122          1           0       -4.977599   -0.859409   -0.091804
    123          6           0       -7.064699   -1.034413    0.332896
    124          1           0       -7.850898   -1.441514   -0.314004
    125          6           0       -7.217898   -1.682613    1.717196
    126          1           0       -7.316396   -2.765413    1.569296
    127          1           0       -8.169798   -1.324415    2.125296
    128          6           0       -6.093698   -1.396711    2.722996
    129          1           0       -5.829100   -0.334710    2.694996
    130          1           0       -5.193097   -1.954409    2.435296
    131          6           0       -6.502698   -1.777912    4.151996
    132          1           0       -6.831496   -2.828112    4.180296
    133          1           0       -7.372999   -1.177613    4.451596
    134          6           0       -5.400398   -1.575810    5.205196
    135          1           0       -5.816098   -1.749610    6.206996
    136          1           0       -5.046000   -0.542009    5.185496
    137          7           0       -4.255796   -2.456808    5.011896
    138          1           0       -4.446694   -3.453408    5.001296
    139          6           0       -3.027997   -2.163505    4.476896
    140          8           0       -2.283995   -3.074704    4.113596
    141          6           0       -2.623200   -0.702604    4.373696
    142          1           0       -2.768100   -0.172805    5.321996
    143          1           0       -1.569100   -0.665503    4.094596
    144          1           0       -3.200500   -0.178006    3.602996
    145          6           0       -7.271802    0.501087    0.382796
    146          8           0       -7.662303    1.072386    1.411496
    147          7           0       -7.048303    1.144787   -0.782604
    148          1           0       -6.600302    0.652888   -1.551404
    149          6           0       -7.234606    2.575587   -0.946304
    150          1           0       -7.912606    2.930686   -0.168604
    151          1           0       -6.283707    3.117189   -0.870104
    152          1           0       -7.670006    2.776186   -1.929504
    153         45           0        0.071704   -2.617799   -1.401904
    154         45           0        1.111001   -1.014898    0.125596
    155          8           0        1.175307   -4.112097   -0.492304
    156          8           0       -1.376195   -2.881502    0.047396
    157          8           0       -0.413298   -1.380700    1.456796
    158          8           0        2.136404   -2.615196    0.931196
    159          8           0        2.086599    0.351104    1.695396
    160          6           0        1.957006   -3.777396    0.441796
    161          6           0       -1.259797   -2.270102    1.158996
    162          1           0        3.052399    0.171406    1.672696
    163          1           0        2.032197    1.302904    1.479696
    164          1           0        2.568408   -4.574295    0.880196
    165          1           0       -1.962796   -2.554103    1.950096
 ---------------------------------------------------------------------
 Rotational constants (GHZ):           0.0232978           0.0168656           0.0144189
 Leave Link  202 at Sat Feb 24 05:10:12 2024, MaxMem= 13421772800 cpu:               1.6 elap:               0.1
 (Enter /public/software/apps/Gaussian/g16/l301.exe)
 Standard basis: def2SVP (5D, 7F)
 Ernie: Thresh=  0.10000D-02 Tol=  0.10000D-05 Strict=F.
 There are  1747 symmetry adapted cartesian basis functions of A   symmetry.
 There are  1651 symmetry adapted basis functions of A   symmetry.
  1651 basis functions,  2819 primitive gaussians,  1747 cartesian basis functions
   344 alpha electrons      342 beta electrons
       nuclear repulsion energy     20475.0147823182 Hartrees.
 IExCor=  402 DFT=T Ex+Corr=B3LYP ExCW=0 ScaHFX=  0.200000
 ScaDFX=  0.800000  0.720000  1.000000  0.810000 ScalE2=  1.000000  1.000000
 IRadAn=      5 IRanWt=     -1 IRanGd=            0 ICorTp=0 IEmpDi=  4
 NAtoms=  165 NActive=  165 NUniq=  165 SFac= 1.00D+00 NAtFMM=   60 NAOKFM=T Big=T
 Integral buffers will be    131072 words long.
 Raffenetti 2 integral format.
 Two-electron integral symmetry is turned on.
 Leave Link  301 at Sat Feb 24 05:10:12 2024, MaxMem= 13421772800 cpu:               0.6 elap:               0.0
 (Enter /public/software/apps/Gaussian/g16/l302.exe)
 NPDir=0 NMtPBC=     1 NCelOv=     1 NCel=       1 NClECP=     1 NCelD=      1
         NCelK=      1 NCelE2=     1 NClLst=     1 CellRange=     0.0.
 One-electron integrals computed using PRISM.
 One-electron integral symmetry used in STVInt
   1 Symmetry operations used in ECPInt.
 ECPInt:  NShTT=  296065 NPrTT= 1060619 LenC2=  187999 LenP2D=  393384.
 LDataN:  DoStor=T MaxTD1= 7 Len=  274
 NBasis=  1651 RedAO= T EigKep=  3.42D-04  NBF=  1651
 NBsUse=  1651 1.00D-06 EigRej= -1.00D+00 NBFU=  1651
 Precomputing XC quadrature grid using
 IXCGrd= 4 IRadAn=           5 IRanWt=          -1 IRanGd=           0 AccXCQ= 0.00D+00.
 Defaulting to unpruned grid for atomic number  45.
 Generated NRdTot=       0 NPtTot=           0 NUsed=           0 NTot=          32
 NSgBfM=  1415  1415  1415  1415  1415 MxSgAt=   165 MxSgA2=   165.
 Leave Link  302 at Sat Feb 24 05:10:19 2024, MaxMem= 13421772800 cpu:             205.2 elap:               6.5
 (Enter /public/software/apps/Gaussian/g16/l303.exe)
 DipDrv:  MaxL=1.
 Leave Link  303 at Sat Feb 24 05:10:19 2024, MaxMem= 13421772800 cpu:              11.2 elap:               0.4
 (Enter /public/software/apps/Gaussian/g16/l401.exe)
 ExpMin= 3.71D-02 ExpMax= 2.27D+03 ExpMxC= 3.41D+02 IAcc=3 IRadAn=         5 AccDes= 0.00D+00
 Harris functional with IExCor=  402 and IRadAn=       5 diagonalized for initial guess.
 HarFok:  IExCor=  402 AccDes= 0.00D+00 IRadAn=         5 IDoV= 1 UseB2=F ITyADJ=14
 ICtDFT=  3500011 ScaDFX=  1.000000  1.000000  1.000000  1.000000
 Defaulting to unpruned grid for atomic number  45.
 FoFCou: FMM=F IPFlag=           0 FMFlag=      100000 FMFlg1=        2001
         NFxFlg=           0 DoJE=T BraDBF=F KetDBF=T FulRan=T
         wScrn=  0.000000 ICntrl=       500 IOpCl=  0 I1Cent=   200000004 NGrid=           0
         NMat0=    1 NMatS0=      1 NMatT0=    0 NMatD0=    1 NMtDS0=    0 NMtDT0=    0
 Petite list used in FoFCou.
 Harris En= -4608.26051367185    
 JPrj=0 DoOrth=F DoCkMO=F.
 Initial guess <Sx>= 0.0000 <Sy>= 0.0000 <Sz>= 1.0000 <S**2>= 2.0000 S= 1.0000
 Leave Link  401 at Sat Feb 24 05:10:29 2024, MaxMem= 13421772800 cpu:             299.2 elap:               9.4
 (Enter /public/software/apps/Gaussian/g16/l502.exe)
 Integral symmetry usage will be decided dynamically.
 UHF open shell SCF:
 Using DIIS extrapolation, IDIIS=  1040.
 NGot= 13421772800 LenX= 13415590570 LenY= 13412536814
 Requested convergence on RMS density matrix=1.00D-08 within 128 cycles.
 Requested convergence on MAX density matrix=1.00D-06.
 Requested convergence on             energy=1.00D-06.
 No special actions if energy rises.
 Fock matrices will be formed incrementally for  20 cycles.

 Cycle   1  Pass 1  IDiag  1:
 FoFJK:  IHMeth= 1 ICntrl=       0 DoSepK=F KAlg= 0 I1Cent=           0 FoldK=F
 IRaf= 640000000 NMat=       1 IRICut=       1 DoRegI=T DoRafI=F ISym2E= 0 IDoP0=0 IntGTp=1.
 FoFCou: FMM=T IPFlag=           0 FMFlag=      100000 FMFlg1=        2001
         NFxFlg=           0 DoJE=F BraDBF=F KetDBF=F FulRan=T
         wScrn=  0.000000 ICntrl=         0 IOpCl=  1 I1Cent=           0 NGrid=           0
         NMat0=    1 NMatS0=      1 NMatT0=    0 NMatD0=    1 NMtDS0=    0 NMtDT0=    0
 Symmetry not used in FoFCou.
 FMM levels:  10  Number of levels for PrismC:   9
 Defaulting to unpruned grid for atomic number  45.
 Defaulting to unpruned grid for atomic number  45.
 Defaulting to unpruned grid for atomic number  45.
 Defaulting to unpruned grid for atomic number  45.
 Defaulting to unpruned grid for atomic number  45.
 Defaulting to unpruned grid for atomic number  45.
 Defaulting to unpruned grid for atomic number  45.
 Defaulting to unpruned grid for atomic number  45.
 Defaulting to unpruned grid for atomic number  45.
 Defaulting to unpruned grid for atomic number  45.
 Defaulting to unpruned grid for atomic number  45.
 Defaulting to unpruned grid for atomic number  45.
 Defaulting to unpruned grid for atomic number  45.
 Defaulting to unpruned grid for atomic number  45.
 Defaulting to unpruned grid for atomic number  45.
 Defaulting to unpruned grid for atomic number  45.
 Defaulting to unpruned grid for atomic number  45.
 Defaulting to unpruned grid for atomic number  45.
 Defaulting to unpruned grid for atomic number  45.
 Defaulting to unpruned grid for atomic number  45.
 Defaulting to unpruned grid for atomic number  45.
 Defaulting to unpruned grid for atomic number  45.
 Defaulting to unpruned grid for atomic number  45.
 Defaulting to unpruned grid for atomic number  45.
 Defaulting to unpruned grid for atomic number  45.
 Defaulting to unpruned grid for atomic number  45.
 Defaulting to unpruned grid for atomic number  45.
 Defaulting to unpruned grid for atomic number  45.
 Defaulting to unpruned grid for atomic number  45.
 Defaulting to unpruned grid for atomic number  45.
 Defaulting to unpruned grid for atomic number  45.
 Defaulting to unpruned grid for atomic number  45.
 E= -4605.51274719345    
 DIIS: error= 2.62D-02 at cycle   1 NSaved=   1.
 NSaved= 1 IEnMin= 1 EnMin= -4605.51274719345     IErMin= 1 ErrMin= 2.62D-02
 ErrMax= 2.62D-02  0.00D+00 EMaxC= 1.00D-01 BMatC= 1.28D+01 BMatP= 1.28D+01
 IDIUse=3 WtCom= 7.38D-01 WtEn= 2.62D-01
 Coeff-Com:  0.100D+01
 Coeff-En:   0.100D+01
 Coeff:      0.100D+01
 Gap=    -0.062 Goal=   None    Shift=    0.000
 Gap=     0.074 Goal=   None    Shift=    0.000
 GapD=   -0.062 DampG=0.250 DampE=0.250 DampFc=0.1250 IDamp=-1.
 Damping current iteration by 1.25D-01
 RMSDP=3.99D-03 MaxDP=1.44D+00              OVMax= 4.70D-01

 Cycle   2  Pass 1  IDiag  1:
 RMSU=  4.98D-04    CP:  9.99D-01
 E= -4606.17716211017     Delta-E=       -0.664414916722 Rises=F Damp=T
 DIIS: error= 1.37D-02 at cycle   2 NSaved=   2.
 NSaved= 2 IEnMin= 2 EnMin= -4606.17716211017     IErMin= 2 ErrMin= 1.37D-02
 ErrMax= 1.37D-02  0.00D+00 EMaxC= 1.00D-01 BMatC= 5.68D+00 BMatP= 1.28D+01
 IDIUse=3 WtCom= 8.63D-01 WtEn= 1.37D-01
 Coeff-Com: -0.152D+01 0.252D+01
 Coeff-En:   0.000D+00 0.100D+01
 Coeff:     -0.131D+01 0.231D+01
 Gap=    -0.057 Goal=   None    Shift=    0.000
 Gap=    -0.032 Goal=   None    Shift=    0.000
 RMSDP=3.29D-03 MaxDP=7.61D-01 DE=-6.64D-01 OVMax= 9.86D-01

 Cycle   3  Pass 1  IDiag  1:
 RMSU=  3.07D-03    CP:  9.71D-01  3.00D+00
 E= -4591.57538484496     Delta-E=       14.601777265209 Rises=F Damp=F
 DIIS: error= 8.27D-02 at cycle   3 NSaved=   3.
 NSaved= 3 IEnMin= 2 EnMin= -4606.17716211017     IErMin= 2 ErrMin= 1.37D-02
 ErrMax= 8.27D-02  0.00D+00 EMaxC= 1.00D-01 BMatC= 4.07D+01 BMatP= 5.68D+00
 IDIUse=2 WtCom= 0.00D+00 WtEn= 1.00D+00
 Coeff-En:   0.000D+00 0.971D+00 0.295D-01
 Coeff:      0.000D+00 0.971D+00 0.295D-01
 Gap=     0.021 Goal=   None    Shift=    0.000
 Gap=    -0.238 Goal=   None    Shift=    0.000
 RMSDP=3.13D-03 MaxDP=8.52D-01 DE= 1.46D+01 OVMax= 7.56D-01

 Cycle   4  Pass 1  IDiag  1:
 RMSU=  1.55D-03    CP:  9.89D-01  3.00D+00  1.14D-01
 E= -4604.69466842625     Delta-E=      -13.119283581294 Rises=F Damp=F
 DIIS: error= 5.62D-02 at cycle   4 NSaved=   4.
 NSaved= 4 IEnMin= 2 EnMin= -4606.17716211017     IErMin= 2 ErrMin= 1.37D-02
 ErrMax= 5.62D-02  0.00D+00 EMaxC= 1.00D-01 BMatC= 1.64D+01 BMatP= 5.68D+00
 IDIUse=2 WtCom= 0.00D+00 WtEn= 1.00D+00
 EnCoef did   100 forward-backward iterations
 Coeff-En:   0.514D+00 0.296D-01 0.162D-01 0.440D+00
 Coeff:      0.514D+00 0.296D-01 0.162D-01 0.440D+00
 Gap=     0.064 Goal=   None    Shift=    0.000
 Gap=     0.010 Goal=   None    Shift=    0.000
 RMSDP=1.72D-03 MaxDP=5.63D-01 DE=-1.31D+01 OVMax= 7.80D-01

 Cycle   5  Pass 1  IDiag  1:
 RMSU=  9.74D-04    CP:  9.88D-01  2.38D+00  1.01D-01  2.65D-01
 E= -4607.22996654229     Delta-E=       -2.535298116032 Rises=F Damp=F
 DIIS: error= 3.09D-02 at cycle   5 NSaved=   5.
 NSaved= 5 IEnMin= 5 EnMin= -4607.22996654229     IErMin= 2 ErrMin= 1.37D-02
 ErrMax= 3.09D-02  0.00D+00 EMaxC= 1.00D-01 BMatC= 4.48D+00 BMatP= 5.68D+00
 IDIUse=3 WtCom= 6.91D-01 WtEn= 3.09D-01
 EnCoef did   100 forward-backward iterations
 Coeff-Com: -0.177D+00 0.681D+00 0.338D-01 0.251D+00 0.211D+00
 Coeff-En:   0.131D+00 0.718D-02 0.000D+00 0.241D+00 0.620D+00
 Coeff:     -0.819D-01 0.473D+00 0.233D-01 0.248D+00 0.338D+00
 Gap=    -0.038 Goal=   None    Shift=    0.000
 Gap=     0.085 Goal=   None    Shift=    0.000
 RMSDP=1.48D-03 MaxDP=7.11D-01 DE=-2.54D+00 OVMax= 9.53D-01

 Cycle   6  Pass 1  IDiag  1:
 RMSU=  1.16D-03    CP:  9.81D-01  2.59D+00  5.58D-02  2.11D-01  8.18D-02
 E= -4604.35821067088     Delta-E=        2.871755871409 Rises=F Damp=F
 DIIS: error= 3.94D-02 at cycle   6 NSaved=   6.
 NSaved= 6 IEnMin= 5 EnMin= -4607.22996654229     IErMin= 2 ErrMin= 1.37D-02
 ErrMax= 3.94D-02  0.00D+00 EMaxC= 1.00D-01 BMatC= 1.33D+01 BMatP= 4.48D+00
 IDIUse=2 WtCom= 0.00D+00 WtEn= 1.00D+00
 Coeff-En:   0.000D+00 0.000D+00 0.000D+00 0.000D+00 0.694D+00 0.306D+00
 Coeff:      0.000D+00 0.000D+00 0.000D+00 0.000D+00 0.694D+00 0.306D+00
 Gap=     0.136 Goal=   None    Shift=    0.000
 Gap=    -0.019 Goal=   None    Shift=    0.000
 RMSDP=1.38D-03 MaxDP=6.92D-01 DE= 2.87D+00 OVMax= 7.80D-01

 Cycle   7  Pass 1  IDiag  1:
 RMSU=  9.52D-04    CP:  9.87D-01  2.77D+00  1.59D-02  3.12D-01  9.95D-02
                    CP:  1.66D-01
 E= -4606.24138171960     Delta-E=       -1.883171048717 Rises=F Damp=F
 DIIS: error= 6.80D-02 at cycle   7 NSaved=   7.
 NSaved= 7 IEnMin= 5 EnMin= -4607.22996654229     IErMin= 2 ErrMin= 1.37D-02
 ErrMax= 6.80D-02  0.00D+00 EMaxC= 1.00D-01 BMatC= 7.81D+00 BMatP= 4.48D+00
 IDIUse=2 WtCom= 0.00D+00 WtEn= 1.00D+00
 EnCoef did     1 forward-backward iterations
 Coeff-En:   0.000D+00 0.000D+00 0.000D+00 0.000D+00 0.594D+00 0.244D+00
 Coeff-En:   0.162D+00
 Coeff:      0.000D+00 0.000D+00 0.000D+00 0.000D+00 0.594D+00 0.244D+00
 Coeff:      0.162D+00
 Gap=     0.026 Goal=   None    Shift=    0.000
 Gap=    -0.042 Goal=   None    Shift=    0.000
 RMSDP=8.92D-04 MaxDP=4.15D-01 DE=-1.88D+00 OVMax= 4.97D-01

 Cycle   8  Pass 1  IDiag  1:
 RMSU=  4.88D-04    CP:  9.90D-01  2.42D+00  6.09D-02  3.34D-01  3.03D-01
                    CP:  2.04D-01  2.83D-01
 E= -4608.12373793512     Delta-E=       -1.882356215527 Rises=F Damp=F
 DIIS: error= 1.27D-02 at cycle   8 NSaved=   8.
 NSaved= 8 IEnMin= 8 EnMin= -4608.12373793512     IErMin= 8 ErrMin= 1.27D-02
 ErrMax= 1.27D-02  0.00D+00 EMaxC= 1.00D-01 BMatC= 7.04D-01 BMatP= 4.48D+00
 IDIUse=3 WtCom= 8.73D-01 WtEn= 1.27D-01
 Coeff-Com: -0.200D+00 0.273D+00 0.559D-02-0.369D-01 0.289D+00 0.551D-01
 Coeff-Com:  0.192D-01 0.595D+00
 Coeff-En:   0.000D+00 0.000D+00 0.000D+00 0.000D+00 0.216D+00 0.000D+00
 Coeff-En:   0.000D+00 0.784D+00
 Coeff:     -0.175D+00 0.238D+00 0.488D-02-0.322D-01 0.280D+00 0.481D-01
 Coeff:      0.167D-01 0.619D+00
 Gap=     0.057 Goal=   None    Shift=    0.000
 Gap=     0.071 Goal=   None    Shift=    0.000
 RMSDP=3.55D-04 MaxDP=9.08D-02 DE=-1.88D+00 OVMax= 1.72D-01

 Cycle   9  Pass 1  IDiag  1:
 RMSU=  2.40D-04    CP:  9.89D-01  2.28D+00  6.97D-02  3.10D-01  4.87D-01
                    CP:  1.58D-01  1.63D-01  7.65D-01
 E= -4608.25634887410     Delta-E=       -0.132610938981 Rises=F Damp=F
 DIIS: error= 2.92D-03 at cycle   9 NSaved=   9.
 NSaved= 9 IEnMin= 9 EnMin= -4608.25634887410     IErMin= 9 ErrMin= 2.92D-03
 ErrMax= 2.92D-03  0.00D+00 EMaxC= 1.00D-01 BMatC= 1.17D-01 BMatP= 7.04D-01
 IDIUse=3 WtCom= 9.71D-01 WtEn= 2.92D-02
 Coeff-Com: -0.192D+00 0.237D+00 0.260D-03-0.346D-01 0.122D+00 0.153D-03
 Coeff-Com: -0.160D-01 0.388D+00 0.495D+00
 Coeff-En:   0.000D+00 0.000D+00 0.000D+00 0.000D+00 0.000D+00 0.000D+00
 Coeff-En:   0.000D+00 0.962D-01 0.904D+00
 Coeff:     -0.187D+00 0.231D+00 0.252D-03-0.336D-01 0.118D+00 0.149D-03
 Coeff:     -0.155D-01 0.379D+00 0.507D+00
 Gap=     0.065 Goal=   None    Shift=    0.000
 Gap=     0.078 Goal=   None    Shift=    0.000
 RMSDP=1.49D-04 MaxDP=3.00D-02 DE=-1.33D-01 OVMax= 5.62D-02

 Cycle  10  Pass 1  IDiag  1:
 RMSU=  9.72D-05    CP:  9.90D-01  2.36D+00  7.07D-02  3.19D-01  4.61D-01
                    CP:  1.65D-01  1.92D-01  8.49D-01  6.28D-01
 E= -4608.27490694997     Delta-E=       -0.018558075863 Rises=F Damp=F
 DIIS: error= 2.14D-03 at cycle  10 NSaved=  10.
 NSaved=10 IEnMin=10 EnMin= -4608.27490694997     IErMin=10 ErrMin= 2.14D-03
 ErrMax= 2.14D-03  0.00D+00 EMaxC= 1.00D-01 BMatC= 3.14D-02 BMatP= 1.17D-01
 IDIUse=3 WtCom= 9.79D-01 WtEn= 2.14D-02
 Coeff-Com: -0.124D+00 0.159D+00-0.286D-03-0.184D-01 0.541D-01-0.802D-02
 Coeff-Com:  0.758D-03 0.104D+00 0.291D+00 0.542D+00
 Coeff-En:   0.000D+00 0.000D+00 0.000D+00 0.000D+00 0.000D+00 0.000D+00
 Coeff-En:   0.000D+00 0.000D+00 0.158D+00 0.842D+00
 Coeff:     -0.121D+00 0.156D+00-0.280D-03-0.180D-01 0.530D-01-0.785D-02
 Coeff:      0.742D-03 0.102D+00 0.288D+00 0.549D+00
 Gap=     0.071 Goal=   None    Shift=    0.000
 Gap=     0.080 Goal=   None    Shift=    0.000
 RMSDP=6.20D-05 MaxDP=9.63D-03 DE=-1.86D-02 OVMax= 2.80D-02

 Cycle  11  Pass 1  IDiag  1:
 RMSU=  5.93D-05    CP:  9.90D-01  2.36D+00  7.11D-02  3.20D-01  4.65D-01
                    CP:  1.63D-01  1.93D-01  8.52D-01  6.61D-01  8.41D-01
 E= -4608.27938518655     Delta-E=       -0.004478236580 Rises=F Damp=F
 DIIS: error= 1.58D-03 at cycle  11 NSaved=  11.
 NSaved=11 IEnMin=11 EnMin= -4608.27938518655     IErMin=11 ErrMin= 1.58D-03
 ErrMax= 1.58D-03  0.00D+00 EMaxC= 1.00D-01 BMatC= 1.20D-02 BMatP= 3.14D-02
 IDIUse=3 WtCom= 9.84D-01 WtEn= 1.58D-02
 Coeff-Com: -0.548D-01 0.720D-01-0.898D-03-0.964D-02 0.234D-01-0.625D-02
 Coeff-Com:  0.161D-01-0.619D-01 0.237D-01 0.302D+00 0.696D+00
 Coeff-En:   0.000D+00 0.000D+00 0.000D+00 0.000D+00 0.000D+00 0.000D+00
 Coeff-En:   0.000D+00 0.000D+00 0.000D+00 0.000D+00 0.100D+01
 Coeff:     -0.540D-01 0.709D-01-0.884D-03-0.948D-02 0.230D-01-0.616D-02
 Coeff:      0.158D-01-0.609D-01 0.233D-01 0.297D+00 0.701D+00
 Gap=     0.074 Goal=   None    Shift=    0.000
 Gap=     0.081 Goal=   None    Shift=    0.000
 RMSDP=4.32D-05 MaxDP=1.10D-02 DE=-4.48D-03 OVMax= 3.21D-02

 Cycle  12  Pass 1  IDiag  1:
 RMSU=  3.07D-05    CP:  9.90D-01  2.35D+00  7.07D-02  3.20D-01  4.70D-01
                    CP:  1.60D-01  2.03D-01  8.40D-01  6.88D-01  1.09D+00
                    CP:  1.18D+00
 E= -4608.28173243222     Delta-E=       -0.002347245678 Rises=F Damp=F
 DIIS: error= 8.73D-04 at cycle  12 NSaved=  12.
 NSaved=12 IEnMin=12 EnMin= -4608.28173243222     IErMin=12 ErrMin= 8.73D-04
 ErrMax= 8.73D-04  0.00D+00 EMaxC= 1.00D-01 BMatC= 3.96D-03 BMatP= 1.20D-02
 IDIUse=3 WtCom= 9.91D-01 WtEn= 8.73D-03
 Coeff-Com: -0.305D-01 0.403D-01-0.664D-03-0.552D-02 0.128D-01-0.395D-02
 Coeff-Com:  0.143D-01-0.650D-01-0.283D-01 0.636D-01 0.389D+00 0.614D+00
 Coeff-En:   0.000D+00 0.000D+00 0.000D+00 0.000D+00 0.000D+00 0.000D+00
 Coeff-En:   0.000D+00 0.000D+00 0.000D+00 0.000D+00 0.000D+00 0.100D+01
 Coeff:     -0.303D-01 0.400D-01-0.659D-03-0.547D-02 0.127D-01-0.392D-02
 Coeff:      0.142D-01-0.644D-01-0.281D-01 0.631D-01 0.385D+00 0.618D+00
 Gap=     0.076 Goal=   None    Shift=    0.000
 Gap=     0.082 Goal=   None    Shift=    0.000
 RMSDP=3.01D-05 MaxDP=9.25D-03 DE=-2.35D-03 OVMax= 2.65D-02

 Cycle  13  Pass 1  IDiag  1:
 RMSU=  1.83D-05    CP:  9.89D-01  2.36D+00  7.07D-02  3.19D-01  4.71D-01
                    CP:  1.59D-01  2.09D-01  8.30D-01  7.21D-01  1.22D+00
                    CP:  1.43D+00  1.29D+00
 E= -4608.28267193033     Delta-E=       -0.000939498110 Rises=F Damp=F
 DIIS: error= 4.58D-04 at cycle  13 NSaved=  13.
 NSaved=13 IEnMin=13 EnMin= -4608.28267193033     IErMin=13 ErrMin= 4.58D-04
 ErrMax= 4.58D-04  0.00D+00 EMaxC= 1.00D-01 BMatC= 1.44D-03 BMatP= 3.96D-03
 IDIUse=3 WtCom= 9.95D-01 WtEn= 4.58D-03
 Coeff-Com: -0.143D-01 0.179D-01-0.107D-03-0.229D-02 0.401D-02-0.976D-03
 Coeff-Com:  0.512D-02-0.146D-01-0.813D-02-0.106D+00-0.152D+00 0.363D+00
 Coeff-Com:  0.908D+00
 Coeff-En:   0.000D+00 0.000D+00 0.000D+00 0.000D+00 0.000D+00 0.000D+00
 Coeff-En:   0.000D+00 0.000D+00 0.000D+00 0.000D+00 0.000D+00 0.000D+00
 Coeff-En:   0.100D+01
 Coeff:     -0.142D-01 0.178D-01-0.107D-03-0.228D-02 0.399D-02-0.972D-03
 Coeff:      0.510D-02-0.145D-01-0.809D-02-0.106D+00-0.151D+00 0.362D+00
 Coeff:      0.909D+00
 Gap=     0.077 Goal=   None    Shift=    0.000
 Gap=     0.082 Goal=   None    Shift=    0.000
 RMSDP=4.00D-05 MaxDP=1.49D-02 DE=-9.39D-04 OVMax= 4.08D-02

 Cycle  14  Pass 1  IDiag  1:
 RMSU=  1.47D-05    CP:  9.89D-01  2.36D+00  7.11D-02  3.20D-01  4.70D-01
                    CP:  1.59D-01  2.18D-01  8.20D-01  7.55D-01  1.37D+00
                    CP:  1.77D+00  1.98D+00  1.59D+00
 E= -4608.28337433067     Delta-E=       -0.000702400332 Rises=F Damp=F
 DIIS: error= 3.00D-04 at cycle  14 NSaved=  14.
 NSaved=14 IEnMin=14 EnMin= -4608.28337433067     IErMin=14 ErrMin= 3.00D-04
 ErrMax= 3.00D-04  0.00D+00 EMaxC= 1.00D-01 BMatC= 3.59D-04 BMatP= 1.44D-03
 IDIUse=3 WtCom= 9.97D-01 WtEn= 3.00D-03
 Coeff-Com: -0.599D-02 0.742D-02-0.917D-04-0.444D-03 0.134D-02-0.571D-04
 Coeff-Com:  0.565D-04 0.595D-02 0.360D-02-0.903D-01-0.215D+00 0.774D-01
 Coeff-Com:  0.653D+00 0.562D+00
 Coeff-En:   0.000D+00 0.000D+00 0.000D+00 0.000D+00 0.000D+00 0.000D+00
 Coeff-En:   0.000D+00 0.000D+00 0.000D+00 0.000D+00 0.000D+00 0.000D+00
 Coeff-En:   0.000D+00 0.100D+01
 Coeff:     -0.597D-02 0.740D-02-0.914D-04-0.443D-03 0.134D-02-0.569D-04
 Coeff:      0.563D-04 0.594D-02 0.359D-02-0.900D-01-0.214D+00 0.772D-01
 Coeff:      0.651D+00 0.564D+00
 Gap=     0.078 Goal=   None    Shift=    0.000
 Gap=     0.083 Goal=   None    Shift=    0.000
 RMSDP=2.43D-05 MaxDP=1.06D-02 DE=-7.02D-04 OVMax= 2.65D-02

 Cycle  15  Pass 1  IDiag  1:
 RMSU=  7.52D-06    CP:  9.89D-01  2.36D+00  7.12D-02  3.20D-01  4.68D-01
                    CP:  1.60D-01  2.25D-01  8.14D-01  7.69D-01  1.46D+00
                    CP:  1.97D+00  2.37D+00  2.14D+00  1.28D+00
 E= -4608.28367077886     Delta-E=       -0.000296448197 Rises=F Damp=F
 DIIS: error= 2.64D-04 at cycle  15 NSaved=  15.
 NSaved=15 IEnMin=15 EnMin= -4608.28367077886     IErMin=15 ErrMin= 2.64D-04
 ErrMax= 2.64D-04  0.00D+00 EMaxC= 1.00D-01 BMatC= 7.47D-05 BMatP= 3.59D-04
 IDIUse=3 WtCom= 9.97D-01 WtEn= 2.64D-03
 Coeff-Com: -0.271D-02 0.356D-02-0.198D-04-0.352D-04 0.735D-03 0.115D-03
 Coeff-Com: -0.163D-02 0.882D-02 0.418D-02-0.236D-01-0.782D-01-0.454D-01
 Coeff-Com:  0.122D+00 0.281D+00 0.731D+00
 Coeff-En:   0.000D+00 0.000D+00 0.000D+00 0.000D+00 0.000D+00 0.000D+00
 Coeff-En:   0.000D+00 0.000D+00 0.000D+00 0.000D+00 0.000D+00 0.000D+00
 Coeff-En:   0.000D+00 0.000D+00 0.100D+01
 Coeff:     -0.270D-02 0.355D-02-0.197D-04-0.351D-04 0.733D-03 0.114D-03
 Coeff:     -0.162D-02 0.880D-02 0.417D-02-0.235D-01-0.780D-01-0.453D-01
 Coeff:      0.122D+00 0.281D+00 0.732D+00
 Gap=     0.079 Goal=   None    Shift=    0.000
 Gap=     0.083 Goal=   None    Shift=    0.000
 RMSDP=2.13D-05 MaxDP=1.02D-02 DE=-2.96D-04 OVMax= 2.50D-02

 Cycle  16  Pass 1  IDiag  1:
 RMSU=  4.68D-06    CP:  9.89D-01  2.37D+00  7.15D-02  3.21D-01  4.66D-01
                    CP:  1.61D-01  2.29D-01  8.10D-01  7.76D-01  1.53D+00
                    CP:  2.13D+00  2.70D+00  2.58D+00  1.83D+00  1.60D+00
 E= -4608.28386344196     Delta-E=       -0.000192663098 Rises=F Damp=F
 DIIS: error= 2.49D-04 at cycle  16 NSaved=  16.
 NSaved=16 IEnMin=16 EnMin= -4608.28386344196     IErMin=16 ErrMin= 2.49D-04
 ErrMax= 2.49D-04  0.00D+00 EMaxC= 1.00D-01 BMatC= 5.64D-05 BMatP= 7.47D-05
 IDIUse=3 WtCom= 9.98D-01 WtEn= 2.49D-03
 Coeff-Com:  0.118D-02-0.138D-02 0.128D-03 0.814D-04 0.376D-03 0.196D-03
 Coeff-Com: -0.154D-02 0.637D-02 0.401D-04 0.920D-02 0.163D-01-0.596D-01
 Coeff-Com: -0.164D+00-0.636D-01 0.477D+00 0.779D+00
 Coeff-En:   0.000D+00 0.000D+00 0.000D+00 0.000D+00 0.000D+00 0.000D+00
 Coeff-En:   0.000D+00 0.000D+00 0.000D+00 0.000D+00 0.000D+00 0.000D+00
 Coeff-En:   0.000D+00 0.000D+00 0.000D+00 0.100D+01
 Coeff:      0.117D-02-0.138D-02 0.128D-03 0.812D-04 0.375D-03 0.196D-03
 Coeff:     -0.154D-02 0.636D-02 0.400D-04 0.918D-02 0.163D-01-0.594D-01
 Coeff:     -0.164D+00-0.634D-01 0.476D+00 0.779D+00
 Gap=     0.080 Goal=   None    Shift=    0.000
 Gap=     0.083 Goal=   None    Shift=    0.000
 RMSDP=2.55D-05 MaxDP=1.36D-02 DE=-1.93D-04 OVMax= 3.12D-02

 Cycle  17  Pass 1  IDiag  1:
 RMSU=  4.36D-06    CP:  9.89D-01  2.37D+00  7.20D-02  3.21D-01  4.64D-01
                    CP:  1.63D-01  2.35D-01  8.05D-01  7.81D-01  1.62D+00
                    CP:  2.32D+00  3.00D+00  3.00D+00  2.49D+00  2.60D+00
                    CP:  1.79D+00
 E= -4608.28406771786     Delta-E=       -0.000204275904 Rises=F Damp=F
 DIIS: error= 2.26D-04 at cycle  17 NSaved=  17.
 NSaved=17 IEnMin=17 EnMin= -4608.28406771786     IErMin=17 ErrMin= 2.26D-04
 ErrMax= 2.26D-04  0.00D+00 EMaxC= 1.00D-01 BMatC= 4.25D-05 BMatP= 5.64D-05
 IDIUse=3 WtCom= 9.98D-01 WtEn= 2.26D-03
 Coeff-Com:  0.428D-02-0.539D-02 0.225D-03 0.229D-03 0.215D-03 0.714D-04
 Coeff-Com: -0.928D-03 0.281D-02-0.137D-02 0.864D-02 0.361D-01-0.690D-02
 Coeff-Com: -0.147D+00-0.236D+00-0.197D+00 0.579D+00 0.963D+00
 Coeff-En:   0.000D+00 0.000D+00 0.000D+00 0.000D+00 0.000D+00 0.000D+00
 Coeff-En:   0.000D+00 0.000D+00 0.000D+00 0.000D+00 0.000D+00 0.000D+00
 Coeff-En:   0.000D+00 0.000D+00 0.000D+00 0.000D+00 0.100D+01
 Coeff:      0.427D-02-0.538D-02 0.224D-03 0.229D-03 0.214D-03 0.712D-04
 Coeff:     -0.926D-03 0.280D-02-0.137D-02 0.862D-02 0.361D-01-0.688D-02
 Coeff:     -0.147D+00-0.236D+00-0.196D+00 0.578D+00 0.963D+00
 Gap=     0.081 Goal=   None    Shift=    0.000
 Gap=     0.084 Goal=   None    Shift=    0.000
 RMSDP=3.37D-05 MaxDP=1.96D-02 DE=-2.04D-04 OVMax= 4.27D-02

 Cycle  18  Pass 1  IDiag  1:
 RMSU=  1.77D-05    CP:  9.89D-01  2.38D+00  7.26D-02  3.21D-01  4.61D-01
                    CP:  1.66D-01  2.43D-01  7.95D-01  7.88D-01  1.72D+00
                    CP:  2.56D+00  3.00D+00  3.00D+00  3.00D+00  3.00D+00
                    CP:  3.00D+00  3.00D+00
 E= -4608.28429582421     Delta-E=       -0.000228106350 Rises=F Damp=F
 DIIS: error= 1.90D-04 at cycle  18 NSaved=  18.
 NSaved=18 IEnMin=18 EnMin= -4608.28429582421     IErMin=18 ErrMin= 1.90D-04
 ErrMax= 1.90D-04  0.00D+00 EMaxC= 1.00D-01 BMatC= 3.72D-05 BMatP= 4.25D-05
 IDIUse=3 WtCom= 9.98D-01 WtEn= 1.90D-03
 Coeff-Com:  0.341D-02-0.422D-02 0.218D-03 0.251D-03 0.172D-03 0.141D-05
 Coeff-Com: -0.474D-03 0.707D-03 0.177D-02-0.569D-02 0.112D-02 0.409D-01
 Coeff-Com:  0.429D-01-0.129D+00-0.481D+00-0.915D-01 0.803D+00 0.818D+00
 Coeff-En:   0.000D+00 0.000D+00 0.000D+00 0.000D+00 0.000D+00 0.000D+00
 Coeff-En:   0.000D+00 0.000D+00 0.000D+00 0.000D+00 0.000D+00 0.000D+00
 Coeff-En:   0.000D+00 0.000D+00 0.000D+00 0.000D+00 0.000D+00 0.100D+01
 Coeff:      0.340D-02-0.422D-02 0.217D-03 0.250D-03 0.171D-03 0.141D-05
 Coeff:     -0.473D-03 0.706D-03 0.176D-02-0.567D-02 0.112D-02 0.408D-01
 Coeff:      0.428D-01-0.129D+00-0.480D+00-0.914D-01 0.801D+00 0.818D+00
 Gap=     0.081 Goal=   None    Shift=    0.000
 Gap=     0.084 Goal=   None    Shift=    0.000
 RMSDP=2.91D-05 MaxDP=1.85D-02 DE=-2.28D-04 OVMax= 3.84D-02

 Cycle  19  Pass 1  IDiag  1:
 RMSU=  1.26D-05    CP:  9.89D-01  2.38D+00  7.33D-02  3.21D-01  4.58D-01
                    CP:  1.69D-01  2.49D-01  7.86D-01  7.92D-01  1.79D+00
                    CP:  2.74D+00  3.00D+00  3.00D+00  3.00D+00  3.00D+00
                    CP:  3.00D+00  3.00D+00  2.19D+00
 E= -4608.28446633755     Delta-E=       -0.000170513340 Rises=F Damp=F
 DIIS: error= 1.61D-04 at cycle  19 NSaved=  19.
 NSaved=19 IEnMin=19 EnMin= -4608.28446633755     IErMin=19 ErrMin= 1.61D-04
 ErrMax= 1.61D-04  0.00D+00 EMaxC= 1.00D-01 BMatC= 2.67D-05 BMatP= 3.72D-05
 IDIUse=3 WtCom= 9.98D-01 WtEn= 1.61D-03
 Coeff-Com: -0.376D-03 0.628D-03 0.525D-04 0.696D-04 0.283D-03 0.365D-04
 Coeff-Com: -0.232D-03-0.343D-04 0.492D-02-0.118D-01-0.286D-01 0.533D-01
 Coeff-Com:  0.184D+00 0.740D-01-0.272D+00-0.525D+00-0.713D-01 0.571D+00
 Coeff-Com:  0.102D+01
 Coeff-En:   0.000D+00 0.000D+00 0.000D+00 0.000D+00 0.000D+00 0.000D+00
 Coeff-En:   0.000D+00 0.000D+00 0.000D+00 0.000D+00 0.000D+00 0.000D+00
 Coeff-En:   0.000D+00 0.000D+00 0.000D+00 0.000D+00 0.000D+00 0.000D+00
 Coeff-En:   0.100D+01
 Coeff:     -0.376D-03 0.627D-03 0.525D-04 0.695D-04 0.283D-03 0.365D-04
 Coeff:     -0.232D-03-0.342D-04 0.491D-02-0.117D-01-0.286D-01 0.533D-01
 Coeff:      0.184D+00 0.739D-01-0.272D+00-0.524D+00-0.712D-01 0.570D+00
 Coeff:      0.102D+01
 Gap=     0.082 Goal=   None    Shift=    0.000
 Gap=     0.084 Goal=   None    Shift=    0.000
 RMSDP=3.06D-05 MaxDP=2.08D-02 DE=-1.71D-04 OVMax= 4.15D-02

 Cycle  20  Pass 1  IDiag  1:
 RMSU=  8.33D-06    CP:  9.89D-01  2.39D+00  7.40D-02  3.21D-01  4.55D-01
                    CP:  1.72D-01  2.55D-01  7.75D-01  7.94D-01  1.85D+00
                    CP:  2.89D+00  3.00D+00  3.00D+00  3.00D+00  3.00D+00
                    CP:  3.00D+00  3.00D+00  3.00D+00  2.25D+00
 E= -4608.28462197235     Delta-E=       -0.000155634800 Rises=F Damp=F
 DIIS: error= 1.33D-04 at cycle  20 NSaved=  20.
 NSaved=20 IEnMin=20 EnMin= -4608.28462197235     IErMin=20 ErrMin= 1.33D-04
 ErrMax= 1.33D-04  0.00D+00 EMaxC= 1.00D-01 BMatC= 1.77D-05 BMatP= 2.67D-05
 IDIUse=3 WtCom= 9.99D-01 WtEn= 1.33D-03
 Coeff-Com: -0.252D-02 0.337D-02-0.798D-04-0.358D-04 0.251D-03 0.110D-03
 Coeff-Com: -0.903D-04 0.414D-04 0.402D-02-0.803D-02-0.244D-01 0.416D-01
 Coeff-Com:  0.153D+00 0.103D+00-0.983D-01-0.385D+00-0.340D+00 0.718D-01
 Coeff-Com:  0.697D+00 0.784D+00
 Coeff-En:   0.000D+00 0.000D+00 0.000D+00 0.000D+00 0.000D+00 0.000D+00
 Coeff-En:   0.000D+00 0.000D+00 0.000D+00 0.000D+00 0.000D+00 0.000D+00
 Coeff-En:   0.000D+00 0.000D+00 0.000D+00 0.000D+00 0.000D+00 0.000D+00
 Coeff-En:   0.000D+00 0.100D+01
 Coeff:     -0.252D-02 0.336D-02-0.797D-04-0.358D-04 0.251D-03 0.110D-03
 Coeff:     -0.902D-04 0.414D-04 0.402D-02-0.802D-02-0.243D-01 0.416D-01
 Coeff:      0.152D+00 0.103D+00-0.982D-01-0.384D+00-0.339D+00 0.717D-01
 Coeff:      0.696D+00 0.784D+00
 Gap=     0.082 Goal=   None    Shift=    0.000
 Gap=     0.084 Goal=   None    Shift=    0.000
 RMSDP=2.48D-05 MaxDP=1.71D-02 DE=-1.56D-04 OVMax= 3.40D-02

 Cycle  21  Pass 1  IDiag  1:
 Restarting incremental Fock formation.
 E= -4608.28472559540     Delta-E=       -0.000103623050 Rises=F Damp=F
 DIIS: error= 1.08D-04 at cycle  21 NSaved=  20.
 NSaved=20 IEnMin=20 EnMin= -4608.28472559540     IErMin=20 ErrMin= 1.08D-04
 ErrMax= 1.08D-04  0.00D+00 EMaxC= 1.00D-01 BMatC= 1.69D-05 BMatP= 1.77D-05
 IDIUse=3 WtCom= 9.99D-01 WtEn= 1.08D-03
 Coeff-Com: -0.317D-02 0.419D-02-0.140D-03-0.433D-04 0.168D-03 0.151D-03
 Coeff-Com:  0.378D-03 0.178D-02-0.156D-02-0.339D-02 0.274D-01 0.369D-01
 Coeff-Com: -0.164D-01-0.160D+00 0.116D-01 0.105D+00-0.819D-01-0.301D+00
 Coeff-Com:  0.382D+00 0.999D+00
 Coeff-En:   0.000D+00 0.000D+00 0.000D+00 0.000D+00 0.000D+00 0.000D+00
 Coeff-En:   0.000D+00 0.000D+00 0.000D+00 0.000D+00 0.000D+00 0.000D+00
 Coeff-En:   0.000D+00 0.000D+00 0.000D+00 0.000D+00 0.000D+00 0.000D+00
 Coeff-En:   0.000D+00 0.100D+01
 Coeff:     -0.317D-02 0.419D-02-0.140D-03-0.432D-04 0.168D-03 0.151D-03
 Coeff:      0.378D-03 0.178D-02-0.155D-02-0.339D-02 0.274D-01 0.368D-01
 Coeff:     -0.164D-01-0.160D+00 0.116D-01 0.105D+00-0.818D-01-0.300D+00
 Coeff:      0.381D+00 0.999D+00
 Gap=     0.082 Goal=   None    Shift=    0.000
 Gap=     0.084 Goal=   None    Shift=    0.000
 RMSDP=2.17D-05 MaxDP=1.46D-02 DE=-1.04D-04 OVMax= 2.98D-02

 Cycle  22  Pass 1  IDiag  1:
 RMSU=  2.17D-05    CP:  1.00D+00
 E= -4608.28480156954     Delta-E=       -0.000075974134 Rises=F Damp=F
 DIIS: error= 8.83D-05 at cycle  22 NSaved=  20.
 NSaved=20 IEnMin=20 EnMin= -4608.28480156954     IErMin=20 ErrMin= 8.83D-05
 ErrMax= 8.83D-05  0.00D+00 EMaxC= 1.00D-01 BMatC= 1.01D-05 BMatP= 1.69D-05
 IDIUse=1 WtCom= 1.00D+00 WtEn= 0.00D+00
 Coeff-Com: -0.255D-02 0.334D-02-0.999D-04-0.238D-03 0.275D-03 0.297D-03
 Coeff-Com: -0.341D-03 0.174D-02 0.114D-01 0.123D-01-0.514D-01-0.981D-01
 Coeff-Com: -0.208D+00 0.291D+00 0.511D+00-0.707D-01-0.103D+01-0.420D+00
 Coeff-Com:  0.944D+00 0.110D+01
 Coeff:     -0.255D-02 0.334D-02-0.999D-04-0.238D-03 0.275D-03 0.297D-03
 Coeff:     -0.341D-03 0.174D-02 0.114D-01 0.123D-01-0.514D-01-0.981D-01
 Coeff:     -0.208D+00 0.291D+00 0.511D+00-0.707D-01-0.103D+01-0.420D+00
 Coeff:      0.944D+00 0.110D+01
 Gap=     0.083 Goal=   None    Shift=    0.000
 Gap=     0.084 Goal=   None    Shift=    0.000
 RMSDP=3.44D-05 MaxDP=2.27D-02 DE=-7.60D-05 OVMax= 4.73D-02

 Cycle  23  Pass 1  IDiag  1:
 RMSU=  3.42D-06    CP:  1.00D+00  2.58D+00
 E= -4608.28488887302     Delta-E=       -0.000087303481 Rises=F Damp=F
 DIIS: error= 5.66D-05 at cycle  23 NSaved=  20.
 NSaved=20 IEnMin=20 EnMin= -4608.28488887302     IErMin=20 ErrMin= 5.66D-05
 ErrMax= 5.66D-05  0.00D+00 EMaxC= 1.00D-01 BMatC= 5.04D-06 BMatP= 1.01D-05
 IDIUse=1 WtCom= 1.00D+00 WtEn= 0.00D+00
 Coeff-Com: -0.581D-03 0.714D-03-0.682D-04 0.140D-03 0.868D-03-0.116D-02
 Coeff-Com: -0.106D-02 0.518D-02-0.465D-02-0.565D-01-0.764D-01-0.113D+00
 Coeff-Com:  0.272D+00 0.439D+00 0.156D-01-0.744D+00-0.618D+00 0.125D+00
 Coeff-Com:  0.963D+00 0.794D+00
 Coeff:     -0.581D-03 0.714D-03-0.682D-04 0.140D-03 0.868D-03-0.116D-02
 Coeff:     -0.106D-02 0.518D-02-0.465D-02-0.565D-01-0.764D-01-0.113D+00
 Coeff:      0.272D+00 0.439D+00 0.156D-01-0.744D+00-0.618D+00 0.125D+00
 Coeff:      0.963D+00 0.794D+00
 Gap=     0.083 Goal=   None    Shift=    0.000
 Gap=     0.084 Goal=   None    Shift=    0.000
 RMSDP=2.19D-05 MaxDP=1.40D-02 DE=-8.73D-05 OVMax= 3.01D-02

 Cycle  24  Pass 1  IDiag  1:
 RMSU=  1.26D-05    CP:  1.00D+00  3.00D+00  1.99D+00
 E= -4608.28492425411     Delta-E=       -0.000035381094 Rises=F Damp=F
 DIIS: error= 3.55D-05 at cycle  24 NSaved=  20.
 NSaved=20 IEnMin=20 EnMin= -4608.28492425411     IErMin=20 ErrMin= 3.55D-05
 ErrMax= 3.55D-05  0.00D+00 EMaxC= 1.00D-01 BMatC= 2.37D-06 BMatP= 5.04D-06
 IDIUse=1 WtCom= 1.00D+00 WtEn= 0.00D+00
 Coeff-Com:  0.264D-06 0.112D-03 0.402D-04 0.344D-03-0.106D-03 0.240D-03
 Coeff-Com:  0.466D-02-0.282D-02-0.242D-01-0.339D-01-0.474D-01 0.107D+00
 Coeff-Com:  0.188D+00 0.518D-01-0.230D+00-0.281D+00-0.223D+00 0.287D+00
 Coeff-Com:  0.449D+00 0.755D+00
 Coeff:      0.264D-06 0.112D-03 0.402D-04 0.344D-03-0.106D-03 0.240D-03
 Coeff:      0.466D-02-0.282D-02-0.242D-01-0.339D-01-0.474D-01 0.107D+00
 Coeff:      0.188D+00 0.518D-01-0.230D+00-0.281D+00-0.223D+00 0.287D+00
 Coeff:      0.449D+00 0.755D+00
 Gap=     0.083 Goal=   None    Shift=    0.000
 Gap=     0.084 Goal=   None    Shift=    0.000
 RMSDP=1.12D-05 MaxDP=6.70D-03 DE=-3.54D-05 OVMax= 1.52D-02

 Cycle  25  Pass 1  IDiag  1:
 RMSU=  1.15D-06    CP:  1.00D+00  3.00D+00  2.66D+00  1.87D+00
 E= -4608.28493615272     Delta-E=       -0.000011898610 Rises=F Damp=F
 DIIS: error= 2.47D-05 at cycle  25 NSaved=  20.
 NSaved=20 IEnMin=20 EnMin= -4608.28493615272     IErMin=20 ErrMin= 2.47D-05
 ErrMax= 2.47D-05  0.00D+00 EMaxC= 1.00D-01 BMatC= 1.03D-06 BMatP= 2.37D-06
 IDIUse=1 WtCom= 1.00D+00 WtEn= 0.00D+00
 Coeff-Com:  0.668D-04-0.959D-04-0.176D-03 0.857D-03 0.110D-02 0.236D-02
 Coeff-Com:  0.208D-02 0.812D-02 0.213D-02-0.137D-01-0.453D-01-0.385D-01
 Coeff-Com:  0.393D-01 0.107D+00 0.756D-01-0.171D+00-0.207D+00-0.910D-01
 Coeff-Com:  0.539D+00 0.788D+00
 Coeff:      0.668D-04-0.959D-04-0.176D-03 0.857D-03 0.110D-02 0.236D-02
 Coeff:      0.208D-02 0.812D-02 0.213D-02-0.137D-01-0.453D-01-0.385D-01
 Coeff:      0.393D-01 0.107D+00 0.756D-01-0.171D+00-0.207D+00-0.910D-01
 Coeff:      0.539D+00 0.788D+00
 Gap=     0.083 Goal=   None    Shift=    0.000
 Gap=     0.084 Goal=   None    Shift=    0.000
 RMSDP=1.25D-05 MaxDP=7.20D-03 DE=-1.19D-05 OVMax= 1.70D-02

 Cycle  26  Pass 1  IDiag  1:
 RMSU=  2.20D-06    CP:  1.00D+00  3.00D+00  3.00D+00  2.83D+00  2.07D+00
 E= -4608.28494403525     Delta-E=       -0.000007882529 Rises=F Damp=F
 DIIS: error= 1.25D-05 at cycle  26 NSaved=  20.
 NSaved=20 IEnMin=20 EnMin= -4608.28494403525     IErMin=20 ErrMin= 1.25D-05
 ErrMax= 1.25D-05  0.00D+00 EMaxC= 1.00D-01 BMatC= 6.36D-07 BMatP= 1.03D-06
 IDIUse=1 WtCom= 1.00D+00 WtEn= 0.00D+00
 Coeff-Com:  0.805D-04-0.856D-03 0.650D-04 0.853D-03 0.281D-02 0.731D-02
 Coeff-Com:  0.183D-01 0.111D-01-0.212D-02-0.813D-01-0.107D+00-0.693D-04
 Coeff-Com:  0.158D+00 0.224D+00 0.619D-01-0.307D+00-0.370D+00-0.672D-01
 Coeff-Com:  0.653D+00 0.799D+00
 Coeff:      0.805D-04-0.856D-03 0.650D-04 0.853D-03 0.281D-02 0.731D-02
 Coeff:      0.183D-01 0.111D-01-0.212D-02-0.813D-01-0.107D+00-0.693D-04
 Coeff:      0.158D+00 0.224D+00 0.619D-01-0.307D+00-0.370D+00-0.672D-01
 Coeff:      0.653D+00 0.799D+00
 Gap=     0.083 Goal=   None    Shift=    0.000
 Gap=     0.084 Goal=   None    Shift=    0.000
 RMSDP=6.93D-06 MaxDP=3.65D-03 DE=-7.88D-06 OVMax= 9.16D-03

 Cycle  27  Pass 1  IDiag  1:
 RMSU=  4.54D-06    CP:  1.00D+00  3.00D+00  3.00D+00  3.00D+00  2.94D+00
                    CP:  1.75D+00
 E= -4608.28494657530     Delta-E=       -0.000002540051 Rises=F Damp=F
 DIIS: error= 5.90D-06 at cycle  27 NSaved=  20.
 NSaved=20 IEnMin=20 EnMin= -4608.28494657530     IErMin=20 ErrMin= 5.90D-06
 ErrMax= 5.90D-06  0.00D+00 EMaxC= 1.00D-01 BMatC= 2.23D-07 BMatP= 6.36D-07
 IDIUse=1 WtCom= 1.00D+00 WtEn= 0.00D+00
 Coeff-Com: -0.351D-03-0.236D-03 0.164D-03-0.762D-04 0.221D-02 0.828D-02
 Coeff-Com:  0.948D-02 0.146D-01-0.387D-01-0.723D-01-0.270D-01 0.600D-01
 Coeff-Com:  0.154D+00 0.179D+00-0.144D+00-0.279D+00-0.366D+00 0.128D+00
 Coeff-Com:  0.509D+00 0.863D+00
 Coeff:     -0.351D-03-0.236D-03 0.164D-03-0.762D-04 0.221D-02 0.828D-02
 Coeff:      0.948D-02 0.146D-01-0.387D-01-0.723D-01-0.270D-01 0.600D-01
 Coeff:      0.154D+00 0.179D+00-0.144D+00-0.279D+00-0.366D+00 0.128D+00
 Coeff:      0.509D+00 0.863D+00
 Gap=     0.083 Goal=   None    Shift=    0.000
 Gap=     0.083 Goal=   None    Shift=    0.000
 RMSDP=4.05D-06 MaxDP=1.90D-03 DE=-2.54D-06 OVMax= 5.04D-03

 Cycle  28  Pass 1  IDiag  1:
 RMSU=  9.18D-07    CP:  1.00D+00  3.00D+00  3.00D+00  3.00D+00  3.00D+00
                    CP:  2.26D+00  1.83D+00
 E= -4608.28494742847     Delta-E=       -0.000000853168 Rises=F Damp=F
 DIIS: error= 4.15D-06 at cycle  28 NSaved=  20.
 NSaved=20 IEnMin=20 EnMin= -4608.28494742847     IErMin=20 ErrMin= 4.15D-06
 ErrMax= 4.15D-06  0.00D+00 EMaxC= 1.00D-01 BMatC= 1.10D-07 BMatP= 2.23D-07
 IDIUse=1 WtCom= 1.00D+00 WtEn= 0.00D+00
 Coeff-Com: -0.580D-05-0.346D-04-0.594D-03-0.910D-04 0.683D-03 0.151D-02
 Coeff-Com:  0.651D-03-0.607D-02-0.179D-02 0.110D-02-0.117D-01-0.211D-03
 Coeff-Com:  0.587D-01 0.208D-01-0.326D-01-0.181D+00-0.775D-01 0.881D-01
 Coeff-Com:  0.519D+00 0.620D+00
 Coeff:     -0.580D-05-0.346D-04-0.594D-03-0.910D-04 0.683D-03 0.151D-02
 Coeff:      0.651D-03-0.607D-02-0.179D-02 0.110D-02-0.117D-01-0.211D-03
 Coeff:      0.587D-01 0.208D-01-0.326D-01-0.181D+00-0.775D-01 0.881D-01
 Coeff:      0.519D+00 0.620D+00
 Gap=     0.083 Goal=   None    Shift=    0.000
 Gap=     0.083 Goal=   None    Shift=    0.000
 RMSDP=1.64D-06 MaxDP=8.38D-04 DE=-8.53D-07 OVMax= 2.04D-03

 Cycle  29  Pass 1  IDiag  1:
 RMSU=  2.64D-07    CP:  1.00D+00  3.00D+00  3.00D+00  3.00D+00  3.00D+00
                    CP:  2.48D+00  2.16D+00  1.33D+00
 E= -4608.28494759059     Delta-E=       -0.000000162119 Rises=F Damp=F
 DIIS: error= 2.55D-06 at cycle  29 NSaved=  20.
[...]
  Beta virt. eigenvalues --    2.52178   2.52860   2.53044   2.53484   2.54214
  Beta virt. eigenvalues --    2.54764   2.54977   2.55214   2.55329   2.55572
  Beta virt. eigenvalues --    2.56058   2.56364   2.56770   2.56900   2.57291
  Beta virt. eigenvalues --    2.57572   2.58085   2.58199   2.58561   2.58971
  Beta virt. eigenvalues --    2.59138   2.59266   2.59569   2.59651   2.59826
  Beta virt. eigenvalues --    2.60041   2.60272   2.60571   2.61116   2.61270
  Beta virt. eigenvalues --    2.61579   2.61892   2.62321   2.62579   2.62839
  Beta virt. eigenvalues --    2.63090   2.63210   2.63260   2.63820   2.64001
  Beta virt. eigenvalues --    2.64513   2.64746   2.65004   2.65276   2.65578
  Beta virt. eigenvalues --    2.65685   2.66398   2.66617   2.66906   2.67184
  Beta virt. eigenvalues --    2.67492   2.67773   2.67873   2.68086   2.68307
  Beta virt. eigenvalues --    2.68469   2.68905   2.69140   2.69460   2.69708
  Beta virt. eigenvalues --    2.70056   2.70694   2.70735   2.71145   2.71339
  Beta virt. eigenvalues --    2.71680   2.72517   2.72769   2.72940   2.73265
  Beta virt. eigenvalues --    2.73395   2.73615   2.73949   2.74420   2.74713
  Beta virt. eigenvalues --    2.74922   2.75151   2.75301   2.75389   2.75514
  Beta virt. eigenvalues --    2.75792   2.76312   2.76466   2.76729   2.76893
  Beta virt. eigenvalues --    2.77614   2.77622   2.77975   2.78385   2.78472
  Beta virt. eigenvalues --    2.78742   2.79589   2.79837   2.79975   2.80484
  Beta virt. eigenvalues --    2.80804   2.81118   2.81407   2.81754   2.82183
  Beta virt. eigenvalues --    2.82297   2.82566   2.82919   2.83336   2.84195
  Beta virt. eigenvalues --    2.84363   2.84895   2.85125   2.85617   2.86121
  Beta virt. eigenvalues --    2.86199   2.86387   2.86712   2.86900   2.87103
  Beta virt. eigenvalues --    2.87659   2.88151   2.88492   2.88500   2.88824
  Beta virt. eigenvalues --    2.89200   2.89749   2.90124   2.90402   2.90917
  Beta virt. eigenvalues --    2.91156   2.91374   2.91613   2.91917   2.91947
  Beta virt. eigenvalues --    2.92283   2.92520   2.92884   2.93045   2.93445
  Beta virt. eigenvalues --    2.93692   2.93802   2.94241   2.94290   2.94690
  Beta virt. eigenvalues --    2.94800   2.95381   2.95643   2.95868   2.95922
  Beta virt. eigenvalues --    2.96103   2.96344   2.96676   2.96931   2.97374
  Beta virt. eigenvalues --    2.97599   2.97812   2.98283   2.98742   2.98902
  Beta virt. eigenvalues --    2.99051   2.99326   2.99671   2.99771   3.00072
  Beta virt. eigenvalues --    3.00476   3.00498   3.00572   3.01488   3.01777
  Beta virt. eigenvalues --    3.02070   3.02206   3.02770   3.03440   3.04008
  Beta virt. eigenvalues --    3.04870   3.05203   3.05420   3.05774   3.07307
  Beta virt. eigenvalues --    3.07499   3.07597   3.09822   3.10898   3.11300
  Beta virt. eigenvalues --    3.11349   3.11612   3.12006   3.12347   3.12379
  Beta virt. eigenvalues --    3.12695   3.12902   3.13205   3.13381   3.13703
  Beta virt. eigenvalues --    3.13906   3.14360   3.14432   3.14560   3.15067
  Beta virt. eigenvalues --    3.15602   3.15832   3.16106   3.16303   3.16617
  Beta virt. eigenvalues --    3.17453   3.17502   3.17724   3.17924   3.18393
  Beta virt. eigenvalues --    3.18566   3.18637   3.19191   3.19289   3.19651
  Beta virt. eigenvalues --    3.19798   3.20105   3.20176   3.20504   3.21406
  Beta virt. eigenvalues --    3.22422   3.24676   3.25483   3.28432   3.28801
  Beta virt. eigenvalues --    3.29099   3.30651   3.31419   3.31923   3.32143
  Beta virt. eigenvalues --    3.32873   3.33594   3.33946   3.34862   3.35029
  Beta virt. eigenvalues --    3.35690   3.37024   3.38247   3.39077   3.39849
  Beta virt. eigenvalues --    3.48908   3.49294   3.50381   3.50443   3.51243
  Beta virt. eigenvalues --    3.51388   3.52189   3.52496   3.53038   3.54583
  Beta virt. eigenvalues --    3.55497   3.55863   3.56014   3.56669   3.57364
  Beta virt. eigenvalues --    3.58246   3.58872   3.60395   3.61980   3.65134
  Beta virt. eigenvalues --    3.65180   3.65484   3.65678   3.66469   3.66683
  Beta virt. eigenvalues --    3.67082   3.67229   3.67307   3.67531   3.67905
  Beta virt. eigenvalues --    3.68101   3.68417   3.69468   3.69627   3.69793
  Beta virt. eigenvalues --    3.70262   3.94736  48.24214  48.36242
          Condensed to atoms (all electrons):
          Atomic-Atomic Spin Densities.
 Mulliken charges and spin densities:
               1          2
     1  C    0.046066   0.000003
     2  H    0.005456  -0.000001
     3  H    0.054168  -0.000001
     4  H    0.044946  -0.000000
     5  C    0.048778  -0.000006
     6  O   -0.253474   0.000005
     7  N   -0.214721  -0.000009
     8  H    0.118867   0.000023
     9  C    0.129246   0.000150
    10  H    0.069380   0.000513
    11  C   -0.093232   0.000066
    12  H    0.024730  -0.000030
    13  C    0.074079   0.000010
    14  H    0.028980   0.000188
    15  H   -0.017195   0.000010
    16  H    0.015226  -0.000002
    17  C   -0.016025   0.000020
    18  H    0.002067  -0.000001
    19  H   -0.020587  -0.000001
    20  C    0.027274   0.000001
    21  H    0.012625  -0.000000
    22  H    0.006907   0.000001
    23  H    0.025051   0.000001
    24  C    0.102805   0.000023
    25  O   -0.326123   0.000042
    26  N   -0.149166   0.000014
    27  H    0.123607   0.000001
    28  C    0.198663  -0.000001
    29  H    0.020267  -0.000001
    30  H    0.050020  -0.000002
    31  C    0.046869  -0.000003
    32  O   -0.259988  -0.000016
    33  N   -0.189643  -0.000040
    34  H    0.171578   0.000120
    35  C    0.136174  -0.000074
    36  H    0.025485  -0.000013
    37  C    0.074053  -0.000665
    38  H    0.040591  -0.000154
    39  H    0.041242  -0.000196
    40  C    0.311542  -0.001389
    41  O   -0.337732  -0.004168
    42  O   -0.383921  -0.009577
    43  C    0.101782   0.000003
    44  O   -0.312641  -0.000006
    45  N   -0.126782  -0.000010
    46  H    0.145837   0.000066
    47  C    0.105925  -0.000006
    48  H    0.045435   0.000001
    49  C    0.006070   0.000031
    50  H    0.065973   0.000049
    51  H    0.037035   0.000006
    52  C    0.041194   0.000003
    53  O   -0.292341   0.000001
    54  N   -0.069334   0.000002
    55  H    0.139742  -0.000000
    56  H    0.124018   0.000001
    57  C    0.105218   0.000047
    58  O   -0.298726   0.000064
    59  N   -0.177317   0.000028
    60  H    0.149714  -0.000001
    61  C    0.159396   0.000002
    62  H    0.006553   0.000001
    63  C   -0.121895   0.000000
    64  H   -0.005765  -0.000000
    65  C    0.070203  -0.000000
    66  H    0.019232   0.000000
    67  H    0.013136   0.000000
    68  H    0.005012   0.000000
    69  C    0.028379   0.000000
    70  H   -0.006533   0.000000
    71  H   -0.007284   0.000000
    72  C    0.029009  -0.000000
    73  H    0.009283  -0.000000
    74  H    0.012912   0.000000
    75  H    0.008839   0.000000
    76  C    0.092421  -0.000002
    77  O   -0.246573   0.000002
    78  N   -0.173813   0.000004
    79  H    0.133773  -0.000002
    80  C    0.054130  -0.000003
    81  H    0.064575  -0.000011
    82  C    0.101673  -0.000001
    83  H    0.005129   0.000000
    84  H    0.055454   0.000000
    85  C    0.061695   0.000000
    86  O   -0.321225  -0.000001
    87  N   -0.062676   0.000000
    88  H    0.118498  -0.000000
    89  H    0.150199  -0.000000
    90  C    0.094374   0.000089
    91  O   -0.296339  -0.000008
    92  N   -0.158718   0.000222
    93  H    0.159561  -0.000001
    94  C    0.105518  -0.000138
    95  H    0.026726  -0.000065
    96  C    0.133680  -0.001058
    97  H    0.026262   0.000654
    98  H    0.027008   0.001027
    99  C    0.276018   0.002633
   100  O   -0.395479   0.015152
   101  O   -0.325876   0.036076
   102  C    0.082290   0.000020
   103  O   -0.287942   0.000044
   104  N   -0.182442   0.000121
   105  H    0.184936  -0.000198
   106  C    0.106860  -0.000059
   107  H    0.013870   0.000004
   108  C    0.140690   0.000117
   109  H    0.016742  -0.000028
   110  H    0.042502   0.000503
   111  C   -0.021540   0.001155
   112  N   -0.208093   0.040381
   113  C    0.175310   0.002865
   114  H    0.049214   0.000982
   115  N   -0.059454   0.001190
   116  H    0.133704   0.001169
   117  C   -0.000312   0.002544
   118  H    0.003302   0.000747
   119  C    0.080591  -0.000035
   120  O   -0.267679   0.000002
   121  N   -0.192425  -0.000003
   122  H    0.133718   0.000000
   123  C    0.104745  -0.000001
   124  H    0.035156   0.000000
   125  C    0.120150  -0.000000
   126  H   -0.004633  -0.000000
   127  H   -0.000908  -0.000000
   128  C   -0.034440  -0.000003
   129  H    0.011697  -0.000000
   130  H    0.001207  -0.000004
   131  C   -0.000827  -0.000001
   132  H   -0.009513   0.000000
   133  H    0.003039   0.000000
   134  C    0.166844  -0.000000
   135  H    0.002907  -0.000000
   136  H    0.005734  -0.000000
   137  N   -0.162776  -0.000013
   138  H    0.112750   0.000001
   139  C    0.032417   0.000012
   140  O   -0.280032  -0.000079
   141  C   -0.006947  -0.000011
   142  H    0.026986  -0.000003
   143  H    0.060600   0.000002
   144  H    0.046922   0.000002
   145  C    0.081141   0.000000
   146  O   -0.318882  -0.000000
   147  N   -0.163976   0.000000
   148  H    0.146706   0.000000
   149  C    0.120591  -0.000000
   150  H    0.026817  -0.000000
   151  H    0.017540   0.000002
   152  H    0.028324  -0.000000
   153  Rh   0.341173   0.796272
   154  Rh   0.323062   1.035444
   155  O   -0.321446   0.010134
   156  O   -0.353398  -0.003791
   157  O   -0.317395  -0.013251
   158  O   -0.357795   0.051640
   159  O   -0.240451   0.025806
   160  C    0.396717   0.006744
   161  C    0.394857  -0.001195
   162  H    0.200363   0.000480
   163  H    0.205480   0.002948
   164  H    0.039326  -0.001233
   165  H    0.044121  -0.001120
 Sum of Mulliken charges =  -0.00000   2.00000
 Mulliken charges and spin densities with hydrogens summed into heavy atoms:
               1          2
     1  C    0.150636   0.000002
     5  C    0.048778  -0.000006
     6  O   -0.253474   0.000005
     7  N   -0.095854   0.000014
     9  C    0.198626   0.000663
    11  C   -0.068502   0.000036
    13  C    0.101090   0.000207
    17  C   -0.034545   0.000018
    20  C    0.071857   0.000003
    24  C    0.102805   0.000023
    25  O   -0.326123   0.000042
    26  N   -0.025559   0.000015
    28  C    0.268949  -0.000003
    31  C    0.046869  -0.000003
    32  O   -0.259988  -0.000016
    33  N   -0.018065   0.000080
    35  C    0.161659  -0.000086
    37  C    0.155886  -0.001016
    40  C    0.311542  -0.001389
    41  O   -0.337732  -0.004168
    42  O   -0.383921  -0.009577
    43  C    0.101782   0.000003
    44  O   -0.312641  -0.000006
    45  N    0.019055   0.000056
    47  C    0.151360  -0.000005
    49  C    0.109078   0.000085
    52  C    0.041194   0.000003
    53  O   -0.292341   0.000001
    54  N    0.194426   0.000002
    57  C    0.105218   0.000047
    58  O   -0.298726   0.000064
    59  N   -0.027602   0.000027
    61  C    0.165950   0.000003
    63  C   -0.127660   0.000000
    65  C    0.107582   0.000000
    69  C    0.014562   0.000001
    72  C    0.060043   0.000000
    76  C    0.092421  -0.000002
    77  O   -0.246573   0.000002
    78  N   -0.040040   0.000003
    80  C    0.118705  -0.000014
    82  C    0.162256   0.000000
    85  C    0.061695   0.000000
    86  O   -0.321225  -0.000001
    87  N    0.206021   0.000000
    90  C    0.094374   0.000089
    91  O   -0.296339  -0.000008
    92  N    0.000842   0.000220
    94  C    0.132244  -0.000203
    96  C    0.186949   0.000623
    99  C    0.276018   0.002633
   100  O   -0.395479   0.015152
   101  O   -0.325876   0.036076
   102  C    0.082290   0.000020
   103  O   -0.287942   0.000044
   104  N    0.002494  -0.000077
   106  C    0.120730  -0.000055
   108  C    0.199934   0.000592
   111  C   -0.021540   0.001155
   112  N   -0.208093   0.040381
   113  C    0.224524   0.003847
   115  N    0.074250   0.002359
   117  C    0.002990   0.003291
   119  C    0.080591  -0.000035
   120  O   -0.267679   0.000002
   121  N   -0.058707  -0.000003
   123  C    0.139900  -0.000001
   125  C    0.114609  -0.000001
   128  C   -0.021536  -0.000007
   131  C   -0.007301  -0.000001
   134  C    0.175486  -0.000000
   137  N   -0.050025  -0.000013
   139  C    0.032417   0.000012
   140  O   -0.280032  -0.000079
   141  C    0.127562  -0.000009
   145  C    0.081141   0.000000
   146  O   -0.318882  -0.000000
   147  N   -0.017270   0.000001
   149  C    0.193271   0.000001
   153  Rh   0.341173   0.796272
   154  Rh   0.323062   1.035444
   155  O   -0.321446   0.010134
   156  O   -0.353398  -0.003791
   157  O   -0.317395  -0.013251
   158  O   -0.357795   0.051640
   159  O    0.165391   0.029234
   160  C    0.436042   0.005511
   161  C    0.438978  -0.002315
 Electronic spatial extent (au):  <R**2>=          83655.4302
 Charge=             -0.0000 electrons
 Dipole moment (field-independent basis, Debye):
    X=              3.7001    Y=             -0.1779    Z=             -0.8878  Tot=              3.8093
 Quadrupole moment (field-independent basis, Debye-Ang):
   XX=           -514.0743   YY=           -515.8961   ZZ=           -506.0565
   XY=            -39.2799   XZ=             17.7241   YZ=             21.7822
 Traceless Quadrupole moment (field-independent basis, Debye-Ang):
   XX=             -2.0653   YY=             -3.8871   ZZ=              5.9525
   XY=            -39.2799   XZ=             17.7241   YZ=             21.7822
 Octapole moment (field-independent basis, Debye-Ang**2):
  XXX=            558.4604  YYY=           -155.5207  ZZZ=           -264.9471  XYY=             81.1452
  XXY=           -201.0981  XXZ=            408.3703  XZZ=            -33.9020  YZZ=           -265.4568
  YYZ=            -90.3630  XYZ=           -108.3105
 Hexadecapole moment (field-independent basis, Debye-Ang**3):
 XXXX=         -55059.6690 YYYY=         -32985.8367 ZZZZ=         -19753.1175 XXXY=          -3124.4824
 XXXZ=           1387.4923 YYYX=           -418.0850 YYYZ=            959.5484 ZZZX=             27.6003
 ZZZY=            823.7615 XXYY=         -13393.7815 XXZZ=         -12417.2763 YYZZ=          -7854.1501
 XXYZ=           -691.4489 YYXZ=             47.2019 ZZXY=            119.7333
 N-N= 2.047501478232D+04 E-N=-5.166183819020D+04  KE= 4.426264228766D+03
 Leave Link  601 at Sat Feb 24 05:55:56 2024, MaxMem= 13421772800 cpu:              62.4 elap:               2.5
 (Enter /public/software/apps/Gaussian/g16/l9999.exe)
 Unable to Open any file for archive entry.
 1\1\GINC-NODE3\SP\UB3LYP\def2SVP\C49H77N15O22Rh2(3)\TMJ_HG\24-Feb-2024
 \0\\#p b3lyp def2svp\\Title: 111\\0,3\C,0,7.0632,-5.5453,2.0617\H,0,7.
 9942,-5.1065,2.4348\H,0,6.6707,-6.2294,2.8226\H,0,7.2743,-6.1365,1.167
 3\C,0,5.9955,-4.5149,1.7279\O,0,5.0228,-4.7879,1.0391\N,0,6.212,-3.254
 6,2.2483\H,0,6.9485,-3.1619,2.9362\C,0,5.1735,-2.2252,2.2468\H,0,4.298
 1,-2.6681,1.7594\C,0,4.7495,-1.7838,3.6748\H,0,3.998,-1.0016,3.5213\C,
 0,4.075,-2.9479,4.414\H,0,3.2297,-3.3344,3.8354\H,0,4.7755,-3.7739,4.5
 927\H,0,3.6883,-2.6248,5.3851\C,0,5.9168,-1.1584,4.4691\H,0,6.4427,-0.
 437,3.8288\H,0,6.6512,-1.9359,4.735\C,0,5.4803,-0.4371,5.7508\H,0,5.01
 75,-1.1217,6.4693\H,0,6.3391,0.0299,6.2459\H,0,4.7539,0.3519,5.524\C,0
 ,5.5394,-1.0131,1.3791\O,0,4.8345,0.0061,1.3683\N,0,6.6399,-1.1116,0.6
 003\H,0,7.1384,-1.991,0.6156\C,0,7.1464,-0.0052,-0.1995\H,0,8.2223,-0.
 1285,-0.3351\H,0,6.9752,0.9212,0.3608\C,0,6.5539,0.2035,-1.6059\O,0,7.
 2651,0.6477,-2.499\N,0,5.2272,-0.0728,-1.7499\H,0,4.6749,-0.3495,-0.94
 75\C,0,4.5186,0.231,-2.9827\H,0,5.2864,0.3402,-3.7518\C,0,3.5827,-0.92
 01,-3.4184\H,0,4.1867,-1.8067,-3.6461\H,0,3.0754,-0.6398,-4.348\C,0,2.
 524,-1.3256,-2.3967\O,0,1.6608,-2.1877,-2.7398\O,0,2.6014,-0.7497,-1.2
 618\C,0,3.7994,1.6067,-2.9978\O,0,3.6082,2.1641,-4.0855\N,0,3.4116,2.1
 305,-1.8129\H,0,3.546,1.6244,-0.9439\C,0,2.7897,3.4354,-1.6848\H,0,3.5
 278,4.1998,-1.9685\C,0,1.5261,3.6143,-2.584\H,0,0.6116,3.559,-1.9907\H
 ,0,1.5095,2.8258,-3.3335\C,0,1.6038,4.9844,-3.2313\O,0,1.3096,6.0107,-
 2.6112\N,0,2.0882,4.9808,-4.4993\H,0,2.5685,4.1474,-4.8252\H,0,2.3361,
 5.871,-4.9116\C,0,2.4402,3.6628,-0.1986\O,0,2.7813,2.8482,0.6636\N,0,1
 .7543,4.7954,0.0724\H,0,1.4924,5.4041,-0.7103\C,0,1.3078,5.1197,1.4324
 \H,0,2.0962,4.8132,2.1253\C,0,1.0539,6.643,1.5682\H,0,0.326,6.9302,0.7
 925\C,0,0.4432,6.9685,2.9406\H,0,-0.5187,6.4685,3.088\H,0,1.1104,6.65,
 3.7506\H,0,0.2745,8.0445,3.0442\C,0,2.3554,7.4364,1.3159\H,0,2.8395,7.
 0548,0.4093\H,0,3.0527,7.2382,2.1427\C,0,2.1521,8.948,1.1584\H,0,3.102
 9,9.4421,0.9292\H,0,1.4586,9.168,0.3375\H,0,1.7538,9.4115,2.0675\C,0,0
 .0816,4.263,1.8414\O,0,0.0618,3.6221,2.8844\N,0,-0.9694,4.2975,0.9687\
 H,0,-0.8516,4.7379,0.0602\C,0,-1.9924,3.2607,0.9562\H,0,-1.571,2.3449,
 1.383\C,0,-3.227,3.6481,1.8007\H,0,-3.6593,4.5842,1.4275\H,0,-2.8635,3
 .8408,2.8179\C,0,-4.2925,2.5511,1.8723\O,0,-4.0225,1.3565,1.6735\N,0,-
 5.5398,2.9594,2.1891\H,0,-5.7547,3.9423,2.2718\H,0,-6.3206,2.3011,2.10
 56\C,0,-2.3032,3.025,-0.538\O,0,-1.9578,3.8477,-1.3916\N,0,-2.9082,1.8
 564,-0.8562\H,0,-3.1355,1.2265,-0.0902\C,0,-2.9195,1.4101,-2.2503\H,0,
 -3.3089,2.2317,-2.8552\C,0,-1.4621,1.1615,-2.7368\H,0,-0.9644,2.1297,-
 2.7087\H,0,-1.484,0.804,-3.7707\C,0,-0.6889,0.1533,-1.9037\O,0,-0.877,
 -1.0525,-2.287\O,0,0.0234,0.5085,-0.9223\C,0,-3.9642,0.2796,-2.4336\O,
 0,-5.0886,0.5625,-2.8529\N,0,-3.615,-0.9772,-2.0488\H,0,-2.619,-1.1799
 ,-1.9774\C,0,-4.4787,-2.1298,-2.3085\H,0,-4.8185,-2.1002,-3.3503\C,0,-
 3.7156,-3.461,-2.0548\H,0,-4.4842,-4.2406,-2.019\H,0,-3.2334,-3.4293,-
 1.0745\C,0,-2.6894,-3.8544,-3.0936\N,0,-1.3087,-3.8347,-2.8994\C,0,-0.
 7644,-4.306,-4.0042\H,0,0.2965,-4.4082,-4.1817\N,0,-1.7182,-4.6353,-4.
 9128\H,0,-1.5565,-5.0247,-5.8301\C,0,-2.9452,-4.3577,-4.3477\H,0,-3.87
 32,-4.5552,-4.8629\C,0,-5.7969,-2.1048,-1.5027\O,0,-6.7599,-2.7444,-1.
 9088\N,0,-5.8186,-1.3528,-0.3624\H,0,-4.9776,-0.8594,-0.0918\C,0,-7.06
 47,-1.0344,0.3329\H,0,-7.8509,-1.4415,-0.314\C,0,-7.2179,-1.6826,1.717
 2\H,0,-7.3164,-2.7654,1.5693\H,0,-8.1698,-1.3244,2.1253\C,0,-6.0937,-1
 .3967,2.723\H,0,-5.8291,-0.3347,2.695\H,0,-5.1931,-1.9544,2.4353\C,0,-
 6.5027,-1.7779,4.152\H,0,-6.8315,-2.8281,4.1803\H,0,-7.373,-1.1776,4.4
 516\C,0,-5.4004,-1.5758,5.2052\H,0,-5.8161,-1.7496,6.207\H,0,-5.046,-0
 .542,5.1855\N,0,-4.2558,-2.4568,5.0119\H,0,-4.4467,-3.4534,5.0013\C,0,
 -3.028,-2.1635,4.4769\O,0,-2.284,-3.0747,4.1136\C,0,-2.6232,-0.7026,4.
 3737\H,0,-2.7681,-0.1728,5.322\H,0,-1.5691,-0.6655,4.0946\H,0,-3.2005,
 -0.178,3.603\C,0,-7.2718,0.5011,0.3828\O,0,-7.6623,1.0724,1.4115\N,0,-
 7.0483,1.1448,-0.7826\H,0,-6.6003,0.6529,-1.5514\C,0,-7.2346,2.5756,-0
 .9463\H,0,-7.9126,2.9307,-0.1686\H,0,-6.2837,3.1172,-0.8701\H,0,-7.67,
 2.7762,-1.9295\Rh,0,0.0717,-2.6178,-1.4019\Rh,0,1.111,-1.0149,0.1256\O
 ,0,1.1753,-4.1121,-0.4923\O,0,-1.3762,-2.8815,0.0474\O,0,-0.4133,-1.38
 07,1.4568\O,0,2.1364,-2.6152,0.9312\O,0,2.0866,0.3511,1.6954\C,0,1.957
 ,-3.7774,0.4418\C,0,-1.2598,-2.2701,1.159\H,0,3.0524,0.1714,1.6727\H,0
 ,2.0322,1.3029,1.4797\H,0,2.5684,-4.5743,0.8802\H,0,-1.9628,-2.5541,1.
 9501\\Version=ES64L-G16RevC.01\State=3-A\HF=-4608.2849478\S2=2.020499\
 S2-1=0.\S2A=2.00013\RMSD=1.560e-09\Dipole=1.4557423,-0.0699793,-0.3493
 052\Quadrupole=-1.5356223,-2.8898786,4.4255009,-29.2036237,13.1774631,
 16.1945373\PG=C01 [X(C49H77N15O22Rh2)]\\@
 The archive entry for this job was punched.


 If your ship doesn't come in, swim out to it!
                          -- Jonathan Winters
 Job cpu time:       1 days  0 hours  7 minutes 19.9 seconds.
 Elapsed time:       0 days  0 hours 45 minutes 43.5 seconds.
 File lengths (MBytes):  RWF=   2520 Int=      0 D2E=      0 Chk=    190 Scr=      2
 Normal termination of Gaussian 16 at Sat Feb 24 05:55:57 2024.
