 Entering Gaussian System, Link 0=g16
 Initial command:
 /public/software/apps/Gaussian/g16/l1.exe "/public/home/LLG_HG/tmp/Gau-20461.inp" -scrdir="/public/home/LLG_HG/tmp/"
 Entering Link 1 = /public/software/apps/Gaussian/g16/l1.exe PID=     20462.
  
 Copyright (c) 1988-2019, Gaussian, Inc.  All Rights Reserved.
  
 This is part of the Gaussian(R) 16 program.  It is based on
 the Gaussian(R) 09 system (copyright 2009, Gaussian, Inc.),
 the Gaussian(R) 03 system (copyright 2003, Gaussian, Inc.),
 the Gaussian(R) 98 system (copyright 1998, Gaussian, Inc.),
 the Gaussian(R) 94 system (copyright 1995, Gaussian, Inc.),
 the Gaussian 92(TM) system (copyright 1992, Gaussian, Inc.),
 the Gaussian 90(TM) system (copyright 1990, Gaussian, Inc.),
 the Gaussian 88(TM) system (copyright 1988, Gaussian, Inc.),
 the Gaussian 86(TM) system (copyright 1986, Carnegie Mellon
 University), and the Gaussian 82(TM) system (copyright 1983,
 Carnegie Mellon University). Gaussian is a federally registered
 trademark of Gaussian, Inc.
  
 This software contains proprietary and confidential information,
 including trade secrets, belonging to Gaussian, Inc.
  
 This software is provided under written license and may be
 used, copied, transmitted, or stored only in accord with that
 written license.
  
 The following legend is applicable only to US Government
 contracts under FAR:
  
                    RESTRICTED RIGHTS LEGEND
  
 Use, reproduction and disclosure by the US Government is
 subject to restrictions as set forth in subparagraphs (a)
 and (c) of the Commercial Computer Software - Restricted
 Rights clause in FAR 52.227-19.
  
 Gaussian, Inc.
 340 Quinnipiac St., Bldg. 40, Wallingford CT 06492
  
  
 ---------------------------------------------------------------
 Warning -- This program may not be used in any manner that
 competes with the business of Gaussian, Inc. or will provide
 assistance to any competitor of Gaussian, Inc.  The licensee
 of this program is prohibited from giving any competitor of
 Gaussian, Inc. access to this program.  By using this program,
 the user acknowledges that Gaussian, Inc. is engaged in the
 business of creating and licensing software in the field of
 computational chemistry and represents and warrants to the
 licensee that it is not a competitor of Gaussian, Inc. and that
 it will not use this program in any manner prohibited above.
 ---------------------------------------------------------------
  

 Cite this work as:
 Gaussian 16, Revision C.01,
 M. J. Frisch, G. W. Trucks, H. B. Schlegel, G. E. Scuseria, 
 M. A. Robb, J. R. Cheeseman, G. Scalmani, V. Barone, 
 G. A. Petersson, H. Nakatsuji, X. Li, M. Caricato, A. V. Marenich, 
 J. Bloino, B. G. Janesko, R. Gomperts, B. Mennucci, H. P. Hratchian, 
 J. V. Ortiz, A. F. Izmaylov, J. L. Sonnenberg, D. Williams-Young, 
 F. Ding, F. Lipparini, F. Egidi, J. Goings, B. Peng, A. Petrone, 
 T. Henderson, D. Ranasinghe, V. G. Zakrzewski, J. Gao, N. Rega, 
 G. Zheng, W. Liang, M. Hada, M. Ehara, K. Toyota, R. Fukuda, 
 J. Hasegawa, M. Ishida, T. Nakajima, Y. Honda, O. Kitao, H. Nakai, 
 T. Vreven, K. Throssell, J. A. Montgomery, Jr., J. E. Peralta, 
 F. Ogliaro, M. J. Bearpark, J. J. Heyd, E. N. Brothers, K. N. Kudin, 
 V. N. Staroverov, T. A. Keith, R. Kobayashi, J. Normand, 
 K. Raghavachari, A. P. Rendell, J. C. Burant, S. S. Iyengar, 
 J. Tomasi, M. Cossi, J. M. Millam, M. Klene, C. Adamo, R. Cammi, 
 J. W. Ochterski, R. L. Martin, K. Morokuma, O. Farkas, 
 J. B. Foresman, and D. J. Fox, Gaussian, Inc., Wallingford CT, 2019.
 
 ******************************************
 Gaussian 16:  ES64L-G16RevC.01  3-Jul-2019
                26-Nov-2023 
 ******************************************
 %nprocs=32
 Will use up to   32 processors via shared memory.
 %mem=80GB
 ----------------------------------------------------------------------
 # opt=(calcfc,ts,noeigen,maxstep=1,notrust,gdiis) freq b3lyp/genecp em
 =gd3bj
 ----------------------------------------------------------------------

 Warning!  Use of Opt=GDIIS is deprecated since it is seldom a good choice.

 1/5=1,8=1,9=1,10=4,11=1,18=20,19=11,26=3,38=1/1,3;
 2/9=110,12=2,17=6,18=5,40=1/2;
 3/5=7,11=2,16=1,17=8,25=1,30=1,71=2,74=-5,124=41,140=1/1,2,3;
 4//1;
 5/5=2,38=5/2;
 8/6=4,10=90,11=11/1;
 11/6=1,8=1,9=11,15=111,16=1/1,2,10;
 10/6=1,13=1/2;
 6/7=2,8=2,9=2,10=2,28=1/1;
 7/10=1,25=1/1,2,3,16;
 1/5=1,8=1,9=1,10=4,11=1,18=20,19=11,26=3/3(2);
 2/9=110/2;
 99//99;
 2/9=110/2;
 3/5=7,6=1,11=2,16=1,17=8,25=1,30=1,71=1,74=-5,82=7,124=41/1,2,3;
 4/5=5,16=3,69=1/1;
 5/5=2,38=5/2;
 7//1,2,3,16;
 1/5=1,8=1,9=1,11=1,18=20,19=11,26=3/3(-5);
 2/9=110/2;
 6/7=2,8=2,9=2,10=2,19=2,28=1/1;
 99/9=1/99;
 -------------------
 Title Card Required
 -------------------
 Symbolic Z-matrix:
 Charge =  0 Multiplicity = 1
 Ni                   -1.05725   0.52465  -0.08918 
 C                    -2.56646   0.5667    1.13833 
 C                    -1.97332   2.14081   0.39313 
 P                    -0.87347  -1.64268  -0.46983 
 S                     0.74365   1.0292   -1.20536 
 C                     1.87474  -1.40555  -1.13148 
 C                     0.87116  -2.27729  -0.3479 
 H                     1.49508  -1.27938  -2.14764 
 H                     1.13024  -2.31278   0.71236 
 H                     0.91504  -3.30323  -0.72501 
 C                    -1.81503  -2.69912   0.69086 
 C                    -3.20683  -2.76583   0.51955 
 C                    -1.23898  -3.32766   1.80085 
 C                    -4.00023  -3.44865   1.43653 
 H                    -3.6683   -2.27348  -0.32925 
 C                    -2.03627  -4.00991   2.71983 
 H                    -0.17081  -3.2751    1.97303 
 C                    -3.41725  -4.07221   2.54055 
 H                    -5.07598  -3.48037   1.29611 
 H                    -1.57519  -4.48322   3.58103 
 H                    -4.03733  -4.59659   3.26132 
 C                    -1.40349  -2.30551  -2.10382 
 C                    -1.50943  -1.45204  -3.21027 
 C                    -1.68805  -3.67181  -2.26257 
 C                    -1.90099  -1.95864  -4.45158 
 H                    -1.2498   -0.40587  -3.11094 
 C                    -2.07791  -4.17237  -3.50232 
 H                    -1.61988  -4.33967  -1.40975 
 C                    -2.18921  -3.3145   -4.59988 
 H                    -1.9758   -1.28757  -5.30216 
 H                    -2.29825  -5.23018  -3.61193 
 H                    -2.49731  -3.70489  -5.56544 
 C                     3.25043  -2.03553  -1.24752 
 C                     3.82873  -2.77993  -0.21632 
 C                     3.99871  -1.78786  -2.40535 
 C                     5.13724  -3.25255  -0.33011 
 H                     3.26682  -2.98599   0.68897 
 C                     5.30332  -2.2612   -2.52416 
 H                     3.55267  -1.19873  -3.20193 
 C                     5.87891  -2.99189  -1.4814 
 H                     5.57747  -3.81971   0.48445 
 H                     5.87164  -2.06039  -3.4275 
 H                     6.89743  -3.35782  -1.56856 
 O                     0.63423   0.67347  -2.66895 
 C                     1.59134   2.73144  -1.25473 
 C                     1.82736   3.28116   0.15057 
 H                     0.92081   3.22189   0.7558 
 H                     2.65185   2.78543   0.66295 
 H                     2.08918   4.34122   0.0611 
 C                     0.56149   3.59864  -1.99194 
 H                     1.00479   4.58695  -2.1534 
 H                     0.29996   3.17203  -2.96173 
 H                    -0.34766   3.73092  -1.40593 
 C                     2.87778   2.59062  -2.06226 
 H                     3.27932   3.59198  -2.25349 
 H                     3.62854   2.01396  -1.52269 
 H                     2.67705   2.10769  -3.02128 
 N                     2.04795  -0.01484  -0.62269 
 C                     2.35824   0.13534   0.80259 
 H                     2.1553   -0.80234   1.33157 
 H                     1.66959   0.85874   1.24958 
 C                     3.77408   0.57178   1.1292 
 C                     4.03124   1.06362   2.41511 
 C                     4.83686   0.47044   0.23111 
 C                     5.31709   1.44086   2.79241 
 H                     3.21346   1.15444   3.12762 
 C                     6.12371   0.85036   0.61256 
 H                     4.65826   0.08622  -0.76396 
 C                     6.38849   1.34254   1.89444 
 H                     5.49254   1.82119   3.7956 
 H                     6.9373    0.75609  -0.10212 
 C                     7.77583   1.783     2.29159 
 H                     7.97924   1.56472   3.3445 
 H                     8.54004   1.28552   1.68758 
 H                     7.90306   2.86401   2.15427 
 C                    -4.8473   -0.02346   1.86962 
 C                    -4.40873  -0.48951   3.08989 
 C                    -3.02178  -0.49617   3.37119 
 C                    -2.09861   0.02677   2.40638 
 C                    -3.94835   0.47979   0.9143 
 H                    -3.23336  -1.44376   5.29877 
 H                    -5.90769  -0.03514   1.63132 
 H                    -5.1037   -0.87683   3.82892 
 C                    -2.5183   -1.05974   4.57584 
 C                    -0.71661  -0.10707   2.69347 
 H                    -4.3608    0.86511  -0.00944 
 C                    -0.24958  -0.675     3.85676 
 C                    -1.16763  -1.14979   4.82127 
 H                    -0.01906   0.25684   1.94961 
 H                     0.8197   -0.75354   4.03437 
 H                    -0.80674  -1.59318   5.74473 
 C                    -3.47533   1.91178  -3.07862 
 C                    -2.94034   1.55606  -1.85814 
 C                    -2.63077   2.51737  -0.85696 
 C                    -2.93218   3.88488  -1.1502 
 C                    -3.49749   4.22613  -2.40794 
 C                    -3.75663   3.26647  -3.35999 
 H                    -3.68468   1.1434   -3.81675 
 H                    -2.74843   0.50846  -1.65329 
 C                    -2.62075   4.87507  -0.18536 
 H                    -3.71464   5.27256  -2.60671 
 H                    -4.18153   3.54639  -4.31947 
 C                    -2.01303   4.51122   0.99156 
 C                    -1.67181   3.17202   1.30692 
 H                    -2.85255   5.91532  -0.39462 
 H                    -1.76716   5.27995   1.72011 
 C                    -1.02726   2.94626   2.65039 
 H                    -0.09128   2.3845    2.58584 
 H                    -0.80647   3.90451   3.12842 
 H                    -1.6799    2.37618   3.31962 
 

 GradGradGradGradGradGradGradGradGradGradGradGradGradGradGradGradGradGrad
 Berny optimization.
 Initialization pass.
                           ----------------------------
                           !    Initial Parameters    !
                           ! (Angstroms and Degrees)  !
 --------------------------                            --------------------------
 ! Name  Definition              Value          Derivative Info.                !
 --------------------------------------------------------------------------------
 ! R1    R(1,2)                  1.9458         calculate D2E/DX2 analytically  !
 ! R2    R(1,3)                  1.9193         calculate D2E/DX2 analytically  !
 ! R3    R(1,4)                  2.2082         calculate D2E/DX2 analytically  !
 ! R4    R(1,5)                  2.178          calculate D2E/DX2 analytically  !
 ! R5    R(2,79)                 1.4555         calculate D2E/DX2 analytically  !
 ! R6    R(2,80)                 1.4026         calculate D2E/DX2 analytically  !
 ! R7    R(3,94)                 1.4618         calculate D2E/DX2 analytically  !
 ! R8    R(3,104)                1.4104         calculate D2E/DX2 analytically  !
 ! R9    R(4,7)                  1.8605         calculate D2E/DX2 analytically  !
 ! R10   R(4,11)                 1.8302         calculate D2E/DX2 analytically  !
 ! R11   R(4,22)                 1.8412         calculate D2E/DX2 analytically  !
 ! R12   R(5,44)                 1.5102         calculate D2E/DX2 analytically  !
 ! R13   R(5,45)                 1.9023         calculate D2E/DX2 analytically  !
 ! R14   R(5,58)                 1.7694         calculate D2E/DX2 analytically  !
 ! R15   R(6,7)                  1.5431         calculate D2E/DX2 analytically  !
 ! R16   R(6,8)                  1.0921         calculate D2E/DX2 analytically  !
 ! R17   R(6,33)                 1.5175         calculate D2E/DX2 analytically  !
 ! R18   R(6,58)                 1.491          calculate D2E/DX2 analytically  !
 ! R19   R(7,9)                  1.092          calculate D2E/DX2 analytically  !
 ! R20   R(7,10)                 1.0939         calculate D2E/DX2 analytically  !
 ! R21   R(11,12)                1.4039         calculate D2E/DX2 analytically  !
 ! R22   R(11,13)                1.3996         calculate D2E/DX2 analytically  !
 ! R23   R(12,14)                1.3916         calculate D2E/DX2 analytically  !
 ! R24   R(12,15)                1.0843         calculate D2E/DX2 analytically  !
 ! R25   R(13,16)                1.3949         calculate D2E/DX2 analytically  !
 ! R26   R(13,17)                1.0832         calculate D2E/DX2 analytically  !
 ! R27   R(14,18)                1.3955         calculate D2E/DX2 analytically  !
 ! R28   R(14,19)                1.0853         calculate D2E/DX2 analytically  !
 ! R29   R(16,18)                1.394          calculate D2E/DX2 analytically  !
 ! R30   R(16,20)                1.0855         calculate D2E/DX2 analytically  !
 ! R31   R(18,21)                1.0858         calculate D2E/DX2 analytically  !
 ! R32   R(22,23)                1.4014         calculate D2E/DX2 analytically  !
 ! R33   R(22,24)                1.4046         calculate D2E/DX2 analytically  !
 ! R34   R(23,25)                1.3967         calculate D2E/DX2 analytically  !
 ! R35   R(23,26)                1.0825         calculate D2E/DX2 analytically  !
 ! R36   R(24,27)                1.3927         calculate D2E/DX2 analytically  !
 ! R37   R(24,28)                1.0853         calculate D2E/DX2 analytically  !
 ! R38   R(25,29)                1.3941         calculate D2E/DX2 analytically  !
 ! R39   R(25,30)                1.086          calculate D2E/DX2 analytically  !
 ! R40   R(27,29)                1.3975         calculate D2E/DX2 analytically  !
 ! R41   R(27,31)                1.0861         calculate D2E/DX2 analytically  !
 ! R42   R(29,32)                1.0861         calculate D2E/DX2 analytically  !
 ! R43   R(33,34)                1.3971         calculate D2E/DX2 analytically  !
 ! R44   R(33,35)                1.4007         calculate D2E/DX2 analytically  !
 ! R45   R(34,36)                1.3959         calculate D2E/DX2 analytically  !
 ! R46   R(34,37)                1.0852         calculate D2E/DX2 analytically  !
 ! R47   R(35,38)                1.3929         calculate D2E/DX2 analytically  !
 ! R48   R(35,39)                1.0865         calculate D2E/DX2 analytically  !
 ! R49   R(36,40)                1.3941         calculate D2E/DX2 analytically  !
 ! R50   R(36,41)                1.0858         calculate D2E/DX2 analytically  !
 ! R51   R(38,40)                1.3973         calculate D2E/DX2 analytically  !
 ! R52   R(38,42)                1.086          calculate D2E/DX2 analytically  !
 ! R53   R(40,43)                1.0858         calculate D2E/DX2 analytically  !
 ! R54   R(45,46)                1.5273         calculate D2E/DX2 analytically  !
 ! R55   R(45,50)                1.535          calculate D2E/DX2 analytically  !
 ! R56   R(45,54)                1.5254         calculate D2E/DX2 analytically  !
 ! R57   R(46,47)                1.0916         calculate D2E/DX2 analytically  !
 ! R58   R(46,48)                1.09           calculate D2E/DX2 analytically  !
 ! R59   R(46,49)                1.0956         calculate D2E/DX2 analytically  !
 ! R60   R(50,51)                1.0951         calculate D2E/DX2 analytically  !
 ! R61   R(50,52)                1.0913         calculate D2E/DX2 analytically  !
 ! R62   R(50,53)                1.0897         calculate D2E/DX2 analytically  !
 ! R63   R(54,55)                1.0957         calculate D2E/DX2 analytically  !
 ! R64   R(54,56)                1.0896         calculate D2E/DX2 analytically  !
 ! R65   R(54,57)                1.0923         calculate D2E/DX2 analytically  !
 ! R66   R(58,59)                1.4664         calculate D2E/DX2 analytically  !
 ! R67   R(59,60)                1.0956         calculate D2E/DX2 analytically  !
 ! R68   R(59,61)                1.0942         calculate D2E/DX2 analytically  !
 ! R69   R(59,62)                1.5172         calculate D2E/DX2 analytically  !
 ! R70   R(62,63)                1.4006         calculate D2E/DX2 analytically  !
 ! R71   R(62,64)                1.3951         calculate D2E/DX2 analytically  !
 ! R72   R(63,65)                1.3922         calculate D2E/DX2 analytically  !
 ! R73   R(63,66)                1.0884         calculate D2E/DX2 analytically  !
 ! R74   R(64,67)                1.3949         calculate D2E/DX2 analytically  !
 ! R75   R(64,68)                1.0815         calculate D2E/DX2 analytically  !
 ! R76   R(65,69)                1.4014         calculate D2E/DX2 analytically  !
 ! R77   R(65,70)                1.0871         calculate D2E/DX2 analytically  !
 ! R78   R(67,69)                1.3984         calculate D2E/DX2 analytically  !
 ! R79   R(67,71)                1.087          calculate D2E/DX2 analytically  !
 ! R80   R(69,72)                1.5088         calculate D2E/DX2 analytically  !
 ! R81   R(72,73)                1.0944         calculate D2E/DX2 analytically  !
 ! R82   R(72,74)                1.0938         calculate D2E/DX2 analytically  !
 ! R83   R(72,75)                1.0971         calculate D2E/DX2 analytically  !
 ! R84   R(76,77)                1.3779         calculate D2E/DX2 analytically  !
 ! R85   R(76,80)                1.405          calculate D2E/DX2 analytically  !
 ! R86   R(76,82)                1.0869         calculate D2E/DX2 analytically  !
 ! R87   R(77,78)                1.4152         calculate D2E/DX2 analytically  !
 ! R88   R(77,83)                1.0859         calculate D2E/DX2 analytically  !
 ! R89   R(78,79)                1.4341         calculate D2E/DX2 analytically  !
 ! R90   R(78,84)                1.4221         calculate D2E/DX2 analytically  !
 ! R91   R(79,85)                1.4178         calculate D2E/DX2 analytically  !
 ! R92   R(80,86)                1.0825         calculate D2E/DX2 analytically  !
 ! R93   R(81,84)                1.0869         calculate D2E/DX2 analytically  !
 ! R94   R(84,88)                1.3757         calculate D2E/DX2 analytically  !
 ! R95   R(85,87)                1.3762         calculate D2E/DX2 analytically  !
 ! R96   R(85,89)                1.0827         calculate D2E/DX2 analytically  !
 ! R97   R(87,88)                1.4137         calculate D2E/DX2 analytically  !
 ! R98   R(87,90)                1.0868         calculate D2E/DX2 analytically  !
 ! R99   R(88,91)                1.0861         calculate D2E/DX2 analytically  !
 ! R100  R(92,93)                1.3793         calculate D2E/DX2 analytically  !
 ! R101  R(92,97)                1.4119         calculate D2E/DX2 analytically  !
 ! R102  R(92,98)                1.0859         calculate D2E/DX2 analytically  !
 ! R103  R(93,94)                1.4221         calculate D2E/DX2 analytically  !
 ! R104  R(93,99)                1.0846         calculate D2E/DX2 analytically  !
 ! R105  R(94,95)                1.4307         calculate D2E/DX2 analytically  !
 ! R106  R(95,96)                1.4205         calculate D2E/DX2 analytically  !
 ! R107  R(95,100)               1.4172         calculate D2E/DX2 analytically  !
 ! R108  R(96,97)                1.3764         calculate D2E/DX2 analytically  !
 ! R109  R(96,101)               1.087          calculate D2E/DX2 analytically  !
 ! R110  R(97,102)               1.086          calculate D2E/DX2 analytically  !
 ! R111  R(100,103)              1.3736         calculate D2E/DX2 analytically  !
 ! R112  R(100,105)              1.0861         calculate D2E/DX2 analytically  !
 ! R113  R(103,104)              1.4175         calculate D2E/DX2 analytically  !
 ! R114  R(103,106)              1.0873         calculate D2E/DX2 analytically  !
 ! R115  R(104,107)              1.5071         calculate D2E/DX2 analytically  !
 ! R116  R(107,108)              1.0935         calculate D2E/DX2 analytically  !
 ! R117  R(107,109)              1.0934         calculate D2E/DX2 analytically  !
 ! R118  R(107,110)              1.0949         calculate D2E/DX2 analytically  !
 ! A1    A(2,1,3)               56.8447         calculate D2E/DX2 analytically  !
 ! A2    A(2,1,4)              101.2158         calculate D2E/DX2 analytically  !
 ! A3    A(2,1,5)              163.6604         calculate D2E/DX2 analytically  !
 ! A4    A(3,1,4)              155.439          calculate D2E/DX2 analytically  !
 ! A5    A(3,1,5)              109.1697         calculate D2E/DX2 analytically  !
 ! A6    A(4,1,5)               94.0263         calculate D2E/DX2 analytically  !
 ! A7    A(1,2,79)             106.9942         calculate D2E/DX2 analytically  !
 ! A8    A(1,2,80)             131.4562         calculate D2E/DX2 analytically  !
 ! A9    A(79,2,80)            115.6497         calculate D2E/DX2 analytically  !
 ! A10   A(1,3,94)             102.5142         calculate D2E/DX2 analytically  !
 ! A11   A(1,3,104)            132.5648         calculate D2E/DX2 analytically  !
 ! A12   A(94,3,104)           117.5076         calculate D2E/DX2 analytically  !
 ! A13   A(1,4,7)              113.6747         calculate D2E/DX2 analytically  !
 ! A14   A(1,4,11)             114.4818         calculate D2E/DX2 analytically  !
 ! A15   A(1,4,22)             118.8394         calculate D2E/DX2 analytically  !
 ! A16   A(7,4,11)             104.1205         calculate D2E/DX2 analytically  !
 ! A17   A(7,4,22)             101.847          calculate D2E/DX2 analytically  !
 ! A18   A(11,4,22)            101.9414         calculate D2E/DX2 analytically  !
 ! A19   A(1,5,44)             112.4698         calculate D2E/DX2 analytically  !
 ! A20   A(1,5,45)             126.0907         calculate D2E/DX2 analytically  !
 ! A21   A(1,5,58)             107.702          calculate D2E/DX2 analytically  !
 ! A22   A(44,5,45)            102.587          calculate D2E/DX2 analytically  !
 ! A23   A(44,5,58)            103.5069         calculate D2E/DX2 analytically  !
 ! A24   A(45,5,58)            102.0091         calculate D2E/DX2 analytically  !
 ! A25   A(7,6,8)              108.1597         calculate D2E/DX2 analytically  !
 ! A26   A(7,6,33)             113.1971         calculate D2E/DX2 analytically  !
 ! A27   A(7,6,58)             115.4184         calculate D2E/DX2 analytically  !
 ! A28   A(8,6,33)             106.9755         calculate D2E/DX2 analytically  !
 ! A29   A(8,6,58)             104.4863         calculate D2E/DX2 analytically  !
 ! A30   A(33,6,58)            107.9389         calculate D2E/DX2 analytically  !
 ! A31   A(4,7,6)              112.5755         calculate D2E/DX2 analytically  !
 ! A32   A(4,7,9)              107.2889         calculate D2E/DX2 analytically  !
 ! A33   A(4,7,10)             109.5683         calculate D2E/DX2 analytically  !
 ! A34   A(6,7,9)              110.9214         calculate D2E/DX2 analytically  !
 ! A35   A(6,7,10)             109.1886         calculate D2E/DX2 analytically  !
 ! A36   A(9,7,10)             107.1395         calculate D2E/DX2 analytically  !
 ! A37   A(4,11,12)            117.3905         calculate D2E/DX2 analytically  !
 ! A38   A(4,11,13)            123.3955         calculate D2E/DX2 analytically  !
 ! A39   A(12,11,13)           118.912          calculate D2E/DX2 analytically  !
 ! A40   A(11,12,14)           120.5389         calculate D2E/DX2 analytically  !
 ! A41   A(11,12,15)           119.7261         calculate D2E/DX2 analytically  !
 ! A42   A(14,12,15)           119.7326         calculate D2E/DX2 analytically  !
 ! A43   A(11,13,16)           120.4567         calculate D2E/DX2 analytically  !
 ! A44   A(11,13,17)           120.6715         calculate D2E/DX2 analytically  !
 ! A45   A(16,13,17)           118.8587         calculate D2E/DX2 analytically  !
 ! A46   A(12,14,18)           120.156          calculate D2E/DX2 analytically  !
 ! A47   A(12,14,19)           119.6151         calculate D2E/DX2 analytically  !
 ! A48   A(18,14,19)           120.2223         calculate D2E/DX2 analytically  !
 ! A49   A(13,16,18)           120.2245         calculate D2E/DX2 analytically  !
 ! A50   A(13,16,20)           119.5496         calculate D2E/DX2 analytically  !
 ! A51   A(18,16,20)           120.2229         calculate D2E/DX2 analytically  !
 ! A52   A(14,18,16)           119.7117         calculate D2E/DX2 analytically  !
 ! A53   A(14,18,21)           120.1561         calculate D2E/DX2 analytically  !
 ! A54   A(16,18,21)           120.1302         calculate D2E/DX2 analytically  !
 ! A55   A(4,22,23)            120.2113         calculate D2E/DX2 analytically  !
 ! A56   A(4,22,24)            120.5826         calculate D2E/DX2 analytically  !
 ! A57   A(23,22,24)           119.2002         calculate D2E/DX2 analytically  !
 ! A58   A(22,23,25)           120.1316         calculate D2E/DX2 analytically  !
 ! A59   A(22,23,26)           119.8688         calculate D2E/DX2 analytically  !
 ! A60   A(25,23,26)           119.9562         calculate D2E/DX2 analytically  !
 ! A61   A(22,24,27)           120.4598         calculate D2E/DX2 analytically  !
 ! A62   A(22,24,28)           119.8037         calculate D2E/DX2 analytically  !
 ! A63   A(27,24,28)           119.7286         calculate D2E/DX2 analytically  !
 ! A64   A(23,25,29)           120.3498         calculate D2E/DX2 analytically  !
 ! A65   A(23,25,30)           119.4231         calculate D2E/DX2 analytically  !
 ! A66   A(29,25,30)           120.2267         calculate D2E/DX2 analytically  !
 ! A67   A(24,27,29)           120.0533         calculate D2E/DX2 analytically  !
 ! A68   A(24,27,31)           119.7822         calculate D2E/DX2 analytically  !
 ! A69   A(29,27,31)           120.1641         calculate D2E/DX2 analytically  !
 ! A70   A(25,29,27)           119.8032         calculate D2E/DX2 analytically  !
 ! A71   A(25,29,32)           120.1867         calculate D2E/DX2 analytically  !
 ! A72   A(27,29,32)           120.01           calculate D2E/DX2 analytically  !
 ! A73   A(6,33,34)            122.6832         calculate D2E/DX2 analytically  !
 ! A74   A(6,33,35)            118.3015         calculate D2E/DX2 analytically  !
 ! A75   A(34,33,35)           118.895          calculate D2E/DX2 analytically  !
 ! A76   A(33,34,36)           120.5475         calculate D2E/DX2 analytically  !
 ! A77   A(33,34,37)           120.1682         calculate D2E/DX2 analytically  !
 ! A78   A(36,34,37)           119.2799         calculate D2E/DX2 analytically  !
 ! A79   A(33,35,38)           120.7168         calculate D2E/DX2 analytically  !
 ! A80   A(33,35,39)           118.8552         calculate D2E/DX2 analytically  !
 ! A81   A(38,35,39)           120.4121         calculate D2E/DX2 analytically  !
 ! A82   A(34,36,40)           120.1801         calculate D2E/DX2 analytically  !
 ! A83   A(34,36,41)           119.7199         calculate D2E/DX2 analytically  !
 ! A84   A(40,36,41)           120.0991         calculate D2E/DX2 analytically  !
 ! A85   A(35,38,40)           119.9905         calculate D2E/DX2 analytically  !
 ! A86   A(35,38,42)           119.8858         calculate D2E/DX2 analytically  !
 ! A87   A(40,38,42)           120.1236         calculate D2E/DX2 analytically  !
 ! A88   A(36,40,38)           119.6631         calculate D2E/DX2 analytically  !
 ! A89   A(36,40,43)           120.1552         calculate D2E/DX2 analytically  !
 ! A90   A(38,40,43)           120.1814         calculate D2E/DX2 analytically  !
 ! A91   A(5,45,46)            111.5341         calculate D2E/DX2 analytically  !
 ! A92   A(5,45,50)            102.6526         calculate D2E/DX2 analytically  !
 ! A93   A(5,45,54)            107.875          calculate D2E/DX2 analytically  !
 ! A94   A(46,45,50)           110.0133         calculate D2E/DX2 analytically  !
 ! A95   A(46,45,54)           112.9545         calculate D2E/DX2 analytically  !
 ! A96   A(50,45,54)           111.3289         calculate D2E/DX2 analytically  !
 ! A97   A(45,46,47)           111.2391         calculate D2E/DX2 analytically  !
 ! A98   A(45,46,48)           112.6878         calculate D2E/DX2 analytically  !
 ! A99   A(45,46,49)           108.0615         calculate D2E/DX2 analytically  !
 ! A100  A(47,46,48)           110.0509         calculate D2E/DX2 analytically  !
 ! A101  A(47,46,49)           107.2345         calculate D2E/DX2 analytically  !
 ! A102  A(48,46,49)           107.3186         calculate D2E/DX2 analytically  !
 ! A103  A(45,50,51)           108.0034         calculate D2E/DX2 analytically  !
 ! A104  A(45,50,52)           111.5147         calculate D2E/DX2 analytically  !
 ! A105  A(45,50,53)           111.7195         calculate D2E/DX2 analytically  !
 ! A106  A(51,50,52)           108.5895         calculate D2E/DX2 analytically  !
 ! A107  A(51,50,53)           107.9063         calculate D2E/DX2 analytically  !
 ! A108  A(52,50,53)           108.9901         calculate D2E/DX2 analytically  !
 ! A109  A(45,54,55)           108.4869         calculate D2E/DX2 analytically  !
 ! A110  A(45,54,56)           111.5781         calculate D2E/DX2 analytically  !
 ! A111  A(45,54,57)           110.5251         calculate D2E/DX2 analytically  !
 ! A112  A(55,54,56)           108.5172         calculate D2E/DX2 analytically  !
 ! A113  A(55,54,57)           108.5518         calculate D2E/DX2 analytically  !
 ! A114  A(56,54,57)           109.1095         calculate D2E/DX2 analytically  !
 ! A115  A(5,58,6)             110.6325         calculate D2E/DX2 analytically  !
 ! A116  A(5,58,59)            114.5587         calculate D2E/DX2 analytically  !
 ! A117  A(6,58,59)            116.8591         calculate D2E/DX2 analytically  !
 ! A118  A(58,59,60)           110.0263         calculate D2E/DX2 analytically  !
 ! A119  A(58,59,61)           109.3648         calculate D2E/DX2 analytically  !
 ! A120  A(58,59,62)           115.8604         calculate D2E/DX2 analytically  !
 ! A121  A(60,59,61)           104.5968         calculate D2E/DX2 analytically  !
 ! A122  A(60,59,62)           108.3694         calculate D2E/DX2 analytically  !
 ! A123  A(61,59,62)           108.011          calculate D2E/DX2 analytically  !
 ! A124  A(59,62,63)           118.0359         calculate D2E/DX2 analytically  !
 ! A125  A(59,62,64)           123.4655         calculate D2E/DX2 analytically  !
 ! A126  A(63,62,64)           118.4687         calculate D2E/DX2 analytically  !
 ! A127  A(62,63,65)           120.9024         calculate D2E/DX2 analytically  !
 ! A128  A(62,63,66)           119.497          calculate D2E/DX2 analytically  !
 ! A129  A(65,63,66)           119.6003         calculate D2E/DX2 analytically  !
 ! A130  A(62,64,67)           120.4607         calculate D2E/DX2 analytically  !
 ! A131  A(62,64,68)           119.4909         calculate D2E/DX2 analytically  !
 ! A132  A(67,64,68)           120.0464         calculate D2E/DX2 analytically  !
 ! A133  A(63,65,69)           120.8957         calculate D2E/DX2 analytically  !
 ! A134  A(63,65,70)           119.6015         calculate D2E/DX2 analytically  !
 ! A135  A(69,65,70)           119.5023         calculate D2E/DX2 analytically  !
 ! A136  A(64,67,69)           121.4124         calculate D2E/DX2 analytically  !
 ! A137  A(64,67,71)           119.1481         calculate D2E/DX2 analytically  !
 ! A138  A(69,67,71)           119.4388         calculate D2E/DX2 analytically  !
 ! A139  A(65,69,67)           117.8598         calculate D2E/DX2 analytically  !
 ! A140  A(65,69,72)           120.9195         calculate D2E/DX2 analytically  !
 ! A141  A(67,69,72)           121.2073         calculate D2E/DX2 analytically  !
 ! A142  A(69,72,73)           111.4648         calculate D2E/DX2 analytically  !
 ! A143  A(69,72,74)           111.365          calculate D2E/DX2 analytically  !
 ! A144  A(69,72,75)           111.182          calculate D2E/DX2 analytically  !
 ! A145  A(73,72,74)           108.1032         calculate D2E/DX2 analytically  !
 ! A146  A(73,72,75)           107.1817         calculate D2E/DX2 analytically  !
 ! A147  A(74,72,75)           107.3388         calculate D2E/DX2 analytically  !
 ! A148  A(77,76,80)           121.3092         calculate D2E/DX2 analytically  !
 ! A149  A(77,76,82)           120.0702         calculate D2E/DX2 analytically  !
 ! A150  A(80,76,82)           118.6198         calculate D2E/DX2 analytically  !
 ! A151  A(76,77,78)           119.3121         calculate D2E/DX2 analytically  !
 ! A152  A(76,77,83)           121.3088         calculate D2E/DX2 analytically  !
 ! A153  A(78,77,83)           119.3576         calculate D2E/DX2 analytically  !
 ! A154  A(77,78,79)           119.6989         calculate D2E/DX2 analytically  !
 ! A155  A(77,78,84)           121.1468         calculate D2E/DX2 analytically  !
 ! A156  A(79,78,84)           119.1112         calculate D2E/DX2 analytically  !
 ! A157  A(2,79,78)            120.9633         calculate D2E/DX2 analytically  !
 ! A158  A(2,79,85)            121.6516         calculate D2E/DX2 analytically  !
 ! A159  A(78,79,85)           117.1825         calculate D2E/DX2 analytically  !
 ! A160  A(2,80,76)            122.9535         calculate D2E/DX2 analytically  !
 ! A161  A(2,80,86)            119.3149         calculate D2E/DX2 analytically  !
 ! A162  A(76,80,86)           117.6405         calculate D2E/DX2 analytically  !
 ! A163  A(78,84,81)           118.0683         calculate D2E/DX2 analytically  !
 ! A164  A(78,84,88)           121.6459         calculate D2E/DX2 analytically  !
 ! A165  A(81,84,88)           120.2713         calculate D2E/DX2 analytically  !
 ! A166  A(79,85,87)           122.7451         calculate D2E/DX2 analytically  !
 ! A167  A(79,85,89)           117.2024         calculate D2E/DX2 analytically  !
 ! A168  A(87,85,89)           120.0522         calculate D2E/DX2 analytically  !
 ! A169  A(85,87,88)           119.665          calculate D2E/DX2 analytically  !
 ! A170  A(85,87,90)           120.1243         calculate D2E/DX2 analytically  !
 ! A171  A(88,87,90)           120.2101         calculate D2E/DX2 analytically  !
 ! A172  A(84,88,87)           119.5949         calculate D2E/DX2 analytically  !
 ! A173  A(84,88,91)           120.3072         calculate D2E/DX2 analytically  !
 ! A174  A(87,88,91)           120.094          calculate D2E/DX2 analytically  !
 ! A175  A(93,92,97)           120.0714         calculate D2E/DX2 analytically  !
 ! A176  A(93,92,98)           119.5908         calculate D2E/DX2 analytically  !
 ! A177  A(97,92,98)           120.3363         calculate D2E/DX2 analytically  !
 ! A178  A(92,93,94)           122.2137         calculate D2E/DX2 analytically  !
 ! A179  A(92,93,99)           119.005          calculate D2E/DX2 analytically  !
 ! A180  A(94,93,99)           118.7813         calculate D2E/DX2 analytically  !
 ! A181  A(3,94,93)            121.725          calculate D2E/DX2 analytically  !
 ! A182  A(3,94,95)            121.0817         calculate D2E/DX2 analytically  !
 ! A183  A(93,94,95)           117.1276         calculate D2E/DX2 analytically  !
 ! A184  A(94,95,96)           119.6647         calculate D2E/DX2 analytically  !
 ! A185  A(94,95,100)          118.8166         calculate D2E/DX2 analytically  !
 ! A186  A(96,95,100)          121.4933         calculate D2E/DX2 analytically  !
 ! A187  A(95,96,97)           121.3223         calculate D2E/DX2 analytically  !
 ! A188  A(95,96,101)          118.2057         calculate D2E/DX2 analytically  !
 ! A189  A(97,96,101)          120.4698         calculate D2E/DX2 analytically  !
 ! A190  A(92,97,96)           119.5784         calculate D2E/DX2 analytically  !
 ! A191  A(92,97,102)          120.0862         calculate D2E/DX2 analytically  !
 ! A192  A(96,97,102)          120.3339         calculate D2E/DX2 analytically  !
 ! A193  A(95,100,103)         119.701          calculate D2E/DX2 analytically  !
 ! A194  A(95,100,105)         119.4151         calculate D2E/DX2 analytically  !
 ! A195  A(103,100,105)        120.8769         calculate D2E/DX2 analytically  !
 ! A196  A(100,103,104)        123.1863         calculate D2E/DX2 analytically  !
 ! A197  A(100,103,106)        119.1356         calculate D2E/DX2 analytically  !
 ! A198  A(104,103,106)        117.6748         calculate D2E/DX2 analytically  !
 ! A199  A(3,104,103)          119.6791         calculate D2E/DX2 analytically  !
 ! A200  A(3,104,107)          124.0177         calculate D2E/DX2 analytically  !
 ! A201  A(103,104,107)        116.282          calculate D2E/DX2 analytically  !
 ! A202  A(104,107,108)        112.9789         calculate D2E/DX2 analytically  !
 ! A203  A(104,107,109)        110.1708         calculate D2E/DX2 analytically  !
 ! A204  A(104,107,110)        111.5884         calculate D2E/DX2 analytically  !
 ! A205  A(108,107,109)        107.6491         calculate D2E/DX2 analytically  !
 ! A206  A(108,107,110)        106.1886         calculate D2E/DX2 analytically  !
 ! A207  A(109,107,110)        108.026          calculate D2E/DX2 analytically  !
 ! D1    D(3,1,2,79)          -120.5298         calculate D2E/DX2 analytically  !
 ! D2    D(3,1,2,80)            88.5531         calculate D2E/DX2 analytically  !
 ! D3    D(4,1,2,79)            71.5085         calculate D2E/DX2 analytically  !
 ! D4    D(4,1,2,80)           -79.4086         calculate D2E/DX2 analytically  !
 ! D5    D(5,1,2,79)           -87.0526         calculate D2E/DX2 analytically  !
 ! D6    D(5,1,2,80)           122.0303         calculate D2E/DX2 analytically  !
 ! D7    D(2,1,3,94)          -111.805          calculate D2E/DX2 analytically  !
 ! D8    D(2,1,3,104)          100.3936         calculate D2E/DX2 analytically  !
 ! D9    D(4,1,3,94)           -82.3208         calculate D2E/DX2 analytically  !
 ! D10   D(4,1,3,104)          129.8779         calculate D2E/DX2 analytically  !
 ! D11   D(5,1,3,94)            77.6511         calculate D2E/DX2 analytically  !
 ! D12   D(5,1,3,104)          -70.1502         calculate D2E/DX2 analytically  !
 ! D13   D(2,1,4,7)           -133.2249         calculate D2E/DX2 analytically  !
 ! D14   D(2,1,4,11)           -13.7306         calculate D2E/DX2 analytically  !
 ! D15   D(2,1,4,22)           106.9516         calculate D2E/DX2 analytically  !
 ! D16   D(3,1,4,7)           -158.0642         calculate D2E/DX2 analytically  !
 ! D17   D(3,1,4,11)           -38.5699         calculate D2E/DX2 analytically  !
 ! D18   D(3,1,4,22)            82.1122         calculate D2E/DX2 analytically  !
 ! D19   D(5,1,4,7)             40.8584         calculate D2E/DX2 analytically  !
 ! D20   D(5,1,4,11)           160.3527         calculate D2E/DX2 analytically  !
 ! D21   D(5,1,4,22)           -78.9652         calculate D2E/DX2 analytically  !
 ! D22   D(2,1,5,44)          -138.1051         calculate D2E/DX2 analytically  !
 ! D23   D(2,1,5,45)           -11.7115         calculate D2E/DX2 analytically  !
 ! D24   D(2,1,5,58)           108.4838         calculate D2E/DX2 analytically  !
 ! D25   D(3,1,5,44)          -108.8362         calculate D2E/DX2 analytically  !
 ! D26   D(3,1,5,45)            17.5574         calculate D2E/DX2 analytically  !
 ! D27   D(3,1,5,58)           137.7527         calculate D2E/DX2 analytically  !
 ! D28   D(4,1,5,44)            62.9592         calculate D2E/DX2 analytically  !
 ! D29   D(4,1,5,45)          -170.6472         calculate D2E/DX2 analytically  !
 ! D30   D(4,1,5,58)           -50.4519         calculate D2E/DX2 analytically  !
 ! D31   D(1,2,79,78)         -158.9747         calculate D2E/DX2 analytically  !
 ! D32   D(1,2,79,85)           15.7066         calculate D2E/DX2 analytically  !
 ! D33   D(80,2,79,78)          -2.8106         calculate D2E/DX2 analytically  !
 ! D34   D(80,2,79,85)         171.8708         calculate D2E/DX2 analytically  !
 ! D35   D(1,2,80,76)          152.4023         calculate D2E/DX2 analytically  !
 ! D36   D(1,2,80,86)          -31.1534         calculate D2E/DX2 analytically  !
 ! D37   D(79,2,80,76)           3.4442         calculate D2E/DX2 analytically  !
 ! D38   D(79,2,80,86)         179.8886         calculate D2E/DX2 analytically  !
 ! D39   D(1,3,94,93)           24.4058         calculate D2E/DX2 analytically  !
 ! D40   D(1,3,94,95)         -152.5623         calculate D2E/DX2 analytically  !
 ! D41   D(104,3,94,93)        178.1438         calculate D2E/DX2 analytically  !
 ! D42   D(104,3,94,95)          1.1756         calculate D2E/DX2 analytically  !
 ! D43   D(1,3,104,103)        144.2917         calculate D2E/DX2 analytically  !
 ! D44   D(1,3,104,107)        -37.4449         calculate D2E/DX2 analytically  !
 ! D45   D(94,3,104,103)         0.2007         calculate D2E/DX2 analytically  !
 ! D46   D(94,3,104,107)       178.4641         calculate D2E/DX2 analytically  !
 ! D47   D(1,4,7,6)            -47.8982         calculate D2E/DX2 analytically  !
 ! D48   D(1,4,7,9)             74.4067         calculate D2E/DX2 analytically  !
 ! D49   D(1,4,7,10)          -169.604          calculate D2E/DX2 analytically  !
 ! D50   D(11,4,7,6)          -173.1294         calculate D2E/DX2 analytically  !
 ! D51   D(11,4,7,9)           -50.8245         calculate D2E/DX2 analytically  !
 ! D52   D(11,4,7,10)           65.1647         calculate D2E/DX2 analytically  !
 ! D53   D(22,4,7,6)            81.1604         calculate D2E/DX2 analytically  !
 ! D54   D(22,4,7,9)          -156.5347         calculate D2E/DX2 analytically  !
 ! D55   D(22,4,7,10)          -40.5454         calculate D2E/DX2 analytically  !
 ! D56   D(1,4,11,12)           75.2684         calculate D2E/DX2 analytically  !
 ! D57   D(1,4,11,13)          -98.3405         calculate D2E/DX2 analytically  !
 ! D58   D(7,4,11,12)         -160.0159         calculate D2E/DX2 analytically  !
 ! D59   D(7,4,11,13)           26.3752         calculate D2E/DX2 analytically  !
 ! D60   D(22,4,11,12)         -54.3766         calculate D2E/DX2 analytically  !
 ! D61   D(22,4,11,13)         132.0145         calculate D2E/DX2 analytically  !
 ! D62   D(1,4,22,23)           20.1501         calculate D2E/DX2 analytically  !
 ! D63   D(1,4,22,24)         -160.7454         calculate D2E/DX2 analytically  !
 ! D64   D(7,4,22,23)         -105.5738         calculate D2E/DX2 analytically  !
 ! D65   D(7,4,22,24)           73.5306         calculate D2E/DX2 analytically  !
 ! D66   D(11,4,22,23)         147.0198         calculate D2E/DX2 analytically  !
 ! D67   D(11,4,22,24)         -33.8758         calculate D2E/DX2 analytically  !
 ! D68   D(1,5,45,46)           50.6505         calculate D2E/DX2 analytically  !
 ! D69   D(1,5,45,50)          -67.1023         calculate D2E/DX2 analytically  !
 ! D70   D(1,5,45,54)          175.2469         calculate D2E/DX2 analytically  !
 ! D71   D(44,5,45,46)        -179.0049         calculate D2E/DX2 analytically  !
 ! D72   D(44,5,45,50)          63.2422         calculate D2E/DX2 analytically  !
 ! D73   D(44,5,45,54)         -54.4085         calculate D2E/DX2 analytically  !
 ! D74   D(58,5,45,46)         -72.0172         calculate D2E/DX2 analytically  !
 ! D75   D(58,5,45,50)         170.2299         calculate D2E/DX2 analytically  !
 ! D76   D(58,5,45,54)          52.5792         calculate D2E/DX2 analytically  !
 ! D77   D(1,5,58,6)            74.0893         calculate D2E/DX2 analytically  !
 ! D78   D(1,5,58,59)          -60.5656         calculate D2E/DX2 analytically  !
 ! D79   D(44,5,58,6)          -45.2036         calculate D2E/DX2 analytically  !
 ! D80   D(44,5,58,59)        -179.8585         calculate D2E/DX2 analytically  !
 ! D81   D(45,5,58,6)         -151.4776         calculate D2E/DX2 analytically  !
 ! D82   D(45,5,58,59)          73.8674         calculate D2E/DX2 analytically  !
 ! D83   D(8,6,7,4)            -51.5121         calculate D2E/DX2 analytically  !
 ! D84   D(8,6,7,9)           -171.7446         calculate D2E/DX2 analytically  !
 ! D85   D(8,6,7,10)            70.409          calculate D2E/DX2 analytically  !
 ! D86   D(33,6,7,4)          -169.8622         calculate D2E/DX2 analytically  !
 ! D87   D(33,6,7,9)            69.9054         calculate D2E/DX2 analytically  !
 ! D88   D(33,6,7,10)          -47.941          calculate D2E/DX2 analytically  !
 ! D89   D(58,6,7,4)            65.0619         calculate D2E/DX2 analytically  !
 ! D90   D(58,6,7,9)           -55.1706         calculate D2E/DX2 analytically  !
 ! D91   D(58,6,7,10)         -173.0169         calculate D2E/DX2 analytically  !
 ! D92   D(7,6,33,34)          -36.821          calculate D2E/DX2 analytically  !
 ! D93   D(7,6,33,35)          147.2143         calculate D2E/DX2 analytically  !
 ! D94   D(8,6,33,34)         -155.856          calculate D2E/DX2 analytically  !
 ! D95   D(8,6,33,35)           28.1793         calculate D2E/DX2 analytically  !
 ! D96   D(58,6,33,34)          92.1979         calculate D2E/DX2 analytically  !
 ! D97   D(58,6,33,35)         -83.7668         calculate D2E/DX2 analytically  !
 ! D98   D(7,6,58,5)           -81.1455         calculate D2E/DX2 analytically  !
 ! D99   D(7,6,58,59)           52.3657         calculate D2E/DX2 analytically  !
 ! D100  D(8,6,58,5)            37.4865         calculate D2E/DX2 analytically  !
 ! D101  D(8,6,58,59)          170.9978         calculate D2E/DX2 analytically  !
 ! D102  D(33,6,58,5)          151.1023         calculate D2E/DX2 analytically  !
 ! D103  D(33,6,58,59)         -75.3865         calculate D2E/DX2 analytically  !
 ! D104  D(4,11,12,14)        -174.0697         calculate D2E/DX2 analytically  !
 ! D105  D(4,11,12,15)           5.36           calculate D2E/DX2 analytically  !
 ! D106  D(13,11,12,14)         -0.1642         calculate D2E/DX2 analytically  !
 ! D107  D(13,11,12,15)        179.2656         calculate D2E/DX2 analytically  !
 ! D108  D(4,11,13,16)         173.5876         calculate D2E/DX2 analytically  !
 ! D109  D(4,11,13,17)          -5.0834         calculate D2E/DX2 analytically  !
 ! D110  D(12,11,13,16)          0.0706         calculate D2E/DX2 analytically  !
 ! D111  D(12,11,13,17)       -178.6005         calculate D2E/DX2 analytically  !
 ! D112  D(11,12,14,18)          0.179          calculate D2E/DX2 analytically  !
 ! D113  D(11,12,14,19)        179.2481         calculate D2E/DX2 analytically  !
 ! D114  D(15,12,14,18)       -179.2507         calculate D2E/DX2 analytically  !
 ! D115  D(15,12,14,19)         -0.1816         calculate D2E/DX2 analytically  !
 ! D116  D(11,13,16,18)          0.0082         calculate D2E/DX2 analytically  !
 ! D117  D(11,13,16,20)       -179.3599         calculate D2E/DX2 analytically  !
 ! D118  D(17,13,16,18)        178.7031         calculate D2E/DX2 analytically  !
 ! D119  D(17,13,16,20)         -0.665          calculate D2E/DX2 analytically  !
 ! D120  D(12,14,18,16)         -0.0979         calculate D2E/DX2 analytically  !
 ! D121  D(12,14,18,21)        179.3914         calculate D2E/DX2 analytically  !
 ! D122  D(19,14,18,16)       -179.1613         calculate D2E/DX2 analytically  !
 ! D123  D(19,14,18,21)          0.328          calculate D2E/DX2 analytically  !
 ! D124  D(13,16,18,14)          0.0046         calculate D2E/DX2 analytically  !
 ! D125  D(13,16,18,21)       -179.4848         calculate D2E/DX2 analytically  !
 ! D126  D(20,16,18,14)        179.3684         calculate D2E/DX2 analytically  !
 ! D127  D(20,16,18,21)         -0.121          calculate D2E/DX2 analytically  !
 ! D128  D(4,22,23,25)         179.4715         calculate D2E/DX2 analytically  !
 ! D129  D(4,22,23,26)           1.866          calculate D2E/DX2 analytically  !
 ! D130  D(24,22,23,25)          0.3547         calculate D2E/DX2 analytically  !
 ! D131  D(24,22,23,26)       -177.2507         calculate D2E/DX2 analytically  !
 ! D132  D(4,22,24,27)        -179.4595         calculate D2E/DX2 analytically  !
 ! D133  D(4,22,24,28)           1.5674         calculate D2E/DX2 analytically  !
 ! D134  D(23,22,24,27)         -0.3461         calculate D2E/DX2 analytically  !
 ! D135  D(23,22,24,28)       -179.3192         calculate D2E/DX2 analytically  !
 ! D136  D(22,23,25,29)          0.0078         calculate D2E/DX2 analytically  !
 ! D137  D(22,23,25,30)       -179.7774         calculate D2E/DX2 analytically  !
 ! D138  D(26,23,25,29)        177.6112         calculate D2E/DX2 analytically  !
 ! D139  D(26,23,25,30)         -2.1741         calculate D2E/DX2 analytically  !
 ! D140  D(22,24,27,29)         -0.0262         calculate D2E/DX2 analytically  !
 ! D141  D(22,24,27,31)       -179.8111         calculate D2E/DX2 analytically  !
 ! D142  D(28,24,27,29)        178.9477         calculate D2E/DX2 analytically  !
 ! D143  D(28,24,27,31)         -0.8372         calculate D2E/DX2 analytically  !
 ! D144  D(23,25,29,27)         -0.3832         calculate D2E/DX2 analytically  !
 ! D145  D(23,25,29,32)        179.7544         calculate D2E/DX2 analytically  !
 ! D146  D(30,25,29,27)        179.4003         calculate D2E/DX2 analytically  !
 ! D147  D(30,25,29,32)         -0.4621         calculate D2E/DX2 analytically  !
 ! D148  D(24,27,29,25)          0.3918         calculate D2E/DX2 analytically  !
 ! D149  D(24,27,29,32)       -179.7455         calculate D2E/DX2 analytically  !
 ! D150  D(31,27,29,25)       -179.8241         calculate D2E/DX2 analytically  !
 ! D151  D(31,27,29,32)          0.0386         calculate D2E/DX2 analytically  !
 ! D152  D(6,33,34,36)        -175.0301         calculate D2E/DX2 analytically  !
 ! D153  D(6,33,34,37)           4.1945         calculate D2E/DX2 analytically  !
 ! D154  D(35,33,34,36)          0.9118         calculate D2E/DX2 analytically  !
 ! D155  D(35,33,34,37)       -179.8637         calculate D2E/DX2 analytically  !
 ! D156  D(6,33,35,38)         175.3995         calculate D2E/DX2 analytically  !
 ! D157  D(6,33,35,39)          -3.1506         calculate D2E/DX2 analytically  !
 ! D158  D(34,33,35,38)         -0.7215         calculate D2E/DX2 analytically  !
 ! D159  D(34,33,35,39)       -179.2716         calculate D2E/DX2 analytically  !
 ! D160  D(33,34,36,40)         -0.3851         calculate D2E/DX2 analytically  !
 ! D161  D(33,34,36,41)        179.2759         calculate D2E/DX2 analytically  !
 ! D162  D(37,34,36,40)       -179.6165         calculate D2E/DX2 analytically  !
 ! D163  D(37,34,36,41)          0.0445         calculate D2E/DX2 analytically  !
 ! D164  D(33,35,38,40)          0.002          calculate D2E/DX2 analytically  !
 ! D165  D(33,35,38,42)       -179.9343         calculate D2E/DX2 analytically  !
 ! D166  D(39,35,38,40)        178.5295         calculate D2E/DX2 analytically  !
 ! D167  D(39,35,38,42)         -1.4068         calculate D2E/DX2 analytically  !
 ! D168  D(34,36,40,38)         -0.3461         calculate D2E/DX2 analytically  !
 ! D169  D(34,36,40,43)        179.8648         calculate D2E/DX2 analytically  !
 ! D170  D(41,36,40,38)        179.9941         calculate D2E/DX2 analytically  !
 ! D171  D(41,36,40,43)          0.2051         calculate D2E/DX2 analytically  !
 ! D172  D(35,38,40,36)          0.5356         calculate D2E/DX2 analytically  !
 ! D173  D(35,38,40,43)       -179.6754         calculate D2E/DX2 analytically  !
 ! D174  D(42,38,40,36)       -179.5283         calculate D2E/DX2 analytically  !
 ! D175  D(42,38,40,43)          0.2607         calculate D2E/DX2 analytically  !
 ! D176  D(5,45,46,47)         -49.2444         calculate D2E/DX2 analytically  !
 ! D177  D(5,45,46,48)          74.8926         calculate D2E/DX2 analytically  !
 ! D178  D(5,45,46,49)        -166.7021         calculate D2E/DX2 analytically  !
 ! D179  D(50,45,46,47)         63.98           calculate D2E/DX2 analytically  !
 ! D180  D(50,45,46,48)       -171.883          calculate D2E/DX2 analytically  !
 ! D181  D(50,45,46,49)        -53.4777         calculate D2E/DX2 analytically  !
 ! D182  D(54,45,46,47)       -170.9447         calculate D2E/DX2 analytically  !
 ! D183  D(54,45,46,48)        -46.8078         calculate D2E/DX2 analytically  !
 ! D184  D(54,45,46,49)         71.5976         calculate D2E/DX2 analytically  !
 ! D185  D(5,45,50,51)        -174.756          calculate D2E/DX2 analytically  !
 ! D186  D(5,45,50,52)         -55.5197         calculate D2E/DX2 analytically  !
 ! D187  D(5,45,50,53)          66.725          calculate D2E/DX2 analytically  !
 ! D188  D(46,45,50,51)         66.4192         calculate D2E/DX2 analytically  !
 ! D189  D(46,45,50,52)       -174.3445         calculate D2E/DX2 analytically  !
 ! D190  D(46,45,50,53)        -52.0998         calculate D2E/DX2 analytically  !
 ! D191  D(54,45,50,51)        -59.5821         calculate D2E/DX2 analytically  !
 ! D192  D(54,45,50,52)         59.6542         calculate D2E/DX2 analytically  !
 ! D193  D(54,45,50,53)       -178.1011         calculate D2E/DX2 analytically  !
 ! D194  D(5,45,54,55)         169.7896         calculate D2E/DX2 analytically  !
 ! D195  D(5,45,54,56)         -70.7163         calculate D2E/DX2 analytically  !
 ! D196  D(5,45,54,57)          50.8829         calculate D2E/DX2 analytically  !
 ! D197  D(46,45,54,55)        -66.4699         calculate D2E/DX2 analytically  !
 ! D198  D(46,45,54,56)         53.0242         calculate D2E/DX2 analytically  !
 ! D199  D(46,45,54,57)        174.6234         calculate D2E/DX2 analytically  !
 ! D200  D(50,45,54,55)         57.8889         calculate D2E/DX2 analytically  !
 ! D201  D(50,45,54,56)        177.383          calculate D2E/DX2 analytically  !
 ! D202  D(50,45,54,57)        -61.0178         calculate D2E/DX2 analytically  !
 ! D203  D(5,58,59,60)         116.7888         calculate D2E/DX2 analytically  !
 ! D204  D(5,58,59,61)           2.4316         calculate D2E/DX2 analytically  !
 ! D205  D(5,58,59,62)        -119.8836         calculate D2E/DX2 analytically  !
 ! D206  D(6,58,59,60)         -14.9465         calculate D2E/DX2 analytically  !
 ! D207  D(6,58,59,61)        -129.3037         calculate D2E/DX2 analytically  !
 ! D208  D(6,58,59,62)         108.3812         calculate D2E/DX2 analytically  !
 ! D209  D(58,59,62,63)        163.6655         calculate D2E/DX2 analytically  !
 ! D210  D(58,59,62,64)        -18.3592         calculate D2E/DX2 analytically  !
 ! D211  D(60,59,62,63)        -72.1437         calculate D2E/DX2 analytically  !
 ! D212  D(60,59,62,64)        105.8317         calculate D2E/DX2 analytically  !
 ! D213  D(61,59,62,63)         40.6363         calculate D2E/DX2 analytically  !
 ! D214  D(61,59,62,64)       -141.3884         calculate D2E/DX2 analytically  !
 ! D215  D(59,62,63,65)        177.945          calculate D2E/DX2 analytically  !
 ! D216  D(59,62,63,66)         -2.2291         calculate D2E/DX2 analytically  !
 ! D217  D(64,62,63,65)         -0.1337         calculate D2E/DX2 analytically  !
 ! D218  D(64,62,63,66)        179.6922         calculate D2E/DX2 analytically  !
 ! D219  D(59,62,64,67)       -177.8809         calculate D2E/DX2 analytically  !
 ! D220  D(59,62,64,68)          1.6025         calculate D2E/DX2 analytically  !
 ! D221  D(63,62,64,67)          0.0862         calculate D2E/DX2 analytically  !
 ! D222  D(63,62,64,68)        179.5696         calculate D2E/DX2 analytically  !
 ! D223  D(62,63,65,69)          0.1946         calculate D2E/DX2 analytically  !
 ! D224  D(62,63,65,70)        179.9173         calculate D2E/DX2 analytically  !
 ! D225  D(66,63,65,69)       -179.631          calculate D2E/DX2 analytically  !
 ! D226  D(66,63,65,70)          0.0916         calculate D2E/DX2 analytically  !
 ! D227  D(62,64,67,69)         -0.0999         calculate D2E/DX2 analytically  !
 ! D228  D(62,64,67,71)        179.5843         calculate D2E/DX2 analytically  !
 ! D229  D(68,64,67,69)       -179.5804         calculate D2E/DX2 analytically  !
 ! D230  D(68,64,67,71)          0.1037         calculate D2E/DX2 analytically  !
 ! D231  D(63,65,69,67)         -0.1995         calculate D2E/DX2 analytically  !
 ! D232  D(63,65,69,72)        178.4823         calculate D2E/DX2 analytically  !
 ! D233  D(70,65,69,67)       -179.9225         calculate D2E/DX2 analytically  !
 ! D234  D(70,65,69,72)         -1.2406         calculate D2E/DX2 analytically  !
 ! D235  D(64,67,69,65)          0.1532         calculate D2E/DX2 analytically  !
 ! D236  D(64,67,69,72)       -178.5246         calculate D2E/DX2 analytically  !
 ! D237  D(71,67,69,65)       -179.5301         calculate D2E/DX2 analytically  !
 ! D238  D(71,67,69,72)          1.7921         calculate D2E/DX2 analytically  !
 ! D239  D(65,69,72,73)         35.6913         calculate D2E/DX2 analytically  !
 ! D240  D(65,69,72,74)        156.5113         calculate D2E/DX2 analytically  !
 ! D241  D(65,69,72,75)        -83.8326         calculate D2E/DX2 analytically  !
 ! D242  D(67,69,72,73)       -145.6712         calculate D2E/DX2 analytically  !
 ! D243  D(67,69,72,74)        -24.8512         calculate D2E/DX2 analytically  !
 ! D244  D(67,69,72,75)         94.8048         calculate D2E/DX2 analytically  !
 ! D245  D(80,76,77,78)         -1.8073         calculate D2E/DX2 analytically  !
 ! D246  D(80,76,77,83)        179.8907         calculate D2E/DX2 analytically  !
 ! D247  D(82,76,77,78)        178.521          calculate D2E/DX2 analytically  !
 ! D248  D(82,76,77,83)          0.2189         calculate D2E/DX2 analytically  !
 ! D249  D(77,76,80,2)          -1.2274         calculate D2E/DX2 analytically  !
 ! D250  D(77,76,80,86)       -177.7277         calculate D2E/DX2 analytically  !
 ! D251  D(82,76,80,2)         178.449          calculate D2E/DX2 analytically  !
 ! D252  D(82,76,80,86)          1.9487         calculate D2E/DX2 analytically  !
 ! D253  D(76,77,78,79)          2.332          calculate D2E/DX2 analytically  !
 ! D254  D(76,77,78,84)       -175.2589         calculate D2E/DX2 analytically  !
 ! D255  D(83,77,78,79)       -179.3324         calculate D2E/DX2 analytically  !
 ! D256  D(83,77,78,84)          3.0767         calculate D2E/DX2 analytically  !
 ! D257  D(77,78,79,2)           0.0269         calculate D2E/DX2 analytically  !
 ! D258  D(77,78,79,85)       -174.8841         calculate D2E/DX2 analytically  !
 ! D259  D(84,78,79,2)         177.6669         calculate D2E/DX2 analytically  !
 ! D260  D(84,78,79,85)          2.756          calculate D2E/DX2 analytically  !
 ! D261  D(77,78,84,81)         -2.8815         calculate D2E/DX2 analytically  !
 ! D262  D(77,78,84,88)        175.7366         calculate D2E/DX2 analytically  !
 ! D263  D(79,78,84,81)        179.5138         calculate D2E/DX2 analytically  !
 ! D264  D(79,78,84,88)         -1.8681         calculate D2E/DX2 analytically  !
 ! D265  D(2,79,85,87)        -176.7034         calculate D2E/DX2 analytically  !
 ! D266  D(2,79,85,89)           3.0712         calculate D2E/DX2 analytically  !
 ! D267  D(78,79,85,87)         -1.8298         calculate D2E/DX2 analytically  !
 ! D268  D(78,79,85,89)        177.9447         calculate D2E/DX2 analytically  !
 ! D269  D(78,84,88,87)         -0.1117         calculate D2E/DX2 analytically  !
 ! D270  D(78,84,88,91)       -179.4004         calculate D2E/DX2 analytically  !
 ! D271  D(81,84,88,87)        178.4764         calculate D2E/DX2 analytically  !
 ! D272  D(81,84,88,91)         -0.8123         calculate D2E/DX2 analytically  !
 ! D273  D(79,85,87,88)         -0.1092         calculate D2E/DX2 analytically  !
 ! D274  D(79,85,87,90)       -179.8256         calculate D2E/DX2 analytically  !
 ! D275  D(89,85,87,88)       -179.8775         calculate D2E/DX2 analytically  !
 ! D276  D(89,85,87,90)          0.4061         calculate D2E/DX2 analytically  !
 ! D277  D(85,87,88,84)          1.1195         calculate D2E/DX2 analytically  !
 ! D278  D(85,87,88,91)       -179.5902         calculate D2E/DX2 analytically  !
 ! D279  D(90,87,88,84)       -179.1643         calculate D2E/DX2 analytically  !
 ! D280  D(90,87,88,91)          0.126          calculate D2E/DX2 analytically  !
 ! D281  D(97,92,93,94)         -1.1523         calculate D2E/DX2 analytically  !
 ! D282  D(97,92,93,99)        178.8587         calculate D2E/DX2 analytically  !
 ! D283  D(98,92,93,94)        179.2877         calculate D2E/DX2 analytically  !
 ! D284  D(98,92,93,99)         -0.7013         calculate D2E/DX2 analytically  !
 ! D285  D(93,92,97,96)         -0.2041         calculate D2E/DX2 analytically  !
 ! D286  D(93,92,97,102)      -179.7594         calculate D2E/DX2 analytically  !
 ! D287  D(98,92,97,96)        179.3525         calculate D2E/DX2 analytically  !
 ! D288  D(98,92,97,102)        -0.2027         calculate D2E/DX2 analytically  !
 ! D289  D(92,93,94,3)        -175.3988         calculate D2E/DX2 analytically  !
 ! D290  D(92,93,94,95)          1.6837         calculate D2E/DX2 analytically  !
 ! D291  D(99,93,94,3)           4.5902         calculate D2E/DX2 analytically  !
 ! D292  D(99,93,94,95)       -178.3272         calculate D2E/DX2 analytically  !
 ! D293  D(3,94,95,96)         176.1918         calculate D2E/DX2 analytically  !
 ! D294  D(3,94,95,100)         -2.0037         calculate D2E/DX2 analytically  !
 ! D295  D(93,94,95,96)         -0.9108         calculate D2E/DX2 analytically  !
 ! D296  D(93,94,95,100)      -179.1063         calculate D2E/DX2 analytically  !
 ! D297  D(94,95,96,97)         -0.375          calculate D2E/DX2 analytically  !
 ! D298  D(94,95,96,101)      -179.8416         calculate D2E/DX2 analytically  !
 ! D299  D(100,95,96,97)       177.7708         calculate D2E/DX2 analytically  !
 ! D300  D(100,95,96,101)       -1.6958         calculate D2E/DX2 analytically  !
 ! D301  D(94,95,100,103)        1.439          calculate D2E/DX2 analytically  !
 ! D302  D(94,95,100,105)     -179.5204         calculate D2E/DX2 analytically  !
 ! D303  D(96,95,100,103)     -176.7221         calculate D2E/DX2 analytically  !
 ! D304  D(96,95,100,105)        2.3185         calculate D2E/DX2 analytically  !
 ! D305  D(95,96,97,92)          0.9548         calculate D2E/DX2 analytically  !
 ! D306  D(95,96,97,102)      -179.4911         calculate D2E/DX2 analytically  !
 ! D307  D(101,96,97,92)      -179.5906         calculate D2E/DX2 analytically  !
 ! D308  D(101,96,97,102)       -0.0365         calculate D2E/DX2 analytically  !
 ! D309  D(95,100,103,104)      -0.0697         calculate D2E/DX2 analytically  !
 ! D310  D(95,100,103,106)     179.2549         calculate D2E/DX2 analytically  !
 ! D311  D(105,100,103,104)   -179.096          calculate D2E/DX2 analytically  !
 ! D312  D(105,100,103,106)      0.2286         calculate D2E/DX2 analytically  !
 ! D313  D(100,103,104,3)       -0.7715         calculate D2E/DX2 analytically  !
 ! D314  D(100,103,104,107)   -179.1661         calculate D2E/DX2 analytically  !
 ! D315  D(106,103,104,3)      179.8947         calculate D2E/DX2 analytically  !
 ! D316  D(106,103,104,107)      1.5            calculate D2E/DX2 analytically  !
 ! D317  D(3,104,107,108)       53.9321         calculate D2E/DX2 analytically  !
 ! D318  D(3,104,107,109)      174.3702         calculate D2E/DX2 analytically  !
 ! D319  D(3,104,107,110)      -65.6366         calculate D2E/DX2 analytically  !
 ! D320  D(103,104,107,108)   -127.7506         calculate D2E/DX2 analytically  !
 ! D321  D(103,104,107,109)     -7.3125         calculate D2E/DX2 analytically  !
 ! D322  D(103,104,107,110)    112.6807         calculate D2E/DX2 analytically  !
 --------------------------------------------------------------------------------
 Trust Radius=1.00D-02 FncErr=1.00D-07 GrdErr=1.00D-06 EigMax=2.50D+02 EigMin=1.00D-04
 Number of steps in this run=    657 maximum allowed number of steps=    660.
 Search for a saddle point of order  1.
 GradGradGradGradGradGradGradGradGradGradGradGradGradGradGradGradGradGrad

 Stoichiometry    C53H52NNiOPS
 Framework group  C1[X(C53H52NNiOPS)]
 Deg. of freedom   324
 Full point group                 C1      NOp   1
 Largest Abelian subgroup         C1      NOp   1
 Largest concise Abelian subgroup C1      NOp   1
                         Standard orientation:                         
 ---------------------------------------------------------------------
 Center     Atomic      Atomic             Coordinates (Angstroms)
 Number     Number       Type             X           Y           Z
 ---------------------------------------------------------------------
      1         28           0       -1.057248    0.524654   -0.089176
      2          6           0       -2.566462    0.566695    1.138334
      3          6           0       -1.973319    2.140813    0.393132
      4         15           0       -0.873471   -1.642678   -0.469829
      5         16           0        0.743647    1.029204   -1.205357
      6          6           0        1.874738   -1.405554   -1.131476
      7          6           0        0.871159   -2.277291   -0.347901
      8          1           0        1.495079   -1.279383   -2.147644
      9          1           0        1.130239   -2.312780    0.712356
     10          1           0        0.915044   -3.303225   -0.725005
     11          6           0       -1.815029   -2.699122    0.690861
     12          6           0       -3.206833   -2.765829    0.519545
     13          6           0       -1.238978   -3.327660    1.800853
     14          6           0       -4.000231   -3.448653    1.436531
     15          1           0       -3.668303   -2.273477   -0.329247
     16          6           0       -2.036269   -4.009909    2.719832
     17          1           0       -0.170811   -3.275100    1.973032
     18          6           0       -3.417245   -4.072209    2.540546
     19          1           0       -5.075984   -3.480367    1.296105
     20          1           0       -1.575188   -4.483219    3.581034
     21          1           0       -4.037329   -4.596594    3.261317
     22          6           0       -1.403485   -2.305509   -2.103823
     23          6           0       -1.509428   -1.452040   -3.210270
     24          6           0       -1.688046   -3.671808   -2.262565
     25          6           0       -1.900987   -1.958643   -4.451577
     26          1           0       -1.249803   -0.405869   -3.110940
     27          6           0       -2.077909   -4.172365   -3.502321
     28          1           0       -1.619876   -4.339665   -1.409752
     29          6           0       -2.189208   -3.314497   -4.599884
     30          1           0       -1.975803   -1.287571   -5.302158
     31          1           0       -2.298254   -5.230182   -3.611926
     32          1           0       -2.497305   -3.704891   -5.565436
     33          6           0        3.250426   -2.035534   -1.247517
     34          6           0        3.828733   -2.779932   -0.216323
     35          6           0        3.998713   -1.787857   -2.405345
     36          6           0        5.137240   -3.252546   -0.330105
     37          1           0        3.266818   -2.985987    0.688966
     38          6           0        5.303318   -2.261201   -2.524157
     39          1           0        3.552671   -1.198730   -3.201926
     40          6           0        5.878914   -2.991887   -1.481396
     41          1           0        5.577466   -3.819709    0.484452
     42          1           0        5.871641   -2.060394   -3.427500
     43          1           0        6.897428   -3.357821   -1.568560
     44          8           0        0.634230    0.673473   -2.668947
     45          6           0        1.591343    2.731444   -1.254726
     46          6           0        1.827356    3.281163    0.150570
     47          1           0        0.920808    3.221887    0.755804
     48          1           0        2.651848    2.785430    0.662948
     49          1           0        2.089175    4.341220    0.061095
     50          6           0        0.561490    3.598644   -1.991938
     51          1           0        1.004792    4.586947   -2.153401
     52          1           0        0.299957    3.172025   -2.961728
     53          1           0       -0.347655    3.730920   -1.405933
     54          6           0        2.877780    2.590624   -2.062264
     55          1           0        3.279320    3.591981   -2.253492
     56          1           0        3.628541    2.013956   -1.522692
     57          1           0        2.677053    2.107692   -3.021280
     58          7           0        2.047954   -0.014840   -0.622692
     59          6           0        2.358242    0.135341    0.802589
     60          1           0        2.155298   -0.802341    1.331567
     61          1           0        1.669588    0.858743    1.249577
     62          6           0        3.774080    0.571781    1.129202
     63          6           0        4.031237    1.063619    2.415113
     64          6           0        4.836861    0.470442    0.231107
     65          6           0        5.317092    1.440864    2.792408
     66          1           0        3.213461    1.154437    3.127620
     67          6           0        6.123715    0.850361    0.612557
     68          1           0        4.658255    0.086217   -0.763962
     69          6           0        6.388491    1.342541    1.894436
     70          1           0        5.492545    1.821190    3.795598
     71          1           0        6.937301    0.756089   -0.102117
     72          6           0        7.775834    1.783001    2.291589
     73          1           0        7.979240    1.564717    3.344504
     74          1           0        8.540037    1.285521    1.687576
     75          1           0        7.903058    2.864013    2.154274
     76          6           0       -4.847303   -0.023456    1.869623
     77          6           0       -4.408727   -0.489506    3.089888
     78          6           0       -3.021785   -0.496172    3.371192
     79          6           0       -2.098606    0.026767    2.406379
     80          6           0       -3.948351    0.479788    0.914304
     81          1           0       -3.233360   -1.443761    5.298772
     82          1           0       -5.907686   -0.035142    1.631323
     83          1           0       -5.103701   -0.876833    3.828922
     84          6           0       -2.518301   -1.059739    4.575835
     85          6           0       -0.716612   -0.107066    2.693465
     86          1           0       -4.360803    0.865114   -0.009439
     87          6           0       -0.249576   -0.674996    3.856759
     88          6           0       -1.167632   -1.149790    4.821272
     89          1           0       -0.019055    0.256842    1.949614
     90          1           0        0.819704   -0.753539    4.034372
     91          1           0       -0.806741   -1.593179    5.744733
     92          6           0       -3.475330    1.911780   -3.078622
     93          6           0       -2.940340    1.556062   -1.858135
     94          6           0       -2.630770    2.517373   -0.856961
     95          6           0       -2.932175    3.884879   -1.150200
     96          6           0       -3.497494    4.226131   -2.407944
     97          6           0       -3.756633    3.266471   -3.359991
     98          1           0       -3.684676    1.143398   -3.816754
     99          1           0       -2.748427    0.508456   -1.653292
    100          6           0       -2.620746    4.875069   -0.185359
    101          1           0       -3.714642    5.272555   -2.606709
    102          1           0       -4.181526    3.546387   -4.319466
    103          6           0       -2.013035    4.511220    0.991559
    104          6           0       -1.671810    3.172016    1.306919
    105          1           0       -2.852549    5.915321   -0.394615
    106          1           0       -1.767155    5.279954    1.720108
    107          6           0       -1.027264    2.946262    2.650388
    108          1           0       -0.091283    2.384503    2.585839
    109          1           0       -0.806474    3.904510    3.128424
    110          1           0       -1.679904    2.376180    3.319622
 ---------------------------------------------------------------------
 Rotational constants (GHZ):           0.0578410           0.0412860           0.0389390
 General basis read from cards:  (5D, 7F)
 ======================================================================================================
                                       Pseudopotential Parameters
 ======================================================================================================
  Center     Atomic      Valence      Angular      Power
  Number     Number     Electrons     Momentum     of R      Exponent        Coefficient   SO-Coeffient
 ======================================================================================================
    1         28           18
                                      F and up 
                                                     2        1.0000000        0.00000000    0.00000000
                                      S - F
                                                     2       26.7400000      317.68227200    0.00000000
                                                     2       11.8600000       58.25539100    0.00000000
                                      P - F
                                                     2       28.8000000      252.47436600    0.00000000
                                                     2       11.7900000       36.08150300    0.00000000
                                      D - F
                                                     2       33.7000000      -18.52295500    0.00000000
                                                     2       11.6600000       -4.55766800    0.00000000
    2          6
                                   No pseudopotential on this center.
    3          6
                                   No pseudopotential on this center.
    4         15
                                   No pseudopotential on this center.
    5         16
                                   No pseudopotential on this center.
    6          6
                                   No pseudopotential on this center.
    7          6
                                   No pseudopotential on this center.
    8          1
                                   No pseudopotential on this center.
    9          1
                                   No pseudopotential on this center.
   10          1
                                   No pseudopotential on this center.
   11          6
                                   No pseudopotential on this center.
   12          6
                                   No pseudopotential on this center.
   13          6
                                   No pseudopotential on this center.
   14          6
                                   No pseudopotential on this center.
   15          1
                                   No pseudopotential on this center.
   16          6
                                   No pseudopotential on this center.
   17          1
                                   No pseudopotential on this center.
   18          6
                                   No pseudopotential on this center.
   19          1
                                   No pseudopotential on this center.
   20          1
                                   No pseudopotential on this center.
   21          1
                                   No pseudopotential on this center.
   22          6
                                   No pseudopotential on this center.
   23          6
                                   No pseudopotential on this center.
   24          6
                                   No pseudopotential on this center.
   25          6
                                   No pseudopotential on this center.
   26          1
                                   No pseudopotential on this center.
   27          6
                                   No pseudopotential on this center.
   28          1
                                   No pseudopotential on this center.
   29          6
                                   No pseudopotential on this center.
   30          1
                                   No pseudopotential on this center.
   31          1
                                   No pseudopotential on this center.
   32          1
                                   No pseudopotential on this center.
   33          6
                                   No pseudopotential on this center.
   34          6
                                   No pseudopotential on this center.
   35          6
                                   No pseudopotential on this center.
   36          6
                                   No pseudopotential on this center.
   37          1
                                   No pseudopotential on this center.
   38          6
                                   No pseudopotential on this center.
   39          1
                                   No pseudopotential on this center.
   40          6
                                   No pseudopotential on this center.
   41          1
                                   No pseudopotential on this center.
   42          1
                                   No pseudopotential on this center.
   43          1
                                   No pseudopotential on this center.
   44          8
                                   No pseudopotential on this center.
   45          6
                                   No pseudopotential on this center.
   46          6
                                   No pseudopotential on this center.
   47          1
                                   No pseudopotential on this center.
   48          1
                                   No pseudopotential on this center.
   49          1
                                   No pseudopotential on this center.
   50          6
                                   No pseudopotential on this center.
   51          1
                                   No pseudopotential on this center.
   52          1
                                   No pseudopotential on this center.
   53          1
                                   No pseudopotential on this center.
   54          6
                                   No pseudopotential on this center.
   55          1
                                   No pseudopotential on this center.
   56          1
                                   No pseudopotential on this center.
   57          1
                                   No pseudopotential on this center.
   58          7
                                   No pseudopotential on this center.
   59          6
                                   No pseudopotential on this center.
   60          1
                                   No pseudopotential on this center.
   61          1
                                   No pseudopotential on this center.
   62          6
                                   No pseudopotential on this center.
   63          6
                                   No pseudopotential on this center.
   64          6
[...]
 ,-0.00000433,0.00015416,-0.00001095,-0.00022870,-0.00005010,0.00012204
 ,-0.00000553,0.00000075,0.00000562,-0.00000508,-0.00002288,-0.00000481
 ,-0.00000239,0.00000120,0.00000147,0.00000448,-0.00000301,0.00000154,0
 .00001130,-0.00000418,0.00000082,0.00002233,-0.00000961,-0.00000550,-0
 .00001479,0.00000223,0.00000744,-0.00000842,0.00000211,0.00000277,0.00
 000245,0.00000372,-0.00000274,0.00000467,-0.00000577,-0.00000282,-0.00
 000255,0.00000190,0.00000521,0.00000477,-0.00000421,-0.00000350,-0.000
 00241,-0.00000412,0.00000861,-0.00000092,-0.00000067,0.00000014,0.0000
 0006,-0.00000354,0.00000211,-0.00000031,-0.00000127,0.00000037,0.00000
 307,-0.00002330,0.00000238,0.00000823,0.00000492,0.00000044,-0.0000016
 1,0.00000418,-0.00000792,0.00000241,-0.00000390,0.00000194,-0.00000967
 ,0.00000095,0.00000699,-0.00000129,-0.00000350,0.00000011,0.00000022,-
 0.00000167,0.00000131,0.00000018,-0.00000011,0.00000070,-0.00000116,0.
 00000103,0.00000122,-0.00000064,-0.00000174,-0.00000102,-0.00000081,-0
 .00000094,-0.00000115,-0.00000470,0.00000333,0.00000033,0.00000338,-0.
 00000053,-0.00000058,0.00000375,-0.00000102,0.00000104,0.00000059,0.00
 000119,-0.00000008,-0.00000178,-0.00000028,-0.00000166,0.00000023,0.00
 000103,0.00000040,-0.00000165,-0.00000065,0.00000010,0.00000235,-0.000
 00059,0.00000017,0.00000057,-0.00000076,0.00000027,0.00000072,-0.00000
 061,-0.00000098,0.00000054,-0.00000068,-0.00000027,0.00006953,0.000047
 47,-0.00000960,-0.00005356,-0.00006557,-0.00006366,0.00008453,0.000117
 22,0.00002538,-0.00010368,-0.00022034,-0.00005461,-0.00001637,0.000001
 44,0.00002317,0.00006843,0.00003301,-0.00004694,0.00000852,0.00003635,
 0.00003087,0.00001791,0.00001545,-0.00002355,-0.00000220,0.00000080,0.
 00001410,-0.00002656,-0.00004338,-0.00000283,0.00002377,0.00005896,0.0
 0004023,0.00001790,0.00000475,-0.00001440,0.00000156,-0.00000577,-0.00
 000247,-0.00001616,-0.00000117,0.00001456,0.00007017,0.00000272,0.0000
 0568,-0.00001913,-0.00000152,-0.00002789,0.00000570,0.00000041,-0.0000
 0041,-0.00002063,0.00000310,0.00000720,-0.00000870,-0.00000270,-0.0000
 0237,-0.00000235,0.00001080,0.00000101,0.00000709,0.00000294,-0.000003
 32,0.00000566,0.00000666,0.00000158,-0.00000469,-0.00000570,0.00000302
 ,-0.00000092,0.00000115,-0.00000159,-0.00000284,-0.00000267,0.00000022
 ,0.00000176,0.00000026,0.00000208,0.00000105,-0.00000192,0.00000250,0.
 00000038,-0.00000088,0.00000027,0.00000018,-0.00000157,0.00000110,0.00
 000012,0.00000005,-0.00000064,-0.00000048,0.00000061,0.00000047,0.0000
 0215,0.00000124,-0.00000005,0.00007954,0.00003754,-0.00013330,0.000014
 32,-0.00004899,0.00012934,-0.00020164,-0.00005339,0.00026590,0.0001363
 1,0.00054150,0.00016838,-0.00018641,-0.00008240,0.00006091,0.00000350,
 -0.00000153,-0.00000793,-0.00000463,-0.00000216,0.00000641,0.00001152,
 0.00000098,0.00000131,-0.00006413,-0.00000372,-0.00004808,0.00005020,0
 .00026698,-0.00010774,0.00002885,0.00001012,0.00000194,0.00000344,-0.0
 0002390,0.00021335,0.00009399,-0.00001206,-0.00006074,-0.00002099,0.00
 004105,-0.00003521,-0.00001211,0.00000945,0.00000240,-0.00000185,0.000
 00552,-0.00000390,0.00004361,-0.00020335,0.00001733,-0.00019573,0.0002
 7861,-0.00047962,-0.00015636,-0.00156635,-0.00031513,0.00010562,0.0000
 1807,0.00026688,-0.00003375,0.00008368,-0.00004237,0.00000383,0.000113
 85,0.00001469,-0.00002622,0.00000698,-0.00005008,0.00000178,-0.0000062
 1,0.00001654,0.00002114,0.00036063,-0.00012739,-0.00001372,0.00001751,
 -0.00002687,-0.00000136,0.00001223,0.00000163,0.00074750,-0.00299800,0
 .00018532,-0.00486936,-0.02710299,-0.01451890,0.00000421,-0.00000748,0
 .00000891,-0.00035996,0.00154508,0.00016275,-0.01826441,-0.09818219,-0
 .09475259,0.00042509,-0.00127244,-0.00143244,0.02407199,0.10803921,0.1
 0553835,0.00015374,0.00001752,-0.00010940,0.00074688,-0.00013338,-0.00
 014055,0.00060925,-0.00053015,0.00038042,-0.00004372,0.00001069,0.0000
 6377,-0.00023301,-0.00020566,-0.00003757,-0.00001464,-0.00006214,-0.00
 000009,0.00000620,0.00002021,0.00000332,0.00000420,0.00000158,0.000004
 97,-0.00001023,-0.00000467,-0.00000026,0.00000503,0.00000229,-0.000003
 04,-0.00003559,0.00000316,0.00000650,0.00001883,-0.00001832,-0.0000302
 6,0.00000644,-0.00002177,0.00000499,0.00000576,0.00000091,0.00000951,-
 0.00000809,0.00000765,0.00000207,0.00001337,-0.00000270,-0.00000981,-0
 .00001364,0.00000149,0.00000536,-0.00000354,0.00001176,-0.00001523,0.0
 0000032,0.00000345,-0.00000076,0.00000007,0.00000811,-0.00000068,0.000
 00044,0.00000324,0.00000174,0.00001106,0.00000753,-0.00000870,0.000008
 98,-0.00000748,-0.00000218,0.00000223,-0.00000025,0.00000124,0.0000021
 6,0.00000218,-0.00000126,-0.00001498,-0.00000228,0.00000289,0.00000227
 ,0.00000182,-0.00000158,-0.00000268,0.00000359,0.00000173,0.00000076,0
 .00000034,0.00000141,-0.00000271,0.00000096,-0.00000046,-0.00000099,-0
 .00000035,0.00000045,-0.00000100,0.00000010,-0.00000072,0.00000641,0.0
 0000986,-0.00000621,-0.00000277,0.00000279,0.00000905,0.00000364,0.000
 00339,0.00000294,0.00000282,0.00000058,0.00000114,-0.00000126,-0.00000
 306,-0.00000172,0.00000334,0.00000236,-0.00000271,-0.00000095,-0.00000
 305,-0.00000371,0.00000193,0.00000019,0.00000035,-0.00000163,-0.000000
 42,-0.00000087,0.00000010,-0.00000163,-0.00000093,-0.00000065,-0.00000
 082,-0.00000063,0.00009589,0.00008492,0.00003515,-0.00021102,-0.000176
 29,-0.00013285,0.00047602,0.00001057,0.00007603,-0.00031327,0.00007707
 ,-0.00017161,0.00004008,-0.00002257,0.00000159,-0.00006068,-0.00000381
 ,0.00006557,-0.00001110,0.00004662,0.00003577,0.00000751,0.00001506,-0
 .00001501,0.00001649,-0.00001004,0.00002369,-0.00003452,-0.00001061,-0
 .00001028,0.00007192,0.00010033,0.00010945,0.00001898,0.00000406,-0.00
 002158,0.00000696,-0.00001208,-0.00000818,-0.00004242,0.00000514,0.000
 03698,0.00003737,0.00007792,0.00000893,0.00007407,-0.00006401,-0.00005
 260,-0.00002751,0.00004433,0.00001171,-0.00000925,-0.00010857,-0.00002
 474,-0.00000308,0.00001946,-0.00000733,0.00000438,0.00003574,-0.000028
 71,0.00000733,0.00000212,-0.00001380,0.00000577,0.00001897,0.00001843,
 0.00000241,-0.00003650,0.00003914,-0.00000365,-0.00000185,-0.00000327,
 -0.00000314,-0.00000800,-0.00000055,0.00000558,-0.00000007,0.00000412,
 -0.00000046,-0.00000501,-0.00000093,-0.00000355,-0.00000074,0.00000172
 ,0.00000329,-0.00000337,0.00000461,-0.00000223,-0.00000003,-0.00000391
 ,-0.00000390,0.00000125,0.00000133,-0.00000106,-0.00000080,-0.00000088
 ,-0.00005611,0.00021218,-0.00038770,0.00057065,-0.00035094,0.00018069,
 -0.00063914,-0.00035942,-0.00041937,-0.00003421,0.00000727,-0.00017900
 ,-0.00066245,0.00017339,0.00020395,-0.00000884,-0.00002579,-0.00000709
 ,-0.00000688,0.00002056,-0.00001230,-0.00000769,0.00001123,0.00001860,
 0.00043474,0.00005528,0.00051017,0.00051995,-0.00097308,0.00068390,-0.
 00000946,-0.00004937,-0.00002342,-0.00020201,0.00019047,-0.00125430,-0
 .00056497,0.00000341,0.00017177,-0.00012543,-0.00002548,0.00011620,0.0
 0001642,0.00000286,0.00002797,-0.00001731,0.00000249,0.00001656,-0.000
 01842,0.00014886,-0.00009696,0.00004064,0.00003658,0.00014687,-0.00056
 576,0.00012719,0.00016189,-0.00003884,-0.00022272,-0.00031395,0.000132
 97,-0.00000292,0.00012838,-0.00003504,-0.00012836,-0.00009629,0.000002
 43,-0.00000460,-0.00000451,-0.00000367,-0.00000644,0.00000519,-0.00058
 130,0.00026430,0.00067918,-0.00000835,0.00000816,-0.00000084,-0.000008
 01,-0.00000398,-0.00000070,-0.00139889,0.00052438,-0.00143873,0.011224
 32,0.00862836,-0.00849798,0.00002551,0.00006858,-0.00010945,0.00019467
 ,0.00018747,-0.00011438,-0.14227252,-0.08542660,0.09351117,-0.01893904
 ,-0.01537032,0.01656751,-0.00280366,-0.00117725,0.00129372,0.15447836,
 -0.00009353,-0.00023388,-0.00027985,0.00081511,0.00077010,-0.00127660,
 -0.00036496,-0.00187926,-0.00073280,0.00008185,-0.00004760,0.00002190,
 0.00019721,0.00004582,-0.00009090,0.00001181,0.00002183,-0.00002306,-0
 .00000571,0.00002056,0.00002853,0.00000153,-0.00000667,-0.00000359,0.0
 0000309,0.00000357,-0.00000582,-0.00001873,0.00000667,-0.00000544,-0.0
 0004698,0.00006190,0.00002078,-0.00001216,-0.00002000,-0.00001052,0.00
 001723,-0.00000253,0.00003254,-0.00000064,0.00000791,0.00000180,-0.000
 00412,-0.00000251,-0.00000656,0.00001507,-0.00000924,0.00000218,-0.000
 00174,-0.00000154,-0.00000750,-0.00001575,0.00000915,0.00001354,0.0000
 0022,-0.00000364,-0.00000250,0.00000017,-0.00000700,-0.00000431,0.0000
 0143,-0.00000123,-0.00000450,-0.00003207,0.00005917,-0.00001710,0.0000
 0179,0.00000639,0.00000480,0.00000858,-0.00000098,0.00003039,0.0000022
 4,0.00000184,-0.00000292,-0.00000230,0.00000199,-0.00000335,0.00000632
 ,0.00000072,0.00000069,-0.00000184,-0.00000604,-0.00000266,0.00000109,
 0.00000287,0.00000324,0.00000086,-0.00000167,0.00000367,0.00000133,0.0
 0000418,0.00000332,0.00000041,0.00000149,0.00000372,0.00000537,-0.0000
 0771,0.00000419,-0.00000580,0.00000172,-0.00000193,-0.00000731,0.00000
 276,-0.00000129,-0.00000003,-0.00000302,0.00000156,0.00000265,0.000000
 52,0.00000317,-0.00000042,-0.00000065,-0.00000063,0.00000260,0.0000003
 5,-0.00000100,-0.00000377,0.00000079,0.00000021,-0.00000076,0.00000142
 ,-0.00000121,-0.00000169,0.00000033,0.00000186,-0.00000186,0.00000114,
 0.00000066,-0.00008008,-0.00002459,0.00005589,0.00004339,0.00012713,0.
 00008761,-0.00017349,0.00003324,-0.00004489,0.00009262,-0.00013765,0.0
 0013712,-0.00001544,0.00000643,0.00000510,0.00007482,0.00001721,-0.000
 07742,-0.00000202,-0.00002671,-0.00002133,0.00000619,-0.00001104,0.000
 00290,-0.00001117,0.00001089,-0.00000796,0.00000532,-0.00000837,-0.000
 01086,-0.00002969,-0.00007996,-0.00005331,-0.00002200,-0.00000369,0.00
 001497,-0.00000312,0.00000649,0.00000377,0.00002266,0.00000328,-0.0000
 1555,-0.00008175,-0.00000774,0.00000080,-0.00003549,0.00003403,0.00005
 844,0.00001556,-0.00002125,-0.00001315,-0.00000525,0.00007321,0.000039
 14,0.00000842,0.00000204,0.00000005,-0.00001842,-0.00001433,0.00002266
 ,-0.00000815,-0.00000312,0.00000072,-0.00000121,-0.00000516,-0.0000064
 9,-0.00000935,0.00002100,-0.00001618,0.00000229,0.00000063,-0.00000199
 ,0.00000552,0.00000187,-0.00000193,0.00000176,0.00000278,-0.00000209,-
 0.00000243,-0.00000088,-0.00000144,0.00000030,0.00000035,-0.00000007,0
 .00000075,-0.00000131,-0.00000040,-0.00000061,0.00000069,-0.00000077,0
 .00000056,0.00000020,-0.00000027,-0.00000093,-0.00000092,0.00000045,0.
 00019248,0.00053706,-0.00109173,0.00113830,-0.00041477,0.00060302,-0.0
 0171262,-0.00081957,-0.00004942,-0.00079118,-0.00044954,-0.00037971,-0
 .00118975,-0.00034231,0.00047336,0.00001964,0.00003504,-0.00003630,0.0
 0002825,0.00004411,0.00001030,0.00005171,0.00002756,0.00000711,0.00042
 191,0.00004584,0.00042941,0.00202386,-0.00270470,-0.00018750,0.0000358
 3,-0.00004002,0.00000189,0.00012445,0.00034758,-0.00100364,-0.00057149
 ,-0.00010041,0.00031296,0.00001918,0.00023833,0.00006845,-0.00004723,0
 .00007802,-0.00002772,-0.00002475,0.00002729,-0.00002270,-0.00005392,0
 .00014964,-0.00005809,0.00002172,0.00004553,0.00007107,-0.00019490,-0.
 00004108,0.00007634,-0.00015256,-0.00036158,-0.00039845,0.00006937,0.0
 0002760,0.00026426,-0.00003476,-0.00016642,-0.00011400,-0.00000356,-0.
 00000034,-0.00000337,0.00001471,0.00000243,-0.00001605,0.00090739,0.00
 003339,0.00067816,-0.00000294,0.00000036,0.00000148,0.00001696,-0.0000
 0252,0.00000158,-0.00025197,0.00069080,0.00046893,0.00150319,-0.002538
 54,0.00656534,0.00004766,-0.00002009,0.00004468,-0.00040707,0.00017455
 ,0.00034457,-0.08926372,-0.11755857,0.08005332,0.01077015,0.00755269,-
 0.00961163,-0.01728510,-0.01354616,0.01666710,0.09424547,0.13025400,-0
 .00017879,-0.00037546,0.00012840,0.00082343,-0.00076480,-0.00078008,-0
 .00034214,0.00308074,0.00053976,-0.00001989,0.00020903,-0.00003471,-0.
 00005805,0.00009006,-0.00003631,0.00001701,0.00003118,0.00001977,-0.00
 001043,-0.00001784,0.00000252,-0.00000631,0.00000545,0.00000100,0.0000
 1538,-0.00000499,0.00000292,0.00000263,-0.00000395,0.00000062,0.000056
 33,-0.00000692,-0.00002488,-0.00003309,0.00001241,0.00002448,-0.000026
 16,0.00002591,0.00001153,0.00000359,0.00000528,-0.00000632,0.00001098,
 -0.00000138,-0.00001032,-0.00000594,0.00000613,0.00002087,0.00001493,-
 0.00001046,-0.00001078,-0.00001016,-0.00001214,0.00001699,-0.00000426,
 -0.00000558,-0.00000022,-0.00000156,-0.00001125,0.00000100,0.00000034,
 -0.00000410,-0.00000103,-0.00000614,-0.00001795,0.00000431,0.00001528,
 0.00002165,0.00000657,-0.00000292,0.00000088,-0.00000325,0.00000354,-0
 .00000860,0.00000193,-0.00001283,0.00000854,0.00000399,-0.00000268,-0.
 00000598,0.00000295,0.00000253,-0.00000672,-0.00000009,0.00000130,0.00
 000309,0.00000230,-0.00000123,0.00000196,0.00000555,-0.00000019,-0.000
 00219,-0.00000024,-0.00000032,-0.00000112,-0.00000074,-0.00001019,-0.0
 0000833,0.00000181,0.00000615,-0.00000030,-0.00000686,0.00000140,-0.00
 000102,-0.00000230,0.00000070,0.00000088,0.00000104,-0.00000166,-0.000
 00079,0.00000067,-0.00000112,0.00000048,0.00000222,-0.00000084,0.00000
 047,0.00000196,0.00000230,-0.00000131,0.00000085,0.00000175,-0.0000011
 6,0.00000070,-0.00000002,0.00000021,-0.00000023,0.00000063,-0.00000053
 ,0.00000008,0.00005642,-0.00002079,-0.00002441,-0.00000610,0.00001513,
 -0.00002404,-0.00006283,0.00003852,0.00004681,-0.00004855,-0.00007148,
 -0.00004124,0.00001358,0.00000059,-0.00000299,0.00001652,0.00000317,-0
 .00002088,-0.00003661,0.00001199,0.00001798,0.00001630,0.00000446,-0.0
 0001195,0.00000768,0.00000363,0.00000039,-0.00002885,-0.00002772,0.000
 04375,0.00000591,0.00000852,0.00002292,0.00000453,-0.00000001,-0.00000
 539,0.00000937,-0.00000240,-0.00000357,-0.00000565,-0.00000109,0.00000
 299,0.00008212,-0.00006346,0.00005069,-0.00000968,-0.00002119,-0.00007
 375,0.00001096,-0.00001929,0.00000703,-0.00001467,0.00003486,-0.000005
 79,-0.00000493,-0.00000278,0.00002103,0.00001195,-0.00000104,-0.000014
 90,-0.00000031,-0.00000296,-0.00000130,0.00000019,0.00000226,0.0000045
 8,0.00000238,-0.00000198,0.00000612,-0.00000352,-0.00000082,0.00000257
 ,-0.00000444,0.00000237,0.00000215,-0.00000032,0.00000018,0.00000059,0
 .00000262,0.00000046,0.00000239,-0.00000096,0.00000007,0.00000008,-0.0
 0000058,0.00000038,0.00000048,0.00000072,-0.00000021,0.00000081,-0.000
 00039,0.00000041,0.00000020,0.00000089,0.00000020,-0.00000061,0.000225
 86,0.00024488,-0.00046937,0.00010236,-0.00004763,0.00046656,-0.0003959
 8,0.00011631,0.00049490,-0.00029243,-0.00036509,0.00009406,-0.00070360
 ,-0.00022900,0.00030171,0.00000888,0.00003145,-0.00000629,0.00000471,-
 0.00001058,-0.00000621,0.00003705,-0.00001997,-0.00001417,0.00018900,-
 0.00019859,0.00006244,0.00032965,0.00024299,0.00023007,0.00006728,-0.0
 0004682,-0.00002709,0.00004423,0.00020061,0.00022438,-0.00026101,-0.00
 016475,-0.00005231,-0.00001106,-0.00005643,-0.00007665,-0.00002499,-0.
 00001071,-0.00003647,-0.00000478,0.00001497,-0.00001292,0.00013337,-0.
 00008388,0.00020858,-0.00012769,-0.00000299,-0.00017782,-0.00064605,-0
 .00021862,0.00092733,0.00025088,0.00050188,0.00023776,-0.00005238,-0.0
 0017475,-0.00027059,-0.00007286,0.00033192,-0.00007781,-0.00000614,-0.
 00001632,-0.00001470,0.00001578,-0.00003150,-0.00001992,-0.00129500,0.
 00017366,-0.00057944,-0.00000845,0.00001724,-0.00000735,0.00000678,0.0
 0000072,-0.00000805,0.00010494,-0.00155697,-0.00204339,0.01453972,0.01
 537942,-0.02026713,-0.00019350,0.00007438,-0.00014361,0.00028503,0.000
 22237,-0.00008574,0.09702834,0.08170314,-0.13762812,0.00197637,0.00119
 782,-0.00131368,-0.00994209,-0.00734550,0.00960525,-0.10156926,-0.0919
 9317,0.15059464\\-0.00001120,0.00000734,0.00000536,0.00000949,-0.00000
 433,-0.00000216,0.00000488,-0.00000629,-0.00000642,-0.00000057,0.00000
 032,-0.00000087,-0.00000054,-0.00000111,0.00000279,0.00000008,0.000000
 31,-0.00000016,0.00000040,-0.00000020,0.00000028,0.00000005,-0.0000001
 6,0.00000025,0.00000026,0.00000041,0.00000016,0.00000012,0.00000013,0.
 00000026,0.00000028,-0.00000009,0.00000049,0.00000054,0.00000006,0.000
 00035,0.00000019,0.00000031,0.00000020,0.00000041,-0.00000022,0.000000
 65,0.00000013,-0.00000033,0.00000035,0.00000036,0.00000012,0.00000036,
 0.00000008,0.,0.00000024,0.00000046,0.00000002,0.00000040,0.00000026,-
 0.00000021,0.00000052,0.00000040,0.00000018,0.00000032,0.00000047,0.00
 000001,0.00000048,-0.00000032,-0.00000004,-0.00000002,-0.00000003,-0.0
 0000036,0.00000056,0.00000023,0.00000020,0.00000061,-0.00000010,-0.000
 00020,0.00000036,-0.00000020,-0.00000057,0.00000011,0.00000009,-0.0000
 0049,0.00000055,0.00000015,-0.00000020,0.00000033,-0.00000009,-0.00000
 020,0.00000016,-0.00000019,-0.00000059,0.00000024,0.00000007,-0.000000
 48,0.00000045,-0.00000012,-0.00000057,0.00000036,0.00000028,-0.0000001
 0,-0.00000017,-0.00000002,0.00000030,-0.00000016,-0.00000030,0.0000000
 5,0.00000017,-0.00000002,0.00000028,0.00000003,0.00000032,0.00000026,-
 0.00000012,-0.00000013,0.00000022,-0.00000022,0.,-0.00000009,0.0000000
 1,0.00000014,0.00000017,-0.00000004,0.00000025,0.00000034,-0.00000008,
 -0.00000005,0.00000008,-0.00000018,0.00000014,0.00000025,-0.00000016,-
 0.00000011,-0.00000019,0.00000030,-0.00000001,0.00000035,-0.00000008,-
 0.00000030,-0.00000022,-0.00000044,0.00000005,-0.00000017,-0.00000035,
 -0.00000021,0.00000018,-0.00000029,-0.00000025,0.00000012,-0.00000037,
 -0.00000046,-0.00000034,-0.00000021,-0.00000044,-0.00000008,-0.0000003
 4,-0.00000023,-0.00000013,-0.00000013,-0.00000061,-0.00000013,-0.00000
 002,-0.00000036,-0.00000008,-0.00000024,-0.00000035,-0.00000005,-0.000
 00041,-0.00000027,0.00000013,-0.00000039,-0.00000026,0.00000001,-0.000
 00017,-0.00000027,-0.00000004,0.00000007,0.,0.00000003,-0.00000031,0.0
 0000024,0.00000038,0.,0.00000044,0.00000034,-0.00000025,0.00000015,0.0
 0000031,-0.00000029,0.00000008,0.00000029,-0.00000034,-0.00000019,0.00
 000026,-0.00000026,0.00000006,0.00000047,-0.00000040,0.00000014,0.0000
 0033,-0.00000025,-0.00000007,0.00000032,-0.00000039,0.00000001,0.00000
 023,-0.00000004,-0.00000002,0.00000045,-0.00000042,0.00000012,0.000000
 54,-0.00000040,-0.00000006,0.00000036,-0.00000038,0.00000003,0.0000005
 6,-0.00000053,0.00000011,0.00000062,-0.00000052,0.00000002,0.00000060,
 -0.00000055,-0.00000004,0.00000057,-0.00000057,0.00000027,0.00000012,0
 .00000017,0.00000082,-0.00000043,0.00000088,0.00000070,0.00000023,0.,-
 0.00000023,-0.00000026,0.00000107,0.00000046,0.00000031,0.00000005,0.0
 0000043,0.00000015,0.00000031,-0.00000022,-0.00000026,0.00000026,0.000
 00018,-0.00000007,0.00000028,0.00000034,0.00000026,-0.00000022,-0.0000
 0056,-0.00000060,0.00000010,-0.00000015,-0.00000029,0.00000032,-0.0000
 0003,0.00000040,-0.00000037,0.00000011,0.00000027,-0.00000012,-0.00000
 087,-0.00000024,0.00000002,0.00000022,0.00000037,0.00000003,0.00000040
 ,0.00000029,0.00000016,0.00000006,-0.00000048,0.00000038,-0.00000047,0
 .00000033,0.00000011,-0.00000112,0.00000092,-0.00000022,-0.00000042,-0
 .00000111,-0.00000043,-0.00000048,-0.00000049,-0.00000027,-0.00000032,
 -0.00000050,0.00000006,-0.00000030,-0.00000049,0.00000027,-0.00000020,
 -0.00000003,-0.00000002,-0.00000044,0.00000049,-0.00000100,-0.00000045
 ,-0.00000031,-0.00000015,-0.00000040,-0.00000053,0.00000013,-0.0000002
 5,0.00000039,0.00000004,-0.00000002,-0.00000072,0.00000063,-0.00000032
 ,0.00000002,-0.00000019,-0.00000010,0.00000035,0.00000004,0.,0.0000005
 6,-0.00000021,-0.00000018,0.00000041,0.00000038,-0.00000010,0.00000032
 ,-0.00000016,0.00000008,0.00000012,-0.00000002\\\@
 The archive entry for this job was punched.


 WE SHOULD BE CAREFUL TO GET OUT OF AN EXPERIENCE ONLY THE WISDOM
 THAT IS IN IT -- AND STOP THERE;
 LEST WE BE LIKE THE CAT THAT SITS DOWN ON A HOT STOVE-LID.
 SHE WILL NEVER SIT DOWN ON A HOT STOVE LID AGAIN;
 BUT ALSO SHE WILL NEVER SIT DOWN ON A COLD ONE ANY MORE.

                                                     -- MARK TWAIN
 Job cpu time:       2 days 21 hours 34 minutes 40.1 seconds.
 Elapsed time:       0 days  2 hours 11 minutes  3.9 seconds.
 File lengths (MBytes):  RWF=  13758 Int=      0 D2E=      0 Chk=    106 Scr=      2
 Normal termination of Gaussian 16 at Sun Nov 26 14:17:56 2023.
