 Entering Gaussian System, Link 0=g16
 Initial command:
 /public3/home/scg9909/software-scg9909/g16/l1.exe "/public3/home/scg9909/tmp/Gau-233709.inp" -scrdir="/public3/home/scg9909/tmp/"
 Entering Link 1 = /public3/home/scg9909/software-scg9909/g16/l1.exe PID=    233710.
  
 Copyright (c) 1988-2019, Gaussian, Inc.  All Rights Reserved.
  
 This is part of the Gaussian(R) 16 program.  It is based on
 the Gaussian(R) 09 system (copyright 2009, Gaussian, Inc.),
 the Gaussian(R) 03 system (copyright 2003, Gaussian, Inc.),
 the Gaussian(R) 98 system (copyright 1998, Gaussian, Inc.),
 the Gaussian(R) 94 system (copyright 1995, Gaussian, Inc.),
 the Gaussian 92(TM) system (copyright 1992, Gaussian, Inc.),
 the Gaussian 90(TM) system (copyright 1990, Gaussian, Inc.),
 the Gaussian 88(TM) system (copyright 1988, Gaussian, Inc.),
 the Gaussian 86(TM) system (copyright 1986, Carnegie Mellon
 University), and the Gaussian 82(TM) system (copyright 1983,
 Carnegie Mellon University). Gaussian is a federally registered
 trademark of Gaussian, Inc.
  
 This software contains proprietary and confidential information,
 including trade secrets, belonging to Gaussian, Inc.
  
 This software is provided under written license and may be
 used, copied, transmitted, or stored only in accord with that
 written license.
  
 The following legend is applicable only to US Government
 contracts under FAR:
  
                    RESTRICTED RIGHTS LEGEND
  
 Use, reproduction and disclosure by the US Government is
 subject to restrictions as set forth in subparagraphs (a)
 and (c) of the Commercial Computer Software - Restricted
 Rights clause in FAR 52.227-19.
  
 Gaussian, Inc.
 340 Quinnipiac St., Bldg. 40, Wallingford CT 06492
  
  
 ---------------------------------------------------------------
 Warning -- This program may not be used in any manner that
 competes with the business of Gaussian, Inc. or will provide
 assistance to any competitor of Gaussian, Inc.  The licensee
 of this program is prohibited from giving any competitor of
 Gaussian, Inc. access to this program.  By using this program,
 the user acknowledges that Gaussian, Inc. is engaged in the
 business of creating and licensing software in the field of
 computational chemistry and represents and warrants to the
 licensee that it is not a competitor of Gaussian, Inc. and that
 it will not use this program in any manner prohibited above.
 ---------------------------------------------------------------
  

 Cite this work as:
 Gaussian 16, Revision C.01,
 M. J. Frisch, G. W. Trucks, H. B. Schlegel, G. E. Scuseria, 
 M. A. Robb, J. R. Cheeseman, G. Scalmani, V. Barone, 
 G. A. Petersson, H. Nakatsuji, X. Li, M. Caricato, A. V. Marenich, 
 J. Bloino, B. G. Janesko, R. Gomperts, B. Mennucci, H. P. Hratchian, 
 J. V. Ortiz, A. F. Izmaylov, J. L. Sonnenberg, D. Williams-Young, 
 F. Ding, F. Lipparini, F. Egidi, J. Goings, B. Peng, A. Petrone, 
 T. Henderson, D. Ranasinghe, V. G. Zakrzewski, J. Gao, N. Rega, 
 G. Zheng, W. Liang, M. Hada, M. Ehara, K. Toyota, R. Fukuda, 
 J. Hasegawa, M. Ishida, T. Nakajima, Y. Honda, O. Kitao, H. Nakai, 
 T. Vreven, K. Throssell, J. A. Montgomery, Jr., J. E. Peralta, 
 F. Ogliaro, M. J. Bearpark, J. J. Heyd, E. N. Brothers, K. N. Kudin, 
 V. N. Staroverov, T. A. Keith, R. Kobayashi, J. Normand, 
 K. Raghavachari, A. P. Rendell, J. C. Burant, S. S. Iyengar, 
 J. Tomasi, M. Cossi, J. M. Millam, M. Klene, C. Adamo, R. Cammi, 
 J. W. Ochterski, R. L. Martin, K. Morokuma, O. Farkas, 
 J. B. Foresman, and D. J. Fox, Gaussian, Inc., Wallingford CT, 2019.
 
 ******************************************
 Gaussian 16:  ES64L-G16RevC.01  3-Jul-2019
                 8-Apr-2024 
 ******************************************
 %nprocshared=28
 Will use up to   28 processors via shared memory.
 %mem=56GB
 -----------------------------------------------------
 #p opt=(calcfc,ts,noeigen) freq b3lyp/6-31g* em=gd3bj
 -----------------------------------------------------
 1/5=1,10=4,11=1,18=20,26=3,38=1/1,3;
 2/9=110,12=2,17=6,18=5,40=1/2;
 3/5=1,6=6,7=1,11=2,25=1,30=1,71=2,74=-5,124=41,140=1/1,2,3;
 4//1;
 5/5=2,38=5/2;
 8/6=4,10=90,11=11/1;
 11/6=1,8=1,9=11,15=111,16=1/1,2,10;
 10/6=1,13=1/2;
 6/7=2,8=2,9=2,10=2,28=1/1;
 7/10=1,25=1/1,2,3,16;
 1/5=1,10=4,11=1,18=20,26=3/3(2);
 2/9=110/2;
 99//99;
 2/9=110/2;
 3/5=1,6=6,7=1,11=2,25=1,30=1,71=1,74=-5,124=41/1,2,3;
 4/5=5,16=3,69=1/1;
 5/5=2,38=5/2;
 7//1,2,3,16;
 1/5=1,11=1,18=20,26=3/3(-5);
 2/9=110/2;
 6/7=2,8=2,9=2,10=2,19=2,28=1/1;
 99/9=1/99;
 Leave Link    1 at Mon Apr  8 10:51:31 2024, MaxMem=  7516192768 cpu:               0.9 elap:               0.0
 (Enter /public3/home/scg9909/software-scg9909/g16/l101.exe)
 -------------------------
 $$$$2 5 1 2 16 1####0????
 -------------------------
 Symbolic Z-matrix:
 Charge =  0 Multiplicity = 1
 C                     3.40227  -0.0986    0.22033 
 C                     2.82172   1.10364   0.34441 
 C                     1.38351   1.50533   0.4689 
 C                     0.62085   1.0591    1.61619 
 C                     0.21401  -0.22493   1.80577 
 C                     0.35524  -1.30561   0.86332 
 C                     1.5763   -1.89833   0.28299 
 C                     2.81502  -1.42735   0.0408 
 H                     4.4915   -0.09605   0.19868 
 H                     3.50296   1.95014   0.43767 
 H                     1.29028   2.58036   0.3075 
 H                     0.20398   1.82176   2.27244 
 H                    -0.49608  -0.39942   2.61199 
 H                    -0.38905  -2.08303   1.03733 
 H                     1.4202   -2.9362   -0.01199 
 H                     3.51145  -2.15268  -0.37831 
 C                     1.33013   0.60642  -2.33466 
 C                     0.32248   0.8002   -1.22258 
 C                    -0.51048  -0.34975  -0.88373 
 N                    -1.84972  -0.11432  -0.51221 
 C                    -2.35327   1.02141   0.10303 
 C                    -3.66346   0.7814    0.44715 
 C                    -3.97572  -0.55074   0.03897 
 C                    -2.84494  -1.07729  -0.53884 
 H                     0.812     0.44674  -3.291 
 H                     1.97218  -0.25662  -2.14927 
 H                     1.97021   1.48578  -2.44639 
 H                    -0.25363   1.71706  -1.33634 
 H                    -0.41408  -1.21882  -1.52985 
 H                    -1.73112   1.88728   0.25616 
 H                    -4.32897   1.48551   0.92739 
 H                    -4.92724  -1.05455   0.14129 
 H                    -2.64855  -2.04645  -0.97412 
 
 Add virtual bond connecting atoms C18        and C3         Dist= 4.00D+00.
 Add virtual bond connecting atoms C19        and C6         Dist= 4.10D+00.
 ITRead=  0  0  0  0  0  0  0  0  0  0  0  0  0  0  0  0  0  0  0  0
 ITRead=  0  0  0  0  0  0  0  0  0  0  0  0  0
 MicOpt= -1 -1 -1 -1 -1 -1 -1 -1 -1 -1 -1 -1 -1 -1 -1 -1 -1 -1 -1 -1
 MicOpt= -1 -1 -1 -1 -1 -1 -1 -1 -1 -1 -1 -1 -1
 NAtoms=     33 NQM=       33 NQMF=       0 NMMI=      0 NMMIF=      0
                NMic=       0 NMicF=      0.
                    Isotopes and Nuclear Properties:
 (Nuclear quadrupole moments (NQMom) in fm**2, nuclear magnetic moments (NMagM)
  in nuclear magnetons)

  Atom         1           2           3           4           5           6           7           8           9          10
 IAtWgt=          12          12          12          12          12          12          12          12           1           1
 AtmWgt=  12.0000000  12.0000000  12.0000000  12.0000000  12.0000000  12.0000000  12.0000000  12.0000000   1.0078250   1.0078250
 NucSpn=           0           0           0           0           0           0           0           0           1           1
 AtZEff=  -0.0000000  -0.0000000  -0.0000000  -0.0000000  -0.0000000  -0.0000000  -0.0000000  -0.0000000  -0.0000000  -0.0000000
 NQMom=    0.0000000   0.0000000   0.0000000   0.0000000   0.0000000   0.0000000   0.0000000   0.0000000   0.0000000   0.0000000
 NMagM=    0.0000000   0.0000000   0.0000000   0.0000000   0.0000000   0.0000000   0.0000000   0.0000000   2.7928460   2.7928460
 AtZNuc=   6.0000000   6.0000000   6.0000000   6.0000000   6.0000000   6.0000000   6.0000000   6.0000000   1.0000000   1.0000000

  Atom        11          12          13          14          15          16          17          18          19          20
 IAtWgt=           1           1           1           1           1           1          12          12          12          14
 AtmWgt=   1.0078250   1.0078250   1.0078250   1.0078250   1.0078250   1.0078250  12.0000000  12.0000000  12.0000000  14.0030740
 NucSpn=           1           1           1           1           1           1           0           0           0           2
 AtZEff=  -0.0000000  -0.0000000  -0.0000000  -0.0000000  -0.0000000  -0.0000000  -0.0000000  -0.0000000  -0.0000000  -0.0000000
 NQMom=    0.0000000   0.0000000   0.0000000   0.0000000   0.0000000   0.0000000   0.0000000   0.0000000   0.0000000   2.0440000
 NMagM=    2.7928460   2.7928460   2.7928460   2.7928460   2.7928460   2.7928460   0.0000000   0.0000000   0.0000000   0.4037610
 AtZNuc=   1.0000000   1.0000000   1.0000000   1.0000000   1.0000000   1.0000000   6.0000000   6.0000000   6.0000000   7.0000000

  Atom        21          22          23          24          25          26          27          28          29          30
 IAtWgt=          12          12          12          12           1           1           1           1           1           1
 AtmWgt=  12.0000000  12.0000000  12.0000000  12.0000000   1.0078250   1.0078250   1.0078250   1.0078250   1.0078250   1.0078250
 NucSpn=           0           0           0           0           1           1           1           1           1           1
 AtZEff=  -0.0000000  -0.0000000  -0.0000000  -0.0000000  -0.0000000  -0.0000000  -0.0000000  -0.0000000  -0.0000000  -0.0000000
 NQMom=    0.0000000   0.0000000   0.0000000   0.0000000   0.0000000   0.0000000   0.0000000   0.0000000   0.0000000   0.0000000
 NMagM=    0.0000000   0.0000000   0.0000000   0.0000000   2.7928460   2.7928460   2.7928460   2.7928460   2.7928460   2.7928460
 AtZNuc=   6.0000000   6.0000000   6.0000000   6.0000000   1.0000000   1.0000000   1.0000000   1.0000000   1.0000000   1.0000000

  Atom        31          32          33
 IAtWgt=           1           1           1
 AtmWgt=   1.0078250   1.0078250   1.0078250
 NucSpn=           1           1           1
 AtZEff=  -0.0000000  -0.0000000  -0.0000000
 NQMom=    0.0000000   0.0000000   0.0000000
 NMagM=    2.7928460   2.7928460   2.7928460
 AtZNuc=   1.0000000   1.0000000   1.0000000
 Leave Link  101 at Mon Apr  8 10:51:31 2024, MaxMem=  7516192768 cpu:               4.0 elap:               0.2
 (Enter /public3/home/scg9909/software-scg9909/g16/l103.exe)

 GradGradGradGradGradGradGradGradGradGradGradGradGradGradGradGradGradGrad
 Berny optimization.
 Initialization pass.
                           ----------------------------
                           !    Initial Parameters    !
                           ! (Angstroms and Degrees)  !
 --------------------------                            --------------------------
 ! Name  Definition              Value          Derivative Info.                !
 --------------------------------------------------------------------------------
 ! R1    R(1,2)                  1.3408         calculate D2E/DX2 analytically  !
 ! R2    R(1,8)                  1.4638         calculate D2E/DX2 analytically  !
 ! R3    R(1,9)                  1.0894         calculate D2E/DX2 analytically  !
 ! R4    R(2,3)                  1.4984         calculate D2E/DX2 analytically  !
 ! R5    R(2,10)                 1.0906         calculate D2E/DX2 analytically  !
 ! R6    R(3,4)                  1.4481         calculate D2E/DX2 analytically  !
 ! R7    R(3,11)                 1.0911         calculate D2E/DX2 analytically  !
 ! R8    R(3,18)                 2.1176         calculate D2E/DX2 analytically  !
 ! R9    R(4,5)                  1.3602         calculate D2E/DX2 analytically  !
 ! R10   R(4,12)                 1.0891         calculate D2E/DX2 analytically  !
 ! R11   R(5,6)                  1.4408         calculate D2E/DX2 analytically  !
 ! R12   R(5,13)                 1.0884         calculate D2E/DX2 analytically  !
 ! R13   R(6,7)                  1.4762         calculate D2E/DX2 analytically  !
 ! R14   R(6,14)                 1.0902         calculate D2E/DX2 analytically  !
 ! R15   R(6,19)                 2.1715         calculate D2E/DX2 analytically  !
 ! R16   R(7,8)                  1.3472         calculate D2E/DX2 analytically  !
 ! R17   R(7,15)                 1.0902         calculate D2E/DX2 analytically  !
 ! R18   R(8,16)                 1.0894         calculate D2E/DX2 analytically  !
 ! R19   R(17,18)                1.5131         calculate D2E/DX2 analytically  !
 ! R20   R(17,25)                1.0993         calculate D2E/DX2 analytically  !
 ! R21   R(17,26)                1.0915         calculate D2E/DX2 analytically  !
 ! R22   R(17,27)                1.0934         calculate D2E/DX2 analytically  !
 ! R23   R(18,19)                1.4598         calculate D2E/DX2 analytically  !
 ! R24   R(18,28)                1.0888         calculate D2E/DX2 analytically  !
 ! R25   R(19,20)                1.4096         calculate D2E/DX2 analytically  !
 ! R26   R(19,29)                1.0872         calculate D2E/DX2 analytically  !
 ! R27   R(20,21)                1.3863         calculate D2E/DX2 analytically  !
 ! R28   R(20,24)                1.3851         calculate D2E/DX2 analytically  !
 ! R29   R(21,22)                1.3757         calculate D2E/DX2 analytically  !
 ! R30   R(21,30)                1.0772         calculate D2E/DX2 analytically  !
 ! R31   R(22,23)                1.4278         calculate D2E/DX2 analytically  !
 ! R32   R(22,31)                1.0813         calculate D2E/DX2 analytically  !
 ! R33   R(23,24)                1.3747         calculate D2E/DX2 analytically  !
 ! R34   R(23,32)                1.0815         calculate D2E/DX2 analytically  !
 ! R35   R(24,33)                1.0804         calculate D2E/DX2 analytically  !
 ! A1    A(2,1,8)              130.6599         calculate D2E/DX2 analytically  !
 ! A2    A(2,1,9)              115.6352         calculate D2E/DX2 analytically  !
 ! A3    A(8,1,9)              113.6275         calculate D2E/DX2 analytically  !
 ! A4    A(1,2,3)              131.5774         calculate D2E/DX2 analytically  !
 ! A5    A(1,2,10)             115.6847         calculate D2E/DX2 analytically  !
 ! A6    A(3,2,10)             112.605          calculate D2E/DX2 analytically  !
 ! A7    A(2,3,4)              119.2555         calculate D2E/DX2 analytically  !
 ! A8    A(2,3,11)             109.5029         calculate D2E/DX2 analytically  !
 ! A9    A(2,3,18)             108.9832         calculate D2E/DX2 analytically  !
 ! A10   A(4,3,11)             112.0749         calculate D2E/DX2 analytically  !
 ! A11   A(4,3,18)             105.4471         calculate D2E/DX2 analytically  !
 ! A12   A(11,3,18)             99.6202         calculate D2E/DX2 analytically  !
 ! A13   A(3,4,5)              123.9748         calculate D2E/DX2 analytically  !
 ! A14   A(3,4,12)             117.5931         calculate D2E/DX2 analytically  !
 ! A15   A(5,4,12)             117.5546         calculate D2E/DX2 analytically  !
 ! A16   A(4,5,6)              125.9832         calculate D2E/DX2 analytically  !
 ! A17   A(4,5,13)             116.7245         calculate D2E/DX2 analytically  !
 ! A18   A(6,5,13)             115.3539         calculate D2E/DX2 analytically  !
 ! A19   A(5,6,7)              129.7452         calculate D2E/DX2 analytically  !
 ! A20   A(5,6,14)             111.3161         calculate D2E/DX2 analytically  !
 ! A21   A(5,6,19)              99.0335         calculate D2E/DX2 analytically  !
 ! A22   A(7,6,14)             109.946          calculate D2E/DX2 analytically  !
 ! A23   A(7,6,19)             100.9667         calculate D2E/DX2 analytically  !
 ! A24   A(14,6,19)             99.7957         calculate D2E/DX2 analytically  !
 ! A25   A(6,7,8)              133.6998         calculate D2E/DX2 analytically  !
 ! A26   A(6,7,15)             111.7265         calculate D2E/DX2 analytically  !
 ! A27   A(8,7,15)             114.5722         calculate D2E/DX2 analytically  !
 ! A28   A(1,8,7)              131.6206         calculate D2E/DX2 analytically  !
 ! A29   A(1,8,16)             113.2727         calculate D2E/DX2 analytically  !
 ! A30   A(7,8,16)             115.0997         calculate D2E/DX2 analytically  !
 ! A31   A(18,17,25)           110.1265         calculate D2E/DX2 analytically  !
 ! A32   A(18,17,26)           111.6006         calculate D2E/DX2 analytically  !
 ! A33   A(18,17,27)           111.2203         calculate D2E/DX2 analytically  !
 ! A34   A(25,17,26)           108.0672         calculate D2E/DX2 analytically  !
 ! A35   A(25,17,27)           107.6885         calculate D2E/DX2 analytically  !
 ! A36   A(26,17,27)           107.9934         calculate D2E/DX2 analytically  !
 ! A37   A(3,18,17)            107.2198         calculate D2E/DX2 analytically  !
 ! A38   A(3,18,19)            111.2723         calculate D2E/DX2 analytically  !
 ! A39   A(3,18,28)             93.9094         calculate D2E/DX2 analytically  !
 ! A40   A(17,18,19)           116.7239         calculate D2E/DX2 analytically  !
 ! A41   A(17,18,28)           112.5449         calculate D2E/DX2 analytically  !
 ! A42   A(19,18,28)           112.6859         calculate D2E/DX2 analytically  !
 ! A43   A(6,19,18)            107.8197         calculate D2E/DX2 analytically  !
 ! A44   A(6,19,20)            103.9009         calculate D2E/DX2 analytically  !
 ! A45   A(6,19,29)             95.216          calculate D2E/DX2 analytically  !
 ! A46   A(18,19,20)           118.1465         calculate D2E/DX2 analytically  !
 ! A47   A(18,19,29)           116.1768         calculate D2E/DX2 analytically  !
 ! A48   A(20,19,29)           111.9856         calculate D2E/DX2 analytically  !
 ! A49   A(19,20,21)           126.7891         calculate D2E/DX2 analytically  !
 ! A50   A(19,20,24)           124.1573         calculate D2E/DX2 analytically  !
 ! A51   A(21,20,24)           108.4883         calculate D2E/DX2 analytically  !
 ! A52   A(20,21,22)           108.3005         calculate D2E/DX2 analytically  !
 ! A53   A(20,21,30)           120.7863         calculate D2E/DX2 analytically  !
 ! A54   A(22,21,30)           130.9008         calculate D2E/DX2 analytically  !
 ! A55   A(21,22,23)           107.4299         calculate D2E/DX2 analytically  !
 ! A56   A(21,22,31)           125.7056         calculate D2E/DX2 analytically  !
 ! A57   A(23,22,31)           126.8602         calculate D2E/DX2 analytically  !
 ! A58   A(22,23,24)           107.3145         calculate D2E/DX2 analytically  !
 ! A59   A(22,23,32)           126.8683         calculate D2E/DX2 analytically  !
 ! A60   A(24,23,32)           125.8056         calculate D2E/DX2 analytically  !
 ! A61   A(20,24,23)           108.461          calculate D2E/DX2 analytically  !
 ! A62   A(20,24,33)           120.052          calculate D2E/DX2 analytically  !
 ! A63   A(23,24,33)           131.4861         calculate D2E/DX2 analytically  !
 ! D1    D(8,1,2,3)              6.4023         calculate D2E/DX2 analytically  !
 ! D2    D(8,1,2,10)          -178.1659         calculate D2E/DX2 analytically  !
 ! D3    D(9,1,2,3)           -177.0458         calculate D2E/DX2 analytically  !
 ! D4    D(9,1,2,10)            -1.6139         calculate D2E/DX2 analytically  !
 ! D5    D(2,1,8,7)            -19.6553         calculate D2E/DX2 analytically  !
 ! D6    D(2,1,8,16)           159.3177         calculate D2E/DX2 analytically  !
 ! D7    D(9,1,8,7)            163.7378         calculate D2E/DX2 analytically  !
 ! D8    D(9,1,8,16)           -17.2893         calculate D2E/DX2 analytically  !
 ! D9    D(1,2,3,4)             62.7059         calculate D2E/DX2 analytically  !
 ! D10   D(1,2,3,11)          -166.346          calculate D2E/DX2 analytically  !
 ! D11   D(1,2,3,18)           -58.3277         calculate D2E/DX2 analytically  !
 ! D12   D(10,2,3,4)          -112.8349         calculate D2E/DX2 analytically  !
 ! D13   D(10,2,3,11)           18.1132         calculate D2E/DX2 analytically  !
 ! D14   D(10,2,3,18)          126.1315         calculate D2E/DX2 analytically  !
 ! D15   D(2,3,4,5)            -71.6725         calculate D2E/DX2 analytically  !
 ! D16   D(2,3,4,12)           119.3355         calculate D2E/DX2 analytically  !
 ! D17   D(11,3,4,5)           158.5279         calculate D2E/DX2 analytically  !
 ! D18   D(11,3,4,12)          -10.4641         calculate D2E/DX2 analytically  !
 ! D19   D(18,3,4,5)            51.1207         calculate D2E/DX2 analytically  !
 ! D20   D(18,3,4,12)         -117.8713         calculate D2E/DX2 analytically  !
 ! D21   D(2,3,18,17)          -23.0931         calculate D2E/DX2 analytically  !
 ! D22   D(2,3,18,19)          105.6537         calculate D2E/DX2 analytically  !
 ! D23   D(2,3,18,28)         -138.1498         calculate D2E/DX2 analytically  !
 ! D24   D(4,3,18,17)         -152.2347         calculate D2E/DX2 analytically  !
 ! D25   D(4,3,18,19)          -23.4879         calculate D2E/DX2 analytically  !
 ! D26   D(4,3,18,28)           92.7085         calculate D2E/DX2 analytically  !
 ! D27   D(11,3,18,17)          91.5144         calculate D2E/DX2 analytically  !
 ! D28   D(11,3,18,19)        -139.7388         calculate D2E/DX2 analytically  !
 ! D29   D(11,3,18,28)         -23.5424         calculate D2E/DX2 analytically  !
 ! D30   D(3,4,5,6)             -6.2565         calculate D2E/DX2 analytically  !
 ! D31   D(3,4,5,13)          -169.6012         calculate D2E/DX2 analytically  !
 ! D32   D(12,4,5,6)           162.7394         calculate D2E/DX2 analytically  !
 ! D33   D(12,4,5,13)           -0.6053         calculate D2E/DX2 analytically  !
 ! D34   D(4,5,6,7)             61.2957         calculate D2E/DX2 analytically  !
 ! D35   D(4,5,6,14)          -155.5048         calculate D2E/DX2 analytically  !
 ! D36   D(4,5,6,19)           -51.2071         calculate D2E/DX2 analytically  !
 ! D37   D(13,5,6,7)          -135.1605         calculate D2E/DX2 analytically  !
 ! D38   D(13,5,6,14)            8.039          calculate D2E/DX2 analytically  !
 ! D39   D(13,5,6,19)          112.3367         calculate D2E/DX2 analytically  !
 ! D40   D(5,6,7,8)            -26.786          calculate D2E/DX2 analytically  !
 ! D41   D(5,6,7,15)           153.6919         calculate D2E/DX2 analytically  !
 ! D42   D(14,6,7,8)          -170.3687         calculate D2E/DX2 analytically  !
 ! D43   D(14,6,7,15)           10.1092         calculate D2E/DX2 analytically  !
 ! D44   D(19,6,7,8)            84.8765         calculate D2E/DX2 analytically  !
 ! D45   D(19,6,7,15)          -94.6456         calculate D2E/DX2 analytically  !
 ! D46   D(5,6,19,18)           62.7071         calculate D2E/DX2 analytically  !
 ! D47   D(5,6,19,20)          -63.4502         calculate D2E/DX2 analytically  !
 ! D48   D(5,6,19,29)         -177.6466         calculate D2E/DX2 analytically  !
 ! D49   D(7,6,19,18)          -70.9432         calculate D2E/DX2 analytically  !
 ! D50   D(7,6,19,20)          162.8995         calculate D2E/DX2 analytically  !
 ! D51   D(7,6,19,29)           48.703          calculate D2E/DX2 analytically  !
 ! D52   D(14,6,19,18)         176.3462         calculate D2E/DX2 analytically  !
 ! D53   D(14,6,19,20)          50.1889         calculate D2E/DX2 analytically  !
 ! D54   D(14,6,19,29)         -64.0076         calculate D2E/DX2 analytically  !
 ! D55   D(6,7,8,1)             -3.0011         calculate D2E/DX2 analytically  !
 ! D56   D(6,7,8,16)           178.0408         calculate D2E/DX2 analytically  !
 ! D57   D(15,7,8,1)           176.5108         calculate D2E/DX2 analytically  !
 ! D58   D(15,7,8,16)           -2.4474         calculate D2E/DX2 analytically  !
 ! D59   D(25,17,18,3)        -168.0895         calculate D2E/DX2 analytically  !
 ! D60   D(25,17,18,19)         66.3692         calculate D2E/DX2 analytically  !
 ! D61   D(25,17,18,28)        -66.2046         calculate D2E/DX2 analytically  !
 ! D62   D(26,17,18,3)          71.8873         calculate D2E/DX2 analytically  !
 ! D63   D(26,17,18,19)        -53.654          calculate D2E/DX2 analytically  !
 ! D64   D(26,17,18,28)        173.7722         calculate D2E/DX2 analytically  !
 ! D65   D(27,17,18,3)         -48.786          calculate D2E/DX2 analytically  !
 ! D66   D(27,17,18,19)       -174.3274         calculate D2E/DX2 analytically  !
 ! D67   D(27,17,18,28)         53.0988         calculate D2E/DX2 analytically  !
 ! D68   D(3,18,19,6)          -24.5652         calculate D2E/DX2 analytically  !
 ! D69   D(3,18,19,20)          92.7035         calculate D2E/DX2 analytically  !
 ! D70   D(3,18,19,29)        -129.8973         calculate D2E/DX2 analytically  !
 ! D71   D(17,18,19,6)          98.9178         calculate D2E/DX2 analytically  !
 ! D72   D(17,18,19,20)       -143.8135         calculate D2E/DX2 analytically  !
 ! D73   D(17,18,19,29)         -6.4143         calculate D2E/DX2 analytically  !
 ! D74   D(28,18,19,6)        -128.5725         calculate D2E/DX2 analytically  !
 ! D75   D(28,18,19,20)        -11.3038         calculate D2E/DX2 analytically  !
 ! D76   D(28,18,19,29)        126.0954         calculate D2E/DX2 analytically  !
 ! D77   D(6,19,20,21)          90.3323         calculate D2E/DX2 analytically  !
 ! D78   D(6,19,20,24)         -80.0354         calculate D2E/DX2 analytically  !
 ! D79   D(18,19,20,21)        -29.0045         calculate D2E/DX2 analytically  !
 ! D80   D(18,19,20,24)        160.6277         calculate D2E/DX2 analytically  !
 ! D81   D(29,19,20,21)       -168.077          calculate D2E/DX2 analytically  !
 ! D82   D(29,19,20,24)         21.5553         calculate D2E/DX2 analytically  !
 ! D83   D(19,20,21,22)       -172.342          calculate D2E/DX2 analytically  !
 ! D84   D(19,20,21,30)          6.5136         calculate D2E/DX2 analytically  !
 ! D85   D(24,20,21,22)         -0.7369         calculate D2E/DX2 analytically  !
 ! D86   D(24,20,21,30)        178.1187         calculate D2E/DX2 analytically  !
 ! D87   D(19,20,24,23)        172.6473         calculate D2E/DX2 analytically  !
 ! D88   D(19,20,24,33)         -7.6601         calculate D2E/DX2 analytically  !
 ! D89   D(21,20,24,23)          0.7699         calculate D2E/DX2 analytically  !
 ! D90   D(21,20,24,33)       -179.5374         calculate D2E/DX2 analytically  !
 ! D91   D(20,21,22,23)          0.4206         calculate D2E/DX2 analytically  !
 ! D92   D(20,21,22,31)       -178.8726         calculate D2E/DX2 analytically  !
 ! D93   D(30,21,22,23)       -178.2787         calculate D2E/DX2 analytically  !
 ! D94   D(30,21,22,31)          2.4281         calculate D2E/DX2 analytically  !
 ! D95   D(21,22,23,24)          0.0499         calculate D2E/DX2 analytically  !
 ! D96   D(21,22,23,32)       -178.7662         calculate D2E/DX2 analytically  !
 ! D97   D(31,22,23,24)        179.3325         calculate D2E/DX2 analytically  !
 ! D98   D(31,22,23,32)          0.5165         calculate D2E/DX2 analytically  !
 ! D99   D(22,23,24,20)         -0.502          calculate D2E/DX2 analytically  !
 ! D100  D(22,23,24,33)        179.8532         calculate D2E/DX2 analytically  !
 ! D101  D(32,23,24,20)        178.3302         calculate D2E/DX2 analytically  !
 ! D102  D(32,23,24,33)         -1.3147         calculate D2E/DX2 analytically  !
 --------------------------------------------------------------------------------
 Trust Radius=3.00D-01 FncErr=1.00D-07 GrdErr=1.00D-06 EigMax=2.50D+02 EigMin=1.00D-04
 Number of steps in this run=    198 maximum allowed number of steps=    198.
 Search for a saddle point of order  1.
 GradGradGradGradGradGradGradGradGradGradGradGradGradGradGradGradGradGrad

 Leave Link  103 at Mon Apr  8 10:51:31 2024, MaxMem=  7516192768 cpu:               0.2 elap:               0.0
 (Enter /public3/home/scg9909/software-scg9909/g16/l202.exe)
                          Input orientation:                          
 ---------------------------------------------------------------------
 Center     Atomic      Atomic             Coordinates (Angstroms)
 Number     Number       Type             X           Y           Z
 ---------------------------------------------------------------------
      1          6           0        3.402274   -0.098595    0.220330
      2          6           0        2.821724    1.103644    0.344406
      3          6           0        1.383510    1.505334    0.468900
      4          6           0        0.620847    1.059095    1.616194
      5          6           0        0.214012   -0.224930    1.805767
      6          6           0        0.355236   -1.305614    0.863316
      7          6           0        1.576303   -1.898333    0.282991
      8          6           0        2.815021   -1.427345    0.040804
      9          1           0        4.491498   -0.096052    0.198679
     10          1           0        3.502961    1.950139    0.437670
     11          1           0        1.290281    2.580362    0.307496
     12          1           0        0.203976    1.821761    2.272440
     13          1           0       -0.496075   -0.399420    2.611988
     14          1           0       -0.389045   -2.083030    1.037332
     15          1           0        1.420201   -2.936201   -0.011991
     16          1           0        3.511451   -2.152685   -0.378305
     17          6           0        1.330126    0.606424   -2.334660
     18          6           0        0.322482    0.800203   -1.222579
     19          6           0       -0.510483   -0.349746   -0.883728
     20          7           0       -1.849720   -0.114323   -0.512205
     21          6           0       -2.353267    1.021406    0.103029
     22          6           0       -3.663458    0.781398    0.447149
     23          6           0       -3.975724   -0.550744    0.038969
     24          6           0       -2.844936   -1.077289   -0.538842
     25          1           0        0.812000    0.446735   -3.291001
     26          1           0        1.972183   -0.256619   -2.149266
     27          1           0        1.970210    1.485782   -2.446393
     28          1           0       -0.253629    1.717064   -1.336343
     29          1           0       -0.414082   -1.218820   -1.529851
     30          1           0       -1.731120    1.887280    0.256158
     31          1           0       -4.328971    1.485510    0.927387
     32          1           0       -4.927240   -1.054552    0.141291
     33          1           0       -2.648550   -2.046446   -0.974123
 ---------------------------------------------------------------------
                    Distance matrix (angstroms):
                    1          2          3          4          5
     1  C    0.000000
     2  C    1.340825   0.000000
     3  C    2.590325   1.498437   0.000000
     4  C    3.320394   2.542300   1.448126   0.000000
     5  C    3.562946   3.271215   2.479668   1.360211   0.000000
     6  C    3.339875   3.486740   3.018997   2.495841   1.440846
     7  C    2.564596   3.250648   3.414188   3.381820   2.641015
     8  C    1.463787   2.549142   3.291367   3.671326   3.365434
     9  H    1.089442   2.061226   3.506714   4.280847   4.571239
    10  H    2.062689   1.090567   2.165848   3.238743   4.173703
    11  H    3.412466   2.127763   1.091067   2.115440   3.357504
    12  H    4.257703   3.329506   2.178115   1.089082   2.099245
    13  H    4.583410   4.290562   3.428375   2.089590   1.088422
    14  H    4.356555   4.576470   4.042453   3.350808   2.099215
    15  H    3.469091   4.290878   4.467643   4.387749   3.479961
    16  H    2.142328   3.406129   4.315900   4.759112   4.399945
    17  C    3.364346   3.106362   2.944629   4.039460   4.368065
    18  C    3.517804   2.965422   2.117567   2.866126   3.198991
    19  C    4.073290   3.837220   2.976262   3.084534   2.788163
    20  N    5.302857   4.903021   3.746950   3.465645   3.105514
    21  C    5.864675   5.181270   3.785703   3.337131   3.323190
    22  C    7.123932   6.493996   5.098671   4.449612   4.230049
    23  C    7.394064   7.002542   5.756187   5.119344   4.558686
    24  C    6.368816   6.135767   5.056208   4.606514   3.947261
    25  H    4.397312   4.205556   3.947672   4.948948   5.175497
    26  H    2.772204   2.964867   3.210266   4.211401   4.328332
    27  H    3.416500   2.942731   2.973808   4.302029   4.908323
    28  H    4.368693   3.557948   2.446213   3.148826   3.723289
    29  H    4.345413   4.401945   3.827187   4.019648   3.536759
    30  H    5.504245   4.620634   3.145165   2.840306   3.262860
    31  H    7.923476   7.184576   5.730885   5.015674   4.933138
    32  H    8.384563   8.046459   6.818058   6.117525   5.467287
    33  H    6.467868   6.448681   5.563719   5.200297   4.386339
                    6          7          8          9         10
     6  C    0.000000
     7  C    1.476177   0.000000
     8  C    2.596514   1.347185   0.000000
     9  H    4.360441   3.428365   2.146588   0.000000
    10  H    4.548546   4.306585   3.469605   2.284999   0.000000
    11  H    4.035351   4.487886   4.296239   4.174066   2.304361
    12  H    3.433509   4.436247   4.728049   5.134329   3.777058
    13  H    2.145640   3.459150   4.316361   5.549052   5.122536
    14  H    1.090235   2.113229   3.418922   5.335834   5.636822
    15  H    2.135211   1.090207   2.055470   4.188519   5.330704
    16  H    3.495833   2.060778   1.089397   2.350137   4.183187
    17  C    3.851409   3.631323   3.461785   4.111636   3.769960
    18  C    2.964202   3.334802   3.573634   4.494880   3.767523
    19  C    2.171478   2.848514   3.615931   5.124039   4.810748
    20  N    2.858857   3.943686   4.877464   6.380967   5.815106
    21  C    3.650897   4.898855   5.719393   6.936041   5.938850
    22  C    4.547386   5.887529   6.856701   8.205788   7.261102
    23  C    4.472873   5.718439   6.847091   8.480926   7.895828
    24  C    3.501325   4.571310   5.700319   7.438416   7.100330
    25  H    4.531855   4.342456   4.315692   5.100117   4.837818
    26  H    3.576389   2.961050   2.622476   3.447546   3.728981
    27  H    4.621061   4.365425   3.922520   3.981896   3.298905
    28  H    3.787585   4.363713   4.604395   5.306591   4.160939
    29  H    2.515280   2.776647   3.596880   5.321009   5.408943
    30  H    3.862136   5.026990   5.630321   6.531300   5.237605
    31  H    5.453098   6.836512   7.765782   8.990719   7.860971
    32  H    5.337500   6.559582   7.751882   9.467557   8.954569
    33  H    3.598297   4.410403   5.591419   7.493983   7.470404
                   11         12         13         14         15
    11  H    0.000000
    12  H    2.369924   0.000000
    13  H    4.169035   2.353510   0.000000
    14  H    5.009992   4.138183   2.307713   0.000000
    15  H    5.527334   5.416275   4.122213   2.258838   0.000000
    16  H    5.273107   5.810513   5.298684   4.150030   2.263053
    17  C    3.298334   4.895981   5.368059   4.643172   4.237109
    18  C    2.539041   3.643183   4.100370   3.731823   4.078140
    19  C    3.639684   3.897087   3.496099   2.590269   3.343234
    20  N    4.218156   3.964888   3.416755   2.900076   4.348056
    21  C    3.968324   3.447666   3.429692   3.790595   5.469456
    22  C    5.272125   4.401260   4.014122   4.390335   6.314661
    23  C    6.132433   5.299723   4.330275   4.026027   5.899916
    24  C    5.585223   5.060006   3.988030   3.086623   4.682363
    25  H    4.210736   5.763008   6.105106   5.155258   4.750376
    26  H    3.814332   5.195931   5.364907   4.366415   3.471713
    27  H    3.040446   5.049738   5.934961   5.517141   5.077672
    28  H    2.414777   3.639187   4.486380   4.482565   5.119423
    29  H    4.551316   4.907601   4.222910   2.708858   2.935624
    30  H    3.100300   2.795404   3.507744   4.263187   5.767902
    31  H    5.758382   4.740236   4.591507   5.316915   7.313476
    32  H    7.204012   6.256545   5.115542   4.738763   6.622243
    33  H    6.210015   5.800009   4.495112   3.025335   4.274587
                   16         17         18         19         20
    16  H    0.000000
    17  C    4.024697   0.000000
    18  C    4.427400   1.513149   0.000000
    19  C    4.436439   2.531266   1.459806   0.000000
    20  N    5.737160   3.735270   2.461595   1.409613   0.000000
    21  C    6.685915   4.436431   2.994295   2.499920   1.386345
    22  C    7.795482   5.718825   4.321581   3.604438   2.238822
    23  C    7.667993   5.926651   4.678796   3.591610   2.239230
    24  C    6.448713   4.846751   3.744998   2.469400   1.385088
    25  H    4.746348   1.099338   2.154748   2.859774   3.888605
    26  H    3.016739   1.091536   2.167287   2.788170   4.160187
    27  H    4.459916   1.093372   2.163966   3.459035   4.570917
    28  H    5.483486   2.176795   1.088798   2.131323   2.565285
    29  H    4.196185   2.649810   2.171036   1.087225   2.077637
    30  H    6.648941   4.210007   2.754211   2.791698   2.147292
    31  H    8.741482   6.590836   5.169914   4.607510   3.283074
    32  H    8.525690   6.931364   5.732350   4.588590   3.283629
    33  H    6.189661   4.971785   4.122156   2.730987   2.141167
                   21         22         23         24         25
    21  C    0.000000
    22  C    1.375726   0.000000
    23  C    2.260116   1.427839   0.000000
    24  C    2.249057   2.257626   1.374699   0.000000
    25  H    4.676388   5.840847   5.916584   4.823921   0.000000
    26  H    5.041398   6.291208   6.344484   5.145056   1.773215
    27  H    5.040600   6.372359   6.758594   5.778730   1.770433
    28  H    2.638979   3.960208   4.570386   3.893493   2.563199
    29  H    3.383097   4.297423   3.948774   2.628913   2.716431
    30  H    1.077150   2.234588   3.321051   3.265162   4.596190
    31  H    2.190517   1.081346   2.249533   3.304561   6.730783
    32  H    3.307023   2.249757   1.081515   2.190682   6.853712
    33  H    3.264838   3.323666   2.241622   1.080418   4.853790
                   26         27         28         29         30
    26  H    0.000000
    27  H    1.767555   0.000000
    28  H    3.083911   2.496230   0.000000
    29  H    2.646463   3.720184   2.946626   0.000000
    30  H    4.908851   4.600525   2.178993   3.817365   0.000000
    31  H    7.225327   7.145773   4.667601   5.355163   2.713079
    32  H    7.313370   7.792575   5.630977   4.815423   4.345429
    33  H    5.092702   5.998096   4.475585   2.446762   4.222496
                   31         32         33
    31  H    0.000000
    32  H    2.725397   0.000000
    33  H    4.349054   2.724047   0.000000
 Stoichiometry    C15H17N
 Framework group  C1[X(C15H17N)]
 Deg. of freedom    93
 Full point group                 C1      NOp   1
 Largest Abelian subgroup         C1      NOp   1
 Largest concise Abelian subgroup C1      NOp   1
                         Standard orientation:                         
 ---------------------------------------------------------------------
 Center     Atomic      Atomic             Coordinates (Angstroms)
 Number     Number       Type             X           Y           Z
 ---------------------------------------------------------------------
      1          6           0        3.402274    0.098595   -0.220330
      2          6           0        2.821724   -1.103644   -0.344406
      3          6           0        1.383510   -1.505334   -0.468900
      4          6           0        0.620847   -1.059095   -1.616194
      5          6           0        0.214012    0.224930   -1.805767
      6          6           0        0.355236    1.305614   -0.863316
      7          6           0        1.576303    1.898333   -0.282991
      8          6           0        2.815021    1.427345   -0.040804
      9          1           0        4.491498    0.096052   -0.198679
     10          1           0        3.502961   -1.950139   -0.437670
     11          1           0        1.290281   -2.580362   -0.307496
     12          1           0        0.203976   -1.821761   -2.272440
     13          1           0       -0.496075    0.399420   -2.611988
     14          1           0       -0.389045    2.083030   -1.037332
     15          1           0        1.420201    2.936201    0.011991
     16          1           0        3.511451    2.152685    0.378305
     17          6           0        1.330126   -0.606424    2.334660
     18          6           0        0.322482   -0.800203    1.222579
     19          6           0       -0.510483    0.349746    0.883728
     20          7           0       -1.849720    0.114323    0.512205
     21          6           0       -2.353267   -1.021406   -0.103029
     22          6           0       -3.663458   -0.781398   -0.447149
     23          6           0       -3.975724    0.550744   -0.038969
     24          6           0       -2.844936    1.077289    0.538842
     25          1           0        0.812000   -0.446735    3.291001
     26          1           0        1.972183    0.256619    2.149266
     27          1           0        1.970210   -1.485782    2.446393
     28          1           0       -0.253629   -1.717064    1.336343
     29          1           0       -0.414082    1.218820    1.529851
     30          1           0       -1.731120   -1.887280   -0.256158
     31          1           0       -4.328971   -1.485510   -0.927387
     32          1           0       -4.927240    1.054552   -0.141291
     33          1           0       -2.648550    2.046446    0.974123
 ---------------------------------------------------------------------
 Rotational constants (GHZ):           1.0669022           0.3838266           0.3788815
 Leave Link  202 at Mon Apr  8 10:51:31 2024, MaxMem=  7516192768 cpu:               0.1 elap:               0.0
 (Enter /public3/home/scg9909/software-scg9909/g16/l301.exe)
 Standard basis: 6-31G(d) (6D, 7F)
 Ernie: Thresh=  0.10000D-02 Tol=  0.10000D-05 Strict=F.
 There are   274 symmetry adapted cartesian basis functions of A   symmetry.
 There are   274 symmetry adapted basis functions of A   symmetry.
   274 basis functions,   516 primitive gaussians,   274 cartesian basis functions
    57 alpha electrons       57 beta electrons
       nuclear repulsion energy      1076.3129828759 Hartrees.
 IExCor=  402 DFT=T Ex+Corr=B3LYP ExCW=0 ScaHFX=  0.200000
 ScaDFX=  0.800000  0.720000  1.000000  0.810000 ScalE2=  1.000000  1.000000
 IRadAn=      5 IRanWt=     -1 IRanGd=            0 ICorTp=0 IEmpDi=141
 NAtoms=   33 NActive=   33 NUniq=   33 SFac= 1.00D+00 NAtFMM=   60 NAOKFM=F Big=F
 Integral buffers will be    131072 words long.
 Raffenetti 2 integral format.
 Two-electron integral symmetry is turned on.
 R6Disp:  Grimme-D3(BJ) Dispersion energy=       -0.0774850726 Hartrees.
 Nuclear repulsion after empirical dispersion term =     1076.2354978034 Hartrees.
 Leave Link  301 at Mon Apr  8 10:51:31 2024, MaxMem=  7516192768 cpu:               0.8 elap:               0.0
 (Enter /public3/home/scg9909/software-scg9909/g16/l302.exe)
 NPDir=0 NMtPBC=     1 NCelOv=     1 NCel=       1 NClECP=     1 NCelD=      1
         NCelK=      1 NCelE2=     1 NClLst=     1 CellRange=     0.0.
 One-electron integrals computed using PRISM.
 One-electron integral symmetry used in STVInt
 NBasis=   274 RedAO= T EigKep=  9.83D-04  NBF=   274
 NBsUse=   274 1.00D-06 EigRej= -1.00D+00 NBFU=   274
 Precomputing XC quadrature grid using
 IXCGrd= 4 IRadAn=           5 IRanWt=          -1 IRanGd=           0 AccXCQ= 0.00D+00.
 Generated NRdTot=       0 NPtTot=           0 NUsed=           0 NTot=          32
 NSgBfM=   274   274   274   274   274 MxSgAt=    33 MxSgA2=    33.
 Leave Link  302 at Mon Apr  8 10:51:32 2024, MaxMem=  7516192768 cpu:               7.0 elap:               0.3
 (Enter /public3/home/scg9909/software-scg9909/g16/l303.exe)
 DipDrv:  MaxL=1.
 Leave Link  303 at Mon Apr  8 10:51:32 2024, MaxMem=  7516192768 cpu:               0.5 elap:               0.0
 (Enter /public3/home/scg9909/software-scg9909/g16/l401.exe)
 ExpMin= 1.61D-01 ExpMax= 4.17D+03 ExpMxC= 6.27D+02 IAcc=3 IRadAn=         5 AccDes= 0.00D+00
 Harris functional with IExCor=  402 and IRadAn=       5 diagonalized for initial guess.
 HarFok:  IExCor=  402 AccDes= 0.00D+00 IRadAn=         5 IDoV= 1 UseB2=F ITyADJ=14
 ICtDFT=  3500011 ScaDFX=  1.000000  1.000000  1.000000  1.000000
 FoFCou: FMM=F IPFlag=           0 FMFlag=      100000 FMFlg1=           0
         NFxFlg=           0 DoJE=T BraDBF=F KetDBF=T FulRan=T
         wScrn=  0.000000 ICntrl=       500 IOpCl=  0 I1Cent=   200000004 NGrid=           0
         NMat0=    1 NMatS0=      1 NMatT0=    0 NMatD0=    1 NMtDS0=    0 NMtDT0=    0
 Petite list used in FoFCou.
 Harris En= -636.529751788968    
 JPrj=0 DoOrth=F DoCkMO=F.
 Leave Link  401 at Mon Apr  8 10:51:32 2024, MaxMem=  7516192768 cpu:              23.6 elap:               0.9
 (Enter /public3/home/scg9909/software-scg9909/g16/l502.exe)
 Integral symmetry usage will be decided dynamically.
 Closed shell SCF:
 Using DIIS extrapolation, IDIIS=  1040.
 NGot=  7516192768 LenX=  7516030980 LenY=  7515955463
 Requested convergence on RMS density matrix=1.00D-08 within 128 cycles.
 Requested convergence on MAX density matrix=1.00D-06.
 Requested convergence on             energy=1.00D-06.
 No special actions if energy rises.
 Fock matrices will be formed incrementally for  20 cycles.
 Integral accuracy reduced to 1.0D-05 until final iterations.

 Cycle   1  Pass 0  IDiag  1:
 FoFJK:  IHMeth= 1 ICntrl=       0 DoSepK=F KAlg= 0 I1Cent=           0 FoldK=F
 IRaf= 900000000 NMat=       1 IRICut=       1 DoRegI=T DoRafI=F ISym2E= 0 IDoP0=0 IntGTp=1.
 FoFCou: FMM=F IPFlag=           0 FMFlag=      100000 FMFlg1=           0
         NFxFlg=           0 DoJE=F BraDBF=F KetDBF=F FulRan=T
         wScrn=  0.000000 ICntrl=         0 IOpCl=  0 I1Cent=           0 NGrid=           0
         NMat0=    1 NMatS0=      1 NMatT0=    0 NMatD0=    1 NMtDS0=    0 NMtDT0=    0
 Symmetry not used in FoFCou.
 E= -636.064502013820    
 DIIS: error= 2.76D-02 at cycle   1 NSaved=   1.
 NSaved= 1 IEnMin= 1 EnMin= -636.064502013820     IErMin= 1 ErrMin= 2.76D-02
 ErrMax= 2.76D-02  0.00D+00 EMaxC= 1.00D-01 BMatC= 3.77D-01 BMatP= 3.77D-01
 IDIUse=3 WtCom= 7.24D-01 WtEn= 2.76D-01
 Coeff-Com:  0.100D+01
 Coeff-En:   0.100D+01
 Coeff:      0.100D+01
 Gap=     0.115 Goal=   None    Shift=    0.000
 GapD=    0.115 DampG=1.000 DampE=0.500 DampFc=0.5000 IDamp=-1.
 Damping current iteration by 5.00D-01
 RMSDP=5.65D-03 MaxDP=1.40D-01              OVMax= 2.67D-01

 Cycle   2  Pass 0  IDiag  1:
 RMSU=  2.79D-03    CP:  9.77D-01
 E= -636.233228730925     Delta-E=       -0.168726717105 Rises=F Damp=T
 DIIS: error= 6.43D-03 at cycle   2 NSaved=   2.
 NSaved= 2 IEnMin= 2 EnMin= -636.233228730925     IErMin= 2 ErrMin= 6.43D-03
 ErrMax= 6.43D-03  0.00D+00 EMaxC= 1.00D-01 BMatC= 3.68D-02 BMatP= 3.77D-01
 IDIUse=3 WtCom= 9.36D-01 WtEn= 6.43D-02
 Coeff-Com:  0.100D+00 0.900D+00
 Coeff-En:   0.175D+00 0.825D+00
 Coeff:      0.105D+00 0.895D+00
 Gap=     0.112 Goal=   None    Shift=    0.000
 RMSDP=1.90D-03 MaxDP=6.58D-02 DE=-1.69D-01 OVMax= 3.06D-01

 Cycle   3  Pass 0  IDiag  1:
 RMSU=  1.71D-03    CP:  9.68D-01  7.06D-01
 E= -636.418026567079     Delta-E=       -0.184797836153 Rises=F Damp=F
 DIIS: error= 8.76D-03 at cycle   3 NSaved=   3.
 NSaved= 3 IEnMin= 3 EnMin= -636.418026567079     IErMin= 2 ErrMin= 6.43D-03
 ErrMax= 8.76D-03  0.00D+00 EMaxC= 1.00D-01 BMatC= 5.76D-02 BMatP= 3.68D-02
 IDIUse=3 WtCom= 9.65D-02 WtEn= 9.03D-01
 Coeff-Com: -0.178D-02 0.565D+00 0.437D+00
 Coeff-En:   0.000D+00 0.000D+00 0.100D+01
 Coeff:     -0.172D-03 0.546D-01 0.946D+00
 Gap=     0.119 Goal=   None    Shift=    0.000
 RMSDP=3.08D-03 MaxDP=1.44D-01 DE=-1.85D-01 OVMax= 2.92D-01

 Cycle   4  Pass 0  IDiag  1:
 RMSU=  1.75D-03    CP:  9.71D-01  1.13D+00 -3.11D-01
 E= -636.153308796645     Delta-E=        0.264717770433 Rises=F Damp=F
 DIIS: error= 2.37D-02 at cycle   4 NSaved=   4.
 NSaved= 4 IEnMin= 3 EnMin= -636.418026567079     IErMin= 2 ErrMin= 6.43D-03
 ErrMax= 2.37D-02  0.00D+00 EMaxC= 1.00D-01 BMatC= 2.94D-01 BMatP= 3.68D-02
 IDIUse=2 WtCom= 0.00D+00 WtEn= 1.00D+00
 Coeff-En:   0.000D+00 0.000D+00 0.771D+00 0.229D+00
 Coeff:      0.000D+00 0.000D+00 0.771D+00 0.229D+00
 Gap=     0.114 Goal=   None    Shift=    0.000
 RMSDP=1.62D-03 MaxDP=7.90D-02 DE= 2.65D-01 OVMax= 1.91D-01

 Cycle   5  Pass 0  IDiag  1:
 RMSU=  3.32D-04    CP:  9.71D-01  9.08D-01  3.14D-01  4.31D-01
 E= -636.459573990011     Delta-E=       -0.306265193366 Rises=F Damp=F
 DIIS: error= 5.73D-03 at cycle   5 NSaved=   5.
 NSaved= 5 IEnMin= 5 EnMin= -636.459573990011     IErMin= 5 ErrMin= 5.73D-03
 ErrMax= 5.73D-03  0.00D+00 EMaxC= 1.00D-01 BMatC= 2.14D-02 BMatP= 3.68D-02
 IDIUse=3 WtCom= 9.43D-01 WtEn= 5.73D-02
 Coeff-Com:  0.429D-02 0.386D-02 0.308D+00-0.685D-01 0.753D+00
 Coeff-En:   0.000D+00 0.000D+00 0.324D+00 0.000D+00 0.676D+00
 Coeff:      0.404D-02 0.364D-02 0.309D+00-0.646D-01 0.748D+00
 Gap=     0.113 Goal=   None    Shift=    0.000
 RMSDP=5.97D-04 MaxDP=2.55D-02 DE=-3.06D-01 OVMax= 6.63D-02

 Cycle   6  Pass 0  IDiag  1:
 RMSU=  1.20D-04    CP:  9.70D-01  8.24D-01  5.70D-01  2.60D-01  7.63D-01
 E= -636.483091102051     Delta-E=       -0.023517112040 Rises=F Damp=F
 DIIS: error= 6.83D-04 at cycle   6 NSaved=   6.
 NSaved= 6 IEnMin= 6 EnMin= -636.483091102051     IErMin= 6 ErrMin= 6.83D-04
 ErrMax= 6.83D-04  0.00D+00 EMaxC= 1.00D-01 BMatC= 3.57D-04 BMatP= 2.14D-02
 IDIUse=3 WtCom= 9.93D-01 WtEn= 6.83D-03
 Coeff-Com:  0.117D-02-0.138D-03 0.158D+00-0.680D-01 0.507D+00 0.402D+00
 Coeff-En:   0.000D+00 0.000D+00 0.000D+00 0.000D+00 0.000D+00 0.100D+01
 Coeff:      0.116D-02-0.137D-03 0.157D+00-0.675D-01 0.503D+00 0.406D+00
 Gap=     0.113 Goal=   None    Shift=    0.000
 RMSDP=8.07D-05 MaxDP=2.62D-03 DE=-2.35D-02 OVMax= 6.68D-03

 Cycle   7  Pass 0  IDiag  1:
 RMSU=  3.17D-05    CP:  9.70D-01  8.26D-01  5.70D-01  2.57D-01  8.23D-01
                    CP:  4.05D-01
 E= -636.483468740740     Delta-E=       -0.000377638689 Rises=F Damp=F
 DIIS: error= 1.74D-04 at cycle   7 NSaved=   7.
 NSaved= 7 IEnMin= 7 EnMin= -636.483468740740     IErMin= 7 ErrMin= 1.74D-04
 ErrMax= 1.74D-04  0.00D+00 EMaxC= 1.00D-01 BMatC= 1.69D-05 BMatP= 3.57D-04
 IDIUse=3 WtCom= 9.98D-01 WtEn= 1.74D-03
 Coeff-Com:  0.614D-03-0.449D-03 0.676D-01-0.328D-01 0.225D+00 0.228D+00
 Coeff-Com:  0.512D+00
 Coeff-En:   0.000D+00 0.000D+00 0.000D+00 0.000D+00 0.000D+00 0.000D+00
 Coeff-En:   0.100D+01
 Coeff:      0.613D-03-0.448D-03 0.675D-01-0.327D-01 0.224D+00 0.228D+00
 Coeff:      0.513D+00
 Gap=     0.113 Goal=   None    Shift=    0.000
 RMSDP=2.20D-05 MaxDP=7.22D-04 DE=-3.78D-04 OVMax= 1.82D-03

 Cycle   8  Pass 0  IDiag  1:
 RMSU=  1.42D-05    CP:  9.70D-01  8.26D-01  5.71D-01  2.55D-01  8.30D-01
                    CP:  4.67D-01  5.48D-01
 E= -636.483484473631     Delta-E=       -0.000015732890 Rises=F Damp=F
 DIIS: error= 6.98D-05 at cycle   8 NSaved=   8.
 NSaved= 8 IEnMin= 8 EnMin= -636.483484473631     IErMin= 8 ErrMin= 6.98D-05
 ErrMax= 6.98D-05  0.00D+00 EMaxC= 1.00D-01 BMatC= 3.24D-06 BMatP= 1.69D-05
 IDIUse=1 WtCom= 1.00D+00 WtEn= 0.00D+00
 Coeff-Com:  0.294D-03-0.574D-03 0.106D-01-0.585D-02 0.326D-01 0.567D-01
 Coeff-Com:  0.326D+00 0.580D+00
 Coeff:      0.294D-03-0.574D-03 0.106D-01-0.585D-02 0.326D-01 0.567D-01
 Coeff:      0.326D+00 0.580D+00
 Gap=     0.113 Goal=   None    Shift=    0.000
 RMSDP=7.74D-06 MaxDP=2.60D-04 DE=-1.57D-05 OVMax= 6.83D-04

 Initial convergence to 1.0D-05 achieved.  Increase integral accuracy.
 Cycle   9  Pass 1  IDiag  1:
 E= -636.483460950930     Delta-E=        0.000023522700 Rises=F Damp=F
 DIIS: error= 3.45D-05 at cycle   1 NSaved=   1.
 NSaved= 1 IEnMin= 1 EnMin= -636.483460950930     IErMin= 1 ErrMin= 3.45D-05
 ErrMax= 3.45D-05  0.00D+00 EMaxC= 1.00D-01 BMatC= 4.82D-07 BMatP= 4.82D-07
 IDIUse=1 WtCom= 1.00D+00 WtEn= 0.00D+00
 Coeff-Com:  0.100D+01
 Coeff:      0.100D+01
 Gap=     0.113 Goal=   None    Shift=    0.000
 RMSDP=7.74D-06 MaxDP=2.60D-04 DE= 2.35D-05 OVMax= 5.55D-04

 Cycle  10  Pass 1  IDiag  1:
 RMSU=  1.89D-05    CP:  1.00D+00
 E= -636.483460429601     Delta-E=        0.000000521329 Rises=F Damp=F
 DIIS: error= 3.46D-05 at cycle   2 NSaved=   2.
 NSaved= 2 IEnMin= 1 EnMin= -636.483460950930     IErMin= 1 ErrMin= 3.45D-05
 ErrMax= 3.46D-05  0.00D+00 EMaxC= 1.00D-01 BMatC= 8.75D-07 BMatP= 4.82D-07
 IDIUse=1 WtCom= 1.00D+00 WtEn= 0.00D+00
 Coeff-Com:  0.589D+00 0.411D+00
 Coeff:      0.589D+00 0.411D+00
 Gap=     0.113 Goal=   None    Shift=    0.000
 RMSDP=4.95D-06 MaxDP=1.61D-04 DE= 5.21D-07 OVMax= 5.12D-04

 Cycle  11  Pass 1  IDiag  1:
 RMSU=  4.74D-06    CP:  1.00D+00  9.25D-01
 E= -636.483461348807     Delta-E=       -0.000000919206 Rises=F Damp=F
 DIIS: error= 1.32D-05 at cycle   3 NSaved=   3.
 NSaved= 3 IEnMin= 3 EnMin= -636.483461348807     IErMin= 3 ErrMin= 1.32D-05
 ErrMax= 1.32D-05  0.00D+00 EMaxC= 1.00D-01 BMatC= 9.24D-08 BMatP= 4.82D-07
 IDIUse=1 WtCom= 1.00D+00 WtEn= 0.00D+00
 Coeff-Com:  0.993D-01 0.244D+00 0.656D+00
 Coeff:      0.993D-01 0.244D+00 0.656D+00
 Gap=     0.113 Goal=   None    Shift=    0.000
 RMSDP=1.68D-06 MaxDP=7.14D-05 DE=-9.19D-07 OVMax= 1.86D-04

 Cycle  12  Pass 1  IDiag  1:
 RMSU=  1.10D-06    CP:  1.00D+00  9.49D-01  7.50D-01
 E= -636.483461434224     Delta-E=       -0.000000085417 Rises=F Damp=F
 DIIS: error= 6.47D-06 at cycle   4 NSaved=   4.
 NSaved= 4 IEnMin= 4 EnMin= -636.483461434224     IErMin= 4 ErrMin= 6.47D-06
 ErrMax= 6.47D-06  0.00D+00 EMaxC= 1.00D-01 BMatC= 2.57D-08 BMatP= 9.24D-08
 IDIUse=1 WtCom= 1.00D+00 WtEn= 0.00D+00
 Coeff-Com:  0.136D-02 0.122D+00 0.446D+00 0.430D+00
 Coeff:      0.136D-02 0.122D+00 0.446D+00 0.430D+00
 Gap=     0.113 Goal=   None    Shift=    0.000
 RMSDP=6.77D-07 MaxDP=3.04D-05 DE=-8.54D-08 OVMax= 6.04D-05

 Cycle  13  Pass 1  IDiag  1:
 RMSU=  2.47D-07    CP:  1.00D+00  9.49D-01  7.85D-01  4.46D-01
 E= -636.483461459105     Delta-E=       -0.000000024881 Rises=F Damp=F
 DIIS: error= 1.45D-06 at cycle   5 NSaved=   5.
 NSaved= 5 IEnMin= 5 EnMin= -636.483461459105     IErMin= 5 ErrMin= 1.45D-06
 ErrMax= 1.45D-06  0.00D+00 EMaxC= 1.00D-01 BMatC= 9.49D-10 BMatP= 2.57D-08
 IDIUse=1 WtCom= 1.00D+00 WtEn= 0.00D+00
 Coeff-Com: -0.288D-02 0.667D-01 0.252D+00 0.272D+00 0.413D+00
 Coeff:     -0.288D-02 0.667D-01 0.252D+00 0.272D+00 0.413D+00
 Gap=     0.113 Goal=   None    Shift=    0.000
 RMSDP=1.43D-07 MaxDP=4.63D-06 DE=-2.49D-08 OVMax= 9.67D-06

 Cycle  14  Pass 1  IDiag  1:
 RMSU=  7.31D-08    CP:  1.00D+00  9.50D-01  7.82D-01  4.47D-01  5.11D-01
 E= -636.483461460046     Delta-E=       -0.000000000941 Rises=F Damp=F
 DIIS: error= 2.05D-07 at cycle   6 NSaved=   6.
 NSaved= 6 IEnMin= 6 EnMin= -636.483461460046     IErMin= 6 ErrMin= 2.05D-07
 ErrMax= 2.05D-07  0.00D+00 EMaxC= 1.00D-01 BMatC= 4.19D-11 BMatP= 9.49D-10
 IDIUse=1 WtCom= 1.00D+00 WtEn= 0.00D+00
 Coeff-Com: -0.174D-02 0.272D-01 0.104D+00 0.118D+00 0.228D+00 0.525D+00
 Coeff:     -0.174D-02 0.272D-01 0.104D+00 0.118D+00 0.228D+00 0.525D+00
 Gap=     0.113 Goal=   None    Shift=    0.000
 RMSDP=3.50D-08 MaxDP=1.02D-06 DE=-9.41D-10 OVMax= 3.15D-06

 Cycle  15  Pass 1  IDiag  1:
 RMSU=  2.88D-08    CP:  1.00D+00  9.50D-01  7.82D-01  4.50D-01  5.44D-01
                    CP:  7.61D-01
 E= -636.483461460087     Delta-E=       -0.000000000042 Rises=F Damp=F
 DIIS: error= 1.29D-07 at cycle   7 NSaved=   7.
 NSaved= 7 IEnMin= 7 EnMin= -636.483461460087     IErMin= 7 ErrMin= 1.29D-07
 ErrMax= 1.29D-07  0.00D+00 EMaxC= 1.00D-01 BMatC= 8.39D-12 BMatP= 4.19D-11
 IDIUse=1 WtCom= 1.00D+00 WtEn= 0.00D+00
 Coeff-Com: -0.901D-03 0.119D-01 0.456D-01 0.540D-01 0.112D+00 0.349D+00
 Coeff-Com:  0.428D+00
 Coeff:     -0.901D-03 0.119D-01 0.456D-01 0.540D-01 0.112D+00 0.349D+00
 Coeff:      0.428D+00
 Gap=     0.113 Goal=   None    Shift=    0.000
 RMSDP=1.35D-08 MaxDP=4.11D-07 DE=-4.16D-11 OVMax= 1.26D-06

 Cycle  16  Pass 1  IDiag  1:
 RMSU=  1.01D-08    CP:  1.00D+00  9.50D-01  7.82D-01  4.51D-01  5.39D-01
                    CP:  8.15D-01  7.30D-01
 E= -636.483461460092     Delta-E=       -0.000000000005 Rises=F Damp=F
 DIIS: error= 3.13D-08 at cycle   8 NSaved=   8.
 NSaved= 8 IEnMin= 8 EnMin= -636.483461460092     IErMin= 8 ErrMin= 3.13D-08
 ErrMax= 3.13D-08  0.00D+00 EMaxC= 1.00D-01 BMatC= 6.00D-13 BMatP= 8.39D-12
 IDIUse=1 WtCom= 1.00D+00 WtEn= 0.00D+00
 Coeff-Com:  0.242D-04-0.143D-02-0.555D-02-0.449D-02-0.616D-02 0.384D-01
 Coeff-Com:  0.221D+00 0.758D+00
 Coeff:      0.242D-04-0.143D-02-0.555D-02-0.449D-02-0.616D-02 0.384D-01
 Coeff:      0.221D+00 0.758D+00
 Gap=     0.113 Goal=   None    Shift=    0.000
 RMSDP=5.02D-09 MaxDP=1.66D-07 DE=-5.00D-12 OVMax= 7.57D-07

 SCF Done:  E(RB3LYP) =  -636.483461460     A.U. after   16 cycles
            NFock= 16  Conv=0.50D-08     -V/T= 2.0103
 KE= 6.300039374316D+02 PE=-3.625949818329D+03 EE= 1.283226921634D+03
 Leave Link  502 at Mon Apr  8 10:51:46 2024, MaxMem=  7516192768 cpu:             383.8 elap:              13.7
 (Enter /public3/home/scg9909/software-scg9909/g16/l801.exe)
 DoSCS=F DFT=T ScalE2(SS,OS)=  1.000000  1.000000
 Range of M.O.s used for correlation:     1   274
 NBasis=   274 NAE=    57 NBE=    57 NFC=     0 NFV=     0
 NROrb=    274 NOA=    57 NOB=    57 NVA=   217 NVB=   217
 Leave Link  801 at Mon Apr  8 10:51:46 2024, MaxMem=  7516192768 cpu:               0.2 elap:               0.0
 (Enter /public3/home/scg9909/software-scg9909/g16/l1101.exe)
 Using compressed storage, NAtomX=    33.
 Will process     34 centers per pass.
 R6Disp: Adding Grimme-D3(BJ) dispersion energy 1st derivatives to the gradient.
 Leave Link 1101 at Mon Apr  8 10:51:47 2024, MaxMem=  7516192768 cpu:               6.4 elap:               0.2
 (Enter /public3/home/scg9909/software-scg9909/g16/l1102.exe)
 Symmetrizing basis deriv contribution to polar:
 IMax=3 JMax=2 DiffMx= 0.00D+00
 Leave Link 1102 at Mon Apr  8 10:51:47 2024, MaxMem=  7516192768 cpu:               0.6 elap:               0.0
 (Enter /public3/home/scg9909/software-scg9909/g16/l1110.exe)
 Forming Gx(P) for the SCF density, NAtomX=    33.
 Integral derivatives from FoFJK, PRISM(SPDF).
 Do as many integral derivatives as possible in FoFJK.
 G2DrvN: MDV=    7516189233.
 G2DrvN: will do    34 centers at a time, making    1 passes.
 Calling FoFCou, ICntrl=  3107 FMM=F I1Cent=   0 AccDes= 0.00D+00.
 FoFJK:  IHMeth= 1 ICntrl=    3107 DoSepK=F KAlg= 0 I1Cent=           0 FoldK=F
 IRaf=         0 NMat=       1 IRICut=       1 DoRegI=T DoRafI=F ISym2E= 0 IDoP0=0 IntGTp=1.
 FoFCou: FMM=F IPFlag=           0 FMFlag=      100000 FMFlg1=           0
         NFxFlg=           0 DoJE=F BraDBF=F KetDBF=F FulRan=T
         wScrn=  0.000000 ICntrl=      3107 IOpCl=  0 I1Cent=           0 NGrid=           0
         NMat0=    1 NMatS0=      1 NMatT0=    0 NMatD0=    1 NMtDS0=    0 NMtDT0=    0
 Symmetry not used in FoFCou.
 End of G2Drv F.D. properties file   721 does not exist.
 End of G2Drv F.D. properties file   722 does not exist.
 End of G2Drv F.D. properties file   788 does not exist.
 Leave Link 1110 at Mon Apr  8 10:52:33 2024, MaxMem=  7516192768 cpu:            1290.5 elap:              46.1
 (Enter /public3/home/scg9909/software-scg9909/g16/l1002.exe)
 Minotr:  Closed shell wavefunction.
          IDoAtm=111111111111111111111111111111111
          Direct CPHF calculation.
          Differentiating once with respect to nuclear coordinates.
          Requested convergence is 1.0D-08 RMS, and 1.0D-07 maximum.
          Secondary convergence is 1.0D-12 RMS, and 1.0D-12 maximum.
          NewPWx=T KeepS1=F KeepF1=F KeepIn=T MapXYZ=F SortEE=F KeepMc=T.
         9849 words used for storage of precomputed grid.
 Keep R1 ints in memory in canonical form, NReq=740618717.
 FoFCou: FMM=F IPFlag=           0 FMFlag=           0 FMFlg1=           0
         NFxFlg=           0 DoJE=F BraDBF=F KetDBF=F FulRan=T
         wScrn=  0.000000 ICntrl=       600 IOpCl=  0 I1Cent=           0 NGrid=           0
         NMat0=    1 NMatS0=  37675 NMatT0=    0 NMatD0=    1 NMtDS0=    0 NMtDT0=    0
 Symmetry not used in FoFCou.
 Two-electron integral symmetry not used.
          MDV=    7516192768 using IRadAn=       1.
          Solving linear equations simultaneously, MaxMat=       0.
          There are   102 degrees of freedom in the 1st order CPHF.  IDoFFX=6 NUNeed=     0.
     96 vectors produced by pass  0 Test12= 1.24D-14 1.00D-09 XBig12= 1.35D-01 1.54D-01.
 AX will form    96 AO Fock derivatives at one time.
     96 vectors produced by pass  1 Test12= 1.24D-14 1.00D-09 XBig12= 3.18D-02 5.08D-02.
     96 vectors produced by pass  2 Test12= 1.24D-14 1.00D-09 XBig12= 3.04D-04 4.25D-03.
     96 vectors produced by pass  3 Test12= 1.24D-14 1.00D-09 XBig12= 7.09D-07 9.34D-05.
     96 vectors produced by pass  4 Test12= 1.24D-14 1.00D-09 XBig12= 8.64D-10 2.56D-06.
     78 vectors produced by pass  5 Test12= 1.24D-14 1.00D-09 XBig12= 7.66D-13 6.89D-08.
      4 vectors produced by pass  6 Test12= 1.24D-14 1.00D-09 XBig12= 5.96D-16 1.97D-09.
 InvSVY:  IOpt=1 It=  1 EMax= 7.22D-16
 Solved reduced A of dimension   562 with   102 vectors.
 End of Minotr F.D. properties file   721 does not exist.
 End of Minotr F.D. properties file   722 does not exist.
 End of Minotr F.D. properties file   788 does not exist.
 Leave Link 1002 at Mon Apr  8 10:53:13 2024, MaxMem=  7516192768 cpu:            1130.2 elap:              40.4
 (Enter /public3/home/scg9909/software-scg9909/g16/l601.exe)
 Copying SCF densities to generalized density rwf, IOpCl= 0 IROHF=0.

 **********************************************************************

            Population analysis using the SCF Density.

 **********************************************************************

 Orbital symmetries:
       Occupied  (A) (A) (A) (A) (A) (A) (A) (A) (A) (A) (A) (A)
                 (A) (A) (A) (A) (A) (A) (A) (A) (A) (A) (A) (A)
                 (A) (A) (A) (A) (A) (A) (A) (A) (A) (A) (A) (A)
                 (A) (A) (A) (A) (A) (A) (A) (A) (A) (A) (A) (A)
                 (A) (A) (A) (A) (A) (A) (A) (A) (A)
       Virtual   (A) (A) (A) (A) (A) (A) (A) (A) (A) (A) (A) (A)
                 (A) (A) (A) (A) (A) (A) (A) (A) (A) (A) (A) (A)
                 (A) (A) (A) (A) (A) (A) (A) (A) (A) (A) (A) (A)
                 (A) (A) (A) (A) (A) (A) (A) (A) (A) (A) (A) (A)
                 (A) (A) (A) (A) (A) (A) (A) (A) (A) (A) (A) (A)
                 (A) (A) (A) (A) (A) (A) (A) (A) (A) (A) (A) (A)
                 (A) (A) (A) (A) (A) (A) (A) (A) (A) (A) (A) (A)
                 (A) (A) (A) (A) (A) (A) (A) (A) (A) (A) (A) (A)
                 (A) (A) (A) (A) (A) (A) (A) (A) (A) (A) (A) (A)
                 (A) (A) (A) (A) (A) (A) (A) (A) (A) (A) (A) (A)
                 (A) (A) (A) (A) (A) (A) (A) (A) (A) (A) (A) (A)
                 (A) (A) (A) (A) (A) (A) (A) (A) (A) (A) (A) (A)
                 (A) (A) (A) (A) (A) (A) (A) (A) (A) (A) (A) (A)
                 (A) (A) (A) (A) (A) (A) (A) (A) (A) (A) (A) (A)
                 (A) (A) (A) (A) (A) (A) (A) (A) (A) (A) (A) (A)
                 (A) (A) (A) (A) (A) (A) (A) (A) (A) (A) (A) (A)
                 (A) (A) (A) (A) (A) (A) (A) (A) (A) (A) (A) (A)
                 (A) (A) (A) (A) (A) (A) (A) (A) (A) (A) (A) (A)
                 (A)
 The electronic state is 1-A.
 Alpha  occ. eigenvalues --  -14.38243 -10.23877 -10.21019 -10.20608 -10.20005
 Alpha  occ. eigenvalues --  -10.19631 -10.19579 -10.19021 -10.18912 -10.18318
 Alpha  occ. eigenvalues --  -10.18241 -10.18130 -10.18056 -10.17681 -10.16613
 Alpha  occ. eigenvalues --  -10.16368  -0.97960  -0.83057  -0.80449  -0.77649
 Alpha  occ. eigenvalues --   -0.77207  -0.75341  -0.71464  -0.68164  -0.67282
 Alpha  occ. eigenvalues --   -0.66420  -0.59439  -0.56519  -0.56091  -0.55198
 Alpha  occ. eigenvalues --   -0.53725  -0.51997  -0.50300  -0.45759  -0.44379
 Alpha  occ. eigenvalues --   -0.44354  -0.43861  -0.43654  -0.43160  -0.42880
 Alpha  occ. eigenvalues --   -0.40496  -0.40362  -0.38489  -0.37772  -0.36979
 Alpha  occ. eigenvalues --   -0.36781  -0.35864  -0.35056  -0.34012  -0.33907
 Alpha  occ. eigenvalues --   -0.32686  -0.29147  -0.28047  -0.24946  -0.21844
 Alpha  occ. eigenvalues --   -0.20362  -0.17255
 Alpha virt. eigenvalues --   -0.05910  -0.00853   0.03897   0.04816   0.07292
 Alpha virt. eigenvalues --    0.08332   0.09160   0.09893   0.11383   0.12316
 Alpha virt. eigenvalues --    0.12678   0.13580   0.14043   0.15863   0.16850
 Alpha virt. eigenvalues --    0.17088   0.17621   0.18027   0.18241   0.19688
 Alpha virt. eigenvalues --    0.20014   0.20456   0.21177   0.21551   0.22634
 Alpha virt. eigenvalues --    0.25182   0.25796   0.26879   0.28468   0.29596
 Alpha virt. eigenvalues --    0.31113   0.32069   0.35994   0.36523   0.38751
 Alpha virt. eigenvalues --    0.40135   0.42091   0.44052   0.45072   0.45890
 Alpha virt. eigenvalues --    0.49006   0.49443   0.50754   0.52423   0.53171
 Alpha virt. eigenvalues --    0.53953   0.55192   0.55940   0.57289   0.57620
 Alpha virt. eigenvalues --    0.58258   0.58914   0.59836   0.60333   0.61051
 Alpha virt. eigenvalues --    0.61444   0.62471   0.63280   0.63446   0.63779
 Alpha virt. eigenvalues --    0.65927   0.66993   0.67218   0.69329   0.70129
 Alpha virt. eigenvalues --    0.71315   0.73545   0.73882   0.75219   0.77917
 Alpha virt. eigenvalues --    0.78907   0.80138   0.81531   0.82453   0.83903
 Alpha virt. eigenvalues --    0.84662   0.85364   0.85758   0.86558   0.86784
 Alpha virt. eigenvalues --    0.87445   0.88082   0.88591   0.88922   0.89409
 Alpha virt. eigenvalues --    0.90564   0.91046   0.91976   0.92579   0.93440
 Alpha virt. eigenvalues --    0.94243   0.94544   0.95740   0.97344   0.98718
 Alpha virt. eigenvalues --    0.99233   1.01004   1.02484   1.03354   1.05708
 Alpha virt. eigenvalues --    1.09115   1.09783   1.10936   1.13712   1.15469
 Alpha virt. eigenvalues --    1.16614   1.19201   1.20235   1.23875   1.25851
 Alpha virt. eigenvalues --    1.26761   1.31241   1.31584   1.34044   1.36706
 Alpha virt. eigenvalues --    1.37132   1.39329   1.41190   1.43986   1.44794
 Alpha virt. eigenvalues --    1.46458   1.48748   1.50456   1.52137   1.52676
 Alpha virt. eigenvalues --    1.54621   1.55370   1.59152   1.60596   1.64284
 Alpha virt. eigenvalues --    1.64958   1.66183   1.69388   1.70056   1.72528
 Alpha virt. eigenvalues --    1.78947   1.81045   1.83139   1.84884   1.87707
 Alpha virt. eigenvalues --    1.88882   1.89969   1.91826   1.92656   1.95915
 Alpha virt. eigenvalues --    1.97217   1.97834   2.00756   2.01650   2.02394
 Alpha virt. eigenvalues --    2.03507   2.04230   2.06418   2.08635   2.11544
 Alpha virt. eigenvalues --    2.12051   2.13439   2.14197   2.17248   2.18054
 Alpha virt. eigenvalues --    2.19681   2.21524   2.22597   2.22765   2.25963
 Alpha virt. eigenvalues --    2.26041   2.27480   2.28488   2.30659   2.32005
 Alpha virt. eigenvalues --    2.33582   2.34134   2.35078   2.39453   2.41594
 Alpha virt. eigenvalues --    2.42763   2.45426   2.47785   2.50168   2.55372
 Alpha virt. eigenvalues --    2.56288   2.57644   2.60897   2.62289   2.66144
 Alpha virt. eigenvalues --    2.67262   2.68581   2.70305   2.72943   2.75303
 Alpha virt. eigenvalues --    2.76053   2.78373   2.82570   2.85351   2.89580
 Alpha virt. eigenvalues --    2.97320   3.04411   3.05438   3.10740   3.14897
 Alpha virt. eigenvalues --    3.30728   4.00567   4.09875   4.12841   4.16873
 Alpha virt. eigenvalues --    4.18000   4.21564   4.24470   4.32192   4.35331
 Alpha virt. eigenvalues --    4.39027   4.46740   4.49298   4.50928   4.57269
 Alpha virt. eigenvalues --    4.66128   4.77484
          Condensed to atoms (all electrons):
               1          2          3          4          5          6
     1  C    4.884113   0.645311  -0.041751  -0.006572   0.004728  -0.008244
     2  C    0.645311   4.924232   0.379042  -0.046734  -0.007319   0.002170
     3  C   -0.041751   0.379042   5.056591   0.452205  -0.046876  -0.015791
     4  C   -0.006572  -0.046734   0.452205   4.917257   0.598863  -0.047542
     5  C    0.004728  -0.007319  -0.046876   0.598863   4.872848   0.461667
     6  C   -0.008244   0.002170  -0.015791  -0.047542   0.461667   5.066094
     7  C   -0.037182  -0.013728   0.002142  -0.006407  -0.033111   0.391228
     8  C    0.405689  -0.040092  -0.006104   0.002812  -0.007442  -0.043670
     9  H    0.350524  -0.040826   0.005789   0.000029  -0.000150   0.000082
    10  H   -0.033814   0.355465  -0.059319   0.002910  -0.000060  -0.000086
    11  H    0.006560  -0.038178   0.344083  -0.042137   0.007130   0.000243
    12  H    0.000020   0.004594  -0.055289   0.364514  -0.043487   0.005487
    13  H   -0.000134  -0.000039   0.005655  -0.043771   0.363697  -0.047861
    14  H   -0.000099   0.000009   0.000282   0.007311  -0.045935   0.346914
    15  H    0.006168  -0.000053  -0.000119  -0.000078   0.004994  -0.051923
    16  H   -0.049502   0.006193   0.000039  -0.000059  -0.000019   0.006062
    17  C    0.000625  -0.002198  -0.017407   0.000395   0.000737  -0.000051
    18  C   -0.008807  -0.013037   0.212000  -0.014221  -0.027164  -0.011096
    19  C    0.001496  -0.001764  -0.013106  -0.025166  -0.009587   0.188984
    20  N   -0.000019   0.000016  -0.000338   0.000970  -0.005063  -0.036514
    21  C   -0.000003   0.000038  -0.000923   0.003397   0.002543  -0.002926
    22  C    0.000000  -0.000000   0.000014  -0.000655  -0.000585   0.000340
    23  C   -0.000000  -0.000000   0.000010  -0.000010  -0.000116   0.000018
    24  C    0.000000   0.000000  -0.000085   0.000037   0.000541  -0.002154
    25  H    0.000012   0.000377   0.002072  -0.000025  -0.000043   0.000014
    26  H    0.000591  -0.000755  -0.003449  -0.000022   0.000095  -0.000034
    27  H    0.000837   0.000223  -0.002705   0.000206  -0.000005  -0.000090
    28  H    0.000220   0.001069  -0.022440  -0.004258   0.000902   0.002100
    29  H   -0.000270   0.000078   0.001946   0.000869   0.000763  -0.023667
    30  H   -0.000003   0.000022   0.000272   0.004045  -0.000245  -0.000136
    31  H    0.000000  -0.000000  -0.000001  -0.000008  -0.000003   0.000000
    32  H    0.000000  -0.000000  -0.000000   0.000000   0.000001  -0.000002
    33  H    0.000000   0.000000  -0.000001  -0.000001   0.000013  -0.000010
               7          8          9         10         11         12
     1  C   -0.037182   0.405689   0.350524  -0.033814   0.006560   0.000020
     2  C   -0.013728  -0.040092  -0.040826   0.355465  -0.038178   0.004594
     3  C    0.002142  -0.006104   0.005789  -0.059319   0.344083  -0.055289
     4  C   -0.006407   0.002812   0.000029   0.002910  -0.042137   0.364514
     5  C   -0.033111  -0.007442  -0.000150  -0.000060   0.007130  -0.043487
     6  C    0.391228  -0.043670   0.000082  -0.000086   0.000243   0.005487
     7  C    4.905389   0.633611   0.005852  -0.000051  -0.000016  -0.000052
     8  C    0.633611   4.923352  -0.045115   0.006554  -0.000077  -0.000061
     9  H    0.005852  -0.045115   0.619041  -0.011102  -0.000225   0.000008
    10  H   -0.000051   0.006554  -0.011102   0.617231  -0.008915  -0.000098
    11  H   -0.000016  -0.000077  -0.000225  -0.008915   0.632558  -0.008532
    12  H   -0.000052  -0.000061   0.000008  -0.000098  -0.008532   0.609311
    13  H    0.004055   0.000071  -0.000001   0.000003  -0.000209  -0.009840
    14  H   -0.039198   0.006560   0.000002   0.000001  -0.000005  -0.000172
    15  H    0.352055  -0.037895  -0.000217   0.000004   0.000001   0.000003
    16  H   -0.039904   0.352036  -0.006848  -0.000199   0.000001   0.000000
    17  C   -0.003523  -0.006875  -0.000047  -0.000391   0.000729  -0.000053
    18  C   -0.001731   0.004451   0.000002   0.002544  -0.017668   0.002673
    19  C   -0.021781  -0.006942  -0.000019  -0.000018   0.001490  -0.000028
    20  N    0.001051   0.000102   0.000000   0.000000   0.000017  -0.000072
    21  C   -0.000007   0.000002   0.000000  -0.000000  -0.000038  -0.000149
    22  C   -0.000002  -0.000000  -0.000000  -0.000000  -0.000000   0.000017
    23  C   -0.000000  -0.000000  -0.000000   0.000000  -0.000000   0.000004
    24  C    0.000127   0.000000   0.000000  -0.000000   0.000002  -0.000010
    25  H    0.000025   0.000151   0.000000   0.000015  -0.000109   0.000002
    26  H    0.003774   0.007554   0.000105  -0.000033   0.000000  -0.000002
    27  H    0.000002   0.000354   0.000019  -0.000149   0.000707  -0.000003
    28  H    0.000026  -0.000192  -0.000000  -0.000110  -0.000691  -0.000205
    29  H    0.000933   0.001043   0.000001   0.000004  -0.000057   0.000016
    30  H    0.000002   0.000002  -0.000000   0.000001   0.000127   0.001164
    31  H   -0.000000  -0.000000   0.000000  -0.000000   0.000000  -0.000002
    32  H    0.000000   0.000000  -0.000000   0.000000  -0.000000   0.000000
    33  H   -0.000018  -0.000000  -0.000000  -0.000000  -0.000000  -0.000000
              13         14         15         16         17         18
     1  C   -0.000134  -0.000099   0.006168  -0.049502   0.000625  -0.008807
     2  C   -0.000039   0.000009  -0.000053   0.006193  -0.002198  -0.013037
     3  C    0.005655   0.000282  -0.000119   0.000039  -0.017407   0.212000
     4  C   -0.043771   0.007311  -0.000078  -0.000059   0.000395  -0.014221
     5  C    0.363697  -0.045935   0.004994  -0.000019   0.000737  -0.027164
     6  C   -0.047861   0.346914  -0.051923   0.006062  -0.000051  -0.011096
     7  C    0.004055  -0.039198   0.352055  -0.039904  -0.003523  -0.001731
     8  C    0.000071   0.006560  -0.037895   0.352036  -0.006875   0.004451
     9  H   -0.000001   0.000002  -0.000217  -0.006848  -0.000047   0.000002
    10  H    0.000003   0.000001   0.000004  -0.000199  -0.000391   0.002544
    11  H   -0.000209  -0.000005   0.000001   0.000001   0.000729  -0.017668
    12  H   -0.009840  -0.000172   0.000003   0.000000  -0.000053   0.002673
    13  H    0.599826  -0.010116  -0.000174   0.000003   0.000002   0.000205
    14  H   -0.010116   0.622337  -0.009862  -0.000194  -0.000031   0.001573
    15  H   -0.000174  -0.009862   0.623547  -0.012388  -0.000009   0.000069
    16  H    0.000003  -0.000194  -0.012388   0.622795  -0.000009  -0.000038
    17  C    0.000002  -0.000031  -0.000009  -0.000009   5.098392   0.366558
    18  C    0.000205   0.001573   0.000069  -0.000038   0.366558   5.020513
    19  C    0.001855  -0.015626   0.001024  -0.000012  -0.031640   0.414277
    20  N   -0.000718   0.000743  -0.000054   0.000001   0.002656  -0.031307
    21  C   -0.000069  -0.000415  -0.000001   0.000000   0.000119  -0.003444
    22  C    0.000472  -0.000057   0.000000  -0.000000  -0.000012   0.000363
    23  C    0.000078  -0.000003   0.000001   0.000000   0.000006  -0.000491
    24  C   -0.000015   0.004549  -0.000021   0.000000  -0.000114   0.004341
    25  H   -0.000000   0.000004   0.000004  -0.000003   0.361909  -0.034420
    26  H   -0.000000  -0.000018  -0.000035   0.000107   0.372652  -0.031799
    27  H   -0.000000   0.000001  -0.000002  -0.000007   0.372800  -0.028977
    28  H    0.000023  -0.000066   0.000002  -0.000001  -0.044622   0.371278
    29  H   -0.000106   0.000253   0.001305   0.000003  -0.004224  -0.054158
    30  H   -0.000107  -0.000002  -0.000000   0.000000   0.000053   0.002854
    31  H    0.000002  -0.000000   0.000000  -0.000000  -0.000000   0.000005
    32  H   -0.000001   0.000001  -0.000000   0.000000  -0.000000   0.000003
    33  H    0.000002   0.000555   0.000003  -0.000000  -0.000007   0.000167
              19         20         21         22         23         24
     1  C    0.001496  -0.000019  -0.000003   0.000000  -0.000000   0.000000
     2  C   -0.001764   0.000016   0.000038  -0.000000  -0.000000   0.000000
     3  C   -0.013106  -0.000338  -0.000923   0.000014   0.000010  -0.000085
     4  C   -0.025166   0.000970   0.003397  -0.000655  -0.000010   0.000037
     5  C   -0.009587  -0.005063   0.002543  -0.000585  -0.000116   0.000541
     6  C    0.188984  -0.036514  -0.002926   0.000340   0.000018  -0.002154
     7  C   -0.021781   0.001051  -0.000007  -0.000002  -0.000000   0.000127
     8  C   -0.006942   0.000102   0.000002  -0.000000  -0.000000   0.000000
     9  H   -0.000019   0.000000   0.000000  -0.000000  -0.000000   0.000000
    10  H   -0.000018   0.000000  -0.000000  -0.000000   0.000000  -0.000000
    11  H    0.001490   0.000017  -0.000038  -0.000000  -0.000000   0.000002
    12  H   -0.000028  -0.000072  -0.000149   0.000017   0.000004  -0.000010
    13  H    0.001855  -0.000718  -0.000069   0.000472   0.000078  -0.000015
    14  H   -0.015626   0.000743  -0.000415  -0.000057  -0.000003   0.004549
    15  H    0.001024  -0.000054  -0.000001   0.000000   0.000001  -0.000021
    16  H   -0.000012   0.000001   0.000000  -0.000000   0.000000   0.000000
    17  C   -0.031640   0.002656   0.000119  -0.000012   0.000006  -0.000114
    18  C    0.414277  -0.031307  -0.003444   0.000363  -0.000491   0.004341
    19  C    4.979864   0.289475  -0.046640   0.006952   0.006680  -0.044544
    20  N    0.289475   6.638222   0.388708  -0.058109  -0.053617   0.380171
    21  C   -0.046640   0.388708   4.868077   0.575441  -0.048532  -0.113259
    22  C    0.006952  -0.058109   0.575441   4.916148   0.516388  -0.050429
    23  C    0.006680  -0.053617  -0.048532   0.516388   4.904663   0.571721
    24  C   -0.044544   0.380171  -0.113259  -0.050429   0.571721   4.898011
    25  H   -0.004925   0.000067   0.000014  -0.000000  -0.000000  -0.000005
    26  H   -0.005994   0.000075   0.000005   0.000000  -0.000000   0.000001
    27  H    0.003949  -0.000095  -0.000001   0.000000  -0.000000   0.000001
    28  H   -0.053509  -0.006637   0.006507   0.000186  -0.000123   0.000407
    29  H    0.368451  -0.044481   0.004445  -0.000283   0.000256  -0.004397
    30  H   -0.006000  -0.047611   0.366148  -0.040406   0.003809   0.006523
    31  H   -0.000159   0.004266  -0.044840   0.367981  -0.041067   0.006256
    32  H   -0.000095   0.004333   0.006084  -0.040752   0.367528  -0.044833
    33  H   -0.002667  -0.052301   0.006631   0.003888  -0.040868   0.369079
              25         26         27         28         29         30
     1  C    0.000012   0.000591   0.000837   0.000220  -0.000270  -0.000003
     2  C    0.000377  -0.000755   0.000223   0.001069   0.000078   0.000022
     3  C    0.002072  -0.003449  -0.002705  -0.022440   0.001946   0.000272
     4  C   -0.000025  -0.000022   0.000206  -0.004258   0.000869   0.004045
     5  C   -0.000043   0.000095  -0.000005   0.000902   0.000763  -0.000245
     6  C    0.000014  -0.000034  -0.000090   0.002100  -0.023667  -0.000136
     7  C    0.000025   0.003774   0.000002   0.000026   0.000933   0.000002
     8  C    0.000151   0.007554   0.000354  -0.000192   0.001043   0.000002
     9  H    0.000000   0.000105   0.000019  -0.000000   0.000001  -0.000000
    10  H    0.000015  -0.000033  -0.000149  -0.000110   0.000004   0.000001
    11  H   -0.000109   0.000000   0.000707  -0.000691  -0.000057   0.000127
    12  H    0.000002  -0.000002  -0.000003  -0.000205   0.000016   0.001164
    13  H   -0.000000  -0.000000  -0.000000   0.000023  -0.000106  -0.000107
    14  H    0.000004  -0.000018   0.000001  -0.000066   0.000253  -0.000002
    15  H    0.000004  -0.000035  -0.000002   0.000002   0.001305  -0.000000
    16  H   -0.000003   0.000107  -0.000007  -0.000001   0.000003   0.000000
    17  C    0.361909   0.372652   0.372800  -0.044622  -0.004224   0.000053
[...]
 ,-0.00013074,0.00080251,-0.00017778,0.00008308,-0.00289666,0.00000252,
 0.00420639,0.00048465,-0.00030457,-0.00085808,0.11505633,-0.00025313,0
 .00006708,-0.00003462,0.00020091,-0.00005909,-0.00065792,-0.00229599,0
 .00087799,-0.00309148,-0.00107868,-0.00041227,0.00086009,0.00028807,0.
 00123556,0.00012087,-0.00052363,-0.00060923,-0.00131799,-0.00019324,0.
 00021844,0.00018180,0.00012710,0.00008313,-0.00001236,0.00004575,-0.00
 000335,0.00006011,0.00000554,-0.00003935,0.00008978,-0.00089566,0.0009
 2625,-0.00101341,-0.00006476,0.00009569,-0.00001121,0.00004054,0.00001
 036,0.00010949,0.00012183,-0.00005024,0.00011788,-0.00001456,0.0000363
 4,0.00000749,0.00002666,0.00001616,-0.00001116,0.00077280,-0.00086124,
 -0.00007760,0.11280703,-0.26919777,0.01424742,0.00995973,-0.02620469,0
 .00052704,0.00180978,0.00043977,-0.00212294,0.00037356,0.00015289,-0.0
 0050020,-0.00041938,0.00053948,-0.00006360,0.00033833,0.00029856,-0.00
 009795,-0.00029678,0.00000022,-0.00039599,0.00004616,0.00001739,-0.000
 39791,-0.00034174,0.00123986,-0.00037790,0.00016966,0.00060205,-0.0003
 3935,-0.11955082,0.29168738,-0.00051148,-0.00087162,0.00005630,0.00034
 553,0.00022477,-0.00021842,-0.01035918,0.00445412,-0.02037727,-0.00548
 080,-0.00524864,0.00457191,0.00021370,0.00700546,0.00129000,0.00091806
 ,-0.00088813,-0.00533319,-0.00002672,-0.00032428,0.00105897,0.00096623
 ,0.00042374,0.00043480,-0.00000005,0.00000485,-0.00020296,-0.00017852,
 -0.00015011,-0.00002444,-0.00041650,-0.00031126,0.00053223,0.00071394,
 -0.00004102,0.00055177,0.00016213,0.00005340,0.00022916,-0.00031541,0.
 00026923,-0.00056887,-0.00006595,0.00008932,0.00005249,-0.00007522,0.0
 0010425,-0.00001436,0.01140208,-0.02179518,0.00120800,0.01207608,0.029
 18748,-0.03078112,-0.00922921,-0.00365765,0.00734692,0.00172466,0.0004
 3845,-0.00365249,0.00045693,0.00192690,0.00004200,0.00017654,0.0002606
 3,-0.00040040,0.00027728,-0.00045253,-0.00031682,-0.00094002,-0.000824
 70,-0.00013412,-0.00088530,-0.00000266,0.00051956,0.00319042,0.0001116
 1,-0.00330880,-0.00050523,0.00048885,0.00063173,-0.00722649,-0.0087557
 7,0.04509469,-0.00043861,0.00005521,-0.00017725,0.00092034,0.00034378,
 0.00019425,-0.00033340,-0.00174326,-0.00361535,-0.00216532,-0.00250839
 ,0.00124233,-0.00021995,0.00300578,0.00092836,-0.00074844,-0.00083452,
 -0.00553936,-0.00043242,0.00004895,-0.00105726,0.00022237,-0.00012827,
 0.00026568,0.00001742,0.00010084,-0.00001097,-0.00005464,0.00000178,0.
 00015468,-0.00025370,-0.00004263,-0.00038987,0.00019086,-0.00003164,0.
 00026078,0.00012808,0.00008752,0.00009777,0.00001467,0.00008584,0.0000
 6705,-0.00007038,0.00037762,-0.00010373,-0.00000112,0.00000968,0.00007
 452,0.00012360,-0.00086428,-0.00123949,0.01017900,-0.01294937,-0.00526
 772,-0.05609001,0.02191858,0.02553816,-0.01097758,0.03358443,0.0170141
 9,-0.00244409,-0.00461789,0.00132083,-0.00103986,0.00138554,0.00088014
 ,-0.00016125,0.00020317,0.00024597,0.00127871,0.00237370,-0.00082148,-
 0.00001624,-0.00005720,-0.00021294,-0.00042093,0.00045333,0.00010257,-
 0.00014673,0.00016877,0.00003590,-0.00132185,-0.00205540,0.00160991,0.
 06494057,0.00015602,-0.00012223,0.00015432,-0.00061449,-0.00021596,-0.
 00025703,0.00030924,-0.00008936,0.00376890,0.00175693,0.00257100,-0.00
 050106,0.00031390,-0.00312533,-0.00104449,0.00120176,0.00165272,0.0050
 8860,0.00122879,0.00041497,0.00081969,-0.00061528,-0.00020362,0.000084
 46,-0.00001537,-0.00003160,0.00004102,-0.00006720,0.00005139,-0.000093
 08,-0.00013246,0.00012511,-0.00027089,-0.00013195,0.00001869,-0.000226
 84,-0.00012764,-0.00002297,-0.00011220,-0.00011117,0.00002797,-0.00007
 252,0.00003338,-0.00015711,-0.00001448,-0.00000654,0.00001738,-0.00005
 071,0.00180291,0.00115972,-0.00035055,0.00233229,-0.01905450,-0.009104
 48,0.03400223,-0.28694361,-0.12369864,0.00135190,-0.00309908,-0.001253
 48,-0.00047986,0.00190065,0.00024338,-0.00018779,-0.00024650,0.0000723
 9,0.00034627,0.00015652,0.00013830,-0.00118956,0.00070541,0.00116064,-
 0.00012027,-0.00023267,0.00057189,-0.00069286,0.00015603,0.00021895,0.
 00021873,0.00037873,0.00009276,-0.00293458,-0.00230180,-0.00088831,-0.
 03774615,0.30598386,-0.00054390,-0.00078010,-0.00006179,0.00031431,0.0
 0138508,0.00049292,0.00059811,-0.00083230,-0.00690931,-0.00403872,-0.0
 0578568,0.00137922,-0.00010731,0.00598798,0.00221308,-0.00367498,-0.00
 055989,-0.01146024,0.00109562,-0.00025506,-0.00101704,0.00026207,-0.00
 018927,0.00078449,0.00002643,0.00013381,-0.00008353,0.00006179,0.00003
 208,-0.00020971,0.00012172,-0.00009104,0.00027739,0.00039976,0.0000703
 2,0.00056067,0.00025534,0.00006471,0.00029335,0.00018954,0.00029863,-0
 .00015949,-0.00025375,0.00044347,0.00001447,0.00001122,0.00000098,0.00
 000233,-0.00242552,-0.00001805,-0.00079745,0.00597744,0.01208033,0.007
 68128,0.03064156,-0.13139330,-0.07691189,0.00048553,-0.00961512,-0.004
 29243,0.00111730,0.00067295,0.00113590,0.00012637,-0.00051056,0.000237
 37,0.00009978,0.00020534,-0.00017869,-0.00094366,-0.00006974,-0.000619
 13,-0.00005692,0.00007452,-0.00054331,-0.00022502,-0.00006844,0.000423
 06,-0.00035604,-0.00017476,0.00009528,0.00183149,0.00250967,0.00218550
 ,-0.03173536,0.12579730,0.08544765,0.00005391,0.00002255,0.00000898,-0
 .00006878,-0.00005135,0.00005498,-0.00008753,0.00003614,-0.00004217,-0
 .00059478,0.00019047,-0.00054989,-0.00001196,-0.00001192,-0.00003457,-
 0.00006613,-0.00007018,-0.00002263,-0.00004035,0.00006028,0.00004357,0
 .00001081,-0.00002828,-0.00001023,0.00002316,-0.00001249,-0.00000447,0
 .00004367,0.00000843,0.00000714,-0.00013481,-0.00021523,-0.00005360,-0
 .00045577,0.00014154,-0.00040649,-0.00000154,-0.00000680,-0.00000033,0
 .00002433,-0.00004810,0.00004005,0.00000080,-0.00002082,-0.00000981,0.
 00000714,-0.00000622,-0.00001944,-0.00007941,0.00008857,-0.00008675,-0
 .00145506,0.00093418,0.00075444,0.00002730,-0.00068561,-0.00070827,0.0
 1010523,0.01476962,-0.00336202,-0.13762529,-0.14605925,0.02121851,-0.0
 0194897,-0.02100226,-0.00412580,-0.00426386,-0.00075240,0.00331944,-0.
 00188490,0.00204167,0.00236179,0.00003658,-0.00001382,-0.00007811,-0.0
 0002134,0.00004154,0.00000631,0.00001219,0.00000273,0.00000064,-0.0016
 6707,0.00069357,0.00188795,0.00009308,-0.00006861,0.00016456,0.1385921
 4,-0.00006409,-0.00003552,-0.00000793,0.00008818,-0.00006230,-0.000128
 52,0.00021618,0.00028521,0.00029214,-0.00014759,-0.00001669,-0.0001364
 7,-0.00021475,-0.00007612,-0.00018515,0.00029490,-0.00024524,0.0001525
 5,-0.00010751,0.00003878,0.00004729,0.00010246,0.00000321,-0.00007617,
 -0.00000662,0.00000924,0.00001008,-0.00006960,0.00002164,-0.00001438,0
 .00003792,-0.00007969,0.00002066,-0.00017730,0.00046818,0.00016304,-0.
 00001069,-0.00002071,-0.00001018,-0.00002858,0.00008508,-0.00005724,-0
 .00000579,0.00001825,0.00001598,0.00000337,0.00000364,0.00001810,-0.00
 012927,0.00061476,-0.00023073,-0.00014498,-0.00000418,0.00064339,-0.00
 278540,-0.00015913,0.00107433,-0.01345673,-0.01952889,0.00291851,-0.13
 673059,-0.27696792,0.00156095,0.00118717,0.00334733,-0.00015588,-0.000
 10937,0.00030320,-0.00099067,0.00332000,-0.00211883,-0.00228603,0.0000
 3211,-0.00001928,0.00000741,-0.00014915,0.00000593,0.00020214,-0.00000
 370,-0.00002473,-0.00001178,0.00007997,0.00102455,-0.00067817,0.000251
 75,-0.00003176,-0.00000403,0.15012299,0.29349702,0.00006265,-0.0001060
 6,0.00000359,-0.00015508,0.00010903,0.00009885,-0.00006873,-0.00014192
 ,-0.00047439,-0.00118019,0.00075809,-0.00028609,0.00020913,-0.00069579
 ,-0.00012423,-0.00007669,0.00027076,0.00025238,-0.00003666,0.00000790,
 -0.00006164,0.00001157,0.00007516,0.00004393,0.00000610,-0.00000888,-0
 .00002252,0.00003641,-0.00002183,0.00000258,-0.00003528,0.00002725,0.0
 0006357,-0.00026678,-0.00021236,-0.00054120,0.00004321,0.00007888,-0.0
 0007264,0.00003450,-0.00004146,0.00001150,0.00000744,-0.00001069,-0.00
 000570,0.00001291,-0.00001437,0.00000185,-0.00025859,0.00022512,-0.000
 23166,0.00109735,-0.00074307,0.00029923,-0.00118695,0.00054127,-0.0009
 6200,-0.00981634,-0.01144708,-0.00229634,0.02324060,0.00533796,-0.0264
 2558,0.00043909,0.00980979,0.00245997,0.00358734,0.00021606,0.00258397
 ,0.00301630,-0.00151903,-0.00009094,0.00006836,-0.00004264,-0.00008425
 ,-0.00011132,0.00004451,0.00005164,0.00000937,-0.00001536,0.00002089,0
 .00205783,0.00022548,-0.00072859,0.00003828,0.00007470,-0.00017587,-0.
 02023806,-0.00261335,0.02573089,0.00003044,0.00003468,0.00000559,0.000
 02046,-0.00004621,-0.00000398,0.00002979,0.00006580,0.00011155,0.00005
 104,0.00011468,-0.00011779,-0.00000483,-0.00010019,0.00007464,0.000009
 79,0.00006711,0.00001153,0.00007042,-0.00005056,-0.00005000,-0.0000395
 4,0.00000594,0.00002227,-0.00000762,-0.00000514,0.00000363,-0.00001331
 ,-0.00000508,0.00000928,-0.00001325,-0.00001405,0.00000140,-0.00000086
 ,-0.00003222,-0.00000196,0.00000400,0.00003101,-0.00000851,-0.00001075
 ,0.00001293,-0.00002579,0.00000084,-0.00000350,0.00000575,-0.00000487,
 -0.00000124,0.00000018,-0.00001328,-0.00005291,-0.00003112,-0.00021075
 ,0.00001110,-0.00009385,0.00136226,0.00107710,0.00086849,-0.00471892,-
 0.00131811,0.00377871,-0.00727682,0.02021482,0.00706713,-0.16701209,0.
 11795428,0.08981290,0.00865935,-0.00509883,-0.00566249,-0.00053133,-0.
 00285067,0.00087031,-0.00000578,0.00001129,0.00001050,0.00000840,0.000
 00540,-0.00000923,-0.00001440,-0.00001536,0.00001710,0.00009276,-0.000
 01380,0.00005714,-0.00052305,0.00000435,0.00010163,-0.00006415,-0.0002
 2092,-0.00132943,0.16951572,-0.00000103,-0.00002709,-0.00000407,-0.000
 03214,0.00002738,0.00002480,0.00001758,-0.00001252,-0.00009337,-0.0000
 4699,-0.00003929,0.00003878,0.00003385,0.00003237,-0.00003699,-0.00004
 046,-0.00007185,0.00003969,-0.00004131,0.00001505,0.00001113,0.0000164
 9,0.00001635,-0.00000261,0.00000544,0.00000113,-0.00000497,0.00001060,
 0.00000138,-0.00000603,-0.00000132,-0.00000019,0.00000608,0.00001167,0
 .00001158,-0.00000901,-0.00001241,-0.00002112,-0.00000762,0.00000094,0
 .00002905,-0.00001944,-0.00000766,0.00000608,-0.00000134,0.00000477,-0
 .00000166,0.00000028,0.00000889,0.00000623,0.00002944,0.00014030,0.000
 10097,0.00001308,-0.00031772,0.00074258,-0.00015541,-0.00310737,0.0000
 5175,0.00026757,-0.00510104,0.00948310,0.00482146,0.11985166,-0.187958
 91,-0.09017804,0.01996847,-0.00835103,-0.01025922,-0.00239456,-0.00574
 589,-0.00093873,-0.00000303,-0.00000242,-0.00000065,0.00000304,-0.0000
 0723,-0.00000474,0.00000443,0.00000518,-0.00000543,-0.00000950,-0.0000
 3190,-0.00001641,-0.00013008,0.00012080,0.00010183,0.00093124,-0.00017
 189,0.00023339,-0.13056374,0.19102625,-0.00002524,-0.00001266,-0.00001
 295,0.00001826,0.00002373,-0.00003223,0.00000798,-0.00003928,-0.000024
 37,-0.00010380,0.00009639,-0.00001210,-0.00002477,-0.00007415,-0.00000
 244,0.00010614,-0.00002500,0.00002152,-0.00000559,0.00004218,0.0000106
 8,0.00006881,-0.00001884,0.00001055,0.00000949,0.00000360,0.00000440,0
 .00000377,0.00000506,0.00000219,0.00000499,0.00000828,-0.00000088,-0.0
 0000710,-0.00000442,0.00002818,-0.00000513,0.00002721,-0.00000834,-0.0
 0000688,0.00001256,-0.00001967,-0.00000302,-0.00000730,-0.00000059,0.0
 0000428,-0.00000089,-0.00000405,-0.00009026,-0.00003295,-0.00006059,0.
 00001753,0.00009541,-0.00002103,0.00036672,-0.00077156,0.00149103,0.00
 372748,0.00028651,0.00363613,0.00124239,-0.00696260,-0.00375003,0.0902
 6416,-0.08902202,-0.08418637,0.00028736,0.00032992,-0.00158986,0.00048
 841,-0.00101056,0.00250295,0.00001049,-0.00000488,-0.00003613,0.000006
 84,0.00000457,0.00000553,0.00000040,-0.00000922,0.00000818,0.00007270,
 0.00000363,0.00009944,-0.00002771,-0.00006946,-0.00002556,-0.00096779,
 0.00084945,-0.00237798,-0.09519056,0.09629335,0.08468877,0.00002392,0.
 00000949,0.00000619,0.00000836,-0.00002380,0.00002250,-0.00000840,0.00
 005106,0.00004964,0.00003457,0.00011029,-0.00018278,-0.00004599,-0.000
 17135,0.00003052,-0.00006952,0.00006886,0.00009373,0.00008960,-0.00005
 587,-0.00009640,-0.00006520,0.00001720,0.00002135,-0.00001197,-0.00000
 179,0.00000018,-0.00001152,-0.00000562,0.00000694,-0.00000332,0.000000
 48,-0.00000003,0.00002512,0.00000261,0.00002531,0.00000788,-0.00002135
 ,-0.00001177,0.00001020,0.00002069,0.00001882,0.00000111,0.00001247,0.
 00001317,-0.00000309,-0.00000141,0.00001212,-0.00008864,-0.00007105,-0
 .00011886,-0.00047790,0.00003439,0.00005630,0.00089880,-0.00117093,0.0
 0050550,-0.00278174,0.00145268,0.00375560,0.00051385,0.00011832,0.0012
 0212,0.00194035,0.00163412,-0.00085715,-0.25947424,-0.12489249,0.07160
 091,-0.01031887,-0.01454743,0.00038739,0.00001406,0.00000424,0.0000079
 8,-0.00001270,0.00001074,-0.00000164,-0.00003245,-0.00000162,0.0000438
 5,0.00004209,0.00009736,0.00005467,-0.00007160,0.00002370,-0.00000410,
 0.00042371,-0.00006192,0.00040875,-0.00029778,-0.00033575,-0.00084539,
 0.26996214,-0.00001473,-0.00001201,0.00000113,0.00001385,0.00001913,-0
 .00000302,0.00002126,-0.00000766,-0.00004734,-0.00006446,-0.00007144,0
 .00001791,-0.00002789,0.00005502,-0.00000178,0.00000766,-0.00001407,-0
 .00006245,-0.00001229,0.00000222,0.00000911,0.00001378,0.00000301,-0.0
 0000862,-0.00000527,0.00000227,-0.00000106,-0.00000697,-0.00000040,-0.
 00000478,0.00001848,0.00001093,0.00000035,0.00000444,0.00002960,0.0000
 4155,0.00000756,-0.00000437,0.00001606,0.00000366,-0.00000475,0.000011
 11,0.00000252,-0.00000173,0.00000067,-0.00000133,0.00000196,0.00000352
 ,0.00005714,0.00010212,0.00000215,0.00026173,-0.00015876,0.00007689,-0
 .00003651,0.00098009,-0.00030532,0.00312934,-0.00064882,-0.00293296,-0
 .00027425,-0.00643827,-0.00205537,-0.02327290,-0.00380706,0.00928837,-
 0.12679136,-0.13162902,0.02958655,0.01096446,0.01153992,-0.00161847,-0
 .00000466,-0.00000282,0.00000777,-0.00001432,0.00000156,0.00002087,0.0
 0001359,-0.00000501,-0.00002111,-0.00003255,0.00004771,-0.00009060,-0.
 00000788,-0.00000798,0.00001117,-0.00141120,0.00031738,0.00042172,0.00
 097447,0.00070075,0.00022793,0.13702031,0.12911901,0.00000353,0.000008
 77,-0.00000125,-0.00000650,-0.00001300,-0.00001286,-0.00005084,-0.0000
 1856,0.00005646,0.00001033,0.00016442,-0.00009455,-0.00000606,-0.00021
 557,-0.00002118,0.00002616,0.00007363,0.00015252,0.00002076,0.00002323
 ,-0.00002136,-0.00001393,-0.00001762,-0.00000290,0.00000427,-0.0000004
 0,0.00000439,0.00000244,0.00000076,0.00000461,0.00000036,0.00001044,-0
 .00000387,0.00001959,0.00000079,0.00001618,-0.00000600,-0.00001386,-0.
 00001388,-0.00000725,0.00000195,0.00001515,0.00000455,-0.00000490,-0.0
 0000070,0.00000422,-0.00000158,-0.00000208,-0.00015100,0.00008762,-0.0
 0013018,0.00011593,-0.00027799,-0.00037404,0.00072180,0.00068671,0.001
 67095,0.00447604,-0.00290359,0.00346671,0.00071864,-0.00216875,0.00235
 510,-0.00654996,-0.00109799,0.00159773,0.07036642,0.02874203,-0.050229
 69,0.00713301,0.00938753,-0.00228796,0.00004564,-0.00000013,-0.0000453
 7,-0.00001604,0.00000137,0.00000945,0.00000629,0.00000175,0.00000323,-
 0.00000481,0.00014835,0.00012026,-0.00004699,-0.00004432,0.00000055,0.
 00018817,-0.00017876,0.00131681,-0.00051738,0.00076666,-0.00156769,-0.
 07513957,-0.03351622,0.04636043,-0.00001118,-0.00000020,-0.00000348,-0
 .00000583,0.00001712,-0.00002290,-0.00001541,0.00000582,0.00006701,0.0
 0005794,0.00008052,0.00001933,0.00004356,-0.00004959,-0.00004786,-0.00
 006626,-0.00002324,0.00005213,0.00000951,0.00000662,-0.00001504,0.0000
 2463,-0.00001150,0.00000696,0.00001566,0.00000667,0.00000641,0.0000121
 4,0.00000513,0.00000460,0.00001746,0.00002147,0.00000437,-0.00002033,0
 .00001733,-0.00000482,-0.00001370,-0.00000531,-0.00000557,-0.00014960,
 0.00010507,-0.00023790,-0.00002716,0.00003810,0.00000402,0.00001398,-0
 .00000102,-0.00001035,-0.00003958,0.00001801,-0.00000937,-0.00008927,0
 .00012940,-0.00001471,0.00178554,-0.00088554,-0.00162171,0.00530464,-0
 .02439013,-0.00954724,-0.00450687,-0.00179097,0.00218622,-0.00337926,0
 .00160715,0.00372427,0.00586064,0.02064603,0.00186538,-0.06879219,0.06
 464790,0.03688220,0.00001270,-0.00000474,-0.00002709,-0.00001356,-0.00
 000088,0.00001499,0.00001055,0.00000483,-0.00000210,0.00006432,0.00007
 319,-0.00001719,-0.00017754,0.00015939,0.00048370,0.00101761,-0.001112
 45,0.00037290,0.00090814,0.00113677,0.00059503,-0.00022085,-0.00053567
 ,-0.00135182,0.06236958,0.00001257,0.00005342,0.00001085,0.00000472,-0
 .00004242,-0.00002451,-0.00003080,0.00010114,0.00021056,0.00019013,0.0
 0007071,-0.00003710,0.00006406,-0.00001158,-0.00002685,-0.00021681,-0.
 00006635,0.00015004,0.00011861,0.00001279,-0.00009935,-0.00008218,-0.0
 0004036,0.00002338,-0.00000005,-0.00000077,0.00000912,-0.00000029,-0.0
 0000073,0.00000831,0.00002149,0.00001008,0.00001080,-0.00002029,0.0000
 2992,0.00000463,-0.00000257,-0.00001652,0.00001182,0.00013341,0.000234
 07,-0.00009643,-0.00001587,0.00002748,-0.00000336,0.00000369,0.0000004
 5,-0.00000069,-0.00001061,-0.00003333,-0.00001264,-0.00061155,0.000072
 26,0.00012826,0.00266266,-0.00013678,-0.00065442,0.00644452,-0.0183555
 1,-0.00608022,-0.00355264,-0.00088031,0.00105171,0.00058576,0.00017670
 ,-0.00116392,-0.00130395,-0.00128547,0.00022144,0.05532959,-0.31316320
 ,-0.08914517,-0.00000918,-0.00001137,0.00003255,-0.00002591,-0.0000004
 6,0.00000037,0.00000018,0.00000809,0.00002078,0.00010595,0.00015406,-0
 .00004603,-0.00073933,0.00044512,0.00047715,0.00037903,-0.00048051,-0.
 00082322,-0.00019243,0.00006501,-0.00024395,0.00067336,-0.00011850,0.0
 0036722,-0.05991527,0.33318286,0.00000810,-0.00002121,0.00000342,-0.00
 001547,0.00000881,0.00004238,-0.00004950,0.00002769,0.00000394,0.00006
 448,0.00010308,-0.00016316,0.00014947,-0.00025186,-0.00001634,0.000035
 04,-0.00006269,0.00021651,0.00002004,0.00012458,0.00002580,0.00003290,
 -0.00000306,-0.00001813,0.00000856,0.00000349,0.00000238,0.00001550,-0
 .00000394,0.00001595,0.00001163,0.00001729,0.00000233,-0.00000286,0.00
 002383,-0.00001443,0.00001805,-0.00005017,-0.00003672,-0.00022394,0.00
 039376,-0.00040170,-0.00002212,0.00000402,0.00000821,0.00002956,0.0000
 0166,-0.00001483,-0.00000537,-0.00000114,0.00001958,-0.00026379,-0.000
 04166,-0.00016879,-0.00009739,0.00088964,-0.00098640,-0.00284185,0.007
 33016,-0.00084181,0.00152685,0.00023185,0.00086843,0.00373330,-0.00119
 604,0.00231614,-0.00251272,-0.01002293,-0.00130562,0.03365054,-0.09284
 239,-0.05360286,0.00000697,0.00001626,-0.00003227,0.00000811,0.0000060
 7,0.00000151,0.00001167,-0.00000969,-0.00000504,0.00007008,0.00007026,
 0.00003610,0.00017410,-0.00027477,0.00022095,0.00066394,-0.00021061,0.
 00201997,0.00021235,-0.00090346,0.00122331,-0.00106586,0.00092426,-0.0
 0234096,-0.03335037,0.09571888,0.05292213\\-0.00000072,0.00000052,-0.0
 0000006,0.00000089,-0.00000315,-0.00000134,0.00000366,0.00000335,0.000
 00548,0.00000156,0.00000869,-0.00000507,0.00000299,-0.00000841,0.00000
 418,0.00000004,-0.00000211,-0.00000207,0.00000233,0.00000146,0.0000024
 0,0.00000119,-0.00000119,0.00000062,0.00000004,-0.00000062,-0.00000003
 ,-0.00000013,-0.00000034,0.00000018,0.00000069,-0.00000038,-0.00000190
 ,-0.00000127,0.00000075,-0.00000147,0.00000050,-0.00000022,0.00000035,
 -0.00000246,0.00000132,-0.00000287,-0.00000087,0.00000070,-0.00000144,
 -0.00000026,0.00000009,-0.00000134,0.00000172,-0.00000014,0.00000086,-
 0.00000672,-0.00000419,-0.00000410,0.00000144,0.00000042,-0.00000210,-
 0.00000484,0.00000212,0.00000256,0.00000030,-0.00000114,-0.00000068,0.
 00000065,-0.00000043,0.00000074,-0.00000062,0.00000021,0.00000104,0.00
 000119,0.00000140,0.00000059,-0.00000071,-0.00000089,0.00000047,0.0000
 0018,0.00000089,-0.00000040,-0.00000047,0.00000064,-0.00000136,0.00000
 044,0.00000005,0.00000402,-0.00000048,-0.00000012,0.00000083,-0.000000
 03,-0.00000010,0.00000031,0.00000018,0.00000035,0.00000070,-0.00000007
 ,0.00000038,0.00000067,-0.00000037,0.00000010,0.00000024\\\@
 The archive entry for this job was punched.


 HE THAT FOLLOWS NATURE IS NEVER LOST.

                             -- BACON
 Job cpu time:       0 days  1 hours 14 minutes 45.6 seconds.
 Elapsed time:       0 days  0 hours  2 minutes 40.6 seconds.
 File lengths (MBytes):  RWF=    292 Int=      0 D2E=      0 Chk=      8 Scr=      1
 Normal termination of Gaussian 16 at Mon Apr  8 10:59:03 2024.
