 Entering Gaussian System, Link 0=g16
 Initial command:
 /public3/home/scg9909/software-scg9909/g16/l1.exe "/public3/home/scg9909/tmp/Gau-57281.inp" -scrdir="/public3/home/scg9909/tmp/"
 Entering Link 1 = /public3/home/scg9909/software-scg9909/g16/l1.exe PID=     57282.
  
 Copyright (c) 1988-2019, Gaussian, Inc.  All Rights Reserved.
  
 This is part of the Gaussian(R) 16 program.  It is based on
 the Gaussian(R) 09 system (copyright 2009, Gaussian, Inc.),
 the Gaussian(R) 03 system (copyright 2003, Gaussian, Inc.),
 the Gaussian(R) 98 system (copyright 1998, Gaussian, Inc.),
 the Gaussian(R) 94 system (copyright 1995, Gaussian, Inc.),
 the Gaussian 92(TM) system (copyright 1992, Gaussian, Inc.),
 the Gaussian 90(TM) system (copyright 1990, Gaussian, Inc.),
 the Gaussian 88(TM) system (copyright 1988, Gaussian, Inc.),
 the Gaussian 86(TM) system (copyright 1986, Carnegie Mellon
 University), and the Gaussian 82(TM) system (copyright 1983,
 Carnegie Mellon University). Gaussian is a federally registered
 trademark of Gaussian, Inc.
  
 This software contains proprietary and confidential information,
 including trade secrets, belonging to Gaussian, Inc.
  
 This software is provided under written license and may be
 used, copied, transmitted, or stored only in accord with that
 written license.
  
 The following legend is applicable only to US Government
 contracts under FAR:
  
                    RESTRICTED RIGHTS LEGEND
  
 Use, reproduction and disclosure by the US Government is
 subject to restrictions as set forth in subparagraphs (a)
 and (c) of the Commercial Computer Software - Restricted
 Rights clause in FAR 52.227-19.
  
 Gaussian, Inc.
 340 Quinnipiac St., Bldg. 40, Wallingford CT 06492
  
  
 ---------------------------------------------------------------
 Warning -- This program may not be used in any manner that
 competes with the business of Gaussian, Inc. or will provide
 assistance to any competitor of Gaussian, Inc.  The licensee
 of this program is prohibited from giving any competitor of
 Gaussian, Inc. access to this program.  By using this program,
 the user acknowledges that Gaussian, Inc. is engaged in the
 business of creating and licensing software in the field of
 computational chemistry and represents and warrants to the
 licensee that it is not a competitor of Gaussian, Inc. and that
 it will not use this program in any manner prohibited above.
 ---------------------------------------------------------------
  

 Cite this work as:
 Gaussian 16, Revision C.01,
 M. J. Frisch, G. W. Trucks, H. B. Schlegel, G. E. Scuseria, 
 M. A. Robb, J. R. Cheeseman, G. Scalmani, V. Barone, 
 G. A. Petersson, H. Nakatsuji, X. Li, M. Caricato, A. V. Marenich, 
 J. Bloino, B. G. Janesko, R. Gomperts, B. Mennucci, H. P. Hratchian, 
 J. V. Ortiz, A. F. Izmaylov, J. L. Sonnenberg, D. Williams-Young, 
 F. Ding, F. Lipparini, F. Egidi, J. Goings, B. Peng, A. Petrone, 
 T. Henderson, D. Ranasinghe, V. G. Zakrzewski, J. Gao, N. Rega, 
 G. Zheng, W. Liang, M. Hada, M. Ehara, K. Toyota, R. Fukuda, 
 J. Hasegawa, M. Ishida, T. Nakajima, Y. Honda, O. Kitao, H. Nakai, 
 T. Vreven, K. Throssell, J. A. Montgomery, Jr., J. E. Peralta, 
 F. Ogliaro, M. J. Bearpark, J. J. Heyd, E. N. Brothers, K. N. Kudin, 
 V. N. Staroverov, T. A. Keith, R. Kobayashi, J. Normand, 
 K. Raghavachari, A. P. Rendell, J. C. Burant, S. S. Iyengar, 
 J. Tomasi, M. Cossi, J. M. Millam, M. Klene, C. Adamo, R. Cammi, 
 J. W. Ochterski, R. L. Martin, K. Morokuma, O. Farkas, 
 J. B. Foresman, and D. J. Fox, Gaussian, Inc., Wallingford CT, 2019.
 
 ******************************************
 Gaussian 16:  ES64L-G16RevC.01  3-Jul-2019
                 8-Apr-2024 
 ******************************************
 %nprocshared=28
 Will use up to   28 processors via shared memory.
 %mem=56GB
 -----------------------------------------------------
 #p opt=(calcfc,ts,noeigen) freq b3lyp/6-31g* em=gd3bj
 -----------------------------------------------------
 1/5=1,10=4,11=1,18=20,26=3,38=1/1,3;
 2/9=110,12=2,17=6,18=5,40=1/2;
 3/5=1,6=6,7=1,11=2,25=1,30=1,71=2,74=-5,124=41,140=1/1,2,3;
 4//1;
 5/5=2,38=5/2;
 8/6=4,10=90,11=11/1;
 11/6=1,8=1,9=11,15=111,16=1/1,2,10;
 10/6=1,13=1/2;
 6/7=2,8=2,9=2,10=2,28=1/1;
 7/10=1,25=1/1,2,3,16;
 1/5=1,10=4,11=1,18=20,26=3/3(2);
 2/9=110/2;
 99//99;
 2/9=110/2;
 3/5=1,6=6,7=1,11=2,25=1,30=1,71=1,74=-5,124=41/1,2,3;
 4/5=5,16=3,69=1/1;
 5/5=2,38=5/2;
 7//1,2,3,16;
 1/5=1,11=1,18=20,26=3/3(-5);
 2/9=110/2;
 6/7=2,8=2,9=2,10=2,19=2,28=1/1;
 99/9=1/99;
 Leave Link    1 at Mon Apr  8 11:31:19 2024, MaxMem=  7516192768 cpu:               0.9 elap:               0.0
 (Enter /public3/home/scg9909/software-scg9909/g16/l101.exe)
 -------------------------
 $$$$1 4 2 1 14 0####0????
 -------------------------
 Symbolic Z-matrix:
 Charge =  0 Multiplicity = 1
 C                    -2.25077   2.01836  -0.37624 
 C                    -1.70037   0.6738    0.00644 
 C                    -2.30151  -0.5154   -0.52934 
 N                    -1.82515  -1.70884  -0.25768 
 N                    -0.70094  -1.80482   0.50038 
 C                    -0.48028  -0.84906   1.49606 
 O                     0.39115  -1.02395   2.34434 
 C                    -1.28645   0.43969   1.43789 
 H                    -2.62675   2.01655  -1.40492 
 H                    -3.08578   2.27113   0.2906 
 H                    -1.48901   2.79642  -0.28302 
 H                    -3.11689  -0.4644   -1.24998 
 H                    -0.70354   1.26017   1.86277 
 H                    -2.19396   0.33222   2.05121 
 N                     0.29761  -1.55967  -2.06203 
 C                     0.65445  -0.82726  -0.97357 
 C                     0.15325   0.53953  -0.93238 
 C                     0.98478   1.5817   -0.25203 
 O                     0.74215   2.76982  -0.4149 
 C                     2.14124   1.10894   0.60741 
 C                     2.88525  -0.0399   -0.08528 
 C                     1.94162  -1.23406  -0.28378 
 H                    -0.63187  -1.37943  -2.42814 
 H                     0.48776  -2.55382  -1.99084 
 H                    -0.24274   0.90185  -1.87854 
 H                     2.7844    1.97212   0.79613 
 H                     1.75073   0.7489    1.56964 
 H                     3.28081   0.30123  -1.05089 
 H                     3.74009  -0.35494   0.52157 
 H                     1.71125  -1.6692    0.69256 
 H                     2.42119  -2.01057  -0.8893 
 
 Add virtual bond connecting atoms C16        and N5         Dist= 4.21D+00.
 Add virtual bond connecting atoms C17        and C2         Dist= 3.93D+00.
 Add virtual bond connecting atoms O19        and H11        Dist= 4.22D+00.
 Add virtual bond connecting atoms H30        and O7         Dist= 4.18D+00.
 ITRead=  0  0  0  0  0  0  0  0  0  0  0  0  0  0  0  0  0  0  0  0
 ITRead=  0  0  0  0  0  0  0  0  0  0  0
 MicOpt= -1 -1 -1 -1 -1 -1 -1 -1 -1 -1 -1 -1 -1 -1 -1 -1 -1 -1 -1 -1
 MicOpt= -1 -1 -1 -1 -1 -1 -1 -1 -1 -1 -1
 NAtoms=     31 NQM=       31 NQMF=       0 NMMI=      0 NMMIF=      0
                NMic=       0 NMicF=      0.
                    Isotopes and Nuclear Properties:
 (Nuclear quadrupole moments (NQMom) in fm**2, nuclear magnetic moments (NMagM)
  in nuclear magnetons)

  Atom         1           2           3           4           5           6           7           8           9          10
 IAtWgt=          12          12          12          14          14          12          16          12           1           1
 AtmWgt=  12.0000000  12.0000000  12.0000000  14.0030740  14.0030740  12.0000000  15.9949146  12.0000000   1.0078250   1.0078250
 NucSpn=           0           0           0           2           2           0           0           0           1           1
 AtZEff=  -0.0000000  -0.0000000  -0.0000000  -0.0000000  -0.0000000  -0.0000000  -0.0000000  -0.0000000  -0.0000000  -0.0000000
 NQMom=    0.0000000   0.0000000   0.0000000   2.0440000   2.0440000   0.0000000   0.0000000   0.0000000   0.0000000   0.0000000
 NMagM=    0.0000000   0.0000000   0.0000000   0.4037610   0.4037610   0.0000000   0.0000000   0.0000000   2.7928460   2.7928460
 AtZNuc=   6.0000000   6.0000000   6.0000000   7.0000000   7.0000000   6.0000000   8.0000000   6.0000000   1.0000000   1.0000000

  Atom        11          12          13          14          15          16          17          18          19          20
 IAtWgt=           1           1           1           1          14          12          12          12          16          12
 AtmWgt=   1.0078250   1.0078250   1.0078250   1.0078250  14.0030740  12.0000000  12.0000000  12.0000000  15.9949146  12.0000000
 NucSpn=           1           1           1           1           2           0           0           0           0           0
 AtZEff=  -0.0000000  -0.0000000  -0.0000000  -0.0000000  -0.0000000  -0.0000000  -0.0000000  -0.0000000  -0.0000000  -0.0000000
 NQMom=    0.0000000   0.0000000   0.0000000   0.0000000   2.0440000   0.0000000   0.0000000   0.0000000   0.0000000   0.0000000
 NMagM=    2.7928460   2.7928460   2.7928460   2.7928460   0.4037610   0.0000000   0.0000000   0.0000000   0.0000000   0.0000000
 AtZNuc=   1.0000000   1.0000000   1.0000000   1.0000000   7.0000000   6.0000000   6.0000000   6.0000000   8.0000000   6.0000000

  Atom        21          22          23          24          25          26          27          28          29          30
 IAtWgt=          12          12           1           1           1           1           1           1           1           1
 AtmWgt=  12.0000000  12.0000000   1.0078250   1.0078250   1.0078250   1.0078250   1.0078250   1.0078250   1.0078250   1.0078250
 NucSpn=           0           0           1           1           1           1           1           1           1           1
 AtZEff=  -0.0000000  -0.0000000  -0.0000000  -0.0000000  -0.0000000  -0.0000000  -0.0000000  -0.0000000  -0.0000000  -0.0000000
 NQMom=    0.0000000   0.0000000   0.0000000   0.0000000   0.0000000   0.0000000   0.0000000   0.0000000   0.0000000   0.0000000
 NMagM=    0.0000000   0.0000000   2.7928460   2.7928460   2.7928460   2.7928460   2.7928460   2.7928460   2.7928460   2.7928460
 AtZNuc=   6.0000000   6.0000000   1.0000000   1.0000000   1.0000000   1.0000000   1.0000000   1.0000000   1.0000000   1.0000000

  Atom        31
 IAtWgt=           1
 AtmWgt=   1.0078250
 NucSpn=           1
 AtZEff=  -0.0000000
 NQMom=    0.0000000
 NMagM=    2.7928460
 AtZNuc=   1.0000000
 Leave Link  101 at Mon Apr  8 11:31:19 2024, MaxMem=  7516192768 cpu:               4.2 elap:               0.2
 (Enter /public3/home/scg9909/software-scg9909/g16/l103.exe)

 GradGradGradGradGradGradGradGradGradGradGradGradGradGradGradGradGradGrad
 Berny optimization.
 Initialization pass.
                           ----------------------------
                           !    Initial Parameters    !
                           ! (Angstroms and Degrees)  !
 --------------------------                            --------------------------
 ! Name  Definition              Value          Derivative Info.                !
 --------------------------------------------------------------------------------
 ! R1    R(1,2)                  1.5024         calculate D2E/DX2 analytically  !
 ! R2    R(1,9)                  1.0952         calculate D2E/DX2 analytically  !
 ! R3    R(1,10)                 1.0981         calculate D2E/DX2 analytically  !
 ! R4    R(1,11)                 1.0929         calculate D2E/DX2 analytically  !
 ! R5    R(2,3)                  1.4362         calculate D2E/DX2 analytically  !
 ! R6    R(2,8)                  1.5084         calculate D2E/DX2 analytically  !
 ! R7    R(2,17)                 2.0821         calculate D2E/DX2 analytically  !
 ! R8    R(3,4)                  1.3134         calculate D2E/DX2 analytically  !
 ! R9    R(3,12)                 1.0894         calculate D2E/DX2 analytically  !
 ! R10   R(4,5)                  1.3593         calculate D2E/DX2 analytically  !
 ! R11   R(5,6)                  1.3977         calculate D2E/DX2 analytically  !
 ! R12   R(5,16)                 2.2283         calculate D2E/DX2 analytically  !
 ! R13   R(6,7)                  1.2286         calculate D2E/DX2 analytically  !
 ! R14   R(6,8)                  1.5212         calculate D2E/DX2 analytically  !
 ! R15   R(7,30)                 2.2107         calculate D2E/DX2 analytically  !
 ! R16   R(8,13)                 1.0925         calculate D2E/DX2 analytically  !
 ! R17   R(8,14)                 1.1006         calculate D2E/DX2 analytically  !
 ! R18   R(11,19)                2.2352         calculate D2E/DX2 analytically  !
 ! R19   R(15,16)                1.3596         calculate D2E/DX2 analytically  !
 ! R20   R(15,23)                1.0151         calculate D2E/DX2 analytically  !
 ! R21   R(15,24)                1.0147         calculate D2E/DX2 analytically  !
 ! R22   R(16,17)                1.4564         calculate D2E/DX2 analytically  !
 ! R23   R(16,22)                1.5159         calculate D2E/DX2 analytically  !
 ! R24   R(17,18)                1.4968         calculate D2E/DX2 analytically  !
 ! R25   R(17,25)                1.0878         calculate D2E/DX2 analytically  !
 ! R26   R(18,19)                1.2235         calculate D2E/DX2 analytically  !
 ! R27   R(18,20)                1.5164         calculate D2E/DX2 analytically  !
 ! R28   R(20,21)                1.534          calculate D2E/DX2 analytically  !
 ! R29   R(20,26)                1.0929         calculate D2E/DX2 analytically  !
 ! R30   R(20,27)                1.0991         calculate D2E/DX2 analytically  !
 ! R31   R(21,22)                1.5349         calculate D2E/DX2 analytically  !
 ! R32   R(21,28)                1.0978         calculate D2E/DX2 analytically  !
 ! R33   R(21,29)                1.0947         calculate D2E/DX2 analytically  !
 ! R34   R(22,30)                1.0935         calculate D2E/DX2 analytically  !
 ! R35   R(22,31)                1.0953         calculate D2E/DX2 analytically  !
 ! A1    A(2,1,9)              111.3168         calculate D2E/DX2 analytically  !
 ! A2    A(2,1,10)             109.2629         calculate D2E/DX2 analytically  !
 ! A3    A(2,1,11)             111.1044         calculate D2E/DX2 analytically  !
 ! A4    A(9,1,10)             108.0408         calculate D2E/DX2 analytically  !
 ! A5    A(9,1,11)             108.6976         calculate D2E/DX2 analytically  !
 ! A6    A(10,1,11)            108.3218         calculate D2E/DX2 analytically  !
 ! A7    A(1,2,3)              119.5158         calculate D2E/DX2 analytically  !
 ! A8    A(1,2,8)              118.7609         calculate D2E/DX2 analytically  !
 ! A9    A(1,2,17)             105.6049         calculate D2E/DX2 analytically  !
 ! A10   A(3,2,8)              109.9002         calculate D2E/DX2 analytically  !
 ! A11   A(3,2,17)              98.6861         calculate D2E/DX2 analytically  !
 ! A12   A(8,2,17)              99.9969         calculate D2E/DX2 analytically  !
 ! A13   A(2,3,4)              121.5621         calculate D2E/DX2 analytically  !
 ! A14   A(2,3,12)             121.4201         calculate D2E/DX2 analytically  !
 ! A15   A(4,3,12)             116.7969         calculate D2E/DX2 analytically  !
 ! A16   A(3,4,5)              118.6507         calculate D2E/DX2 analytically  !
 ! A17   A(4,5,6)              118.6574         calculate D2E/DX2 analytically  !
 ! A18   A(4,5,16)              95.9233         calculate D2E/DX2 analytically  !
 ! A19   A(6,5,16)              94.3125         calculate D2E/DX2 analytically  !
 ! A20   A(5,6,7)              120.4298         calculate D2E/DX2 analytically  !
 ! A21   A(5,6,8)              117.9303         calculate D2E/DX2 analytically  !
 ! A22   A(7,6,8)              121.5241         calculate D2E/DX2 analytically  !
 ! A23   A(6,7,30)              87.0886         calculate D2E/DX2 analytically  !
 ! A24   A(2,8,6)              108.2522         calculate D2E/DX2 analytically  !
 ! A25   A(2,8,13)             113.512          calculate D2E/DX2 analytically  !
 ! A26   A(2,8,14)             108.5261         calculate D2E/DX2 analytically  !
 ! A27   A(6,8,13)             109.7926         calculate D2E/DX2 analytically  !
 ! A28   A(6,8,14)             109.4469         calculate D2E/DX2 analytically  !
 ! A29   A(13,8,14)            107.2518         calculate D2E/DX2 analytically  !
 ! A30   A(1,11,19)            133.0206         calculate D2E/DX2 analytically  !
 ! A31   A(16,15,23)           115.6838         calculate D2E/DX2 analytically  !
 ! A32   A(16,15,24)           114.9892         calculate D2E/DX2 analytically  !
 ! A33   A(23,15,24)           111.7682         calculate D2E/DX2 analytically  !
 ! A34   A(5,16,15)             97.6771         calculate D2E/DX2 analytically  !
 ! A35   A(5,16,17)            100.5842         calculate D2E/DX2 analytically  !
 ! A36   A(5,16,22)             95.6104         calculate D2E/DX2 analytically  !
 ! A37   A(15,16,17)           115.9687         calculate D2E/DX2 analytically  !
 ! A38   A(15,16,22)           116.2681         calculate D2E/DX2 analytically  !
 ! A39   A(17,16,22)           122.0851         calculate D2E/DX2 analytically  !
 ! A40   A(2,17,16)            112.3118         calculate D2E/DX2 analytically  !
 ! A41   A(2,17,18)            104.1648         calculate D2E/DX2 analytically  !
 ! A42   A(2,17,25)             92.6729         calculate D2E/DX2 analytically  !
 ! A43   A(16,17,18)           118.3664         calculate D2E/DX2 analytically  !
 ! A44   A(16,17,25)           114.4103         calculate D2E/DX2 analytically  !
 ! A45   A(18,17,25)           111.4488         calculate D2E/DX2 analytically  !
 ! A46   A(17,18,19)           120.3606         calculate D2E/DX2 analytically  !
 ! A47   A(17,18,20)           117.6584         calculate D2E/DX2 analytically  !
 ! A48   A(19,18,20)           121.9663         calculate D2E/DX2 analytically  !
 ! A49   A(11,19,18)           101.6331         calculate D2E/DX2 analytically  !
 ! A50   A(18,20,21)           110.3311         calculate D2E/DX2 analytically  !
 ! A51   A(18,20,26)           107.4839         calculate D2E/DX2 analytically  !
 ! A52   A(18,20,27)           109.1078         calculate D2E/DX2 analytically  !
 ! A53   A(21,20,26)           112.5852         calculate D2E/DX2 analytically  !
 ! A54   A(21,20,27)           108.8035         calculate D2E/DX2 analytically  !
 ! A55   A(26,20,27)           108.4601         calculate D2E/DX2 analytically  !
 ! A56   A(20,21,22)           110.0525         calculate D2E/DX2 analytically  !
 ! A57   A(20,21,28)           109.8292         calculate D2E/DX2 analytically  !
 ! A58   A(20,21,29)           110.1183         calculate D2E/DX2 analytically  !
 ! A59   A(22,21,28)           110.4577         calculate D2E/DX2 analytically  !
 ! A60   A(22,21,29)           109.1412         calculate D2E/DX2 analytically  !
 ! A61   A(28,21,29)           107.1963         calculate D2E/DX2 analytically  !
 ! A62   A(16,22,21)           111.8441         calculate D2E/DX2 analytically  !
 ! A63   A(16,22,30)           109.523          calculate D2E/DX2 analytically  !
 ! A64   A(16,22,31)           108.0879         calculate D2E/DX2 analytically  !
 ! A65   A(21,22,30)           108.8842         calculate D2E/DX2 analytically  !
 ! A66   A(21,22,31)           110.7255         calculate D2E/DX2 analytically  !
 ! A67   A(30,22,31)           107.6827         calculate D2E/DX2 analytically  !
 ! A68   A(7,30,22)            132.5928         calculate D2E/DX2 analytically  !
 ! D1    D(9,1,2,3)            -33.6888         calculate D2E/DX2 analytically  !
 ! D2    D(9,1,2,8)           -172.8825         calculate D2E/DX2 analytically  !
 ! D3    D(9,1,2,17)            76.0848         calculate D2E/DX2 analytically  !
 ! D4    D(10,1,2,3)            85.5548         calculate D2E/DX2 analytically  !
 ! D5    D(10,1,2,8)           -53.6389         calculate D2E/DX2 analytically  !
 ! D6    D(10,1,2,17)         -164.6716         calculate D2E/DX2 analytically  !
 ! D7    D(11,1,2,3)          -154.9851         calculate D2E/DX2 analytically  !
 ! D8    D(11,1,2,8)            65.8212         calculate D2E/DX2 analytically  !
 ! D9    D(11,1,2,17)          -45.2115         calculate D2E/DX2 analytically  !
 ! D10   D(2,1,11,19)           27.1413         calculate D2E/DX2 analytically  !
 ! D11   D(9,1,11,19)          -95.678          calculate D2E/DX2 analytically  !
 ! D12   D(10,1,11,19)         147.1618         calculate D2E/DX2 analytically  !
 ! D13   D(1,2,3,4)            177.6769         calculate D2E/DX2 analytically  !
 ! D14   D(1,2,3,12)             3.2511         calculate D2E/DX2 analytically  !
 ! D15   D(8,2,3,4)            -39.8595         calculate D2E/DX2 analytically  !
 ! D16   D(8,2,3,12)           145.7146         calculate D2E/DX2 analytically  !
 ! D17   D(17,2,3,4)            64.149          calculate D2E/DX2 analytically  !
 ! D18   D(17,2,3,12)         -110.2769         calculate D2E/DX2 analytically  !
 ! D19   D(1,2,8,6)           -167.0482         calculate D2E/DX2 analytically  !
 ! D20   D(1,2,8,13)           -44.8859         calculate D2E/DX2 analytically  !
 ! D21   D(1,2,8,14)            74.2504         calculate D2E/DX2 analytically  !
 ! D22   D(3,2,8,6)             50.1668         calculate D2E/DX2 analytically  !
 ! D23   D(3,2,8,13)           172.3291         calculate D2E/DX2 analytically  !
 ! D24   D(3,2,8,14)           -68.5346         calculate D2E/DX2 analytically  !
 ! D25   D(17,2,8,6)           -52.9477         calculate D2E/DX2 analytically  !
 ! D26   D(17,2,8,13)           69.2146         calculate D2E/DX2 analytically  !
 ! D27   D(17,2,8,14)         -171.6491         calculate D2E/DX2 analytically  !
 ! D28   D(1,2,17,16)         -164.0285         calculate D2E/DX2 analytically  !
 ! D29   D(1,2,17,18)           66.6825         calculate D2E/DX2 analytically  !
 ! D30   D(1,2,17,25)          -46.2304         calculate D2E/DX2 analytically  !
 ! D31   D(3,2,17,16)          -39.9643         calculate D2E/DX2 analytically  !
 ! D32   D(3,2,17,18)         -169.2533         calculate D2E/DX2 analytically  !
 ! D33   D(3,2,17,25)           77.8339         calculate D2E/DX2 analytically  !
 ! D34   D(8,2,17,16)           72.1571         calculate D2E/DX2 analytically  !
 ! D35   D(8,2,17,18)          -57.1319         calculate D2E/DX2 analytically  !
 ! D36   D(8,2,17,25)         -170.0447         calculate D2E/DX2 analytically  !
 ! D37   D(2,3,4,5)             -2.9874         calculate D2E/DX2 analytically  !
 ! D38   D(12,3,4,5)           171.6843         calculate D2E/DX2 analytically  !
 ! D39   D(3,4,5,6)             32.8821         calculate D2E/DX2 analytically  !
 ! D40   D(3,4,5,16)           -65.3309         calculate D2E/DX2 analytically  !
 ! D41   D(4,5,6,7)            167.5329         calculate D2E/DX2 analytically  !
 ! D42   D(4,5,6,8)            -16.3185         calculate D2E/DX2 analytically  !
 ! D43   D(16,5,6,7)           -93.3096         calculate D2E/DX2 analytically  !
 ! D44   D(16,5,6,8)            82.839          calculate D2E/DX2 analytically  !
 ! D45   D(4,5,16,15)          -49.5693         calculate D2E/DX2 analytically  !
 ! D46   D(4,5,16,17)           68.769          calculate D2E/DX2 analytically  !
 ! D47   D(4,5,16,22)         -167.0833         calculate D2E/DX2 analytically  !
 ! D48   D(6,5,16,15)         -168.9978         calculate D2E/DX2 analytically  !
 ! D49   D(6,5,16,17)          -50.6596         calculate D2E/DX2 analytically  !
 ! D50   D(6,5,16,22)           73.4882         calculate D2E/DX2 analytically  !
 ! D51   D(5,6,7,30)            44.7238         calculate D2E/DX2 analytically  !
 ! D52   D(8,6,7,30)          -131.2841         calculate D2E/DX2 analytically  !
 ! D53   D(5,6,8,2)            -25.0826         calculate D2E/DX2 analytically  !
 ! D54   D(5,6,8,13)          -149.4943         calculate D2E/DX2 analytically  !
 ! D55   D(5,6,8,14)            93.0331         calculate D2E/DX2 analytically  !
 ! D56   D(7,6,8,2)            151.0215         calculate D2E/DX2 analytically  !
 ! D57   D(7,6,8,13)            26.6099         calculate D2E/DX2 analytically  !
 ! D58   D(7,6,8,14)           -90.8627         calculate D2E/DX2 analytically  !
 ! D59   D(6,7,30,22)           48.2772         calculate D2E/DX2 analytically  !
 ! D60   D(1,11,19,18)         -18.4356         calculate D2E/DX2 analytically  !
 ! D61   D(23,15,16,5)          70.4821         calculate D2E/DX2 analytically  !
 ! D62   D(23,15,16,17)        -35.29           calculate D2E/DX2 analytically  !
 ! D63   D(23,15,16,22)        170.6501         calculate D2E/DX2 analytically  !
 ! D64   D(24,15,16,5)         -62.2178         calculate D2E/DX2 analytically  !
 ! D65   D(24,15,16,17)       -167.9899         calculate D2E/DX2 analytically  !
 ! D66   D(24,15,16,22)         37.9503         calculate D2E/DX2 analytically  !
 ! D67   D(5,16,17,2)          -14.3026         calculate D2E/DX2 analytically  !
 ! D68   D(5,16,17,18)         107.1764         calculate D2E/DX2 analytically  !
 ! D69   D(5,16,17,25)        -118.2835         calculate D2E/DX2 analytically  !
 ! D70   D(15,16,17,2)          89.7124         calculate D2E/DX2 analytically  !
 ! D71   D(15,16,17,18)       -148.8086         calculate D2E/DX2 analytically  !
 ! D72   D(15,16,17,25)        -14.2685         calculate D2E/DX2 analytically  !
 ! D73   D(22,16,17,2)        -117.8668         calculate D2E/DX2 analytically  !
 ! D74   D(22,16,17,18)          3.6123         calculate D2E/DX2 analytically  !
 ! D75   D(22,16,17,25)        138.1524         calculate D2E/DX2 analytically  !
 ! D76   D(5,16,22,21)        -129.9656         calculate D2E/DX2 analytically  !
 ! D77   D(5,16,22,30)          -9.1618         calculate D2E/DX2 analytically  !
 ! D78   D(5,16,22,31)         107.8926         calculate D2E/DX2 analytically  !
 ! D79   D(15,16,22,21)        128.6043         calculate D2E/DX2 analytically  !
 ! D80   D(15,16,22,30)       -110.592          calculate D2E/DX2 analytically  !
 ! D81   D(15,16,22,31)          6.4624         calculate D2E/DX2 analytically  !
 ! D82   D(17,16,22,21)        -23.7397         calculate D2E/DX2 analytically  !
 ! D83   D(17,16,22,30)         97.064          calculate D2E/DX2 analytically  !
 ! D84   D(17,16,22,31)       -145.8816         calculate D2E/DX2 analytically  !
 ! D85   D(2,17,18,19)         -68.7795         calculate D2E/DX2 analytically  !
 ! D86   D(2,17,18,20)         112.5894         calculate D2E/DX2 analytically  !
 ! D87   D(16,17,18,19)        165.6816         calculate D2E/DX2 analytically  !
 ! D88   D(16,17,18,20)        -12.9494         calculate D2E/DX2 analytically  !
 ! D89   D(25,17,18,19)         29.8956         calculate D2E/DX2 analytically  !
 ! D90   D(25,17,18,20)       -148.7354         calculate D2E/DX2 analytically  !
 ! D91   D(17,18,19,11)         42.6764         calculate D2E/DX2 analytically  !
 ! D92   D(20,18,19,11)       -138.7528         calculate D2E/DX2 analytically  !
 ! D93   D(17,18,20,21)         41.8647         calculate D2E/DX2 analytically  !
 ! D94   D(17,18,20,26)        164.9662         calculate D2E/DX2 analytically  !
 ! D95   D(17,18,20,27)        -77.6169         calculate D2E/DX2 analytically  !
 ! D96   D(19,18,20,21)       -136.743          calculate D2E/DX2 analytically  !
 ! D97   D(19,18,20,26)        -13.6415         calculate D2E/DX2 analytically  !
 ! D98   D(19,18,20,27)        103.7755         calculate D2E/DX2 analytically  !
 ! D99   D(18,20,21,22)        -61.6171         calculate D2E/DX2 analytically  !
 ! D100  D(18,20,21,28)         60.1957         calculate D2E/DX2 analytically  !
 ! D101  D(18,20,21,29)        178.022          calculate D2E/DX2 analytically  !
 ! D102  D(26,20,21,22)        178.3078         calculate D2E/DX2 analytically  !
 ! D103  D(26,20,21,28)        -59.8795         calculate D2E/DX2 analytically  !
 ! D104  D(26,20,21,29)         57.9469         calculate D2E/DX2 analytically  !
 ! D105  D(27,20,21,22)         58.0487         calculate D2E/DX2 analytically  !
 ! D106  D(27,20,21,28)        179.8615         calculate D2E/DX2 analytically  !
 ! D107  D(27,20,21,29)        -62.3122         calculate D2E/DX2 analytically  !
 ! D108  D(20,21,22,16)         52.1599         calculate D2E/DX2 analytically  !
 ! D109  D(20,21,22,30)        -69.0142         calculate D2E/DX2 analytically  !
 ! D110  D(20,21,22,31)        172.7781         calculate D2E/DX2 analytically  !
 ! D111  D(28,21,22,16)        -69.2784         calculate D2E/DX2 analytically  !
 ! D112  D(28,21,22,30)        169.5474         calculate D2E/DX2 analytically  !
 ! D113  D(28,21,22,31)         51.3397         calculate D2E/DX2 analytically  !
 ! D114  D(29,21,22,16)        173.1088         calculate D2E/DX2 analytically  !
 ! D115  D(29,21,22,30)         51.9347         calculate D2E/DX2 analytically  !
 ! D116  D(29,21,22,31)        -66.273          calculate D2E/DX2 analytically  !
 ! D117  D(16,22,30,7)         -47.1888         calculate D2E/DX2 analytically  !
 ! D118  D(21,22,30,7)          75.3945         calculate D2E/DX2 analytically  !
 ! D119  D(31,22,30,7)        -164.4978         calculate D2E/DX2 analytically  !
 --------------------------------------------------------------------------------
 Trust Radius=3.00D-01 FncErr=1.00D-07 GrdErr=1.00D-06 EigMax=2.50D+02 EigMin=1.00D-04
 Number of steps in this run=    186 maximum allowed number of steps=    186.
 Search for a saddle point of order  1.
 GradGradGradGradGradGradGradGradGradGradGradGradGradGradGradGradGradGrad

 Leave Link  103 at Mon Apr  8 11:31:19 2024, MaxMem=  7516192768 cpu:               0.1 elap:               0.0
 (Enter /public3/home/scg9909/software-scg9909/g16/l202.exe)
                          Input orientation:                          
 ---------------------------------------------------------------------
 Center     Atomic      Atomic             Coordinates (Angstroms)
 Number     Number       Type             X           Y           Z
 ---------------------------------------------------------------------
      1          6           0       -2.250766    2.018358   -0.376241
      2          6           0       -1.700366    0.673802    0.006443
      3          6           0       -2.301511   -0.515395   -0.529343
      4          7           0       -1.825149   -1.708841   -0.257684
      5          7           0       -0.700940   -1.804815    0.500380
      6          6           0       -0.480277   -0.849061    1.496058
      7          8           0        0.391145   -1.023947    2.344337
      8          6           0       -1.286451    0.439694    1.437886
      9          1           0       -2.626752    2.016554   -1.404923
     10          1           0       -3.085783    2.271128    0.290596
     11          1           0       -1.489010    2.796418   -0.283020
     12          1           0       -3.116886   -0.464396   -1.249975
     13          1           0       -0.703544    1.260171    1.862770
     14          1           0       -2.193957    0.332216    2.051210
     15          7           0        0.297614   -1.559669   -2.062030
     16          6           0        0.654449   -0.827261   -0.973569
     17          6           0        0.153250    0.539526   -0.932381
     18          6           0        0.984781    1.581704   -0.252026
     19          8           0        0.742154    2.769817   -0.414904
     20          6           0        2.141237    1.108935    0.607408
     21          6           0        2.885245   -0.039900   -0.085280
     22          6           0        1.941615   -1.234056   -0.283784
     23          1           0       -0.631866   -1.379432   -2.428140
     24          1           0        0.487756   -2.553815   -1.990839
     25          1           0       -0.242736    0.901848   -1.878544
     26          1           0        2.784402    1.972117    0.796130
     27          1           0        1.750730    0.748898    1.569642
     28          1           0        3.280812    0.301226   -1.050889
     29          1           0        3.740093   -0.354935    0.521567
     30          1           0        1.711245   -1.669199    0.692558
     31          1           0        2.421192   -2.010566   -0.889298
 ---------------------------------------------------------------------
                    Distance matrix (angstroms):
                    1          2          3          4          5
     1  C    0.000000
     2  C    1.502404   0.000000
     3  C    2.538882   1.436186   0.000000
     4  N    3.753294   2.400484   1.313405   0.000000
     5  N    4.217473   2.717787   2.298861   1.359308   0.000000
     6  C    3.855156   2.454930   2.744171   2.371395   1.397688
     7  O    4.861775   3.566864   3.970776   3.485908   2.280917
     8  C    2.590973   1.508364   2.410919   2.789508   2.501912
     9  H    1.095242   2.157111   2.698738   3.979610   4.684207
    10  H    1.098097   2.133442   3.008670   4.210696   4.727028
    11  H    1.092859   2.152663   3.418909   4.517852   4.733510
    12  H    2.770856   2.209210   1.089380   2.049846   3.270667
    13  H    2.825228   2.187106   3.380582   3.816982   3.354140
    14  H    2.956150   2.131053   2.718320   3.103695   3.033327
    15  N    4.705146   3.641277   3.192975   2.789989   2.761006
    16  C    4.110307   2.959521   3.005378   2.727285   2.228277
    17  C    2.876722   2.082141   2.702064   3.069924   2.877217
    18  C    3.267240   2.846244   3.908253   4.327057   3.856978
    19  O    3.086058   3.246031   4.479912   5.164701   4.883393
    20  C    4.591765   3.912597   4.865045   4.941707   4.071777
    21  C    5.540730   4.641725   5.227401   5.000290   4.039634
    22  C    5.306864   4.121672   4.310556   3.796658   2.814920
    23  H    4.286736   3.359264   2.672023   2.498662   2.960059
    24  H    5.568770   4.381156   3.751151   3.011202   2.860100
    25  H    2.745122   2.393714   2.840330   3.456431   3.632527
    26  H    5.170059   4.735227   5.814732   5.992323   5.147843
    27  H    4.627090   3.789366   4.735486   4.708133   3.698034
    28  H    5.831127   5.105771   5.665793   5.544401   4.764052
    29  H    6.506072   5.560778   6.134422   5.780330   4.671764
    30  H    5.517059   4.195175   4.350462   3.662051   2.423625
    31  H    6.190529   4.999542   4.966792   4.303648   3.423631
                    6          7          8          9         10
     6  C    0.000000
     7  O    1.228633   0.000000
     8  C    1.521246   2.403794   0.000000
     9  H    4.608123   5.692917   3.516313   0.000000
    10  H    4.239974   5.211948   2.812120   1.774909   0.000000
    11  H    4.179973   5.003317   2.925183   1.778008   1.776133
    12  H    3.826274   5.053559   3.375273   2.533644   3.139653
    13  H    2.152484   2.578264   1.092469   3.866350   3.028007
    14  H    2.154137   2.933914   1.100584   3.869000   2.766676
    15  N    3.710804   4.439799   4.330834   4.666163   5.626476
    16  C    2.717929   3.334144   3.344755   4.363442   5.018711
    17  C    2.868248   3.638396   2.775044   3.183287   3.871105
    18  C    3.333288   3.725979   3.052619   3.815945   4.164041
    19  O    4.271111   4.704175   3.602436   3.591249   3.924223
    20  C    3.390543   3.260204   3.589794   5.254233   5.364028
    21  C    3.805537   3.618276   4.466888   6.029309   6.413681
    22  C    3.030119   3.058615   4.023182   5.717814   6.155563
    23  H    3.962777   4.893818   4.322483   4.069308   5.171056
    24  H    4.000216   4.598215   4.885188   5.561630   6.423021
    25  H    3.809206   4.684359   3.507369   2.674027   3.829231
    26  H    4.371164   4.135338   4.396819   5.841849   5.899495
    27  H    2.745229   2.364657   3.055722   5.442181   5.229245
    28  H    4.685711   4.651217   5.203178   6.161737   6.798061
    29  H    4.359509   3.871114   5.170805   7.062014   7.317249
    30  H    2.474067   2.210744   3.740204   6.066500   6.220870
    31  H    3.931608   3.943463   5.016590   6.478063   7.074732
                   11         12         13         14         15
    11  H    0.000000
    12  H    3.770662   0.000000
    13  H    2.753439   4.299713   0.000000
    14  H    3.466680   3.519121   1.765769   0.000000
    15  N    5.033130   3.676665   4.935369   5.167775   0.000000
    16  C    4.266418   3.798821   3.774432   4.313594   1.359596
    17  C    2.865702   3.435479   3.011029   3.801864   2.388214
    18  C    2.756108   4.691066   2.725103   4.119526   3.690059
    19  O    2.235217   5.103887   3.091419   4.543607   4.653503
    20  C    4.101116   5.794230   3.113131   4.634842   4.200749
    21  C    5.217078   6.128808   4.285381   5.522803   3.593476
    22  C    5.292817   5.207143   4.222053   5.000836   2.443547
    23  H    4.772207   2.898394   5.038308   5.043257   1.015113
    24  H    5.953927   4.231784   5.551215   5.644371   1.014667
    25  H    2.772777   3.243834   3.786578   4.424332   2.526799
    26  H    4.483981   6.704352   3.716229   5.389672   5.179450
    27  H    4.256831   5.754651   2.524041   3.995759   4.542034
    28  H    5.437537   6.446422   5.028327   6.292621   3.658525
    29  H    6.158076   7.082973   4.914601   6.166436   4.469566
    30  H    5.579885   5.341894   3.972633   4.593713   3.098081
    31  H    6.226102   5.761166   5.294863   5.952715   2.467426
                   16         17         18         19         20
    16  C    0.000000
    17  C    1.456367   0.000000
    18  C    2.536308   1.496817   0.000000
    19  O    3.641259   2.364062   1.223523   0.000000
    20  C    2.908416   2.578230   1.516419   2.400226   0.000000
    21  C    2.526944   2.918409   2.503831   3.549084   1.534010
    22  C    1.515943   2.600869   2.974062   4.181734   2.514693
    23  H    2.018731   2.556580   4.014641   4.812205   4.805895
    24  H    2.010874   3.286485   4.513648   5.557819   4.785460
    25  H    2.147962   1.087799   2.148153   2.569350   3.450532
    26  H    3.937645   3.458761   2.118889   2.504737   1.092868
    27  H    3.186539   2.975886   2.144462   3.006620   1.099098
    28  H    2.859588   3.138865   2.747647   3.597666   2.168173
    29  H    3.461174   3.972338   3.455541   4.430428   2.169476
    30  H    2.145147   3.153766   3.462421   4.676588   2.812503
    31  H    2.128073   3.412973   3.920943   5.088839   3.471281
                   21         22         23         24         25
    21  C    0.000000
    22  C    1.534878   0.000000
    23  H    4.433217   3.352939   0.000000
    24  H    3.962181   2.601828   1.680465   0.000000
    25  H    3.726520   3.446264   2.378595   3.533813   0.000000
    26  H    2.198924   3.486553   5.770588   5.790150   4.178866
    27  H    2.155944   2.720980   5.117501   5.017972   3.985886
    28  H    1.097835   2.176922   4.475543   4.103161   3.668944
    29  H    1.094658   2.157769   5.372559   4.661003   4.816945
    30  H    2.153584   1.093464   3.913169   3.078976   4.127819
    31  H    2.178374   1.095267   3.476712   2.290565   4.069063
                   26         27         28         29         30
    26  H    0.000000
    27  H    1.778500   0.000000
    28  H    2.539641   3.067368   0.000000
    29  H    2.530593   2.504890   1.764682   0.000000
    30  H    3.797575   2.572553   3.063613   2.423376   0.000000
    31  H    4.339856   3.756401   2.471728   2.543846   1.767152
                   31
    31  H    0.000000
 Stoichiometry    C11H15N3O2
 Framework group  C1[X(C11H15N3O2)]
 Deg. of freedom    87
 Full point group                 C1      NOp   1
 Largest Abelian subgroup         C1      NOp   1
 Largest concise Abelian subgroup C1      NOp   1
                         Standard orientation:                         
 ---------------------------------------------------------------------
 Center     Atomic      Atomic             Coordinates (Angstroms)
 Number     Number       Type             X           Y           Z
 ---------------------------------------------------------------------
      1          6           0       -2.250766    2.018358   -0.376241
      2          6           0       -1.700366    0.673802    0.006443
      3          6           0       -2.301511   -0.515395   -0.529343
      4          7           0       -1.825149   -1.708841   -0.257684
      5          7           0       -0.700940   -1.804815    0.500380
      6          6           0       -0.480277   -0.849061    1.496058
      7          8           0        0.391145   -1.023947    2.344337
      8          6           0       -1.286451    0.439694    1.437886
      9          1           0       -2.626752    2.016554   -1.404923
     10          1           0       -3.085783    2.271128    0.290596
     11          1           0       -1.489010    2.796418   -0.283020
     12          1           0       -3.116886   -0.464396   -1.249975
     13          1           0       -0.703544    1.260171    1.862770
     14          1           0       -2.193957    0.332216    2.051210
     15          7           0        0.297614   -1.559669   -2.062030
     16          6           0        0.654449   -0.827261   -0.973569
     17          6           0        0.153250    0.539526   -0.932381
     18          6           0        0.984781    1.581704   -0.252026
     19          8           0        0.742154    2.769817   -0.414904
     20          6           0        2.141237    1.108935    0.607408
     21          6           0        2.885245   -0.039900   -0.085280
     22          6           0        1.941615   -1.234056   -0.283784
     23          1           0       -0.631866   -1.379432   -2.428140
     24          1           0        0.487756   -2.553815   -1.990839
     25          1           0       -0.242736    0.901848   -1.878544
     26          1           0        2.784402    1.972117    0.796130
     27          1           0        1.750730    0.748898    1.569642
     28          1           0        3.280812    0.301226   -1.050889
     29          1           0        3.740093   -0.354935    0.521567
     30          1           0        1.711245   -1.669199    0.692558
     31          1           0        2.421192   -2.010566   -0.889298
 ---------------------------------------------------------------------
 Rotational constants (GHZ):           0.7118113           0.6185226           0.5114621
 Leave Link  202 at Mon Apr  8 11:31:19 2024, MaxMem=  7516192768 cpu:               0.1 elap:               0.0
 (Enter /public3/home/scg9909/software-scg9909/g16/l301.exe)
 Standard basis: 6-31G(d) (6D, 7F)
 Ernie: Thresh=  0.10000D-02 Tol=  0.10000D-05 Strict=F.
 There are   270 symmetry adapted cartesian basis functions of A   symmetry.
 There are   270 symmetry adapted basis functions of A   symmetry.
   270 basis functions,   508 primitive gaussians,   270 cartesian basis functions
    59 alpha electrons       59 beta electrons
       nuclear repulsion energy      1214.6071779171 Hartrees.
 IExCor=  402 DFT=T Ex+Corr=B3LYP ExCW=0 ScaHFX=  0.200000
 ScaDFX=  0.800000  0.720000  1.000000  0.810000 ScalE2=  1.000000  1.000000
 IRadAn=      5 IRanWt=     -1 IRanGd=            0 ICorTp=0 IEmpDi=141
 NAtoms=   31 NActive=   31 NUniq=   31 SFac= 1.00D+00 NAtFMM=   60 NAOKFM=F Big=F
 Integral buffers will be    131072 words long.
 Raffenetti 2 integral format.
 Two-electron integral symmetry is turned on.
 R6Disp:  Grimme-D3(BJ) Dispersion energy=       -0.0752907219 Hartrees.
 Nuclear repulsion after empirical dispersion term =     1214.5318871952 Hartrees.
 Leave Link  301 at Mon Apr  8 11:31:19 2024, MaxMem=  7516192768 cpu:               0.6 elap:               0.0
 (Enter /public3/home/scg9909/software-scg9909/g16/l302.exe)
 NPDir=0 NMtPBC=     1 NCelOv=     1 NCel=       1 NClECP=     1 NCelD=      1
         NCelK=      1 NCelE2=     1 NClLst=     1 CellRange=     0.0.
 One-electron integrals computed using PRISM.
 One-electron integral symmetry used in STVInt
 NBasis=   270 RedAO= T EigKep=  1.21D-03  NBF=   270
 NBsUse=   270 1.00D-06 EigRej= -1.00D+00 NBFU=   270
 Precomputing XC quadrature grid using
 IXCGrd= 4 IRadAn=           5 IRanWt=          -1 IRanGd=           0 AccXCQ= 0.00D+00.
 Generated NRdTot=       0 NPtTot=           0 NUsed=           0 NTot=          32
 NSgBfM=   269   269   269   269   269 MxSgAt=    31 MxSgA2=    31.
 Leave Link  302 at Mon Apr  8 11:31:20 2024, MaxMem=  7516192768 cpu:               6.0 elap:               0.2
 (Enter /public3/home/scg9909/software-scg9909/g16/l303.exe)
 DipDrv:  MaxL=1.
 Leave Link  303 at Mon Apr  8 11:31:20 2024, MaxMem=  7516192768 cpu:               0.5 elap:               0.0
 (Enter /public3/home/scg9909/software-scg9909/g16/l401.exe)
 ExpMin= 1.61D-01 ExpMax= 5.48D+03 ExpMxC= 8.25D+02 IAcc=3 IRadAn=         5 AccDes= 0.00D+00
 Harris functional with IExCor=  402 and IRadAn=       5 diagonalized for initial guess.
 HarFok:  IExCor=  402 AccDes= 0.00D+00 IRadAn=         5 IDoV= 1 UseB2=F ITyADJ=14
 ICtDFT=  3500011 ScaDFX=  1.000000  1.000000  1.000000  1.000000
 FoFCou: FMM=F IPFlag=           0 FMFlag=      100000 FMFlg1=           0
         NFxFlg=           0 DoJE=T BraDBF=F KetDBF=T FulRan=T
         wScrn=  0.000000 ICntrl=       500 IOpCl=  0 I1Cent=   200000004 NGrid=           0
         NMat0=    1 NMatS0=      1 NMatT0=    0 NMatD0=    1 NMtDS0=    0 NMtDT0=    0
 Petite list used in FoFCou.
 Harris En= -742.872064485875    
 JPrj=0 DoOrth=F DoCkMO=F.
 Leave Link  401 at Mon Apr  8 11:31:20 2024, MaxMem=  7516192768 cpu:              21.2 elap:               0.8
 (Enter /public3/home/scg9909/software-scg9909/g16/l502.exe)
 Integral symmetry usage will be decided dynamically.
 Closed shell SCF:
 Using DIIS extrapolation, IDIIS=  1040.
 NGot=  7516192768 LenX=  7516035584 LenY=  7515962243
 Requested convergence on RMS density matrix=1.00D-08 within 128 cycles.
 Requested convergence on MAX density matrix=1.00D-06.
 Requested convergence on             energy=1.00D-06.
 No special actions if energy rises.
 Fock matrices will be formed incrementally for  20 cycles.
 Integral accuracy reduced to 1.0D-05 until final iterations.

 Cycle   1  Pass 0  IDiag  1:
 FoFJK:  IHMeth= 1 ICntrl=       0 DoSepK=F KAlg= 0 I1Cent=           0 FoldK=F
 IRaf= 930000000 NMat=       1 IRICut=       1 DoRegI=T DoRafI=F ISym2E= 0 IDoP0=0 IntGTp=1.
 FoFCou: FMM=F IPFlag=           0 FMFlag=      100000 FMFlg1=           0
         NFxFlg=           0 DoJE=F BraDBF=F KetDBF=F FulRan=T
         wScrn=  0.000000 ICntrl=         0 IOpCl=  0 I1Cent=           0 NGrid=           0
         NMat0=    1 NMatS0=      1 NMatT0=    0 NMatD0=    1 NMtDS0=    0 NMtDT0=    0
 Symmetry not used in FoFCou.
 E= -742.484194466467    
 DIIS: error= 2.42D-02 at cycle   1 NSaved=   1.
 NSaved= 1 IEnMin= 1 EnMin= -742.484194466467     IErMin= 1 ErrMin= 2.42D-02
 ErrMax= 2.42D-02  0.00D+00 EMaxC= 1.00D-01 BMatC= 4.29D-01 BMatP= 4.29D-01
 IDIUse=3 WtCom= 7.58D-01 WtEn= 2.42D-01
 Coeff-Com:  0.100D+01
 Coeff-En:   0.100D+01
 Coeff:      0.100D+01
 Gap=     0.141 Goal=   None    Shift=    0.000
 GapD=    0.141 DampG=1.000 DampE=0.500 DampFc=0.5000 IDamp=-1.
 Damping current iteration by 5.00D-01
 RMSDP=5.81D-03 MaxDP=1.77D-01              OVMax= 3.23D-01

 Cycle   2  Pass 0  IDiag  1:
 RMSU=  2.89D-03    CP:  9.86D-01
 E= -742.597052236399     Delta-E=       -0.112857769932 Rises=F Damp=T
 DIIS: error= 1.12D-02 at cycle   2 NSaved=   2.
 NSaved= 2 IEnMin= 2 EnMin= -742.597052236399     IErMin= 2 ErrMin= 1.12D-02
 ErrMax= 1.12D-02  0.00D+00 EMaxC= 1.00D-01 BMatC= 7.08D-02 BMatP= 4.29D-01
 IDIUse=3 WtCom= 8.88D-01 WtEn= 1.12D-01
 Coeff-Com:  0.208D+00 0.792D+00
 Coeff-En:   0.321D+00 0.679D+00
 Coeff:      0.220D+00 0.780D+00
 Gap=     0.218 Goal=   None    Shift=    0.000
 RMSDP=2.08D-03 MaxDP=8.20D-02 DE=-1.13D-01 OVMax= 2.02D-01

 Cycle   3  Pass 0  IDiag  1:
 RMSU=  1.84D-03    CP:  9.77D-01  6.70D-01
 E= -742.795748987329     Delta-E=       -0.198696750930 Rises=F Damp=F
 DIIS: error= 1.37D-02 at cycle   3 NSaved=   3.
 NSaved= 3 IEnMin= 3 EnMin= -742.795748987329     IErMin= 2 ErrMin= 1.12D-02
 ErrMax= 1.37D-02  0.00D+00 EMaxC= 1.00D-01 BMatC= 8.67D-02 BMatP= 7.08D-02
 IDIUse=2 WtCom= 0.00D+00 WtEn= 1.00D+00
 Coeff-En:   0.000D+00 0.000D+00 0.100D+01
 Coeff:      0.000D+00 0.000D+00 0.100D+01
 Gap=     0.174 Goal=   None    Shift=    0.000
 RMSDP=3.86D-03 MaxDP=1.51D-01 DE=-1.99D-01 OVMax= 3.31D-01

 Cycle   4  Pass 0  IDiag  1:
 RMSU=  1.43D-03    CP:  9.92D-01  1.33D+00 -6.49D-01
 E= -742.400847625151     Delta-E=        0.394901362178 Rises=F Damp=F
 DIIS: error= 3.84D-02 at cycle   4 NSaved=   4.
 NSaved= 4 IEnMin= 3 EnMin= -742.795748987329     IErMin= 2 ErrMin= 1.12D-02
 ErrMax= 3.84D-02  0.00D+00 EMaxC= 1.00D-01 BMatC= 5.64D-01 BMatP= 7.08D-02
 IDIUse=2 WtCom= 0.00D+00 WtEn= 1.00D+00
 Coeff-En:   0.000D+00 0.000D+00 0.807D+00 0.193D+00
 Coeff:      0.000D+00 0.000D+00 0.807D+00 0.193D+00
 Gap=     0.137 Goal=   None    Shift=    0.000
 RMSDP=2.12D-03 MaxDP=9.16D-02 DE= 3.95D-01 OVMax= 1.29D-01

 Cycle   5  Pass 0  IDiag  1:
 RMSU=  3.65D-04    CP:  9.86D-01  8.87D-01  1.69D-01  5.22D-01
 E= -742.836439371983     Delta-E=       -0.435591746832 Rises=F Damp=F
 DIIS: error= 9.94D-03 at cycle   5 NSaved=   5.
 NSaved= 5 IEnMin= 5 EnMin= -742.836439371983     IErMin= 5 ErrMin= 9.94D-03
 ErrMax= 9.94D-03  0.00D+00 EMaxC= 1.00D-01 BMatC= 4.19D-02 BMatP= 7.08D-02
 IDIUse=3 WtCom= 9.01D-01 WtEn= 9.94D-02
 Coeff-Com: -0.649D-02 0.464D-01 0.322D+00-0.888D-01 0.727D+00
 Coeff-En:   0.000D+00 0.000D+00 0.360D+00 0.000D+00 0.640D+00
 Coeff:     -0.584D-02 0.418D-01 0.326D+00-0.800D-01 0.719D+00
 Gap=     0.152 Goal=   None    Shift=    0.000
 RMSDP=7.75D-04 MaxDP=2.66D-02 DE=-4.36D-01 OVMax= 3.76D-02

 Cycle   6  Pass 0  IDiag  1:
 RMSU=  1.10D-04    CP:  9.83D-01  7.84D-01  5.06D-01  2.95D-01  7.76D-01
 E= -742.871832293775     Delta-E=       -0.035392921793 Rises=F Damp=F
 DIIS: error= 9.68D-04 at cycle   6 NSaved=   6.
 NSaved= 6 IEnMin= 6 EnMin= -742.871832293775     IErMin= 6 ErrMin= 9.68D-04
 ErrMax= 9.68D-04  0.00D+00 EMaxC= 1.00D-01 BMatC= 2.82D-04 BMatP= 4.19D-02
 IDIUse=3 WtCom= 9.90D-01 WtEn= 9.68D-03
 Coeff-Com: -0.603D-02 0.255D-01 0.182D+00-0.615D-01 0.456D+00 0.404D+00
 Coeff-En:   0.000D+00 0.000D+00 0.000D+00 0.000D+00 0.000D+00 0.100D+01
 Coeff:     -0.597D-02 0.252D-01 0.180D+00-0.609D-01 0.451D+00 0.410D+00
 Gap=     0.137 Goal=   None    Shift=    0.000
 RMSDP=7.72D-05 MaxDP=3.54D-03 DE=-3.54D-02 OVMax= 4.25D-03

 Cycle   7  Pass 0  IDiag  1:
 RMSU=  3.86D-05    CP:  9.83D-01  7.88D-01  4.97D-01  3.02D-01  8.12D-01
                    CP:  4.40D-01
 E= -742.872038447768     Delta-E=       -0.000206153992 Rises=F Damp=F
 DIIS: error= 2.92D-04 at cycle   7 NSaved=   7.
 NSaved= 7 IEnMin= 7 EnMin= -742.872038447768     IErMin= 7 ErrMin= 2.92D-04
 ErrMax= 2.92D-04  0.00D+00 EMaxC= 1.00D-01 BMatC= 3.32D-05 BMatP= 2.82D-04
 IDIUse=3 WtCom= 9.97D-01 WtEn= 2.92D-03
 Coeff-Com: -0.965D-03 0.151D-02 0.404D-01-0.146D-01 0.102D+00 0.237D+00
 Coeff-Com:  0.635D+00
 Coeff-En:   0.000D+00 0.000D+00 0.000D+00 0.000D+00 0.000D+00 0.119D+00
 Coeff-En:   0.881D+00
 Coeff:     -0.962D-03 0.150D-02 0.403D-01-0.145D-01 0.101D+00 0.237D+00
 Coeff:      0.636D+00
 Gap=     0.137 Goal=   None    Shift=    0.000
 RMSDP=2.45D-05 MaxDP=7.94D-04 DE=-2.06D-04 OVMax= 1.67D-03

 Cycle   8  Pass 0  IDiag  1:
 RMSU=  1.27D-05    CP:  9.83D-01  7.87D-01  5.01D-01  3.02D-01  8.08D-01
                    CP:  5.55D-01  6.23D-01
 E= -742.872063394334     Delta-E=       -0.000024946566 Rises=F Damp=F
 DIIS: error= 9.05D-05 at cycle   8 NSaved=   8.
 NSaved= 8 IEnMin= 8 EnMin= -742.872063394334     IErMin= 8 ErrMin= 9.05D-05
 ErrMax= 9.05D-05  0.00D+00 EMaxC= 1.00D-01 BMatC= 3.74D-06 BMatP= 3.32D-05
 IDIUse=1 WtCom= 1.00D+00 WtEn= 0.00D+00
 Coeff-Com:  0.574D-04-0.142D-02 0.128D-01-0.390D-02 0.284D-01 0.117D+00
 Coeff-Com:  0.399D+00 0.448D+00
 Coeff:      0.574D-04-0.142D-02 0.128D-01-0.390D-02 0.284D-01 0.117D+00
 Coeff:      0.399D+00 0.448D+00
 Gap=     0.137 Goal=   None    Shift=    0.000
 RMSDP=1.00D-05 MaxDP=2.75D-04 DE=-2.49D-05 OVMax= 7.41D-04

 Cycle   9  Pass 0  IDiag  1:
 RMSU=  5.08D-06    CP:  9.83D-01  7.86D-01  5.02D-01  3.02D-01  8.06D-01
                    CP:  5.42D-01  7.34D-01  4.99D-01
 E= -742.872067082429     Delta-E=       -0.000003688095 Rises=F Damp=F
 DIIS: error= 2.28D-05 at cycle   9 NSaved=   9.
 NSaved= 9 IEnMin= 9 EnMin= -742.872067082429     IErMin= 9 ErrMin= 2.28D-05
 ErrMax= 2.28D-05  0.00D+00 EMaxC= 1.00D-01 BMatC= 2.79D-07 BMatP= 3.74D-06
 IDIUse=1 WtCom= 1.00D+00 WtEn= 0.00D+00
 Coeff-Com:  0.134D-03-0.757D-03 0.223D-02-0.751D-03 0.395D-02 0.396D-01
 Coeff-Com:  0.155D+00 0.256D+00 0.544D+00
 Coeff:      0.134D-03-0.757D-03 0.223D-02-0.751D-03 0.395D-02 0.396D-01
 Coeff:      0.155D+00 0.256D+00 0.544D+00
 Gap=     0.137 Goal=   None    Shift=    0.000
 RMSDP=2.68D-06 MaxDP=9.74D-05 DE=-3.69D-06 OVMax= 1.78D-04

 Initial convergence to 1.0D-05 achieved.  Increase integral accuracy.
 Cycle  10  Pass 1  IDiag  1:
 E= -742.872142236370     Delta-E=       -0.000075153941 Rises=F Damp=F
 DIIS: error= 1.29D-05 at cycle   1 NSaved=   1.
 NSaved= 1 IEnMin= 1 EnMin= -742.872142236370     IErMin= 1 ErrMin= 1.29D-05
 ErrMax= 1.29D-05  0.00D+00 EMaxC= 1.00D-01 BMatC= 1.72D-07 BMatP= 1.72D-07
 IDIUse=1 WtCom= 1.00D+00 WtEn= 0.00D+00
 Coeff-Com:  0.100D+01
 Coeff:      0.100D+01
 Gap=     0.137 Goal=   None    Shift=    0.000
 RMSDP=2.68D-06 MaxDP=9.74D-05 DE=-7.52D-05 OVMax= 2.23D-04

 Cycle  11  Pass 1  IDiag  1:
 RMSU=  6.17D-06    CP:  1.00D+00
 E= -742.872142115698     Delta-E=        0.000000120672 Rises=F Damp=F
 DIIS: error= 2.13D-05 at cycle   2 NSaved=   2.
 NSaved= 2 IEnMin= 1 EnMin= -742.872142236370     IErMin= 1 ErrMin= 1.29D-05
 ErrMax= 2.13D-05  0.00D+00 EMaxC= 1.00D-01 BMatC= 2.93D-07 BMatP= 1.72D-07
 IDIUse=1 WtCom= 1.00D+00 WtEn= 0.00D+00
 Coeff-Com:  0.584D+00 0.416D+00
 Coeff:      0.584D+00 0.416D+00
 Gap=     0.137 Goal=   None    Shift=    0.000
 RMSDP=2.81D-06 MaxDP=1.06D-04 DE= 1.21D-07 OVMax= 2.09D-04

 Cycle  12  Pass 1  IDiag  1:
 RMSU=  2.60D-06    CP:  1.00D+00  8.31D-01
 E= -742.872142333110     Delta-E=       -0.000000217412 Rises=F Damp=F
 DIIS: error= 8.45D-06 at cycle   3 NSaved=   3.
 NSaved= 3 IEnMin= 3 EnMin= -742.872142333110     IErMin= 3 ErrMin= 8.45D-06
 ErrMax= 8.45D-06  0.00D+00 EMaxC= 1.00D-01 BMatC= 4.88D-08 BMatP= 1.72D-07
 IDIUse=1 WtCom= 1.00D+00 WtEn= 0.00D+00
 Coeff-Com:  0.532D-01 0.285D+00 0.662D+00
 Coeff:      0.532D-01 0.285D+00 0.662D+00
 Gap=     0.137 Goal=   None    Shift=    0.000
 RMSDP=1.05D-06 MaxDP=3.41D-05 DE=-2.17D-07 OVMax= 8.26D-05

 Cycle  13  Pass 1  IDiag  1:
 RMSU=  5.40D-07    CP:  1.00D+00  8.94D-01  6.90D-01
 E= -742.872142371232     Delta-E=       -0.000000038122 Rises=F Damp=F
 DIIS: error= 2.62D-06 at cycle   4 NSaved=   4.
 NSaved= 4 IEnMin= 4 EnMin= -742.872142371232     IErMin= 4 ErrMin= 2.62D-06
 ErrMax= 2.62D-06  0.00D+00 EMaxC= 1.00D-01 BMatC= 7.03D-09 BMatP= 4.88D-08
 IDIUse=1 WtCom= 1.00D+00 WtEn= 0.00D+00
 Coeff-Com: -0.608D-02 0.155D+00 0.430D+00 0.422D+00
 Coeff:     -0.608D-02 0.155D+00 0.430D+00 0.422D+00
 Gap=     0.137 Goal=   None    Shift=    0.000
 RMSDP=3.29D-07 MaxDP=1.04D-05 DE=-3.81D-08 OVMax= 2.47D-05

 Cycle  14  Pass 1  IDiag  1:
 RMSU=  1.02D-07    CP:  1.00D+00  8.93D-01  7.32D-01  4.56D-01
 E= -742.872142377984     Delta-E=       -0.000000006752 Rises=F Damp=F
 DIIS: error= 5.29D-07 at cycle   5 NSaved=   5.
 NSaved= 5 IEnMin= 5 EnMin= -742.872142377984     IErMin= 5 ErrMin= 5.29D-07
 ErrMax= 5.29D-07  0.00D+00 EMaxC= 1.00D-01 BMatC= 1.52D-10 BMatP= 7.03D-09
 IDIUse=1 WtCom= 1.00D+00 WtEn= 0.00D+00
 Coeff-Com: -0.474D-02 0.880D-01 0.247D+00 0.257D+00 0.413D+00
 Coeff:     -0.474D-02 0.880D-01 0.247D+00 0.257D+00 0.413D+00
 Gap=     0.137 Goal=   None    Shift=    0.000
 RMSDP=5.44D-08 MaxDP=2.63D-06 DE=-6.75D-09 OVMax= 2.90D-06

 Cycle  15  Pass 1  IDiag  1:
 RMSU=  3.94D-08    CP:  1.00D+00  8.93D-01  7.28D-01  4.65D-01  6.48D-01
 E= -742.872142378105     Delta-E=       -0.000000000121 Rises=F Damp=F
 DIIS: error= 1.76D-07 at cycle   6 NSaved=   6.
 NSaved= 6 IEnMin= 6 EnMin= -742.872142378105     IErMin= 6 ErrMin= 1.76D-07
 ErrMax= 1.76D-07  0.00D+00 EMaxC= 1.00D-01 BMatC= 1.38D-11 BMatP= 1.52D-10
 IDIUse=1 WtCom= 1.00D+00 WtEn= 0.00D+00
 Coeff-Com: -0.161D-02 0.229D-01 0.655D-01 0.735D-01 0.244D+00 0.595D+00
 Coeff:     -0.161D-02 0.229D-01 0.655D-01 0.735D-01 0.244D+00 0.595D+00
 Gap=     0.137 Goal=   None    Shift=    0.000
 RMSDP=1.93D-08 MaxDP=7.11D-07 DE=-1.21D-10 OVMax= 1.26D-06

 Cycle  16  Pass 1  IDiag  1:
 RMSU=  1.39D-08    CP:  1.00D+00  8.93D-01  7.30D-01  4.68D-01  7.51D-01
                    CP:  8.30D-01
 E= -742.872142378116     Delta-E=       -0.000000000012 Rises=F Damp=F
 DIIS: error= 4.84D-08 at cycle   7 NSaved=   7.
 NSaved= 7 IEnMin= 7 EnMin= -742.872142378116     IErMin= 7 ErrMin= 4.84D-08
 ErrMax= 4.84D-08  0.00D+00 EMaxC= 1.00D-01 BMatC= 2.12D-12 BMatP= 1.38D-11
 IDIUse=1 WtCom= 1.00D+00 WtEn= 0.00D+00
 Coeff-Com: -0.153D-03-0.134D-02-0.296D-02 0.802D-03 0.759D-01 0.350D+00
 Coeff-Com:  0.578D+00
 Coeff:     -0.153D-03-0.134D-02-0.296D-02 0.802D-03 0.759D-01 0.350D+00
 Coeff:      0.578D+00
 Gap=     0.137 Goal=   None    Shift=    0.000
 RMSDP=7.73D-09 MaxDP=2.68D-07 DE=-1.16D-11 OVMax= 4.81D-07

 SCF Done:  E(RB3LYP) =  -742.872142378     A.U. after   16 cycles
            NFock= 16  Conv=0.77D-08     -V/T= 2.0093
 KE= 7.360369412142D+02 PE=-4.157764600559D+03 EE= 1.464323629772D+03
 Leave Link  502 at Mon Apr  8 11:31:33 2024, MaxMem=  7516192768 cpu:             356.4 elap:              12.8
 (Enter /public3/home/scg9909/software-scg9909/g16/l801.exe)
 DoSCS=F DFT=T ScalE2(SS,OS)=  1.000000  1.000000
 Range of M.O.s used for correlation:     1   270
 NBasis=   270 NAE=    59 NBE=    59 NFC=     0 NFV=     0
 NROrb=    270 NOA=    59 NOB=    59 NVA=   211 NVB=   211
 Leave Link  801 at Mon Apr  8 11:31:33 2024, MaxMem=  7516192768 cpu:               0.3 elap:               0.0
 (Enter /public3/home/scg9909/software-scg9909/g16/l1101.exe)
 Using compressed storage, NAtomX=    31.
 Will process     32 centers per pass.
 R6Disp: Adding Grimme-D3(BJ) dispersion energy 1st derivatives to the gradient.
 Leave Link 1101 at Mon Apr  8 11:31:34 2024, MaxMem=  7516192768 cpu:               5.8 elap:               0.2
 (Enter /public3/home/scg9909/software-scg9909/g16/l1102.exe)
 Symmetrizing basis deriv contribution to polar:
 IMax=3 JMax=2 DiffMx= 0.00D+00
 Leave Link 1102 at Mon Apr  8 11:31:34 2024, MaxMem=  7516192768 cpu:               0.5 elap:               0.0
 (Enter /public3/home/scg9909/software-scg9909/g16/l1110.exe)
 Forming Gx(P) for the SCF density, NAtomX=    31.
 Integral derivatives from FoFJK, PRISM(SPDF).
 Do as many integral derivatives as possible in FoFJK.
 G2DrvN: MDV=    7516189439.
 G2DrvN: will do    32 centers at a time, making    1 passes.
 Calling FoFCou, ICntrl=  3107 FMM=F I1Cent=   0 AccDes= 0.00D+00.
 FoFJK:  IHMeth= 1 ICntrl=    3107 DoSepK=F KAlg= 0 I1Cent=           0 FoldK=F
 IRaf=         0 NMat=       1 IRICut=       1 DoRegI=T DoRafI=F ISym2E= 0 IDoP0=0 IntGTp=1.
 FoFCou: FMM=F IPFlag=           0 FMFlag=      100000 FMFlg1=           0
         NFxFlg=           0 DoJE=F BraDBF=F KetDBF=F FulRan=T
         wScrn=  0.000000 ICntrl=      3107 IOpCl=  0 I1Cent=           0 NGrid=           0
         NMat0=    1 NMatS0=      1 NMatT0=    0 NMatD0=    1 NMtDS0=    0 NMtDT0=    0
 Symmetry not used in FoFCou.
 End of G2Drv F.D. properties file   721 does not exist.
 End of G2Drv F.D. properties file   722 does not exist.
 End of G2Drv F.D. properties file   788 does not exist.
 Leave Link 1110 at Mon Apr  8 11:32:14 2024, MaxMem=  7516192768 cpu:            1118.8 elap:              40.0
 (Enter /public3/home/scg9909/software-scg9909/g16/l1002.exe)
 Minotr:  Closed shell wavefunction.
          IDoAtm=1111111111111111111111111111111
          Direct CPHF calculation.
          Differentiating once with respect to nuclear coordinates.
          Requested convergence is 1.0D-08 RMS, and 1.0D-07 maximum.
          Secondary convergence is 1.0D-12 RMS, and 1.0D-12 maximum.
          NewPWx=T KeepS1=F KeepF1=F KeepIn=T MapXYZ=F SortEE=F KeepMc=T.
         9183 words used for storage of precomputed grid.
 Keep R1 ints in memory in canonical form, NReq=700024886.
 FoFCou: FMM=F IPFlag=           0 FMFlag=           0 FMFlg1=           0
         NFxFlg=           0 DoJE=F BraDBF=F KetDBF=F FulRan=T
         wScrn=  0.000000 ICntrl=       600 IOpCl=  0 I1Cent=           0 NGrid=           0
         NMat0=    1 NMatS0=  36585 NMatT0=    0 NMatD0=    1 NMtDS0=    0 NMtDT0=    0
 Symmetry not used in FoFCou.
 Two-electron integral symmetry not used.
          MDV=    7516192768 using IRadAn=       1.
          Solving linear equations simultaneously, MaxMat=       0.
          There are    96 degrees of freedom in the 1st order CPHF.  IDoFFX=6 NUNeed=     0.
     90 vectors produced by pass  0 Test12= 1.30D-14 1.04D-09 XBig12= 1.49D-01 1.08D-01.
 AX will form    90 AO Fock derivatives at one time.
     90 vectors produced by pass  1 Test12= 1.30D-14 1.04D-09 XBig12= 2.28D-02 2.39D-02.
     90 vectors produced by pass  2 Test12= 1.30D-14 1.04D-09 XBig12= 2.20D-04 1.94D-03.
     90 vectors produced by pass  3 Test12= 1.30D-14 1.04D-09 XBig12= 7.30D-07 1.16D-04.
     90 vectors produced by pass  4 Test12= 1.30D-14 1.04D-09 XBig12= 1.22D-09 3.78D-06.
     75 vectors produced by pass  5 Test12= 1.30D-14 1.04D-09 XBig12= 1.13D-12 9.81D-08.
     13 vectors produced by pass  6 Test12= 1.30D-14 1.04D-09 XBig12= 7.83D-16 2.97D-09.
 InvSVY:  IOpt=1 It=  1 EMax= 5.55D-16
 Solved reduced A of dimension   538 with    96 vectors.
 End of Minotr F.D. properties file   721 does not exist.
 End of Minotr F.D. properties file   722 does not exist.
 End of Minotr F.D. properties file   788 does not exist.
 Leave Link 1002 at Mon Apr  8 11:32:55 2024, MaxMem=  7516192768 cpu:            1151.0 elap:              41.1
 (Enter /public3/home/scg9909/software-scg9909/g16/l601.exe)
 Copying SCF densities to generalized density rwf, IOpCl= 0 IROHF=0.

 **********************************************************************

            Population analysis using the SCF Density.

 **********************************************************************

 Orbital symmetries:
       Occupied  (A) (A) (A) (A) (A) (A) (A) (A) (A) (A) (A) (A)
                 (A) (A) (A) (A) (A) (A) (A) (A) (A) (A) (A) (A)
                 (A) (A) (A) (A) (A) (A) (A) (A) (A) (A) (A) (A)
                 (A) (A) (A) (A) (A) (A) (A) (A) (A) (A) (A) (A)
                 (A) (A) (A) (A) (A) (A) (A) (A) (A) (A) (A)
       Virtual   (A) (A) (A) (A) (A) (A) (A) (A) (A) (A) (A) (A)
                 (A) (A) (A) (A) (A) (A) (A) (A) (A) (A) (A) (A)
                 (A) (A) (A) (A) (A) (A) (A) (A) (A) (A) (A) (A)
                 (A) (A) (A) (A) (A) (A) (A) (A) (A) (A) (A) (A)
                 (A) (A) (A) (A) (A) (A) (A) (A) (A) (A) (A) (A)
                 (A) (A) (A) (A) (A) (A) (A) (A) (A) (A) (A) (A)
                 (A) (A) (A) (A) (A) (A) (A) (A) (A) (A) (A) (A)
                 (A) (A) (A) (A) (A) (A) (A) (A) (A) (A) (A) (A)
                 (A) (A) (A) (A) (A) (A) (A) (A) (A) (A) (A) (A)
                 (A) (A) (A) (A) (A) (A) (A) (A) (A) (A) (A) (A)
                 (A) (A) (A) (A) (A) (A) (A) (A) (A) (A) (A) (A)
                 (A) (A) (A) (A) (A) (A) (A) (A) (A) (A) (A) (A)
                 (A) (A) (A) (A) (A) (A) (A) (A) (A) (A) (A) (A)
                 (A) (A) (A) (A) (A) (A) (A) (A) (A) (A) (A) (A)
                 (A) (A) (A) (A) (A) (A) (A) (A) (A) (A) (A) (A)
                 (A) (A) (A) (A) (A) (A) (A) (A) (A) (A) (A) (A)
                 (A) (A) (A) (A) (A) (A) (A) (A) (A) (A) (A) (A)
                 (A) (A) (A) (A) (A) (A) (A)
 The electronic state is 1-A.
 Alpha  occ. eigenvalues --  -19.14335 -19.11706 -14.38212 -14.36250 -14.33912
 Alpha  occ. eigenvalues --  -10.29041 -10.28359 -10.27562 -10.25171 -10.22639
 Alpha  occ. eigenvalues --  -10.22530 -10.20509 -10.20239 -10.20209 -10.19569
 Alpha  occ. eigenvalues --  -10.19230  -1.04320  -1.03249  -0.98766  -0.95864
 Alpha  occ. eigenvalues --   -0.84021  -0.83049  -0.79017  -0.75784  -0.73716
 Alpha  occ. eigenvalues --   -0.72473  -0.64849  -0.63830  -0.61501  -0.59032
 Alpha  occ. eigenvalues --   -0.55352  -0.52475  -0.51833  -0.50911  -0.50216
 Alpha  occ. eigenvalues --   -0.49071  -0.47270  -0.46079  -0.44262  -0.43748
 Alpha  occ. eigenvalues --   -0.43078  -0.42404  -0.42089  -0.41413  -0.40552
 Alpha  occ. eigenvalues --   -0.39428  -0.38341  -0.37603  -0.36556  -0.36045
 Alpha  occ. eigenvalues --   -0.35176  -0.34192  -0.32208  -0.30533  -0.29075
 Alpha  occ. eigenvalues --   -0.27021  -0.25164  -0.22925  -0.20902
 Alpha virt. eigenvalues --   -0.07240  -0.04632  -0.01063   0.03748   0.06617
 Alpha virt. eigenvalues --    0.07422   0.09302   0.09992   0.11426   0.12300
 Alpha virt. eigenvalues --    0.12788   0.14629   0.14986   0.15623   0.15752
 Alpha virt. eigenvalues --    0.16649   0.17419   0.18516   0.19022   0.20450
 Alpha virt. eigenvalues --    0.20750   0.21193   0.22203   0.23299   0.23873
 Alpha virt. eigenvalues --    0.25149   0.26669   0.28230   0.28914   0.32636
 Alpha virt. eigenvalues --    0.34697   0.35545   0.36114   0.37914   0.40800
 Alpha virt. eigenvalues --    0.41396   0.47869   0.50669   0.51607   0.52773
 Alpha virt. eigenvalues --    0.53137   0.54489   0.54767   0.56156   0.57009
 Alpha virt. eigenvalues --    0.57509   0.59531   0.61046   0.61887   0.62642
 Alpha virt. eigenvalues --    0.63875   0.64620   0.65291   0.66753   0.67562
 Alpha virt. eigenvalues --    0.67831   0.68595   0.70730   0.72153   0.73425
 Alpha virt. eigenvalues --    0.73557   0.74886   0.75006   0.77756   0.78943
 Alpha virt. eigenvalues --    0.80815   0.81223   0.81577   0.82190   0.83771
 Alpha virt. eigenvalues --    0.84575   0.85154   0.87014   0.87203   0.87749
 Alpha virt. eigenvalues --    0.89028   0.89326   0.90939   0.91506   0.92408
 Alpha virt. eigenvalues --    0.92627   0.93329   0.93744   0.95433   0.95743
 Alpha virt. eigenvalues --    0.97195   0.97929   0.98987   0.99566   1.01307
 Alpha virt. eigenvalues --    1.02145   1.05057   1.06689   1.08028   1.09599
 Alpha virt. eigenvalues --    1.12767   1.13443   1.14809   1.18000   1.21568
 Alpha virt. eigenvalues --    1.23509   1.23886   1.26315   1.26937   1.31441
 Alpha virt. eigenvalues --    1.33297   1.37241   1.37915   1.39287   1.40761
 Alpha virt. eigenvalues --    1.43538   1.45719   1.46497   1.49015   1.52960
 Alpha virt. eigenvalues --    1.54384   1.55573   1.60485   1.61032   1.61759
 Alpha virt. eigenvalues --    1.63459   1.68877   1.72258   1.73909   1.76274
 Alpha virt. eigenvalues --    1.78257   1.79306   1.79924   1.80683   1.82775
 Alpha virt. eigenvalues --    1.83963   1.86598   1.87831   1.88855   1.89557
 Alpha virt. eigenvalues --    1.91149   1.92205   1.93373   1.94198   1.96550
 Alpha virt. eigenvalues --    1.97650   1.98454   2.01048   2.01784   2.02779
 Alpha virt. eigenvalues --    2.03954   2.05750   2.07605   2.08040   2.09102
 Alpha virt. eigenvalues --    2.10897   2.13477   2.15340   2.17520   2.19529
 Alpha virt. eigenvalues --    2.21610   2.23976   2.24366   2.27611   2.28226
 Alpha virt. eigenvalues --    2.28991   2.31118   2.33283   2.34341   2.37239
 Alpha virt. eigenvalues --    2.39890   2.40790   2.42431   2.44159   2.45922
 Alpha virt. eigenvalues --    2.51464   2.52366   2.53608   2.55785   2.56881
 Alpha virt. eigenvalues --    2.59237   2.59496   2.60694   2.61990   2.63837
 Alpha virt. eigenvalues --    2.65373   2.67433   2.69168   2.72312   2.78623
 Alpha virt. eigenvalues --    2.79788   2.81178   2.82434   2.91672   2.95320
 Alpha virt. eigenvalues --    3.00929   3.03333   3.07309   3.12906   3.23512
 Alpha virt. eigenvalues --    3.78693   3.95619   4.04362   4.10371   4.18869
 Alpha virt. eigenvalues --    4.23805   4.26147   4.30780   4.31163   4.38988
 Alpha virt. eigenvalues --    4.44507   4.50627   4.57977   4.67886   4.72084
 Alpha virt. eigenvalues --    4.93625
          Condensed to atoms (all electrons):
               1          2          3          4          5          6
     1  C    5.209147   0.353821  -0.038369   0.005117   0.000661   0.002916
     2  C    0.353821   4.994022   0.368709  -0.038508  -0.005509  -0.018511
     3  C   -0.038369   0.368709   5.071519   0.407538  -0.078908  -0.031875
     4  N    0.005117  -0.038508   0.407538   6.789367   0.175401  -0.027625
     5  N    0.000661  -0.005509  -0.078908   0.175401   7.218749   0.250240
     6  C    0.002916  -0.018511  -0.031875  -0.027625   0.250240   4.542311
     7  O   -0.000070   0.001300   0.000171   0.003341  -0.080852   0.494710
     8  C   -0.053886   0.316217  -0.033804  -0.006543  -0.122060   0.277462
     9  H    0.363876  -0.030220  -0.004071   0.000045   0.000025  -0.000113
    10  H    0.356414  -0.029646  -0.002845  -0.000081  -0.000025   0.000121
    11  H    0.353001  -0.025132   0.003325  -0.000122   0.000035   0.000102
    12  H   -0.003464  -0.068979   0.380238  -0.052850   0.004809   0.000117
    13  H   -0.002438  -0.033752   0.004803   0.000103   0.003592  -0.018940
    14  H   -0.002520  -0.034662  -0.005877   0.000903   0.001427  -0.019482
    15  N   -0.000057  -0.003910   0.007551  -0.011843  -0.042967  -0.000616
    16  C    0.002467  -0.009086  -0.024991  -0.013446   0.102348   0.004058
    17  C   -0.022451   0.189984  -0.026767  -0.017766  -0.017729  -0.005557
    18  C   -0.002902  -0.006350   0.002002   0.000283  -0.000455  -0.003151
    19  O   -0.011951  -0.001968   0.000223   0.000000  -0.000013   0.000004
    20  C   -0.000131  -0.000377  -0.000162  -0.000022  -0.000196   0.001800
    21  C   -0.000000  -0.000056   0.000023  -0.000017   0.001574  -0.001879
    22  C   -0.000042   0.001170   0.000333   0.000438  -0.017996  -0.001795
    23  H   -0.000162   0.000618   0.010701   0.009816  -0.004124   0.000334
    24  H    0.000002  -0.000109   0.000720   0.000424   0.001971  -0.000119
    25  H   -0.001698  -0.013736  -0.010411  -0.000301   0.001879   0.000369
    26  H   -0.000006   0.000019   0.000000   0.000000   0.000000   0.000048
    27  H    0.000026  -0.000021   0.000045  -0.000023   0.000063   0.000218
    28  H    0.000000   0.000005   0.000000   0.000001  -0.000017   0.000009
    29  H    0.000000  -0.000004   0.000001   0.000001  -0.000036  -0.000062
    30  H    0.000004  -0.000146   0.000177   0.000569  -0.006868  -0.001746
    31  H    0.000000  -0.000004  -0.000045  -0.000029   0.000957   0.000457
               7          8          9         10         11         12
     1  C   -0.000070  -0.053886   0.363876   0.356414   0.353001  -0.003464
     2  C    0.001300   0.316217  -0.030220  -0.029646  -0.025132  -0.068979
     3  C    0.000171  -0.033804  -0.004071  -0.002845   0.003325   0.380238
     4  N    0.003341  -0.006543   0.000045  -0.000081  -0.000122  -0.052850
     5  N   -0.080852  -0.122060   0.000025  -0.000025   0.000035   0.004809
     6  C    0.494710   0.277462  -0.000113   0.000121   0.000102   0.000117
     7  O    8.134975  -0.078125   0.000001   0.000001  -0.000000   0.000007
     8  C   -0.078125   5.415155   0.004403  -0.003009  -0.002399   0.004899
     9  H    0.000001   0.004403   0.561568  -0.027842  -0.024635   0.004991
    10  H    0.000001  -0.003009  -0.027842   0.560260  -0.023450   0.000393
    11  H   -0.000000  -0.002399  -0.024635  -0.023450   0.482700  -0.000071
    12  H    0.000007   0.004899   0.004991   0.000393  -0.000071   0.583019
    13  H    0.000501   0.350811  -0.000009  -0.000490   0.002939  -0.000143
    14  H    0.000060   0.348685  -0.000088   0.002789  -0.000191   0.000122
    15  N    0.000114   0.000550  -0.000004  -0.000001  -0.000001  -0.000033
    16  C   -0.005048  -0.012341  -0.000036  -0.000026   0.000253  -0.000031
    17  C    0.000002  -0.024414  -0.001860   0.002251  -0.008551   0.001544
    18  C    0.000080  -0.005956  -0.000058   0.000165   0.000521  -0.000042
    19  O    0.000006  -0.001901   0.000121   0.000165   0.026364  -0.000001
    20  C   -0.008908   0.000638  -0.000001   0.000013   0.000509   0.000002
    21  C   -0.000935   0.000319   0.000000  -0.000000  -0.000001  -0.000000
    22  C   -0.011208  -0.002127   0.000000   0.000001  -0.000009   0.000013
    23  H    0.000001   0.000015   0.000036   0.000002  -0.000000   0.000406
    24  H    0.000000   0.000035   0.000000  -0.000000   0.000000  -0.000031
    25  H   -0.000017   0.001838   0.002045   0.000091   0.001086   0.000509
    26  H    0.000123  -0.000004  -0.000000  -0.000000  -0.000001  -0.000000
    27  H    0.021817  -0.001829   0.000000  -0.000002  -0.000082  -0.000000
    28  H   -0.000012  -0.000007   0.000000  -0.000000  -0.000001   0.000000
    29  H    0.000155   0.000007   0.000000  -0.000000   0.000000  -0.000000
    30  H    0.029930   0.002732  -0.000000  -0.000000  -0.000000  -0.000001
    31  H    0.000220  -0.000014  -0.000000  -0.000000   0.000000  -0.000000
              13         14         15         16         17         18
     1  C   -0.002438  -0.002520  -0.000057   0.002467  -0.022451  -0.002902
     2  C   -0.033752  -0.034662  -0.003910  -0.009086   0.189984  -0.006350
     3  C    0.004803  -0.005877   0.007551  -0.024991  -0.026767   0.002002
     4  N    0.000103   0.000903  -0.011843  -0.013446  -0.017766   0.000283
     5  N    0.003592   0.001427  -0.042967   0.102348  -0.017729  -0.000455
     6  C   -0.018940  -0.019482  -0.000616   0.004058  -0.005557  -0.003151
     7  O    0.000501   0.000060   0.000114  -0.005048   0.000002   0.000080
     8  C    0.350811   0.348685   0.000550  -0.012341  -0.024414  -0.005956
     9  H   -0.000009  -0.000088  -0.000004  -0.000036  -0.001860  -0.000058
    10  H   -0.000490   0.002789  -0.000001  -0.000026   0.002251   0.000165
    11  H    0.002939  -0.000191  -0.000001   0.000253  -0.008551   0.000521
    12  H   -0.000143   0.000122  -0.000033  -0.000031   0.001544  -0.000042
    13  H    0.534443  -0.026345   0.000013   0.000321  -0.007666   0.006209
    14  H   -0.026345   0.543912  -0.000011   0.000287   0.003895   0.000122
    15  N    0.000013  -0.000011   6.863954   0.374719  -0.049424   0.001798
    16  C    0.000321   0.000287   0.374719   4.731355   0.326167  -0.000814
    17  C   -0.007666   0.003895  -0.049424   0.326167   5.547640   0.308595
    18  C    0.006209   0.000122   0.001798  -0.000814   0.308595   4.466138
    19  O    0.001681  -0.000023  -0.000049   0.004056  -0.076678   0.522523
    20  C   -0.000259   0.000023   0.000138  -0.006521  -0.131597   0.358898
    21  C    0.000073  -0.000006   0.001640  -0.033754   0.000709  -0.026691
    22  C    0.000009   0.000017  -0.051238   0.385471  -0.061890  -0.013782
    23  H   -0.000000   0.000000   0.303474  -0.029710  -0.008281   0.000157
    24  H   -0.000000  -0.000001   0.310094  -0.024901   0.006051  -0.000069
    25  H    0.000113  -0.000051  -0.004792  -0.042490   0.345934  -0.025411
    26  H   -0.000002   0.000001   0.000003   0.000028   0.006711  -0.024976
    27  H    0.001633   0.000042   0.000017  -0.002516   0.003455  -0.028059
    28  H    0.000004   0.000000   0.000377  -0.003661   0.002094  -0.003397
    29  H   -0.000001  -0.000000  -0.000090   0.004591   0.000157   0.003524
    30  H   -0.000095  -0.000027   0.001025  -0.029916   0.003048   0.000028
    31  H   -0.000002   0.000000  -0.006070  -0.040352   0.003231   0.000106
              19         20         21         22         23         24
     1  C   -0.011951  -0.000131  -0.000000  -0.000042  -0.000162   0.000002
     2  C   -0.001968  -0.000377  -0.000056   0.001170   0.000618  -0.000109
     3  C    0.000223  -0.000162   0.000023   0.000333   0.010701   0.000720
     4  N    0.000000  -0.000022  -0.000017   0.000438   0.009816   0.000424
     5  N   -0.000013  -0.000196   0.001574  -0.017996  -0.004124   0.001971
     6  C    0.000004   0.001800  -0.001879  -0.001795   0.000334  -0.000119
     7  O    0.000006  -0.008908  -0.000935  -0.011208   0.000001   0.000000
     8  C   -0.001901   0.000638   0.000319  -0.002127   0.000015   0.000035
     9  H    0.000121  -0.000001   0.000000   0.000000   0.000036   0.000000
    10  H    0.000165   0.000013  -0.000000   0.000001   0.000002  -0.000000
    11  H    0.026364   0.000509  -0.000001  -0.000009  -0.000000   0.000000
    12  H   -0.000001   0.000002  -0.000000   0.000013   0.000406  -0.000031
    13  H    0.001681  -0.000259   0.000073   0.000009  -0.000000  -0.000000
    14  H   -0.000023   0.000023  -0.000006   0.000017   0.000000  -0.000001
    15  N   -0.000049   0.000138   0.001640  -0.051238   0.303474   0.310094
    16  C    0.004056  -0.006521  -0.033754   0.385471  -0.029710  -0.024901
    17  C   -0.076678  -0.131597   0.000709  -0.061890  -0.008281   0.006051
    18  C    0.522523   0.358898  -0.026691  -0.013782   0.000157  -0.000069
    19  O    8.076386  -0.071576   0.001496   0.000242  -0.000000   0.000001
    20  C   -0.071576   5.332830   0.327470  -0.044288  -0.000008   0.000014
    21  C    0.001496   0.327470   5.051837   0.341668  -0.000243   0.000192
    22  C    0.000242  -0.044288   0.341668   5.179321   0.006259  -0.007903
    23  H   -0.000000  -0.000008  -0.000243   0.006259   0.388237  -0.025881
    24  H    0.000001   0.000014   0.000192  -0.007903  -0.025881   0.380019
    25  H    0.001530   0.005849  -0.000352   0.003202   0.003298   0.000033
    26  H    0.003659   0.344803  -0.027770   0.004295  -0.000000  -0.000001
    27  H    0.000819   0.337552  -0.034553  -0.001965   0.000002   0.000001
    28  H    0.000291  -0.044855   0.376988  -0.038411  -0.000019  -0.000016
    29  H   -0.000063  -0.027593   0.369740  -0.029825   0.000005   0.000004
    30  H   -0.000002  -0.003935  -0.030892   0.337511  -0.000236   0.000642
    31  H    0.000002   0.004708  -0.031564   0.362219   0.000138   0.004628
              25         26         27         28         29         30
     1  C   -0.001698  -0.000006   0.000026   0.000000   0.000000   0.000004
     2  C   -0.013736   0.000019  -0.000021   0.000005  -0.000004  -0.000146
     3  C   -0.010411   0.000000   0.000045   0.000000   0.000001   0.000177
     4  N   -0.000301   0.000000  -0.000023   0.000001   0.000001   0.000569
     5  N    0.001879   0.000000   0.000063  -0.000017  -0.000036  -0.006868
     6  C    0.000369   0.000048   0.000218   0.000009  -0.000062  -0.001746
     7  O   -0.000017   0.000123   0.021817  -0.000012   0.000155   0.029930
     8  C    0.001838  -0.000004  -0.001829  -0.000007   0.000007   0.002732
     9  H    0.002045  -0.000000   0.000000   0.000000   0.000000  -0.000000
    10  H    0.000091  -0.000000  -0.000002  -0.000000  -0.000000  -0.000000
    11  H    0.001086  -0.000001  -0.000082  -0.000001   0.000000  -0.000000
    12  H    0.000509  -0.000000  -0.000000   0.000000  -0.000000  -0.000001
    13  H    0.000113  -0.000002   0.001633   0.000004  -0.000001  -0.000095
    14  H   -0.000051   0.000001   0.000042   0.000000  -0.000000  -0.000027
    15  N   -0.004792   0.000003   0.000017   0.000377  -0.000090   0.001025
    16  C   -0.042490   0.000028  -0.002516  -0.003661   0.004591  -0.029916
    17  C    0.345934   0.006711   0.003455   0.002094   0.000157   0.003048
    18  C   -0.025411  -0.024976  -0.028059  -0.003397   0.003524   0.000028
    19  O    0.001530   0.003659   0.000819   0.000291  -0.000063  -0.000002
    20  C    0.005849   0.344803   0.337552  -0.044855  -0.027593  -0.003935
[...]
 3482,-0.00036165,-0.00027499,0.00017619,0.00006524,-0.00006528,-0.0000
 7385,0.00013170,0.00013048,0.00005095,0.00008011,-0.00045104,0.0020135
 8,-0.00004578,0.00097120,0.00252936,-0.00707120,0.00400874,-0.11067729
 ,0.08727924,-0.24775409,-0.00598814,0.01092683,-0.01179557,0.00233106,
 -0.00164911,0.00226460,-0.00079304,-0.00313100,0.00092181,-0.00019920,
 0.00011107,-0.00043992,0.00049774,-0.00126142,0.00087755,-0.00013752,0
 .00086328,0.00006959,0.00006845,0.00021523,0.00038124,0.10471719,-0.08
 896225,0.26053982,-0.00002112,-0.00004327,-0.00000464,0.00047842,0.000
 08570,-0.00000090,0.00007306,0.00000951,0.00006448,-0.00008856,-0.0000
 3013,-0.00011370,0.00011570,-0.00002257,-0.00006689,0.00030923,0.00020
 253,0.00019335,-0.00033909,-0.00040704,0.00012125,-0.00007098,0.000033
 86,0.00007261,0.00001447,0.00000902,0.00001632,-0.00002076,0.00002659,
 0.00000093,-0.00003841,-0.00002235,0.00000473,0.00000978,-0.00000057,-
 0.00002031,0.00002916,-0.00012307,-0.00005633,-0.00003746,-0.00000897,
 0.00002216,0.00021939,-0.00034972,-0.00018118,-0.00058769,0.00111637,0
 .00035367,-0.00189960,0.00276446,-0.00349280,-0.01778947,-0.02335921,-
 0.00508771,0.00374665,0.00094458,0.00222082,-0.14679027,-0.12431636,-0
 .03161540,0.01311622,0.01465542,0.00307471,-0.00200579,0.00292251,0.00
 225935,0.00005320,0.00004792,0.00009461,-0.00010391,-0.00006128,-0.000
 04489,-0.00071308,-0.00102017,-0.00075804,0.15712091,0.00001578,-0.000
 04303,0.00002251,-0.00005534,-0.00008125,-0.00004226,-0.00008121,0.000
 02609,-0.00000229,0.00006755,0.00000430,0.00008732,-0.00017350,-0.0000
 6599,-0.00005219,0.00046512,-0.00011679,0.00030959,-0.00061845,-0.0001
 3503,0.00011939,-0.00003068,0.00003689,0.00000081,0.00000135,0.0000105
 8,-0.00001282,0.00000696,0.00001696,0.00000283,0.00000001,0.00005329,-
 0.00000775,-0.00000349,0.00000741,-0.00001295,0.00000008,-0.00002480,-
 0.00000681,-0.00000821,0.00001467,-0.00000628,-0.00017265,0.00026149,0
 .00001696,0.00073405,-0.00032065,0.00017787,0.00117635,-0.00064850,0.0
 0170774,0.00808582,0.00803909,0.00244970,0.00028060,0.00151985,0.00016
 967,-0.12813072,-0.21278988,-0.04389610,-0.01424995,-0.01642828,-0.002
 80991,0.00399632,-0.00239829,-0.00269995,-0.00002967,-0.00001773,-0.00
 001974,0.00015098,0.00005517,0.00006986,0.00028709,0.00046519,0.000402
 67,0.13489941,0.22932104,0.00004643,-0.00008742,0.00000032,0.00009821,
 0.00005196,-0.00015928,-0.00000634,-0.00018933,0.00003175,-0.00017567,
 0.00020430,-0.00013868,0.00014715,0.00022552,0.00052165,-0.00084066,-0
 .00031003,-0.00102865,0.00130027,0.00078767,0.00001761,-0.00006285,-0.
 00000319,-0.00003631,0.00001753,-0.00000909,0.00002280,0.00001815,0.00
 003348,0.00001654,-0.00005548,0.00003155,0.00003348,0.00001936,0.00000
 430,-0.00000513,-0.00005994,0.00011966,0.00006369,0.00002321,-0.000016
 41,0.00004746,-0.00005472,0.00004598,0.00009085,0.00065756,0.00017497,
 0.00013776,-0.00257767,0.00208186,-0.00125589,-0.01663114,-0.01655222,
 -0.00728618,0.00398903,-0.00069781,0.00093098,-0.02972636,-0.04099038,
 -0.05862316,-0.00929724,-0.01048531,-0.00331923,0.00167648,-0.00182196
 ,-0.00102691,0.00005090,0.00005695,-0.00002353,0.00009719,0.00001132,0
 .00001323,-0.00059112,-0.00053072,-0.00040700,0.03647057,0.04690470,0.
 06178418,-0.00021074,0.00034285,0.00025054,0.00107113,0.00011438,-0.00
 092252,0.00008004,-0.00123705,0.00051643,-0.00125269,0.00061491,-0.000
 81920,0.00149977,0.00141741,0.00141458,-0.00491451,-0.00259053,-0.0031
 3361,0.00157890,0.00105789,0.00143319,-0.00057951,-0.00067586,-0.00041
 656,0.00000848,-0.00005304,0.00002186,-0.00014815,-0.00002353,-0.00002
 762,0.00014989,-0.00016950,-0.00007675,0.00003712,0.00000520,0.0000132
 9,-0.00100340,0.00071934,0.00016766,0.00026247,0.00018639,0.00022170,-
 0.00010287,-0.00007155,0.00013342,-0.00020714,0.00016786,-0.00031862,-
 0.00328870,-0.00169674,0.00252549,0.01677038,0.01017785,-0.02188595,-0
 .00520773,0.00204768,0.00162121,-0.08366461,-0.03536602,0.07282174,-0.
 00762520,-0.00519036,0.01798481,0.00091817,-0.00064591,-0.00099863,0.0
 0004053,-0.00002801,-0.00001465,0.00002115,-0.00001685,-0.00005838,0.0
 0020268,0.00021899,0.00025205,-0.00678440,-0.00576340,0.01647785,0.092
 69466,-0.00000895,0.00002655,0.00002883,0.00095068,0.00020988,-0.00007
 865,0.00043893,-0.00096037,0.00018415,-0.00145086,0.00066926,-0.000596
 97,0.00201721,0.00134935,0.00192956,-0.00568093,-0.00071044,-0.0040359
 0,0.00339447,-0.00130472,0.00214009,0.00050010,0.00019117,0.00025843,0
 .00000145,-0.00001186,0.00000347,0.00000743,0.00003133,0.00000657,-0.0
 0002139,-0.00002493,0.00004542,0.00001749,-0.00007915,-0.00002841,0.00
 036390,-0.00019077,-0.00015672,-0.00001316,-0.00017113,0.00008382,-0.0
 0002809,0.00003634,0.00071111,0.00002279,-0.00028356,-0.00054559,-0.00
 083388,0.00010761,-0.00011833,-0.00173482,-0.00701801,0.01079522,0.002
 48686,0.00064547,-0.00080248,-0.04066570,-0.07816398,0.08091235,0.0110
 5466,0.00754385,-0.02502805,-0.00000569,0.00145946,-0.00054658,0.00009
 955,0.00002447,-0.00014037,0.00004827,-0.00003166,-0.00011169,0.000187
 11,-0.00009744,-0.00017447,-0.00762624,-0.00747695,0.02076593,0.034123
 70,0.08757107,0.00005524,0.00007190,-0.00000021,-0.00004375,-0.0000427
 8,-0.00024561,-0.00041113,-0.00018586,-0.00006531,0.00022017,0.0001802
 9,-0.00030028,-0.00060848,-0.00018729,-0.00010852,0.00112737,-0.001002
 50,0.00095615,0.00014572,0.00122226,-0.00215184,-0.00020902,0.00015774
 ,-0.00028117,0.00001299,0.00000148,0.00000496,-0.00000401,-0.00004587,
 -0.00001012,-0.00003488,0.00000349,-0.00003185,-0.00007065,0.00002469,
 0.00007415,0.00007853,0.00023298,0.00030354,0.00007770,0.00000840,0.00
 000797,-0.00002839,-0.00004926,-0.00024180,-0.00017256,0.00013422,-0.0
 0037109,-0.00135351,-0.00065802,0.00097857,0.00514773,0.00831553,-0.01
 716531,-0.00124980,-0.00111008,0.00055036,0.08081907,0.07763328,-0.234
 66030,0.00714504,0.00286869,-0.01437468,-0.00023668,0.00089399,0.00042
 918,-0.00003944,-0.00002041,0.00004027,-0.00004558,0.00001521,0.000019
 84,-0.00003643,0.00018551,0.00021993,-0.00302392,-0.00282294,0.0090524
 0,-0.08808059,-0.08350677,0.25587742,0.00005045,-0.00000651,-0.0000503
 4,-0.00070750,-0.00017675,0.00019871,0.00009778,0.00056436,-0.00006641
 ,0.00043479,-0.00032728,0.00042756,-0.00065543,-0.00025838,-0.00021057
 ,0.00045094,0.00018430,0.00039210,-0.00047069,-0.00005948,-0.00007153,
 0.00015715,0.00004532,-0.00005586,-0.00000945,0.00000097,-0.00000673,0
 .00001604,-0.00000277,0.00000551,-0.00000267,0.00000735,0.00001279,0.0
 0002630,0.00000412,-0.00003529,0.00004012,-0.00006412,-0.00002001,-0.0
 0001895,-0.00001205,-0.00004573,-0.00007891,-0.00012141,-0.00076710,0.
 00105633,-0.00043107,0.00206729,0.00045508,0.00011991,-0.00060438,0.00
 033842,-0.00123943,0.00143552,0.00003439,0.00050603,-0.00026922,-0.007
 48427,-0.00407749,0.01403907,-0.09186384,-0.03193801,0.08306763,-0.009
 43362,-0.00770149,0.01710660,0.00000462,-0.00002750,0.00006715,0.00001
 053,0.00000696,0.00012237,-0.00020744,0.00003738,0.00003652,0.00062475
 ,0.00003650,-0.00053847,-0.00084136,0.00287990,0.00138079,0.09734683,-
 0.00002586,0.00000112,0.00004207,0.00006240,0.00002071,-0.00008123,-0.
 00009148,0.00001590,0.00002680,0.00001064,0.00003830,0.00019416,-0.000
 38969,0.00012972,0.00026938,-0.00003806,-0.00048227,-0.00026731,0.0000
 1682,0.00047230,0.00024652,-0.00004603,-0.00002424,-0.00020223,0.00000
 451,0.00000028,0.00000070,-0.00001540,0.00000805,-0.00000553,-0.000014
 62,0.00000777,-0.00001501,0.00002987,0.00001778,-0.00003186,-0.0000419
 6,0.00012595,0.00005752,0.00003227,0.00003779,0.00003111,-0.00024404,0
 .00000692,-0.00069183,0.00192269,-0.00051971,0.00123161,-0.00000481,0.
 00027552,-0.00004882,-0.00078742,0.00137985,-0.00139208,-0.00020430,-0
 .00027062,0.00022194,0.01177121,0.00825901,-0.02306204,-0.03218374,-0.
 07699417,0.07315066,-0.01150884,-0.01037087,0.02184991,0.00001191,-0.0
 0009699,0.00007538,-0.00001891,0.00001739,0.00016028,-0.00002492,0.000
 13271,0.00006749,-0.00080023,0.00103330,0.00050269,0.00335329,-0.00407
 395,-0.00213420,0.03653180,0.08700699,-0.00000132,-0.00003451,-0.00001
 430,-0.00007099,0.00002730,-0.00000863,0.00006783,0.00008362,-0.000062
 86,0.00009300,-0.00001975,0.00008144,-0.00006029,0.00000273,0.00009240
 ,-0.00013538,-0.00006075,-0.00011248,0.00019257,0.00022395,0.00015668,
 -0.00000742,-0.00009757,0.00001077,0.00000773,0.00000220,0.00001657,0.
 00001640,0.00001006,0.00000019,-0.00002236,0.00002236,-0.00000159,0.00
 000755,0.00000025,0.00001076,-0.00004766,0.00005704,0.00002374,0.00001
 720,0.00000629,0.00001035,0.00028123,0.00002219,0.00020767,0.00011177,
 -0.00008990,0.00088769,0.00052024,-0.00002689,-0.00002075,-0.00145420,
 0.00092587,-0.00084696,0.00051150,-0.00103387,0.00049785,0.00658639,0.
 00332347,-0.01183874,0.08386771,0.07385136,-0.23907268,-0.00391603,-0.
 00289385,0.00728757,0.00004845,0.00001444,-0.00003158,0.00002277,-0.00
 002520,-0.00004802,0.00011929,0.00002873,0.00005380,-0.00029136,-0.000
 15965,0.00005457,0.00143931,-0.00284129,-0.00004027,-0.09461455,-0.077
 12049,0.25784474,-0.00003196,-0.00003346,0.00007490,0.00061520,0.00018
 311,-0.00012746,-0.00008642,-0.00048991,-0.00004922,-0.00031333,0.0003
 1159,-0.00024658,0.00030119,0.00025289,0.00058229,-0.00056677,-0.00035
 760,-0.00081639,0.00071605,-0.00001492,0.00053181,-0.00004280,0.000001
 48,0.00007376,0.00000312,-0.00001265,-0.00000351,-0.00002187,0.0000117
 8,0.00000279,0.00005529,-0.00000366,-0.00001433,-0.00001112,0.00000723
 ,0.00001345,0.00000287,0.00001404,-0.00002504,-0.00001572,0.00000475,0
 .00002637,-0.00090284,0.00055788,-0.00036912,-0.00070718,-0.00465796,-
 0.00073285,0.00003692,-0.00002773,0.00029486,0.00076010,0.00187942,0.0
 0318758,-0.00085441,0.00093514,-0.00105875,-0.01224288,0.00551185,-0.0
 0817653,-0.19568612,0.06335305,-0.11455364,-0.01645429,0.00571984,-0.0
 1136084,-0.00010219,-0.00004644,-0.00030509,-0.00001710,0.00011450,0.0
 0008781,0.00004449,-0.00000875,-0.00009298,0.00067614,-0.00000730,0.00
 007119,0.00021625,-0.00058306,-0.00035313,0.01153034,-0.00437592,0.007
 69529,0.21214403,0.00001294,0.00000860,-0.00000059,-0.00019568,-0.0001
 1595,0.00000880,-0.00011215,0.00004229,-0.00002999,0.00012272,0.000034
 02,0.00013864,-0.00016968,0.00001703,0.00022937,-0.00007542,-0.0002653
 5,-0.00031498,0.00018239,0.00014564,0.00018614,-0.00004665,-0.00000737
 ,-0.00004371,0.00000437,0.00000003,0.00000352,0.00001042,0.00001216,-0
 .00000646,-0.00010164,0.00001630,0.00002842,0.00001806,0.00001092,0.00
 000043,-0.00001327,0.00003111,0.00005745,0.00000961,0.00001892,0.00000
 012,-0.00098343,0.00119957,-0.00038657,-0.00208496,-0.00562820,-0.0010
 3910,-0.00007126,0.00070212,0.00072107,-0.00072365,-0.00293253,-0.0062
 0990,0.00127930,-0.00118299,0.00213279,0.02123289,-0.00908441,0.013828
 26,0.06524487,-0.07538334,0.05336586,-0.02221695,0.00780389,-0.0149753
 5,-0.00013239,-0.00004224,-0.00061018,-0.00005569,0.00014119,0.0001619
 9,0.00007766,0.00013231,0.00005522,-0.00058035,0.00033512,0.00050478,-
 0.00107102,0.00106699,0.00026778,0.00799866,-0.00365733,0.00623278,-0.
 06897933,0.08435609,-0.00000083,-0.00000832,0.00001339,0.00015383,-0.0
 0002296,-0.00005782,-0.00017389,-0.00016886,-0.00005599,-0.00005145,0.
 00016032,-0.00008959,-0.00001071,-0.00006069,0.00008503,0.00009564,-0.
 00016569,0.00006617,-0.00023961,0.00011783,0.00004225,-0.00007455,0.00
 001580,0.00001013,-0.00000039,0.00000149,-0.00000361,-0.00000102,0.000
 00744,-0.00000355,-0.00004864,0.00000907,0.00001568,-0.00001979,0.0000
 1781,0.00000934,0.00000170,0.00001189,0.00003477,-0.00000302,0.0000109
 7,0.00000305,-0.00003428,0.00029418,0.00039658,0.00014540,-0.00121971,
 0.00040423,-0.00014813,0.00016213,0.00047744,0.00044051,-0.00214276,-0
 .00323553,0.00084875,-0.00127600,0.00151357,0.01508173,-0.00604890,0.0
 1005776,-0.11682886,0.05268611,-0.14253657,-0.00325184,0.00151300,-0.0
 0298315,-0.00005512,0.00002334,-0.00006400,-0.00000966,0.00006742,0.00
 003072,0.00015133,0.00001222,0.00008247,-0.00056293,0.00057107,0.00044
 794,-0.00034450,0.00064443,0.00102246,-0.02115942,0.00891019,-0.016415
 30,0.12565321,-0.05403322,0.15042096,0.00001220,-0.00003084,0.00024000
 ,0.00361249,0.00157952,0.00009597,-0.00103207,-0.00450330,0.00080994,-
 0.00340521,0.00299503,-0.00285230,0.00250364,0.00380558,0.00318738,-0.
 01207325,-0.00051430,-0.00182484,0.00396735,-0.00126624,-0.00040107,-0
 .00090538,0.00036313,0.00007441,0.00002963,-0.00004861,0.00001321,-0.0
 0006180,-0.00002151,-0.00000266,0.00002338,-0.00000714,0.00002401,-0.0
 0000115,-0.00004801,0.00011134,-0.00004628,0.00010351,-0.00007878,0.00
 002037,-0.00012352,0.00016610,-0.00278732,0.00130022,0.00167263,0.0099
 7301,0.00791069,-0.02769132,-0.00408989,0.00229753,0.00268034,0.000113
 40,-0.00067461,-0.00084686,-0.00011809,0.00037738,0.00010373,0.0007220
 8,0.00147749,0.00007653,-0.00864252,-0.01144228,0.01901176,-0.06383787
 ,-0.02346869,0.05865836,-0.00027432,-0.00125967,0.00067898,0.00070352,
 -0.00011693,-0.00082443,-0.00028492,-0.00019068,0.00004823,-0.00011816
 ,0.00028084,0.00008276,0.00050117,-0.00007764,-0.00028645,-0.00179984,
 -0.00365317,-0.00134988,0.00039621,0.00066585,0.00047956,0.08061264,0.
 00026486,0.00003867,-0.00023908,-0.00099941,-0.00058614,0.00061899,-0.
 00065010,0.00099646,0.00042219,0.00122932,-0.00104628,0.00050162,-0.00
 152291,-0.00027234,-0.00151699,0.00374620,0.00107406,0.00248985,-0.002
 73698,-0.00142744,-0.00073735,0.00023447,0.00012865,-0.00058530,-0.000
 00557,0.00001486,-0.00001241,0.00003515,-0.00006730,0.00000981,0.00000
 213,0.00002187,-0.00001322,0.00006608,-0.00003633,-0.00000319,0.000001
 11,0.00000247,-0.00002654,0.00005411,-0.00015749,-0.00005523,-0.001133
 15,-0.00071027,-0.00063496,-0.00064403,-0.00441548,0.00915380,0.002200
 51,-0.00037909,-0.00096698,0.00019837,-0.00038030,0.00052506,-0.000080
 73,0.00020257,-0.00010171,0.00012169,0.00106697,0.00118335,-0.01020578
 ,-0.01314764,0.02162375,-0.02406001,-0.08706422,0.08996125,-0.00004444
 ,0.00002576,0.00020383,0.00003563,0.00014325,-0.00022702,0.00007287,0.
 00007779,-0.00001745,-0.00002790,0.00044215,-0.00013146,0.00024633,-0.
 00055997,-0.00060760,-0.00299742,-0.00316050,-0.00122487,0.00079931,0.
 00152223,-0.00008749,0.02974585,0.09695200,0.00008418,-0.00002671,-0.0
 0026804,-0.00357775,-0.00109120,-0.00029319,-0.00011474,0.00276836,-0.
 00014749,0.00228069,-0.00160848,0.00049107,-0.00164330,-0.00415200,-0.
 00402028,0.01179035,0.00309906,0.00640814,-0.00658900,0.00196325,-0.00
 244827,0.00057437,-0.00030837,0.00011856,-0.00004988,0.00004773,0.0000
 0116,0.00005759,-0.00004513,0.00002470,-0.00003343,0.00002700,0.000003
 62,-0.00002569,0.00007584,-0.00001003,0.00007775,-0.00014956,0.0001362
 5,-0.00006379,0.00014820,-0.00024160,0.00017670,0.00145007,0.00180806,
 -0.00761612,0.00901520,-0.01761714,0.00265609,-0.00171032,-0.00107383,
 -0.00001908,-0.00024236,-0.00023789,0.00013375,-0.00009579,-0.00005106
 ,-0.00051761,0.00006898,0.00083709,-0.00166967,-0.00292324,0.00700061,
 0.06600308,0.08822756,-0.24287998,-0.00045119,-0.00004661,0.00011087,0
 .00021164,-0.00010478,-0.00065731,-0.00065650,0.00003746,0.00030114,0.
 00003055,-0.00001006,0.00000400,-0.00004875,-0.00013865,0.00014535,-0.
 00141689,-0.00220080,0.00060966,0.00010055,-0.00018254,0.00058494,-0.0
 6381932,-0.09735300,0.26422407,-0.00000632,-0.00000282,0.00004118,0.00
 011473,0.00000428,0.00004027,-0.00033432,-0.00033827,0.00016485,-0.000
 32049,0.00037715,-0.00040651,0.00035830,0.00014823,0.00058588,-0.00041
 101,-0.00065571,-0.00036441,0.00015365,0.00010987,0.00018948,-0.000078
 86,0.00000282,-0.00014888,0.00002524,-0.00000608,0.00000388,-0.0000166
 8,0.00001500,0.00001983,-0.00002937,0.00000479,-0.00001196,-0.00001617
 ,0.00002345,-0.00001103,-0.00001051,0.00003837,0.00001451,-0.00001007,
 -0.00000270,0.00001759,0.00164267,0.00068215,-0.00003734,-0.01381791,0
 .02130902,0.01647035,-0.00183036,-0.00029855,-0.00340303,-0.00125908,-
 0.00047152,-0.00090542,0.00047696,0.00017294,0.00049850,-0.00326268,-0
 .00356554,-0.00042521,0.01228114,-0.01546701,-0.01241805,-0.10250441,0
 .08187097,0.06034667,0.00032746,-0.00017395,0.00026777,-0.00160370,-0.
 00089690,-0.00033930,0.00002420,0.00104970,0.00003272,0.00082165,-0.00
 116023,-0.00062619,-0.00022179,0.00013591,0.00007805,0.00089912,0.0007
 2198,0.00036520,0.00055879,0.00075377,-0.00003304,-0.00371303,0.006054
 45,0.00413543,0.11176287,0.00009428,-0.00002124,-0.00006418,0.00018133
 ,-0.00007467,0.00017207,-0.00017389,-0.00027274,0.00013036,-0.00011508
 ,0.00020898,0.00000245,0.00004798,0.00013073,0.00038053,-0.00029212,-0
 .00048052,0.00007625,-0.00011532,0.00015281,0.00018267,-0.00012229,0.0
 0004487,-0.00007721,-0.00000435,0.00000676,-0.00000436,0.00003064,-0.0
 0002179,-0.00000942,-0.00004026,0.00003074,0.00001010,0.00003535,0.000
 00904,-0.00001349,-0.00002004,0.00004441,0.00002232,0.00001303,0.00000
 841,0.00000470,-0.00333475,0.00130023,-0.00046193,0.00780443,-0.011560
 97,-0.00490390,0.00102579,0.00165265,0.00101627,-0.00107215,0.00055834
 ,-0.00077186,0.00032554,-0.00018042,0.00035400,-0.00485275,-0.00309162
 ,-0.00018154,0.01179130,-0.01671256,-0.01298821,0.08211255,-0.17903664
 ,-0.10101520,-0.00003383,-0.00001015,0.00038603,0.00088745,0.00064206,
 -0.00023646,0.00037301,-0.00024438,-0.00006210,0.00108155,-0.00109541,
 -0.00068230,-0.00019470,0.00022606,0.00015615,0.00051758,0.00066330,0.
 00079397,-0.00005921,0.00070319,-0.00000211,-0.00545549,0.01070105,0.0
 0546093,-0.09043557,0.19571950,-0.00009110,0.00000443,0.00005689,-0.00
 037496,0.00003079,-0.00014588,0.00011993,0.00014425,0.00006969,-0.0000
 5450,0.00009444,-0.00000468,0.00007014,0.00005394,0.00011117,-0.000665
 55,0.00027233,-0.00110449,0.00147932,0.00003917,-0.00019492,0.00011843
 ,-0.00011811,0.00020876,0.00001526,-0.00000831,0.00003488,-0.00001614,
 0.00003141,0.00001136,-0.00001531,-0.00000433,0.00000069,0.00001302,-0
 .00000408,0.00000328,-0.00002154,0.00000210,0.00002477,-0.00000502,0.0
 0001640,-0.00000284,-0.00005229,0.00160615,0.00055553,-0.01228949,0.01
 505562,0.00672466,-0.00157851,-0.00011950,-0.00203302,-0.00045720,-0.0
 0010972,-0.00024824,0.00022888,-0.00003277,0.00015080,-0.00169657,-0.0
 0089112,0.00058778,0.00276854,-0.00195432,-0.00325961,0.06492436,-0.10
 471401,-0.12451674,0.00023231,0.00035056,0.00024800,0.00032166,-0.0005
 6246,0.00059976,-0.00022922,0.00062852,0.00006450,0.00032089,-0.000450
 99,0.00003874,-0.00014877,0.00034154,0.00036580,-0.00042709,0.00021506
 ,0.00066772,-0.00011037,-0.00009085,-0.00027377,0.01176267,-0.02215164
 ,-0.01286320,-0.06414178,0.11232549,0.13412258\\-0.00000384,0.00000320
 ,-0.00000285,0.00002468,-0.00000873,0.00001274,-0.00001172,0.00000793,
 -0.00002160,0.00003466,0.00000632,0.00002800,-0.00002980,-0.00000818,-
 0.00002479,-0.00003690,-0.00001976,-0.00005103,0.00003594,0.00001509,0
 .00003665,0.00000271,0.00000192,-0.00000498,0.00000069,0.00000168,-0.0
 0000158,0.00000482,0.00000254,-0.00000131,0.00000017,0.,0.00000297,0.0
 0000175,0.00000343,-0.00000353,-0.00000298,0.00000111,0.00000002,0.000
 00069,0.00000112,-0.00000189,0.00002009,0.00003990,0.00003970,0.000029
 61,0.00000040,-0.00002998,-0.00003749,-0.00003074,0.00000864,0.0000004
 2,0.00001357,0.00001331,0.00000409,-0.00001405,-0.00000724,-0.00000029
 ,0.00000097,-0.00000226,-0.00000070,0.00000233,-0.00000460,-0.00003585
 ,-0.00001147,-0.00000117,-0.00000454,0.00000021,-0.00000078,-0.0000006
 5,-0.00000506,0.00000206,-0.00000259,-0.00000736,-0.00000185,0.0000002
 8,-0.00000109,0.00000278,-0.00000085,-0.00000466,0.00000171,-0.0000025
 5,-0.00000027,-0.00000009,-0.00000077,-0.00000174,-0.00000007,0.000017
 09,0.00001762,0.00000753,-0.00000617,-0.00000626,0.00000548\\\@
 The archive entry for this job was punched.


 PICNIC:  A SNACK IN THE GRASS.
 Job cpu time:       0 days  1 hours  9 minutes 25.9 seconds.
 Elapsed time:       0 days  0 hours  2 minutes 29.1 seconds.
 File lengths (MBytes):  RWF=    268 Int=      0 D2E=      0 Chk=      8 Scr=      1
 Normal termination of Gaussian 16 at Mon Apr  8 11:38:14 2024.
