 Entering Gaussian System, Link 0=g16
 Initial command:
 /public3/home/scg9909/software-scg9909/g16/l1.exe "/public3/home/scg9909/tmp/Gau-121602.inp" -scrdir="/public3/home/scg9909/tmp/"
 Entering Link 1 = /public3/home/scg9909/software-scg9909/g16/l1.exe PID=    121603.
  
 Copyright (c) 1988-2019, Gaussian, Inc.  All Rights Reserved.
  
 This is part of the Gaussian(R) 16 program.  It is based on
 the Gaussian(R) 09 system (copyright 2009, Gaussian, Inc.),
 the Gaussian(R) 03 system (copyright 2003, Gaussian, Inc.),
 the Gaussian(R) 98 system (copyright 1998, Gaussian, Inc.),
 the Gaussian(R) 94 system (copyright 1995, Gaussian, Inc.),
 the Gaussian 92(TM) system (copyright 1992, Gaussian, Inc.),
 the Gaussian 90(TM) system (copyright 1990, Gaussian, Inc.),
 the Gaussian 88(TM) system (copyright 1988, Gaussian, Inc.),
 the Gaussian 86(TM) system (copyright 1986, Carnegie Mellon
 University), and the Gaussian 82(TM) system (copyright 1983,
 Carnegie Mellon University). Gaussian is a federally registered
 trademark of Gaussian, Inc.
  
 This software contains proprietary and confidential information,
 including trade secrets, belonging to Gaussian, Inc.
  
 This software is provided under written license and may be
 used, copied, transmitted, or stored only in accord with that
 written license.
  
 The following legend is applicable only to US Government
 contracts under FAR:
  
                    RESTRICTED RIGHTS LEGEND
  
 Use, reproduction and disclosure by the US Government is
 subject to restrictions as set forth in subparagraphs (a)
 and (c) of the Commercial Computer Software - Restricted
 Rights clause in FAR 52.227-19.
  
 Gaussian, Inc.
 340 Quinnipiac St., Bldg. 40, Wallingford CT 06492
  
  
 ---------------------------------------------------------------
 Warning -- This program may not be used in any manner that
 competes with the business of Gaussian, Inc. or will provide
 assistance to any competitor of Gaussian, Inc.  The licensee
 of this program is prohibited from giving any competitor of
 Gaussian, Inc. access to this program.  By using this program,
 the user acknowledges that Gaussian, Inc. is engaged in the
 business of creating and licensing software in the field of
 computational chemistry and represents and warrants to the
 licensee that it is not a competitor of Gaussian, Inc. and that
 it will not use this program in any manner prohibited above.
 ---------------------------------------------------------------
  

 Cite this work as:
 Gaussian 16, Revision C.01,
 M. J. Frisch, G. W. Trucks, H. B. Schlegel, G. E. Scuseria, 
 M. A. Robb, J. R. Cheeseman, G. Scalmani, V. Barone, 
 G. A. Petersson, H. Nakatsuji, X. Li, M. Caricato, A. V. Marenich, 
 J. Bloino, B. G. Janesko, R. Gomperts, B. Mennucci, H. P. Hratchian, 
 J. V. Ortiz, A. F. Izmaylov, J. L. Sonnenberg, D. Williams-Young, 
 F. Ding, F. Lipparini, F. Egidi, J. Goings, B. Peng, A. Petrone, 
 T. Henderson, D. Ranasinghe, V. G. Zakrzewski, J. Gao, N. Rega, 
 G. Zheng, W. Liang, M. Hada, M. Ehara, K. Toyota, R. Fukuda, 
 J. Hasegawa, M. Ishida, T. Nakajima, Y. Honda, O. Kitao, H. Nakai, 
 T. Vreven, K. Throssell, J. A. Montgomery, Jr., J. E. Peralta, 
 F. Ogliaro, M. J. Bearpark, J. J. Heyd, E. N. Brothers, K. N. Kudin, 
 V. N. Staroverov, T. A. Keith, R. Kobayashi, J. Normand, 
 K. Raghavachari, A. P. Rendell, J. C. Burant, S. S. Iyengar, 
 J. Tomasi, M. Cossi, J. M. Millam, M. Klene, C. Adamo, R. Cammi, 
 J. W. Ochterski, R. L. Martin, K. Morokuma, O. Farkas, 
 J. B. Foresman, and D. J. Fox, Gaussian, Inc., Wallingford CT, 2019.
 
 ******************************************
 Gaussian 16:  ES64L-G16RevC.01  3-Jul-2019
                 8-Apr-2024 
 ******************************************
 %nprocshared=28
 Will use up to   28 processors via shared memory.
 %mem=56GB
 -----------------------------------------------------
 #p opt=(calcfc,ts,noeigen) freq b3lyp/6-31g* em=gd3bj
 -----------------------------------------------------
 1/5=1,10=4,11=1,18=20,26=3,38=1/1,3;
 2/9=110,12=2,17=6,18=5,40=1/2;
 3/5=1,6=6,7=1,11=2,25=1,30=1,71=2,74=-5,124=41,140=1/1,2,3;
 4//1;
 5/5=2,38=5/2;
 8/6=4,10=90,11=11/1;
 11/6=1,8=1,9=11,15=111,16=1/1,2,10;
 10/6=1,13=1/2;
 6/7=2,8=2,9=2,10=2,28=1/1;
 7/10=1,25=1/1,2,3,16;
 1/5=1,10=4,11=1,18=20,26=3/3(2);
 2/9=110/2;
 99//99;
 2/9=110/2;
 3/5=1,6=6,7=1,11=2,25=1,30=1,71=1,74=-5,124=41/1,2,3;
 4/5=5,16=3,69=1/1;
 5/5=2,38=5/2;
 7//1,2,3,16;
 1/5=1,11=1,18=20,26=3/3(-5);
 2/9=110/2;
 6/7=2,8=2,9=2,10=2,19=2,28=1/1;
 99/9=1/99;
 Leave Link    1 at Mon Apr  8 12:17:17 2024, MaxMem=  7516192768 cpu:               0.7 elap:               0.0
 (Enter /public3/home/scg9909/software-scg9909/g16/l101.exe)
 -------------------------
 $$$$7 5 0 1 17 1####0????
 -------------------------
 Symbolic Z-matrix:
 Charge =  0 Multiplicity = 1
 C                    -3.1       2.15442  -0.30018 
 N                    -3.97021   1.00499  -0.52494 
 C                    -3.60147  -0.17695   0.24877 
 C                    -2.23703  -0.76823  -0.01363 
 C                    -1.46998  -0.70904  -1.15783 
 C                    -0.20427  -1.26497  -0.8241 
 O                    -0.36189  -2.0148    0.31942 
 C                    -1.39363  -1.37622   0.96669 
 H                    -3.43579   2.98761  -0.9257 
 H                    -3.18966   2.4677    0.7469 
 H                    -2.03143   1.97359  -0.50501 
 H                    -3.98237   0.77083  -1.51549 
 H                    -4.37058  -0.94125   0.0727 
 H                    -3.67598   0.08534   1.31283 
 H                    -1.69561  -0.18322  -2.07664 
 H                     0.58073  -1.59744  -1.48791 
 H                    -1.69882  -1.83336   1.90006 
 C                    -0.17192   0.29425   1.43633 
 C                     0.61521   0.36954   0.2696 
 C                     2.0444   -0.07544   0.33603 
 O                     2.56958  -0.30183  -0.963 
 C                     3.96799  -0.08188  -0.84925 
 C                     4.03141   1.10944   0.10957 
 O                     2.8821    0.93338   0.93173 
 H                     0.26915  -0.14443   2.32822 
 H                    -0.90712   1.06652   1.6365 
 H                     0.45147   1.18903  -0.42526 
 H                     2.13486  -0.99056   0.94482 
 H                     4.37043   0.11739  -1.84525 
 H                     4.46943  -0.9648   -0.42315 
 H                     4.93361   1.11492   0.73139 
 H                     3.96643   2.06356  -0.43157 
 
 Add virtual bond connecting atoms C18        and C8         Dist= 4.01D+00.
 Add virtual bond connecting atoms C19        and C6         Dist= 4.03D+00.
 ITRead=  0  0  0  0  0  0  0  0  0  0  0  0  0  0  0  0  0  0  0  0
 ITRead=  0  0  0  0  0  0  0  0  0  0  0  0
 MicOpt= -1 -1 -1 -1 -1 -1 -1 -1 -1 -1 -1 -1 -1 -1 -1 -1 -1 -1 -1 -1
 MicOpt= -1 -1 -1 -1 -1 -1 -1 -1 -1 -1 -1 -1
 NAtoms=     32 NQM=       32 NQMF=       0 NMMI=      0 NMMIF=      0
                NMic=       0 NMicF=      0.
                    Isotopes and Nuclear Properties:
 (Nuclear quadrupole moments (NQMom) in fm**2, nuclear magnetic moments (NMagM)
  in nuclear magnetons)

  Atom         1           2           3           4           5           6           7           8           9          10
 IAtWgt=          12          14          12          12          12          12          16          12           1           1
 AtmWgt=  12.0000000  14.0030740  12.0000000  12.0000000  12.0000000  12.0000000  15.9949146  12.0000000   1.0078250   1.0078250
 NucSpn=           0           2           0           0           0           0           0           0           1           1
 AtZEff=  -0.0000000  -0.0000000  -0.0000000  -0.0000000  -0.0000000  -0.0000000  -0.0000000  -0.0000000  -0.0000000  -0.0000000
 NQMom=    0.0000000   2.0440000   0.0000000   0.0000000   0.0000000   0.0000000   0.0000000   0.0000000   0.0000000   0.0000000
 NMagM=    0.0000000   0.4037610   0.0000000   0.0000000   0.0000000   0.0000000   0.0000000   0.0000000   2.7928460   2.7928460
 AtZNuc=   6.0000000   7.0000000   6.0000000   6.0000000   6.0000000   6.0000000   8.0000000   6.0000000   1.0000000   1.0000000

  Atom        11          12          13          14          15          16          17          18          19          20
 IAtWgt=           1           1           1           1           1           1           1          12          12          12
 AtmWgt=   1.0078250   1.0078250   1.0078250   1.0078250   1.0078250   1.0078250   1.0078250  12.0000000  12.0000000  12.0000000
 NucSpn=           1           1           1           1           1           1           1           0           0           0
 AtZEff=  -0.0000000  -0.0000000  -0.0000000  -0.0000000  -0.0000000  -0.0000000  -0.0000000  -0.0000000  -0.0000000  -0.0000000
 NQMom=    0.0000000   0.0000000   0.0000000   0.0000000   0.0000000   0.0000000   0.0000000   0.0000000   0.0000000   0.0000000
 NMagM=    2.7928460   2.7928460   2.7928460   2.7928460   2.7928460   2.7928460   2.7928460   0.0000000   0.0000000   0.0000000
 AtZNuc=   1.0000000   1.0000000   1.0000000   1.0000000   1.0000000   1.0000000   1.0000000   6.0000000   6.0000000   6.0000000

  Atom        21          22          23          24          25          26          27          28          29          30
 IAtWgt=          16          12          12          16           1           1           1           1           1           1
 AtmWgt=  15.9949146  12.0000000  12.0000000  15.9949146   1.0078250   1.0078250   1.0078250   1.0078250   1.0078250   1.0078250
 NucSpn=           0           0           0           0           1           1           1           1           1           1
 AtZEff=  -0.0000000  -0.0000000  -0.0000000  -0.0000000  -0.0000000  -0.0000000  -0.0000000  -0.0000000  -0.0000000  -0.0000000
 NQMom=    0.0000000   0.0000000   0.0000000   0.0000000   0.0000000   0.0000000   0.0000000   0.0000000   0.0000000   0.0000000
 NMagM=    0.0000000   0.0000000   0.0000000   0.0000000   2.7928460   2.7928460   2.7928460   2.7928460   2.7928460   2.7928460
 AtZNuc=   8.0000000   6.0000000   6.0000000   8.0000000   1.0000000   1.0000000   1.0000000   1.0000000   1.0000000   1.0000000

  Atom        31          32
 IAtWgt=           1           1
 AtmWgt=   1.0078250   1.0078250
 NucSpn=           1           1
 AtZEff=  -0.0000000  -0.0000000
 NQMom=    0.0000000   0.0000000
 NMagM=    2.7928460   2.7928460
 AtZNuc=   1.0000000   1.0000000
 Leave Link  101 at Mon Apr  8 12:17:17 2024, MaxMem=  7516192768 cpu:               3.6 elap:               0.1
 (Enter /public3/home/scg9909/software-scg9909/g16/l103.exe)

 GradGradGradGradGradGradGradGradGradGradGradGradGradGradGradGradGradGrad
 Berny optimization.
 Initialization pass.
                           ----------------------------
                           !    Initial Parameters    !
                           ! (Angstroms and Degrees)  !
 --------------------------                            --------------------------
 ! Name  Definition              Value          Derivative Info.                !
 --------------------------------------------------------------------------------
 ! R1    R(1,2)                  1.4591         calculate D2E/DX2 analytically  !
 ! R2    R(1,9)                  1.0946         calculate D2E/DX2 analytically  !
 ! R3    R(1,10)                 1.0966         calculate D2E/DX2 analytically  !
 ! R4    R(1,11)                 1.1029         calculate D2E/DX2 analytically  !
 ! R5    R(2,3)                  1.46           calculate D2E/DX2 analytically  !
 ! R6    R(2,12)                 1.0179         calculate D2E/DX2 analytically  !
 ! R7    R(3,4)                  1.51           calculate D2E/DX2 analytically  !
 ! R8    R(3,13)                 1.0985         calculate D2E/DX2 analytically  !
 ! R9    R(3,14)                 1.0984         calculate D2E/DX2 analytically  !
 ! R10   R(4,5)                  1.3788         calculate D2E/DX2 analytically  !
 ! R11   R(4,8)                  1.429          calculate D2E/DX2 analytically  !
 ! R12   R(5,6)                  1.4221         calculate D2E/DX2 analytically  !
 ! R13   R(5,15)                 1.0824         calculate D2E/DX2 analytically  !
 ! R14   R(6,7)                  1.3765         calculate D2E/DX2 analytically  !
 ! R15   R(6,16)                 1.0805         calculate D2E/DX2 analytically  !
 ! R16   R(6,19)                 2.1306         calculate D2E/DX2 analytically  !
 ! R17   R(7,8)                  1.3752         calculate D2E/DX2 analytically  !
 ! R18   R(8,17)                 1.0832         calculate D2E/DX2 analytically  !
 ! R19   R(8,18)                 2.1222         calculate D2E/DX2 analytically  !
 ! R20   R(18,19)                1.4094         calculate D2E/DX2 analytically  !
 ! R21   R(18,25)                1.0874         calculate D2E/DX2 analytically  !
 ! R22   R(18,26)                1.0849         calculate D2E/DX2 analytically  !
 ! R23   R(19,20)                1.4983         calculate D2E/DX2 analytically  !
 ! R24   R(19,27)                1.0868         calculate D2E/DX2 analytically  !
 ! R25   R(20,21)                1.4193         calculate D2E/DX2 analytically  !
 ! R26   R(20,24)                1.4403         calculate D2E/DX2 analytically  !
 ! R27   R(20,28)                1.1028         calculate D2E/DX2 analytically  !
 ! R28   R(21,22)                1.4202         calculate D2E/DX2 analytically  !
 ! R29   R(22,23)                1.5306         calculate D2E/DX2 analytically  !
 ! R30   R(22,29)                1.0926         calculate D2E/DX2 analytically  !
 ! R31   R(22,30)                1.1012         calculate D2E/DX2 analytically  !
 ! R32   R(23,24)                1.424          calculate D2E/DX2 analytically  !
 ! R33   R(23,31)                1.0957         calculate D2E/DX2 analytically  !
 ! R34   R(23,32)                1.0988         calculate D2E/DX2 analytically  !
 ! A1    A(2,1,9)              109.1857         calculate D2E/DX2 analytically  !
 ! A2    A(2,1,10)             108.867          calculate D2E/DX2 analytically  !
 ! A3    A(2,1,11)             114.8383         calculate D2E/DX2 analytically  !
 ! A4    A(9,1,10)             107.6434         calculate D2E/DX2 analytically  !
 ! A5    A(9,1,11)             108.4131         calculate D2E/DX2 analytically  !
 ! A6    A(10,1,11)            107.6603         calculate D2E/DX2 analytically  !
 ! A7    A(1,2,3)              113.9209         calculate D2E/DX2 analytically  !
 ! A8    A(1,2,12)             109.7698         calculate D2E/DX2 analytically  !
 ! A9    A(3,2,12)             109.4189         calculate D2E/DX2 analytically  !
 ! A10   A(2,3,4)              116.9439         calculate D2E/DX2 analytically  !
 ! A11   A(2,3,13)             107.5476         calculate D2E/DX2 analytically  !
 ! A12   A(2,3,14)             107.6324         calculate D2E/DX2 analytically  !
 ! A13   A(4,3,13)             109.4119         calculate D2E/DX2 analytically  !
 ! A14   A(4,3,14)             108.852          calculate D2E/DX2 analytically  !
 ! A15   A(13,3,14)            105.8971         calculate D2E/DX2 analytically  !
 ! A16   A(3,4,5)              129.0565         calculate D2E/DX2 analytically  !
 ! A17   A(3,4,8)              125.4994         calculate D2E/DX2 analytically  !
 ! A18   A(5,4,8)              105.0239         calculate D2E/DX2 analytically  !
 ! A19   A(4,5,6)              106.4758         calculate D2E/DX2 analytically  !
 ! A20   A(4,5,15)             127.5402         calculate D2E/DX2 analytically  !
 ! A21   A(6,5,15)             125.0734         calculate D2E/DX2 analytically  !
 ! A22   A(5,6,7)              107.8176         calculate D2E/DX2 analytically  !
 ! A23   A(5,6,16)             128.5165         calculate D2E/DX2 analytically  !
 ! A24   A(5,6,19)              99.3745         calculate D2E/DX2 analytically  !
 ! A25   A(7,6,16)             115.2116         calculate D2E/DX2 analytically  !
 ! A26   A(7,6,19)              92.0345         calculate D2E/DX2 analytically  !
 ! A27   A(16,6,19)            105.783          calculate D2E/DX2 analytically  !
 ! A28   A(6,7,8)              102.9416         calculate D2E/DX2 analytically  !
 ! A29   A(4,8,7)              108.5103         calculate D2E/DX2 analytically  !
 ! A30   A(4,8,17)             127.1868         calculate D2E/DX2 analytically  !
 ! A31   A(4,8,18)              99.0145         calculate D2E/DX2 analytically  !
 ! A32   A(7,8,17)             114.8959         calculate D2E/DX2 analytically  !
 ! A33   A(7,8,18)              92.1646         calculate D2E/DX2 analytically  !
 ! A34   A(17,8,18)            107.6803         calculate D2E/DX2 analytically  !
 ! A35   A(8,18,19)            100.3904         calculate D2E/DX2 analytically  !
 ! A36   A(8,18,25)             95.5934         calculate D2E/DX2 analytically  !
 ! A37   A(8,18,26)            102.1827         calculate D2E/DX2 analytically  !
 ! A38   A(19,18,25)           118.2934         calculate D2E/DX2 analytically  !
 ! A39   A(19,18,26)           119.5496         calculate D2E/DX2 analytically  !
 ! A40   A(25,18,26)           114.2495         calculate D2E/DX2 analytically  !
 ! A41   A(6,19,18)             99.7388         calculate D2E/DX2 analytically  !
 ! A42   A(6,19,20)             99.3117         calculate D2E/DX2 analytically  !
 ! A43   A(6,19,27)            101.0879         calculate D2E/DX2 analytically  !
 ! A44   A(18,19,20)           118.6943         calculate D2E/DX2 analytically  !
 ! A45   A(18,19,27)           119.0376         calculate D2E/DX2 analytically  !
 ! A46   A(20,19,27)           113.3272         calculate D2E/DX2 analytically  !
 ! A47   A(19,20,21)           111.0837         calculate D2E/DX2 analytically  !
 ! A48   A(19,20,24)           111.4146         calculate D2E/DX2 analytically  !
 ! A49   A(19,20,28)           110.4348         calculate D2E/DX2 analytically  !
 ! A50   A(21,20,24)           105.9657         calculate D2E/DX2 analytically  !
 ! A51   A(21,20,28)           110.0307         calculate D2E/DX2 analytically  !
 ! A52   A(24,20,28)           107.7697         calculate D2E/DX2 analytically  !
 ! A53   A(20,21,22)           105.4464         calculate D2E/DX2 analytically  !
 ! A54   A(21,22,23)           102.2116         calculate D2E/DX2 analytically  !
 ! A55   A(21,22,29)           108.5377         calculate D2E/DX2 analytically  !
 ! A56   A(21,22,30)           110.8064         calculate D2E/DX2 analytically  !
 ! A57   A(23,22,29)           114.4476         calculate D2E/DX2 analytically  !
 ! A58   A(23,22,30)           111.2734         calculate D2E/DX2 analytically  !
 ! A59   A(29,22,30)           109.3459         calculate D2E/DX2 analytically  !
 ! A60   A(22,23,24)           103.4156         calculate D2E/DX2 analytically  !
 ! A61   A(22,23,31)           113.1732         calculate D2E/DX2 analytically  !
 ! A62   A(22,23,32)           111.4015         calculate D2E/DX2 analytically  !
 ! A63   A(24,23,31)           109.7247         calculate D2E/DX2 analytically  !
 ! A64   A(24,23,32)           110.1184         calculate D2E/DX2 analytically  !
 ! A65   A(31,23,32)           108.8938         calculate D2E/DX2 analytically  !
 ! A66   A(20,24,23)           108.4951         calculate D2E/DX2 analytically  !
 ! D1    D(9,1,2,3)            179.1824         calculate D2E/DX2 analytically  !
 ! D2    D(9,1,2,12)            56.0944         calculate D2E/DX2 analytically  !
 ! D3    D(10,1,2,3)           -63.5565         calculate D2E/DX2 analytically  !
 ! D4    D(10,1,2,12)          173.3555         calculate D2E/DX2 analytically  !
 ! D5    D(11,1,2,3)            57.2045         calculate D2E/DX2 analytically  !
 ! D6    D(11,1,2,12)          -65.8835         calculate D2E/DX2 analytically  !
 ! D7    D(1,2,3,4)            -61.6136         calculate D2E/DX2 analytically  !
 ! D8    D(1,2,3,13)           174.8992         calculate D2E/DX2 analytically  !
 ! D9    D(1,2,3,14)            61.1993         calculate D2E/DX2 analytically  !
 ! D10   D(12,2,3,4)            61.6654         calculate D2E/DX2 analytically  !
 ! D11   D(12,2,3,13)          -61.8218         calculate D2E/DX2 analytically  !
 ! D12   D(12,2,3,14)         -175.5218         calculate D2E/DX2 analytically  !
 ! D13   D(2,3,4,5)            -26.4965         calculate D2E/DX2 analytically  !
 ! D14   D(2,3,4,8)            144.9222         calculate D2E/DX2 analytically  !
 ! D15   D(13,3,4,5)            96.0315         calculate D2E/DX2 analytically  !
 ! D16   D(13,3,4,8)           -92.5498         calculate D2E/DX2 analytically  !
 ! D17   D(14,3,4,5)          -148.6782         calculate D2E/DX2 analytically  !
 ! D18   D(14,3,4,8)            22.7405         calculate D2E/DX2 analytically  !
 ! D19   D(3,4,5,6)            172.2259         calculate D2E/DX2 analytically  !
 ! D20   D(3,4,5,15)             2.8087         calculate D2E/DX2 analytically  !
 ! D21   D(8,4,5,6)             -0.5485         calculate D2E/DX2 analytically  !
 ! D22   D(8,4,5,15)          -169.9657         calculate D2E/DX2 analytically  !
 ! D23   D(3,4,8,7)            168.7475         calculate D2E/DX2 analytically  !
 ! D24   D(3,4,8,17)            24.5299         calculate D2E/DX2 analytically  !
 ! D25   D(3,4,8,18)           -95.8908         calculate D2E/DX2 analytically  !
 ! D26   D(5,4,8,7)            -18.1428         calculate D2E/DX2 analytically  !
 ! D27   D(5,4,8,17)          -162.3603         calculate D2E/DX2 analytically  !
 ! D28   D(5,4,8,18)            77.2189         calculate D2E/DX2 analytically  !
 ! D29   D(4,5,6,7)             18.9875         calculate D2E/DX2 analytically  !
 ! D30   D(4,5,6,16)           164.8453         calculate D2E/DX2 analytically  !
 ! D31   D(4,5,6,19)           -76.2253         calculate D2E/DX2 analytically  !
 ! D32   D(15,5,6,7)          -171.262          calculate D2E/DX2 analytically  !
 ! D33   D(15,5,6,16)          -25.4042         calculate D2E/DX2 analytically  !
 ! D34   D(15,5,6,19)           93.5252         calculate D2E/DX2 analytically  !
 ! D35   D(5,6,7,8)            -29.5305         calculate D2E/DX2 analytically  !
 ! D36   D(16,6,7,8)           179.5064         calculate D2E/DX2 analytically  !
 ! D37   D(19,6,7,8)            70.9918         calculate D2E/DX2 analytically  !
 ! D38   D(5,6,19,18)           71.4438         calculate D2E/DX2 analytically  !
 ! D39   D(5,6,19,20)         -167.1029         calculate D2E/DX2 analytically  !
 ! D40   D(5,6,19,27)          -50.9329         calculate D2E/DX2 analytically  !
 ! D41   D(7,6,19,18)          -36.9888         calculate D2E/DX2 analytically  !
 ! D42   D(7,6,19,20)           84.4644         calculate D2E/DX2 analytically  !
 ! D43   D(7,6,19,27)         -159.3656         calculate D2E/DX2 analytically  !
 ! D44   D(16,6,19,18)        -153.9233         calculate D2E/DX2 analytically  !
 ! D45   D(16,6,19,20)         -32.4701         calculate D2E/DX2 analytically  !
 ! D46   D(16,6,19,27)          83.6999         calculate D2E/DX2 analytically  !
 ! D47   D(6,7,8,4)             29.3939         calculate D2E/DX2 analytically  !
 ! D48   D(6,7,8,17)           178.4939         calculate D2E/DX2 analytically  !
 ! D49   D(6,7,8,18)           -70.8596         calculate D2E/DX2 analytically  !
 ! D50   D(4,8,18,19)          -72.6766         calculate D2E/DX2 analytically  !
 ! D51   D(4,8,18,25)          167.1809         calculate D2E/DX2 analytically  !
 ! D52   D(4,8,18,26)           50.8646         calculate D2E/DX2 analytically  !
 ! D53   D(7,8,18,19)           36.4509         calculate D2E/DX2 analytically  !
 ! D54   D(7,8,18,25)          -83.6916         calculate D2E/DX2 analytically  !
 ! D55   D(7,8,18,26)          159.9921         calculate D2E/DX2 analytically  !
 ! D56   D(17,8,18,19)         153.4647         calculate D2E/DX2 analytically  !
 ! D57   D(17,8,18,25)          33.3222         calculate D2E/DX2 analytically  !
 ! D58   D(17,8,18,26)         -82.9941         calculate D2E/DX2 analytically  !
 ! D59   D(8,18,19,6)            0.274          calculate D2E/DX2 analytically  !
 ! D60   D(8,18,19,20)        -106.0517         calculate D2E/DX2 analytically  !
 ! D61   D(8,18,19,27)         108.8441         calculate D2E/DX2 analytically  !
 ! D62   D(25,18,19,6)         102.4691         calculate D2E/DX2 analytically  !
 ! D63   D(25,18,19,20)         -3.8566         calculate D2E/DX2 analytically  !
 ! D64   D(25,18,19,27)       -148.9608         calculate D2E/DX2 analytically  !
 ! D65   D(26,18,19,6)        -110.2486         calculate D2E/DX2 analytically  !
 ! D66   D(26,18,19,20)        143.4257         calculate D2E/DX2 analytically  !
 ! D67   D(26,18,19,27)         -1.6785         calculate D2E/DX2 analytically  !
 ! D68   D(6,19,20,21)          56.5096         calculate D2E/DX2 analytically  !
 ! D69   D(6,19,20,24)         174.4052         calculate D2E/DX2 analytically  !
 ! D70   D(6,19,20,28)         -65.8614         calculate D2E/DX2 analytically  !
 ! D71   D(18,19,20,21)        163.078          calculate D2E/DX2 analytically  !
 ! D72   D(18,19,20,24)        -79.0263         calculate D2E/DX2 analytically  !
 ! D73   D(18,19,20,28)         40.707          calculate D2E/DX2 analytically  !
 ! D74   D(27,19,20,21)        -49.9261         calculate D2E/DX2 analytically  !
 ! D75   D(27,19,20,24)         67.9695         calculate D2E/DX2 analytically  !
 ! D76   D(27,19,20,28)       -172.2971         calculate D2E/DX2 analytically  !
 ! D77   D(19,20,21,22)        152.9522         calculate D2E/DX2 analytically  !
 ! D78   D(24,20,21,22)         31.8002         calculate D2E/DX2 analytically  !
 ! D79   D(28,20,21,22)        -84.4428         calculate D2E/DX2 analytically  !
 ! D80   D(19,20,24,23)       -132.082          calculate D2E/DX2 analytically  !
 ! D81   D(21,20,24,23)        -11.1437         calculate D2E/DX2 analytically  !
 ! D82   D(28,20,24,23)        106.6185         calculate D2E/DX2 analytically  !
 ! D83   D(20,21,22,23)        -38.3795         calculate D2E/DX2 analytically  !
 ! D84   D(20,21,22,29)       -159.6571         calculate D2E/DX2 analytically  !
 ! D85   D(20,21,22,30)         80.2637         calculate D2E/DX2 analytically  !
 ! D86   D(21,22,23,24)         30.7905         calculate D2E/DX2 analytically  !
 ! D87   D(21,22,23,31)        149.4443         calculate D2E/DX2 analytically  !
 ! D88   D(21,22,23,32)        -87.457          calculate D2E/DX2 analytically  !
 ! D89   D(29,22,23,24)        147.9014         calculate D2E/DX2 analytically  !
 ! D90   D(29,22,23,31)        -93.4447         calculate D2E/DX2 analytically  !
 ! D91   D(29,22,23,32)         29.6539         calculate D2E/DX2 analytically  !
 ! D92   D(30,22,23,24)        -87.5215         calculate D2E/DX2 analytically  !
 ! D93   D(30,22,23,31)         31.1323         calculate D2E/DX2 analytically  !
 ! D94   D(30,22,23,32)        154.231          calculate D2E/DX2 analytically  !
 ! D95   D(22,23,24,20)        -12.0919         calculate D2E/DX2 analytically  !
 ! D96   D(31,23,24,20)       -133.1085         calculate D2E/DX2 analytically  !
 ! D97   D(32,23,24,20)        107.0443         calculate D2E/DX2 analytically  !
 --------------------------------------------------------------------------------
 Trust Radius=3.00D-01 FncErr=1.00D-07 GrdErr=1.00D-06 EigMax=2.50D+02 EigMin=1.00D-04
 Number of steps in this run=    192 maximum allowed number of steps=    192.
 Search for a saddle point of order  1.
 GradGradGradGradGradGradGradGradGradGradGradGradGradGradGradGradGradGrad

 Leave Link  103 at Mon Apr  8 12:17:17 2024, MaxMem=  7516192768 cpu:               0.1 elap:               0.0
 (Enter /public3/home/scg9909/software-scg9909/g16/l202.exe)
                          Input orientation:                          
 ---------------------------------------------------------------------
 Center     Atomic      Atomic             Coordinates (Angstroms)
 Number     Number       Type             X           Y           Z
 ---------------------------------------------------------------------
      1          6           0       -3.099997    2.154415   -0.300180
      2          7           0       -3.970210    1.004993   -0.524942
      3          6           0       -3.601473   -0.176951    0.248765
      4          6           0       -2.237026   -0.768225   -0.013634
      5          6           0       -1.469977   -0.709036   -1.157825
      6          6           0       -0.204269   -1.264970   -0.824097
      7          8           0       -0.361885   -2.014803    0.319418
      8          6           0       -1.393631   -1.376217    0.966686
      9          1           0       -3.435792    2.987609   -0.925698
     10          1           0       -3.189657    2.467701    0.746900
     11          1           0       -2.031431    1.973592   -0.505010
     12          1           0       -3.982368    0.770829   -1.515486
     13          1           0       -4.370583   -0.941253    0.072699
     14          1           0       -3.675983    0.085343    1.312831
     15          1           0       -1.695609   -0.183222   -2.076638
     16          1           0        0.580730   -1.597435   -1.487906
     17          1           0       -1.698815   -1.833357    1.900057
     18          6           0       -0.171923    0.294254    1.436331
     19          6           0        0.615208    0.369538    0.269597
     20          6           0        2.044405   -0.075438    0.336028
     21          8           0        2.569582   -0.301828   -0.962999
     22          6           0        3.967994   -0.081880   -0.849249
     23          6           0        4.031408    1.109439    0.109567
     24          8           0        2.882104    0.933382    0.931733
     25          1           0        0.269147   -0.144428    2.328224
     26          1           0       -0.907120    1.066516    1.636502
     27          1           0        0.451465    1.189031   -0.425262
     28          1           0        2.134863   -0.990557    0.944817
     29          1           0        4.370427    0.117393   -1.845249
     30          1           0        4.469430   -0.964796   -0.423149
     31          1           0        4.933607    1.114922    0.731389
     32          1           0        3.966434    2.063563   -0.431574
 ---------------------------------------------------------------------
                    Distance matrix (angstroms):
                    1          2          3          4          5
     1  C    0.000000
     2  N    1.459095   0.000000
     3  C    2.447057   1.459994   0.000000
     4  C    3.060825   2.531732   1.510024   0.000000
     5  C    3.404684   3.096708   2.608617   1.378782   0.000000
     6  C    4.511311   4.407328   3.725025   2.244038   1.422130
     7  O    5.026285   4.780389   3.725268   2.276189   2.261668
     8  C    4.120922   3.812332   2.613085   1.428984   2.228117
     9  H    1.094643   2.092122   3.379535   4.046627   4.193268
    10  H    1.096615   2.089584   2.722483   3.457909   4.083740
    11  H    1.102944   2.167359   2.767317   2.793077   2.817426
    12  H    2.042023   1.017918   2.038615   2.769560   2.937691
    13  H    3.366985   2.074933   1.098493   2.142302   3.159372
    14  H    2.686005   2.075990   1.098447   2.135108   3.406118
    15  H    3.254636   2.998904   3.006635   2.211639   1.082408
    16  H    5.388397   5.330196   4.746011   3.286459   2.259116
    17  H    4.765153   4.369907   3.015054   2.255303   3.266054
    18  C    3.879341   4.333443   3.659803   2.737866   3.069394
    19  C    4.160911   4.696930   4.251998   3.083823   2.747517
    20  C    5.642861   6.171239   5.647465   4.351192   3.870907
    21  O    6.214224   6.683454   6.290142   4.921616   4.064703
    22  C    7.433639   8.018825   7.649281   6.298539   5.482707
    23  C    7.219197   8.027416   7.741773   6.544774   5.931136
    24  O    6.228488   7.005800   6.613324   5.476740   5.099451
    25  H    4.852249   5.237735   4.393963   3.486305   3.936480
    26  H    3.121373   3.749419   3.275906   2.803190   3.358222
    27  H    3.682458   4.426626   4.329726   3.350861   2.798436
    28  H    6.232546   6.588955   5.835409   4.481236   4.182730
    29  H    7.895817   8.491011   8.247589   6.913579   5.938506
    30  H    8.187846   8.667061   8.137054   6.721822   5.990135
    31  H    8.165995   8.992686   8.645777   7.451126   6.921116
    32  H    7.068236   8.007472   7.921867   6.832028   6.145674
                    6          7          8          9         10
     6  C    0.000000
     7  O    1.376488   0.000000
     8  C    2.152641   1.375226   0.000000
     9  H    5.342049   6.001945   5.176342   0.000000
    10  H    5.031243   5.317131   4.248496   1.768748   0.000000
    11  H    3.732107   4.401632   3.714014   1.782537   1.775643
    12  H    4.347014   4.922856   4.180017   2.358116   2.937032
    13  H    4.274015   4.157288   3.138574   4.160119   3.670164
    14  H    4.294485   4.047311   2.732234   3.673126   2.496482
    15  H    2.227809   3.297665   3.282720   3.795664   4.151137
    16  H    1.080462   2.080658   3.157857   6.121369   5.977918
    17  H    3.158757   2.078154   1.083188   5.851811   4.695900
    18  C    2.746227   2.572027   2.122171   4.846255   3.782315
    19  C    2.130569   2.577261   2.751187   4.969268   4.371167
    20  C    2.795963   3.090573   3.729591   6.403653   5.833676
    21  O    2.939589   3.629377   4.537075   6.847357   6.615352
    22  C    4.336832   4.883628   5.806888   8.015214   7.764021
    23  C    4.944745   5.394993   6.028614   7.769065   7.375286
    24  O    4.176289   4.426081   4.859772   6.898240   6.265348
    25  H    3.378885   2.816346   2.477079   5.841595   4.613798
    26  H    3.461845   3.395073   2.579204   4.080398   2.822178
    27  H    2.571221   3.388309   3.452882   4.312318   4.033203
    28  H    2.945488   2.770190   3.549575   7.096255   6.352105
    29  H    4.886872   5.623773   6.584999   8.367841   8.330549
    30  H    4.700460   4.999552   6.039569   8.852491   8.474235
    31  H    5.872069   6.164993   6.804049   8.734972   8.235148
    32  H    5.350511   5.994281   6.520546   7.476026   7.263730
                   11         12         13         14         15
    11  H    0.000000
    12  H    2.504767   0.000000
    13  H    3.781759   2.367333   0.000000
    14  H    3.094282   2.926284   1.753367   0.000000
    15  H    2.689728   2.540546   3.514221   3.934782   0.000000
    16  H    4.532296   5.141138   5.232740   5.366142   2.743779
    17  H    4.515290   4.864394   3.357593   2.816991   4.305468
    18  C    3.169661   4.843536   4.584181   3.512454   3.858828
    19  C    3.190251   4.948258   5.158978   4.425316   3.339197
    20  C    4.638783   6.361310   6.478507   5.805414   4.451997
    21  O    5.153311   6.662123   7.046093   6.658557   4.409775
    22  C    6.351107   8.023668   8.433290   7.945624   5.795960
    23  C    6.154875   8.183890   8.648708   7.867687   6.264917
    24  O    5.223896   7.289464   7.540137   6.623663   5.590399
    25  H    4.219702   5.804066   5.220097   4.080180   4.823337
    26  H    2.583203   4.413571   4.297929   2.955345   3.996369
    27  H    2.605123   4.585014   5.295113   4.612475   3.036453
    28  H    5.314714   6.824668   6.563829   5.921058   4.945048
    29  H    6.798934   8.384802   9.011355   8.644027   6.077886
    30  H    7.134565   8.697039   8.853940   8.394294   6.430598
    31  H    7.125851   9.201166   9.551423   8.690405   7.315511
    32  H    5.998989   8.125853   8.876320   8.084729   6.309755
                   16         17         18         19         20
    16  H    0.000000
    17  H    4.090266   0.000000
    18  C    3.563164   2.659543   0.000000
    19  C    2.637989   3.586900   1.409436   0.000000
    20  C    2.790261   4.421330   2.501889   1.498339   0.000000
    21  O    2.430979   5.363011   3.691605   2.406159   1.419343
    22  C    3.765415   6.537513   4.743866   3.563253   2.259451
    23  C    4.667576   6.685907   4.482502   3.499069   2.324521
    24  O    4.189989   5.438503   3.160725   2.427995   1.440251
    25  H    4.095261   2.628437   1.087409   2.149852   2.669297
    26  H    4.367180   3.017533   1.084883   2.161409   3.421519
    27  H    2.985015   4.377858   2.157491   1.086835   2.171613
    28  H    2.949877   4.039787   2.685812   2.148286   1.102837
    29  H    4.174941   7.393811   5.606513   4.317154   3.194610
    30  H    4.081167   6.648228   5.156067   4.137073   2.692221
    31  H    5.588353   7.351677   5.218896   4.406520   3.149723
    32  H    5.097228   7.260684   4.872938   3.819958   2.976362
                   21         22         23         24         25
    21  O    0.000000
    22  C    1.420166   0.000000
    23  C    2.297609   1.530552   0.000000
    24  O    2.283292   2.319873   1.424027   0.000000
    25  H    4.018572   4.876650   4.544142   3.152682   0.000000
    26  H    4.551618   5.591467   5.169374   3.856507   1.824409
    27  H    2.645419   3.763105   3.620548   2.795496   3.064806
    28  H    2.074389   2.721164   2.950340   2.063997   2.471972
    29  H    2.048696   1.092556   2.218196   3.254623   5.857211
    30  H    2.083360   1.101154   2.185887   2.821062   5.087773
    31  H    3.235235   2.205257   1.095744   2.069241   5.088520
    32  H    2.797978   2.185722   1.098821   2.076460   5.114845
                   26         27         28         29         30
    26  H    0.000000
    27  H    2.472172   0.000000
    28  H    3.736795   3.075963   0.000000
    29  H    6.393428   4.303839   3.742962   0.000000
    30  H    6.105381   4.558840   2.705956   1.789777   0.000000
    31  H    5.910640   4.629571   3.508783   2.819805   2.423560
    32  H    5.387260   3.622134   3.817951   2.439112   3.069859
                   31         32
    31  H    0.000000
    32  H    1.785448   0.000000
 Stoichiometry    C11H17NO3
 Framework group  C1[X(C11H17NO3)]
 Deg. of freedom    90
 Full point group                 C1      NOp   1
 Largest Abelian subgroup         C1      NOp   1
 Largest concise Abelian subgroup C1      NOp   1
                         Standard orientation:                         
 ---------------------------------------------------------------------
 Center     Atomic      Atomic             Coordinates (Angstroms)
 Number     Number       Type             X           Y           Z
 ---------------------------------------------------------------------
      1          6           0       -3.099997    2.154415   -0.300180
      2          7           0       -3.970210    1.004993   -0.524942
      3          6           0       -3.601473   -0.176951    0.248765
      4          6           0       -2.237026   -0.768225   -0.013634
      5          6           0       -1.469977   -0.709036   -1.157825
      6          6           0       -0.204269   -1.264970   -0.824097
      7          8           0       -0.361885   -2.014803    0.319418
      8          6           0       -1.393631   -1.376217    0.966686
      9          1           0       -3.435792    2.987609   -0.925698
     10          1           0       -3.189657    2.467701    0.746900
     11          1           0       -2.031431    1.973592   -0.505010
     12          1           0       -3.982368    0.770829   -1.515486
     13          1           0       -4.370583   -0.941253    0.072699
     14          1           0       -3.675983    0.085343    1.312831
     15          1           0       -1.695609   -0.183222   -2.076638
     16          1           0        0.580730   -1.597435   -1.487906
     17          1           0       -1.698815   -1.833357    1.900057
     18          6           0       -0.171923    0.294254    1.436331
     19          6           0        0.615208    0.369538    0.269597
     20          6           0        2.044405   -0.075438    0.336028
     21          8           0        2.569582   -0.301828   -0.962999
     22          6           0        3.967994   -0.081880   -0.849249
     23          6           0        4.031408    1.109439    0.109567
     24          8           0        2.882104    0.933382    0.931733
     25          1           0        0.269147   -0.144428    2.328224
     26          1           0       -0.907120    1.066516    1.636502
     27          1           0        0.451465    1.189031   -0.425262
     28          1           0        2.134863   -0.990557    0.944817
     29          1           0        4.370427    0.117393   -1.845249
     30          1           0        4.469430   -0.964796   -0.423149
     31          1           0        4.933607    1.114922    0.731389
     32          1           0        3.966434    2.063563   -0.431574
 ---------------------------------------------------------------------
 Rotational constants (GHZ):           1.2754272           0.3189330           0.2959810
 Leave Link  202 at Mon Apr  8 12:17:17 2024, MaxMem=  7516192768 cpu:               0.1 elap:               0.0
 (Enter /public3/home/scg9909/software-scg9909/g16/l301.exe)
 Standard basis: 6-31G(d) (6D, 7F)
 Ernie: Thresh=  0.10000D-02 Tol=  0.10000D-05 Strict=F.
 There are   259 symmetry adapted cartesian basis functions of A   symmetry.
 There are   259 symmetry adapted basis functions of A   symmetry.
   259 basis functions,   488 primitive gaussians,   259 cartesian basis functions
    57 alpha electrons       57 beta electrons
       nuclear repulsion energy      1060.0145862330 Hartrees.
 IExCor=  402 DFT=T Ex+Corr=B3LYP ExCW=0 ScaHFX=  0.200000
 ScaDFX=  0.800000  0.720000  1.000000  0.810000 ScalE2=  1.000000  1.000000
 IRadAn=      5 IRanWt=     -1 IRanGd=            0 ICorTp=0 IEmpDi=141
 NAtoms=   32 NActive=   32 NUniq=   32 SFac= 1.00D+00 NAtFMM=   60 NAOKFM=F Big=F
 Integral buffers will be    131072 words long.
 Raffenetti 2 integral format.
 Two-electron integral symmetry is turned on.
 R6Disp:  Grimme-D3(BJ) Dispersion energy=       -0.0593891179 Hartrees.
 Nuclear repulsion after empirical dispersion term =     1059.9551971151 Hartrees.
 Leave Link  301 at Mon Apr  8 12:17:17 2024, MaxMem=  7516192768 cpu:               0.5 elap:               0.0
 (Enter /public3/home/scg9909/software-scg9909/g16/l302.exe)
 NPDir=0 NMtPBC=     1 NCelOv=     1 NCel=       1 NClECP=     1 NCelD=      1
         NCelK=      1 NCelE2=     1 NClLst=     1 CellRange=     0.0.
 One-electron integrals computed using PRISM.
 One-electron integral symmetry used in STVInt
 NBasis=   259 RedAO= T EigKep=  8.02D-04  NBF=   259
 NBsUse=   259 1.00D-06 EigRej= -1.00D+00 NBFU=   259
 Precomputing XC quadrature grid using
 IXCGrd= 4 IRadAn=           5 IRanWt=          -1 IRanGd=           0 AccXCQ= 0.00D+00.
 Generated NRdTot=       0 NPtTot=           0 NUsed=           0 NTot=          32
 NSgBfM=   259   259   259   259   259 MxSgAt=    32 MxSgA2=    32.
 Leave Link  302 at Mon Apr  8 12:17:18 2024, MaxMem=  7516192768 cpu:               5.2 elap:               0.2
 (Enter /public3/home/scg9909/software-scg9909/g16/l303.exe)
 DipDrv:  MaxL=1.
 Leave Link  303 at Mon Apr  8 12:17:18 2024, MaxMem=  7516192768 cpu:               0.5 elap:               0.0
 (Enter /public3/home/scg9909/software-scg9909/g16/l401.exe)
 ExpMin= 1.61D-01 ExpMax= 5.48D+03 ExpMxC= 8.25D+02 IAcc=3 IRadAn=         5 AccDes= 0.00D+00
 Harris functional with IExCor=  402 and IRadAn=       5 diagonalized for initial guess.
 HarFok:  IExCor=  402 AccDes= 0.00D+00 IRadAn=         5 IDoV= 1 UseB2=F ITyADJ=14
 ICtDFT=  3500011 ScaDFX=  1.000000  1.000000  1.000000  1.000000
 FoFCou: FMM=F IPFlag=           0 FMFlag=      100000 FMFlg1=           0
         NFxFlg=           0 DoJE=T BraDBF=F KetDBF=T FulRan=T
         wScrn=  0.000000 ICntrl=       500 IOpCl=  0 I1Cent=   200000004 NGrid=           0
         NMat0=    1 NMatS0=      1 NMatT0=    0 NMatD0=    1 NMtDS0=    0 NMtDT0=    0
 Petite list used in FoFCou.
 Harris En= -709.740151238676    
 JPrj=0 DoOrth=F DoCkMO=F.
 Leave Link  401 at Mon Apr  8 12:17:18 2024, MaxMem=  7516192768 cpu:              18.6 elap:               0.7
 (Enter /public3/home/scg9909/software-scg9909/g16/l502.exe)
 Integral symmetry usage will be decided dynamically.
 Closed shell SCF:
 Using DIIS extrapolation, IDIIS=  1040.
 NGot=  7516192768 LenX=  7516047553 LenY=  7515980031
 Requested convergence on RMS density matrix=1.00D-08 within 128 cycles.
 Requested convergence on MAX density matrix=1.00D-06.
 Requested convergence on             energy=1.00D-06.
 No special actions if energy rises.
 Fock matrices will be formed incrementally for  20 cycles.
 Integral accuracy reduced to 1.0D-05 until final iterations.

 Cycle   1  Pass 0  IDiag  1:
 FoFJK:  IHMeth= 1 ICntrl=       0 DoSepK=F KAlg= 0 I1Cent=           0 FoldK=F
 IRaf= 860000000 NMat=       1 IRICut=       1 DoRegI=T DoRafI=F ISym2E= 0 IDoP0=0 IntGTp=1.
 FoFCou: FMM=F IPFlag=           0 FMFlag=      100000 FMFlg1=           0
         NFxFlg=           0 DoJE=F BraDBF=F KetDBF=F FulRan=T
         wScrn=  0.000000 ICntrl=         0 IOpCl=  0 I1Cent=           0 NGrid=           0
         NMat0=    1 NMatS0=      1 NMatT0=    0 NMatD0=    1 NMtDS0=    0 NMtDT0=    0
 Symmetry not used in FoFCou.
 E= -709.435503490674    
 DIIS: error= 2.29D-02 at cycle   1 NSaved=   1.
 NSaved= 1 IEnMin= 1 EnMin= -709.435503490674     IErMin= 1 ErrMin= 2.29D-02
 ErrMax= 2.29D-02  0.00D+00 EMaxC= 1.00D-01 BMatC= 3.11D-01 BMatP= 3.11D-01
 IDIUse=3 WtCom= 7.71D-01 WtEn= 2.29D-01
 Coeff-Com:  0.100D+01
 Coeff-En:   0.100D+01
 Coeff:      0.100D+01
 Gap=     0.244 Goal=   None    Shift=    0.000
 GapD=    0.244 DampG=1.000 DampE=0.500 DampFc=0.5000 IDamp=-1.
 Damping current iteration by 5.00D-01
 RMSDP=5.04D-03 MaxDP=1.22D-01              OVMax= 1.84D-01

 Cycle   2  Pass 0  IDiag  1:
 RMSU=  2.50D-03    CP:  9.83D-01
 E= -709.573955970492     Delta-E=       -0.138452479818 Rises=F Damp=T
 DIIS: error= 6.59D-03 at cycle   2 NSaved=   2.
 NSaved= 2 IEnMin= 2 EnMin= -709.573955970492     IErMin= 2 ErrMin= 6.59D-03
 ErrMax= 6.59D-03  0.00D+00 EMaxC= 1.00D-01 BMatC= 2.27D-02 BMatP= 3.11D-01
 IDIUse=3 WtCom= 9.34D-01 WtEn= 6.59D-02
 Coeff-Com:  0.558D-01 0.944D+00
 Coeff-En:   0.955D-01 0.904D+00
 Coeff:      0.584D-01 0.942D+00
 Gap=     0.249 Goal=   None    Shift=    0.000
 RMSDP=1.20D-03 MaxDP=2.41D-02 DE=-1.38D-01 OVMax= 1.16D-01

 Cycle   3  Pass 0  IDiag  1:
 RMSU=  1.12D-03    CP:  9.80D-01  8.28D-01
 E= -709.735150530630     Delta-E=       -0.161194560138 Rises=F Damp=F
 DIIS: error= 4.02D-03 at cycle   3 NSaved=   3.
 NSaved= 3 IEnMin= 3 EnMin= -709.735150530630     IErMin= 3 ErrMin= 4.02D-03
 ErrMax= 4.02D-03  0.00D+00 EMaxC= 1.00D-01 BMatC= 1.33D-02 BMatP= 2.27D-02
 IDIUse=3 WtCom= 9.60D-01 WtEn= 4.02D-02
 Coeff-Com: -0.277D-01 0.425D+00 0.602D+00
 Coeff-En:   0.000D+00 0.000D+00 0.100D+01
 Coeff:     -0.265D-01 0.408D+00 0.618D+00
 Gap=     0.229 Goal=   None    Shift=    0.000
 RMSDP=6.72D-04 MaxDP=1.98D-02 DE=-1.61D-01 OVMax= 4.77D-02

 Cycle   4  Pass 0  IDiag  1:
 RMSU=  5.16D-04    CP:  9.80D-01  8.89D-01  6.42D-01
 E= -709.744236778556     Delta-E=       -0.009086247925 Rises=F Damp=F
 DIIS: error= 2.81D-03 at cycle   4 NSaved=   4.
 NSaved= 4 IEnMin= 4 EnMin= -709.744236778556     IErMin= 4 ErrMin= 2.81D-03
 ErrMax= 2.81D-03  0.00D+00 EMaxC= 1.00D-01 BMatC= 4.02D-03 BMatP= 1.33D-02
 IDIUse=3 WtCom= 9.72D-01 WtEn= 2.81D-02
 Coeff-Com: -0.198D-01 0.122D+00 0.376D+00 0.522D+00
 Coeff-En:   0.000D+00 0.000D+00 0.250D+00 0.750D+00
 Coeff:     -0.193D-01 0.119D+00 0.372D+00 0.528D+00
 Gap=     0.229 Goal=   None    Shift=    0.000
 RMSDP=2.95D-04 MaxDP=1.04D-02 DE=-9.09D-03 OVMax= 2.08D-02

 Cycle   5  Pass 0  IDiag  1:
 RMSU=  1.22D-04    CP:  9.80D-01  8.92D-01  7.21D-01  5.10D-01
 E= -709.747995048295     Delta-E=       -0.003758269740 Rises=F Damp=F
 DIIS: error= 5.53D-04 at cycle   5 NSaved=   5.
 NSaved= 5 IEnMin= 5 EnMin= -709.747995048295     IErMin= 5 ErrMin= 5.53D-04
 ErrMax= 5.53D-04  0.00D+00 EMaxC= 1.00D-01 BMatC= 2.03D-04 BMatP= 4.02D-03
 IDIUse=3 WtCom= 9.94D-01 WtEn= 5.53D-03
 Coeff-Com: -0.627D-02 0.255D-01 0.135D+00 0.264D+00 0.582D+00
 Coeff-En:   0.000D+00 0.000D+00 0.000D+00 0.000D+00 0.100D+01
 Coeff:     -0.623D-02 0.254D-01 0.134D+00 0.263D+00 0.584D+00
 Gap=     0.228 Goal=   None    Shift=    0.000
 RMSDP=6.18D-05 MaxDP=2.38D-03 DE=-3.76D-03 OVMax= 4.33D-03

 Cycle   6  Pass 0  IDiag  1:
 RMSU=  4.02D-05    CP:  9.80D-01  8.94D-01  7.24D-01  5.50D-01  6.60D-01
 E= -709.748147738261     Delta-E=       -0.000152689965 Rises=F Damp=F
 DIIS: error= 2.11D-04 at cycle   6 NSaved=   6.
 NSaved= 6 IEnMin= 6 EnMin= -709.748147738261     IErMin= 6 ErrMin= 2.11D-04
 ErrMax= 2.11D-04  0.00D+00 EMaxC= 1.00D-01 BMatC= 2.71D-05 BMatP= 2.03D-04
 IDIUse=3 WtCom= 9.98D-01 WtEn= 2.11D-03
 Coeff-Com: -0.208D-02 0.383D-02 0.460D-01 0.109D+00 0.338D+00 0.505D+00
 Coeff-En:   0.000D+00 0.000D+00 0.000D+00 0.000D+00 0.472D-01 0.953D+00
 Coeff:     -0.208D-02 0.382D-02 0.459D-01 0.109D+00 0.337D+00 0.506D+00
 Gap=     0.228 Goal=   None    Shift=    0.000
 RMSDP=2.19D-05 MaxDP=6.69D-04 DE=-1.53D-04 OVMax= 1.31D-03

 Cycle   7  Pass 0  IDiag  1:
 RMSU=  9.36D-06    CP:  9.80D-01  8.92D-01  7.28D-01  5.58D-01  6.80D-01
                    CP:  5.59D-01
 E= -709.748169669450     Delta-E=       -0.000021931189 Rises=F Damp=F
 DIIS: error= 2.75D-05 at cycle   7 NSaved=   7.
 NSaved= 7 IEnMin= 7 EnMin= -709.748169669450     IErMin= 7 ErrMin= 2.75D-05
 ErrMax= 2.75D-05  0.00D+00 EMaxC= 1.00D-01 BMatC= 6.29D-07 BMatP= 2.71D-05
 IDIUse=1 WtCom= 1.00D+00 WtEn= 0.00D+00
 Coeff-Com: -0.551D-03 0.444D-03 0.132D-01 0.347D-01 0.116D+00 0.220D+00
 Coeff-Com:  0.616D+00
 Coeff:     -0.551D-03 0.444D-03 0.132D-01 0.347D-01 0.116D+00 0.220D+00
 Coeff:      0.616D+00
 Gap=     0.228 Goal=   None    Shift=    0.000
 RMSDP=5.07D-06 MaxDP=1.05D-04 DE=-2.19D-05 OVMax= 4.30D-04

 Initial convergence to 1.0D-05 achieved.  Increase integral accuracy.
 Cycle   8  Pass 1  IDiag  1:
 E= -709.748175347842     Delta-E=       -0.000005678392 Rises=F Damp=F
 DIIS: error= 3.53D-05 at cycle   1 NSaved=   1.
 NSaved= 1 IEnMin= 1 EnMin= -709.748175347842     IErMin= 1 ErrMin= 3.53D-05
 ErrMax= 3.53D-05  0.00D+00 EMaxC= 1.00D-01 BMatC= 2.99D-07 BMatP= 2.99D-07
 IDIUse=1 WtCom= 1.00D+00 WtEn= 0.00D+00
 Coeff-Com:  0.100D+01
 Coeff:      0.100D+01
 Gap=     0.228 Goal=   None    Shift=    0.000
 RMSDP=5.07D-06 MaxDP=1.05D-04 DE=-5.68D-06 OVMax= 4.76D-04

 Cycle   9  Pass 1  IDiag  1:
 RMSU=  1.72D-05    CP:  1.00D+00
 E= -709.748174986797     Delta-E=        0.000000361045 Rises=F Damp=F
 DIIS: error= 3.20D-05 at cycle   2 NSaved=   2.
 NSaved= 2 IEnMin= 1 EnMin= -709.748175347842     IErMin= 2 ErrMin= 3.20D-05
 ErrMax= 3.20D-05  0.00D+00 EMaxC= 1.00D-01 BMatC= 6.39D-07 BMatP= 2.99D-07
 IDIUse=1 WtCom= 1.00D+00 WtEn= 0.00D+00
 Coeff-Com:  0.609D+00 0.391D+00
 Coeff:      0.609D+00 0.391D+00
 Gap=     0.228 Goal=   None    Shift=    0.000
 RMSDP=4.00D-06 MaxDP=1.08D-04 DE= 3.61D-07 OVMax= 4.01D-04

 Cycle  10  Pass 1  IDiag  1:
 RMSU=  3.90D-06    CP:  1.00D+00  9.49D-01
 E= -709.748175613215     Delta-E=       -0.000000626418 Rises=F Damp=F
 DIIS: error= 8.54D-06 at cycle   3 NSaved=   3.
 NSaved= 3 IEnMin= 3 EnMin= -709.748175613215     IErMin= 3 ErrMin= 8.54D-06
 ErrMax= 8.54D-06  0.00D+00 EMaxC= 1.00D-01 BMatC= 3.17D-08 BMatP= 2.99D-07
 IDIUse=1 WtCom= 1.00D+00 WtEn= 0.00D+00
 Coeff-Com:  0.528D-01 0.185D+00 0.762D+00
 Coeff:      0.528D-01 0.185D+00 0.762D+00
 Gap=     0.228 Goal=   None    Shift=    0.000
 RMSDP=9.46D-07 MaxDP=2.72D-05 DE=-6.26D-07 OVMax= 8.40D-05

 Cycle  11  Pass 1  IDiag  1:
 RMSU=  5.60D-07    CP:  1.00D+00  9.66D-01  8.20D-01
 E= -709.748175641931     Delta-E=       -0.000000028715 Rises=F Damp=F
 DIIS: error= 2.37D-06 at cycle   4 NSaved=   4.
 NSaved= 4 IEnMin= 4 EnMin= -709.748175641931     IErMin= 4 ErrMin= 2.37D-06
 ErrMax= 2.37D-06  0.00D+00 EMaxC= 1.00D-01 BMatC= 5.22D-09 BMatP= 3.17D-08
 IDIUse=1 WtCom= 1.00D+00 WtEn= 0.00D+00
 Coeff-Com: -0.388D-02 0.865D-01 0.450D+00 0.467D+00
 Coeff:     -0.388D-02 0.865D-01 0.450D+00 0.467D+00
 Gap=     0.228 Goal=   None    Shift=    0.000
 RMSDP=3.00D-07 MaxDP=8.00D-06 DE=-2.87D-08 OVMax= 1.71D-05

 Cycle  12  Pass 1  IDiag  1:
 RMSU=  1.04D-07    CP:  1.00D+00  9.67D-01  8.36D-01  5.10D-01
 E= -709.748175646671     Delta-E=       -0.000000004740 Rises=F Damp=F
 DIIS: error= 3.14D-07 at cycle   5 NSaved=   5.
 NSaved= 5 IEnMin= 5 EnMin= -709.748175646671     IErMin= 5 ErrMin= 3.14D-07
 ErrMax= 3.14D-07  0.00D+00 EMaxC= 1.00D-01 BMatC= 7.04D-11 BMatP= 5.22D-09
 IDIUse=1 WtCom= 1.00D+00 WtEn= 0.00D+00
 Coeff-Com: -0.287D-02 0.397D-01 0.212D+00 0.234D+00 0.517D+00
 Coeff:     -0.287D-02 0.397D-01 0.212D+00 0.234D+00 0.517D+00
 Gap=     0.228 Goal=   None    Shift=    0.000
 RMSDP=4.44D-08 MaxDP=1.02D-06 DE=-4.74D-09 OVMax= 3.26D-06

 Cycle  13  Pass 1  IDiag  1:
 RMSU=  3.47D-08    CP:  1.00D+00  9.67D-01  8.36D-01  5.18D-01  7.38D-01
 E= -709.748175646734     Delta-E=       -0.000000000063 Rises=F Damp=F
 DIIS: error= 9.45D-08 at cycle   6 NSaved=   6.
 NSaved= 6 IEnMin= 6 EnMin= -709.748175646734     IErMin= 6 ErrMin= 9.45D-08
 ErrMax= 9.45D-08  0.00D+00 EMaxC= 1.00D-01 BMatC= 6.14D-12 BMatP= 7.04D-11
 IDIUse=1 WtCom= 1.00D+00 WtEn= 0.00D+00
 Coeff-Com: -0.104D-02 0.101D-01 0.559D-01 0.643D-01 0.255D+00 0.616D+00
 Coeff:     -0.104D-02 0.101D-01 0.559D-01 0.643D-01 0.255D+00 0.616D+00
 Gap=     0.228 Goal=   None    Shift=    0.000
 RMSDP=1.30D-08 MaxDP=4.63D-07 DE=-6.30D-11 OVMax= 1.22D-06

 Cycle  14  Pass 1  IDiag  1:
 RMSU=  1.05D-08    CP:  1.00D+00  9.67D-01  8.36D-01  5.17D-01  7.97D-01
                    CP:  8.69D-01
 E= -709.748175646741     Delta-E=       -0.000000000008 Rises=F Damp=F
 DIIS: error= 3.20D-08 at cycle   7 NSaved=   7.
 NSaved= 7 IEnMin= 7 EnMin= -709.748175646741     IErMin= 7 ErrMin= 3.20D-08
 ErrMax= 3.20D-08  0.00D+00 EMaxC= 1.00D-01 BMatC= 7.62D-13 BMatP= 6.14D-12
 IDIUse=1 WtCom= 1.00D+00 WtEn= 0.00D+00
 Coeff-Com: -0.950D-04-0.623D-03-0.222D-02-0.162D-02 0.496D-01 0.295D+00
 Coeff-Com:  0.659D+00
 Coeff:     -0.950D-04-0.623D-03-0.222D-02-0.162D-02 0.496D-01 0.295D+00
 Coeff:      0.659D+00
 Gap=     0.228 Goal=   None    Shift=    0.000
 RMSDP=5.70D-09 MaxDP=1.98D-07 DE=-7.50D-12 OVMax= 7.08D-07

 SCF Done:  E(RB3LYP) =  -709.748175647     A.U. after   14 cycles
            NFock= 14  Conv=0.57D-08     -V/T= 2.0092
 KE= 7.032617063754D+02 PE=-3.773653026473D+03 EE= 1.300687947336D+03
 Leave Link  502 at Mon Apr  8 12:17:28 2024, MaxMem=  7516192768 cpu:             274.2 elap:               9.8
 (Enter /public3/home/scg9909/software-scg9909/g16/l801.exe)
 DoSCS=F DFT=T ScalE2(SS,OS)=  1.000000  1.000000
 Range of M.O.s used for correlation:     1   259
 NBasis=   259 NAE=    57 NBE=    57 NFC=     0 NFV=     0
 NROrb=    259 NOA=    57 NOB=    57 NVA=   202 NVB=   202
 Leave Link  801 at Mon Apr  8 12:17:28 2024, MaxMem=  7516192768 cpu:               0.2 elap:               0.0
 (Enter /public3/home/scg9909/software-scg9909/g16/l1101.exe)
 Using compressed storage, NAtomX=    32.
 Will process     33 centers per pass.
 R6Disp: Adding Grimme-D3(BJ) dispersion energy 1st derivatives to the gradient.
 Leave Link 1101 at Mon Apr  8 12:17:28 2024, MaxMem=  7516192768 cpu:               4.9 elap:               0.2
 (Enter /public3/home/scg9909/software-scg9909/g16/l1102.exe)
 Symmetrizing basis deriv contribution to polar:
 IMax=3 JMax=2 DiffMx= 0.00D+00
 Leave Link 1102 at Mon Apr  8 12:17:28 2024, MaxMem=  7516192768 cpu:               0.4 elap:               0.0
 (Enter /public3/home/scg9909/software-scg9909/g16/l1110.exe)
 Forming Gx(P) for the SCF density, NAtomX=    32.
 Integral derivatives from FoFJK, PRISM(SPDF).
 Do as many integral derivatives as possible in FoFJK.
 G2DrvN: MDV=    7516189336.
 G2DrvN: will do    33 centers at a time, making    1 passes.
 Calling FoFCou, ICntrl=  3107 FMM=F I1Cent=   0 AccDes= 0.00D+00.
 FoFJK:  IHMeth= 1 ICntrl=    3107 DoSepK=F KAlg= 0 I1Cent=           0 FoldK=F
 IRaf=         0 NMat=       1 IRICut=       1 DoRegI=T DoRafI=F ISym2E= 0 IDoP0=0 IntGTp=1.
 FoFCou: FMM=F IPFlag=           0 FMFlag=      100000 FMFlg1=           0
         NFxFlg=           0 DoJE=F BraDBF=F KetDBF=F FulRan=T
         wScrn=  0.000000 ICntrl=      3107 IOpCl=  0 I1Cent=           0 NGrid=           0
         NMat0=    1 NMatS0=      1 NMatT0=    0 NMatD0=    1 NMtDS0=    0 NMtDT0=    0
 Symmetry not used in FoFCou.
 End of G2Drv F.D. properties file   721 does not exist.
 End of G2Drv F.D. properties file   722 does not exist.
 End of G2Drv F.D. properties file   788 does not exist.
 Leave Link 1110 at Mon Apr  8 12:18:06 2024, MaxMem=  7516192768 cpu:            1054.1 elap:              37.7
 (Enter /public3/home/scg9909/software-scg9909/g16/l1002.exe)
 Minotr:  Closed shell wavefunction.
          IDoAtm=11111111111111111111111111111111
          Direct CPHF calculation.
          Differentiating once with respect to nuclear coordinates.
          Requested convergence is 1.0D-08 RMS, and 1.0D-07 maximum.
          Secondary convergence is 1.0D-12 RMS, and 1.0D-12 maximum.
          NewPWx=T KeepS1=F KeepF1=F KeepIn=T MapXYZ=F SortEE=F KeepMc=T.
         9607 words used for storage of precomputed grid.
 Keep R1 ints in memory in canonical form, NReq=597283562.
 FoFCou: FMM=F IPFlag=           0 FMFlag=           0 FMFlg1=           0
         NFxFlg=           0 DoJE=F BraDBF=F KetDBF=F FulRan=T
         wScrn=  0.000000 ICntrl=       600 IOpCl=  0 I1Cent=           0 NGrid=           0
         NMat0=    1 NMatS0=  33670 NMatT0=    0 NMatD0=    1 NMtDS0=    0 NMtDT0=    0
 Symmetry not used in FoFCou.
 Two-electron integral symmetry not used.
          MDV=    7516192768 using IRadAn=       1.
          Solving linear equations simultaneously, MaxMat=       0.
          There are    99 degrees of freedom in the 1st order CPHF.  IDoFFX=6 NUNeed=     0.
     93 vectors produced by pass  0 Test12= 1.16D-14 1.01D-09 XBig12= 1.18D-01 1.22D-01.
 AX will form    93 AO Fock derivatives at one time.
     93 vectors produced by pass  1 Test12= 1.16D-14 1.01D-09 XBig12= 8.57D-03 2.16D-02.
     93 vectors produced by pass  2 Test12= 1.16D-14 1.01D-09 XBig12= 6.23D-05 1.09D-03.
     93 vectors produced by pass  3 Test12= 1.16D-14 1.01D-09 XBig12= 1.48D-07 4.72D-05.
     93 vectors produced by pass  4 Test12= 1.16D-14 1.01D-09 XBig12= 1.69D-10 1.60D-06.
     70 vectors produced by pass  5 Test12= 1.16D-14 1.01D-09 XBig12= 1.45D-13 4.37D-08.
      1 vectors produced by pass  6 Test12= 1.16D-14 1.01D-09 XBig12= 1.02D-16 1.10D-09.
 InvSVY:  IOpt=1 It=  1 EMax= 5.00D-16
 Solved reduced A of dimension   536 with    99 vectors.
 End of Minotr F.D. properties file   721 does not exist.
 End of Minotr F.D. properties file   722 does not exist.
 End of Minotr F.D. properties file   788 does not exist.
 Leave Link 1002 at Mon Apr  8 12:18:44 2024, MaxMem=  7516192768 cpu:            1048.4 elap:              37.8
 (Enter /public3/home/scg9909/software-scg9909/g16/l601.exe)
 Copying SCF densities to generalized density rwf, IOpCl= 0 IROHF=0.

 **********************************************************************

            Population analysis using the SCF Density.

 **********************************************************************

 Orbital symmetries:
       Occupied  (A) (A) (A) (A) (A) (A) (A) (A) (A) (A) (A) (A)
                 (A) (A) (A) (A) (A) (A) (A) (A) (A) (A) (A) (A)
                 (A) (A) (A) (A) (A) (A) (A) (A) (A) (A) (A) (A)
                 (A) (A) (A) (A) (A) (A) (A) (A) (A) (A) (A) (A)
                 (A) (A) (A) (A) (A) (A) (A) (A) (A)
       Virtual   (A) (A) (A) (A) (A) (A) (A) (A) (A) (A) (A) (A)
                 (A) (A) (A) (A) (A) (A) (A) (A) (A) (A) (A) (A)
                 (A) (A) (A) (A) (A) (A) (A) (A) (A) (A) (A) (A)
                 (A) (A) (A) (A) (A) (A) (A) (A) (A) (A) (A) (A)
                 (A) (A) (A) (A) (A) (A) (A) (A) (A) (A) (A) (A)
                 (A) (A) (A) (A) (A) (A) (A) (A) (A) (A) (A) (A)
                 (A) (A) (A) (A) (A) (A) (A) (A) (A) (A) (A) (A)
                 (A) (A) (A) (A) (A) (A) (A) (A) (A) (A) (A) (A)
                 (A) (A) (A) (A) (A) (A) (A) (A) (A) (A) (A) (A)
                 (A) (A) (A) (A) (A) (A) (A) (A) (A) (A) (A) (A)
                 (A) (A) (A) (A) (A) (A) (A) (A) (A) (A) (A) (A)
                 (A) (A) (A) (A) (A) (A) (A) (A) (A) (A) (A) (A)
                 (A) (A) (A) (A) (A) (A) (A) (A) (A) (A) (A) (A)
                 (A) (A) (A) (A) (A) (A) (A) (A) (A) (A) (A) (A)
                 (A) (A) (A) (A) (A) (A) (A) (A) (A) (A) (A) (A)
                 (A) (A) (A) (A) (A) (A) (A) (A) (A) (A) (A) (A)
                 (A) (A) (A) (A) (A) (A) (A) (A) (A) (A)
 The electronic state is 1-A.
 Alpha  occ. eigenvalues --  -19.18714 -19.15388 -19.13937 -14.32073 -10.27326
 Alpha  occ. eigenvalues --  -10.24505 -10.24295 -10.23608 -10.23092 -10.21690
 Alpha  occ. eigenvalues --  -10.20000 -10.18910 -10.18215 -10.17743 -10.17656
 Alpha  occ. eigenvalues --   -1.09080  -1.07883  -0.98314  -0.90367  -0.80444
 Alpha  occ. eigenvalues --   -0.78703  -0.73824  -0.73007  -0.69984  -0.63817
 Alpha  occ. eigenvalues --   -0.62714  -0.62683  -0.57547  -0.56190  -0.55983
 Alpha  occ. eigenvalues --   -0.52425  -0.50568  -0.49636  -0.48629  -0.46558
 Alpha  occ. eigenvalues --   -0.45663  -0.44376  -0.43760  -0.43247  -0.42454
 Alpha  occ. eigenvalues --   -0.41570  -0.40345  -0.39537  -0.38617  -0.38282
 Alpha  occ. eigenvalues --   -0.37417  -0.36627  -0.35192  -0.34820  -0.33724
 Alpha  occ. eigenvalues --   -0.32578  -0.27172  -0.26856  -0.25085  -0.24032
 Alpha  occ. eigenvalues --   -0.22244  -0.21750
 Alpha virt. eigenvalues --    0.01074   0.02302   0.07930   0.09692   0.10139
 Alpha virt. eigenvalues --    0.10414   0.12165   0.12278   0.13088   0.13460
 Alpha virt. eigenvalues --    0.14014   0.14739   0.15234   0.15873   0.16379
 Alpha virt. eigenvalues --    0.17217   0.17724   0.18893   0.19093   0.19269
 Alpha virt. eigenvalues --    0.20119   0.20599   0.21136   0.22714   0.23654
 Alpha virt. eigenvalues --    0.25769   0.25962   0.28601   0.28777   0.28988
 Alpha virt. eigenvalues --    0.31742   0.33020   0.35541   0.38340   0.45147
 Alpha virt. eigenvalues --    0.49532   0.51120   0.51714   0.52577   0.53240
 Alpha virt. eigenvalues --    0.54339   0.54679   0.55688   0.55792   0.56225
 Alpha virt. eigenvalues --    0.57024   0.57796   0.58150   0.59621   0.59899
 Alpha virt. eigenvalues --    0.61655   0.62316   0.66315   0.67075   0.67860
 Alpha virt. eigenvalues --    0.68851   0.70510   0.72339   0.73791   0.75488
 Alpha virt. eigenvalues --    0.76375   0.77703   0.78266   0.79929   0.82081
 Alpha virt. eigenvalues --    0.82472   0.83276   0.83770   0.84127   0.84170
 Alpha virt. eigenvalues --    0.85076   0.85811   0.86878   0.87522   0.89461
 Alpha virt. eigenvalues --    0.90629   0.91365   0.92172   0.92580   0.93399
 Alpha virt. eigenvalues --    0.94683   0.95622   0.96652   0.97990   0.99907
 Alpha virt. eigenvalues --    1.00421   1.02417   1.03090   1.05277   1.05977
 Alpha virt. eigenvalues --    1.08649   1.11216   1.12279   1.14310   1.16200
 Alpha virt. eigenvalues --    1.17911   1.20530   1.22299   1.24627   1.26717
 Alpha virt. eigenvalues --    1.31376   1.33177   1.35920   1.37687   1.40266
 Alpha virt. eigenvalues --    1.40843   1.41738   1.44508   1.46979   1.47545
 Alpha virt. eigenvalues --    1.48826   1.50895   1.56059   1.56489   1.60250
 Alpha virt. eigenvalues --    1.61422   1.64359   1.67028   1.67908   1.69637
 Alpha virt. eigenvalues --    1.71037   1.72774   1.74854   1.76839   1.81060
 Alpha virt. eigenvalues --    1.83826   1.85629   1.85904   1.90274   1.90576
 Alpha virt. eigenvalues --    1.91811   1.93557   1.95373   1.97231   1.98621
 Alpha virt. eigenvalues --    2.00311   2.02569   2.03490   2.04609   2.05736
 Alpha virt. eigenvalues --    2.06071   2.07854   2.09995   2.11045   2.12358
 Alpha virt. eigenvalues --    2.14404   2.16028   2.16946   2.18994   2.20725
 Alpha virt. eigenvalues --    2.21377   2.24624   2.25800   2.26911   2.29362
 Alpha virt. eigenvalues --    2.29683   2.33224   2.34281   2.35816   2.41813
 Alpha virt. eigenvalues --    2.42171   2.45041   2.46986   2.47631   2.48279
 Alpha virt. eigenvalues --    2.49122   2.50032   2.50191   2.52464   2.59092
 Alpha virt. eigenvalues --    2.63441   2.64345   2.67599   2.69033   2.72594
 Alpha virt. eigenvalues --    2.76012   2.76137   2.77263   2.77668   2.83157
 Alpha virt. eigenvalues --    2.84089   2.88939   2.93698   2.96823   3.05494
 Alpha virt. eigenvalues --    3.06126   3.11229   3.90156   3.97204   4.02682
 Alpha virt. eigenvalues --    4.09598   4.18512   4.20333   4.27689   4.30039
 Alpha virt. eigenvalues --    4.34803   4.41708   4.47309   4.48312   4.52900
 Alpha virt. eigenvalues --    4.64214   4.68305
          Condensed to atoms (all electrons):
               1          2          3          4          5          6
     1  C    4.976432   0.325969  -0.060902  -0.003527  -0.002391  -0.000137
     2  N    0.325969   6.801102   0.352326  -0.063961  -0.004446   0.000359
     3  C   -0.060902   0.352326   5.035471   0.315518  -0.065304   0.007643
     4  C   -0.003527  -0.063961   0.315518   4.894373   0.570270  -0.024032
     5  C   -0.002391  -0.004446  -0.065304   0.570270   5.055234   0.438171
     6  C   -0.000137   0.000359   0.007643  -0.024032   0.438171   4.938724
     7  O   -0.000002  -0.000043   0.002433  -0.045744  -0.047594   0.270754
     8  C    0.000144   0.003362  -0.049888   0.421114  -0.050782  -0.107281
     9  H    0.379339  -0.033875   0.005173  -0.000036   0.000016   0.000003
    10  H    0.381893  -0.043050  -0.004298  -0.001894   0.000169   0.000020
    11  H    0.359824  -0.050100  -0.004604   0.009204   0.005704  -0.000907
    12  H   -0.042955   0.312341  -0.042504  -0.007242   0.003602   0.000041
    13  H    0.006250  -0.038543   0.372145  -0.045093  -0.002109  -0.000028
    14  H   -0.005793  -0.041193   0.371831  -0.051674   0.003777  -0.000036
    15  H    0.000496   0.003914  -0.006147  -0.044760   0.358454  -0.044333
    16  H   -0.000002  -0.000001  -0.000116   0.004467  -0.041718   0.367637
    17  H   -0.000006  -0.000014  -0.002275  -0.051210   0.007352   0.005660
    18  C   -0.000520  -0.000187   0.000939  -0.004472  -0.036548  -0.019353
    19  C   -0.000414   0.000036   0.000162  -0.030965  -0.018606   0.153293
    20  C    0.000011  -0.000000  -0.000005   0.000795  -0.001064  -0.004043
    21  O   -0.000000  -0.000000  -0.000000  -0.000005   0.000303  -0.008096
    22  C    0.000000  -0.000000  -0.000000  -0.000000  -0.000001   0.000446
    23  C   -0.000000   0.000000   0.000000   0.000001   0.000000  -0.000107
    24  O    0.000000   0.000000  -0.000000  -0.000010  -0.000013   0.000777
    25  H   -0.000002   0.000001  -0.000034  -0.000357   0.001420  -0.000012
    26  H    0.001750  -0.000067   0.000427  -0.006047   0.000250   0.001331
    27  H   -0.000084  -0.000046   0.000049   0.000529  -0.003296  -0.014143
    28  H   -0.000000   0.000000   0.000000   0.000120  -0.000011  -0.004102
    29  H   -0.000000   0.000000  -0.000000  -0.000000   0.000001  -0.000010
    30  H    0.000000  -0.000000   0.000000   0.000000  -0.000001  -0.000022
    31  H    0.000000   0.000000  -0.000000  -0.000000  -0.000000   0.000002
    32  H    0.000000  -0.000000   0.000000   0.000000   0.000000  -0.000004
               7          8          9         10         11         12
     1  C   -0.000002   0.000144   0.379339   0.381893   0.359824  -0.042955
     2  N   -0.000043   0.003362  -0.033875  -0.043050  -0.050100   0.312341
     3  C    0.002433  -0.049888   0.005173  -0.004298  -0.004604  -0.042504
     4  C   -0.045744   0.421114  -0.000036  -0.001894   0.009204  -0.007242
     5  C   -0.047594  -0.050782   0.000016   0.000169   0.005704   0.003602
     6  C    0.270754  -0.107281   0.000003   0.000020  -0.000907   0.000041
     7  O    8.091054   0.271818  -0.000000  -0.000000   0.000040   0.000000
     8  C    0.271818   5.026076   0.000008   0.000023  -0.000939   0.000028
     9  H   -0.000000   0.000008   0.566544  -0.025180  -0.038030  -0.003383
    10  H   -0.000000   0.000023  -0.025180   0.573226  -0.047167   0.006382
    11  H    0.000040  -0.000939  -0.038030  -0.047167   0.629972  -0.004529
    12  H    0.000000   0.000028  -0.003383   0.006382  -0.004529   0.476125
    13  H   -0.000035   0.001800  -0.000208   0.000098  -0.000167  -0.003408
    14  H   -0.000051  -0.004644   0.000045   0.007188  -0.001694   0.007000
    15  H    0.002956   0.009095   0.000051   0.000036  -0.000739   0.002294
    16  H   -0.033786   0.005950   0.000000   0.000000  -0.000003   0.000001
    17  H   -0.036572   0.375807   0.000000   0.000004   0.000008   0.000002
    18  C   -0.045920   0.136668   0.000032  -0.000389  -0.000247  -0.000015
    19  C   -0.050791  -0.023153   0.000001   0.000029   0.000327   0.000012
    20  C   -0.000296  -0.000315  -0.000000  -0.000000  -0.000009   0.000000
    21  O   -0.000036  -0.000001   0.000000  -0.000000  -0.000000  -0.000000
    22  C   -0.000016   0.000000   0.000000   0.000000  -0.000000   0.000000
    23  C    0.000004  -0.000001   0.000000   0.000000  -0.000000  -0.000000
    24  O    0.000003  -0.000024   0.000000   0.000000  -0.000000   0.000000
    25  H   -0.000868  -0.009124  -0.000000   0.000001   0.000043  -0.000000
    26  H    0.001356  -0.014017  -0.000027   0.001554  -0.000095   0.000027
    27  H    0.001197   0.001162  -0.000016  -0.000049   0.003248  -0.000005
    28  H    0.006762   0.000078   0.000000   0.000000  -0.000001   0.000000
    29  H    0.000000   0.000000  -0.000000   0.000000   0.000000   0.000000
    30  H    0.000001  -0.000000   0.000000   0.000000  -0.000000  -0.000000
    31  H   -0.000000  -0.000000   0.000000   0.000000  -0.000000   0.000000
    32  H    0.000000   0.000000  -0.000000   0.000000  -0.000000  -0.000000
              13         14         15         16         17         18
     1  C    0.006250  -0.005793   0.000496  -0.000002  -0.000006  -0.000520
     2  N   -0.038543  -0.041193   0.003914  -0.000001  -0.000014  -0.000187
     3  C    0.372145   0.371831  -0.006147  -0.000116  -0.002275   0.000939
     4  C   -0.045093  -0.051674  -0.044760   0.004467  -0.051210  -0.004472
     5  C   -0.002109   0.003777   0.358454  -0.041718   0.007352  -0.036548
     6  C   -0.000028  -0.000036  -0.044333   0.367637   0.005660  -0.019353
     7  O   -0.000035  -0.000051   0.002956  -0.033786  -0.036572  -0.045920
     8  C    0.001800  -0.004644   0.009095   0.005950   0.375807   0.136668
     9  H   -0.000208   0.000045   0.000051   0.000000   0.000000   0.000032
    10  H    0.000098   0.007188   0.000036   0.000000   0.000004  -0.000389
    11  H   -0.000167  -0.001694  -0.000739  -0.000003   0.000008  -0.000247
    12  H   -0.003408   0.007000   0.002294   0.000001   0.000002  -0.000015
    13  H    0.579517  -0.031636   0.000269   0.000006   0.000213   0.000034
    14  H   -0.031636   0.591408   0.000024   0.000001   0.001625   0.001067
    15  H    0.000269   0.000024   0.589715  -0.000927  -0.000103  -0.000151
    16  H    0.000006   0.000001  -0.000927   0.535561  -0.000240   0.001308
    17  H    0.000213   0.001625  -0.000103  -0.000240   0.572923  -0.017173
    18  C    0.000034   0.001067  -0.000151   0.001308  -0.017173   5.173799
    19  C   -0.000029   0.000123   0.000880  -0.020482   0.000714   0.489262
    20  C    0.000000  -0.000000  -0.000098  -0.001846  -0.000004  -0.023968
    21  O    0.000000  -0.000000   0.000012   0.013476   0.000001   0.003098
    22  C    0.000000   0.000000   0.000000  -0.000328  -0.000000  -0.000255
    23  C    0.000000  -0.000000   0.000000   0.000090  -0.000000   0.000317
    24  O   -0.000000   0.000000   0.000000   0.000082   0.000000  -0.002693
    25  H   -0.000001  -0.000030   0.000011  -0.000059  -0.000122   0.368475
    26  H   -0.000039   0.001322  -0.000029  -0.000067   0.000582   0.363828
    27  H   -0.000000  -0.000007   0.000420   0.000602  -0.000056  -0.041367
    28  H   -0.000000   0.000000  -0.000004   0.000232  -0.000065  -0.000581
    29  H    0.000000  -0.000000  -0.000000  -0.000001   0.000000   0.000001
    30  H    0.000000  -0.000000   0.000000  -0.000017   0.000000   0.000028
    31  H   -0.000000   0.000000   0.000000  -0.000001   0.000000  -0.000008
    32  H    0.000000  -0.000000   0.000000  -0.000004  -0.000000   0.000032
              19         20         21         22         23         24
     1  C   -0.000414   0.000011  -0.000000   0.000000  -0.000000   0.000000
     2  N    0.000036  -0.000000  -0.000000  -0.000000   0.000000   0.000000
     3  C    0.000162  -0.000005  -0.000000  -0.000000   0.000000  -0.000000
     4  C   -0.030965   0.000795  -0.000005  -0.000000   0.000001  -0.000010
     5  C   -0.018606  -0.001064   0.000303  -0.000001   0.000000  -0.000013
     6  C    0.153293  -0.004043  -0.008096   0.000446  -0.000107   0.000777
     7  O   -0.050791  -0.000296  -0.000036  -0.000016   0.000004   0.000003
     8  C   -0.023153  -0.000315  -0.000001   0.000000  -0.000001  -0.000024
     9  H    0.000001  -0.000000   0.000000   0.000000   0.000000   0.000000
    10  H    0.000029  -0.000000  -0.000000   0.000000   0.000000   0.000000
    11  H    0.000327  -0.000009  -0.000000  -0.000000  -0.000000  -0.000000
    12  H    0.000012   0.000000  -0.000000   0.000000  -0.000000   0.000000
    13  H   -0.000029   0.000000   0.000000   0.000000   0.000000  -0.000000
    14  H    0.000123  -0.000000  -0.000000   0.000000  -0.000000   0.000000
    15  H    0.000880  -0.000098   0.000012   0.000000   0.000000   0.000000
    16  H   -0.020482  -0.001846   0.013476  -0.000328   0.000090   0.000082
    17  H    0.000714  -0.000004   0.000001  -0.000000  -0.000000   0.000000
    18  C    0.489262  -0.023968   0.003098  -0.000255   0.000317  -0.002693
    19  C    5.103571   0.374410  -0.030286   0.007273   0.001468  -0.042232
    20  C    0.374410   4.617098   0.215692  -0.057521  -0.057719   0.223614
    21  O   -0.030286   0.215692   8.272165   0.250021  -0.046871  -0.051225
    22  C    0.007273  -0.057521   0.250021   4.901169   0.343882  -0.041133
    23  C    0.001468  -0.057719  -0.046871   0.343882   4.868187   0.264957
    24  O   -0.042232   0.223614  -0.051225  -0.041133   0.264957   8.295115
    25  H   -0.038020  -0.008715   0.000089  -0.000004  -0.000019   0.000363
    26  H   -0.023673   0.003050  -0.000048   0.000004   0.000008  -0.000046
    27  H    0.351015  -0.035985   0.001649  -0.000357   0.000595  -0.000056
    28  H   -0.079505   0.370313  -0.049610  -0.005562   0.003933  -0.058200
    29  H   -0.000151   0.006603  -0.032161   0.371697  -0.025881   0.002871
    30  H   -0.000108  -0.000900  -0.041242   0.356516  -0.044255  -0.002661
    31  H   -0.000482   0.004174   0.003021  -0.028639   0.360307  -0.037853
    32  H    0.001020   0.002831   0.001043  -0.034348   0.360533  -0.045775
              25         26         27         28         29         30
     1  C   -0.000002   0.001750  -0.000084  -0.000000  -0.000000   0.000000
     2  N    0.000001  -0.000067  -0.000046   0.000000   0.000000  -0.000000
     3  C   -0.000034   0.000427   0.000049   0.000000  -0.000000   0.000000
     4  C   -0.000357  -0.006047   0.000529   0.000120  -0.000000   0.000000
     5  C    0.001420   0.000250  -0.003296  -0.000011   0.000001  -0.000001
     6  C   -0.000012   0.001331  -0.014143  -0.004102  -0.000010  -0.000022
     7  O   -0.000868   0.001356   0.001197   0.006762   0.000000   0.000001
     8  C   -0.009124  -0.014017   0.001162   0.000078   0.000000  -0.000000
     9  H   -0.000000  -0.000027  -0.000016   0.000000  -0.000000   0.000000
    10  H    0.000001   0.001554  -0.000049   0.000000   0.000000   0.000000
    11  H    0.000043  -0.000095   0.003248  -0.000001   0.000000  -0.000000
    12  H   -0.000000   0.000027  -0.000005   0.000000   0.000000  -0.000000
    13  H   -0.000001  -0.000039  -0.000000  -0.000000   0.000000   0.000000
    14  H   -0.000030   0.001322  -0.000007   0.000000  -0.000000  -0.000000
    15  H    0.000011  -0.000029   0.000420  -0.000004  -0.000000   0.000000
    16  H   -0.000059  -0.000067   0.000602   0.000232  -0.000001  -0.000017
    17  H   -0.000122   0.000582  -0.000056  -0.000065   0.000000   0.000000
    18  C    0.368475   0.363828  -0.041367  -0.000581   0.000001   0.000028
    19  C   -0.038020  -0.023673   0.351015  -0.079505  -0.000151  -0.000108
    20  C   -0.008715   0.003050  -0.035985   0.370313   0.006603  -0.000900
    21  O    0.000089  -0.000048   0.001649  -0.049610  -0.032161  -0.041242
    22  C   -0.000004   0.000004  -0.000357  -0.005562   0.371697   0.356516
    23  C   -0.000019   0.000008   0.000595   0.003933  -0.025881  -0.044255
    24  O    0.000363  -0.000046  -0.000056  -0.058200   0.002871  -0.002661
    25  H    0.563886  -0.038563   0.005053   0.005647   0.000000   0.000003
    26  H   -0.038563   0.566536  -0.006768  -0.000063  -0.000000  -0.000000
    27  H    0.005053  -0.006768   0.597965   0.006904  -0.000030   0.000042
    28  H    0.005647  -0.000063   0.006904   0.678557  -0.000482   0.006276
    29  H    0.000000  -0.000000  -0.000030  -0.000482   0.572439  -0.045195
    30  H    0.000003  -0.000000   0.000042   0.006276  -0.045195   0.633847
    31  H    0.000001  -0.000000   0.000023   0.001112   0.002384  -0.003775
    32  H    0.000002  -0.000000  -0.000115  -0.000555  -0.004993   0.005411
              31         32
     1  C    0.000000   0.000000
     2  N    0.000000  -0.000000
     3  C   -0.000000   0.000000
     4  C   -0.000000   0.000000
     5  C   -0.000000   0.000000
     6  C    0.000002  -0.000004
     7  O   -0.000000   0.000000
     8  C   -0.000000   0.000000
     9  H    0.000000  -0.000000
    10  H    0.000000   0.000000
    11  H   -0.000000  -0.000000
    12  H    0.000000  -0.000000
    13  H   -0.000000   0.000000
    14  H    0.000000  -0.000000
    15  H    0.000000   0.000000
    16  H   -0.000001  -0.000004
    17  H    0.000000  -0.000000
    18  C   -0.000008   0.000032
    19  C   -0.000482   0.001020
    20  C    0.004174   0.002831
    21  O    0.003021   0.001043
    22  C   -0.028639  -0.034348
    23  C    0.360307   0.360533
    24  O   -0.037853  -0.045775
    25  H    0.000001   0.000002
    26  H   -0.000000  -0.000000
    27  H    0.000023  -0.000115
    28  H    0.001112  -0.000555
    29  H    0.002384  -0.004993
    30  H   -0.003775   0.005411
    31  H    0.615359  -0.054936
    32  H   -0.054936   0.633157
 Mulliken charges:
               1
     1  C   -0.315374
     2  N   -0.523885
     3  C   -0.228041
     4  C    0.164638
     5  C   -0.170839
     6  C    0.041783
     7  O   -0.386624
     8  C    0.007037
     9  H    0.149544
    10  H    0.151404
    11  H    0.140861
    12  H    0.296184
    13  H    0.160965
    14  H    0.151345
    15  H    0.128665
    16  H    0.170186
    17  H    0.142947
    18  C   -0.345043
    19  C   -0.124700
    20  C    0.373894
    21  O   -0.500986
    22  C   -0.062844
    23  C   -0.029428
    24  O   -0.505860
    25  H    0.150933
    26  H    0.147526
    27  H    0.131927
    28  H    0.118807
    29  H    0.152909
    30  H    0.136054
    31  H    0.139309
    32  H    0.136702
 Sum of Mulliken charges =  -0.00000
 Mulliken charges with hydrogens summed into heavy atoms:
               1
     1  C    0.126435
     2  N   -0.227701
     3  C    0.084269
     4  C    0.164638
     5  C   -0.042174
     6  C    0.211970
     7  O   -0.386624
[...]
 56742,-0.00161373,-0.00072320,0.00132179,-0.00157995,-0.00308616,-0.00
 019017,0.00019187,-0.00003069,-0.00003720,0.00011581,-0.00003782,-0.00
 005622,0.00016550,0.00009892,-0.00012015,-0.00002441,0.00002894,-0.000
 01011,-0.00000360,0.00005336,-0.00001701,-0.00001171,-0.00000244,-0.00
 000535,-0.00004259,0.00009025,-0.00007655,0.00004634,0.00014286,-0.000
 06555,-0.00009437,-0.00008844,-0.00009249,0.00844710,-0.01170328,0.010
 29986,-0.05948960,0.04223697,-0.02173986,-0.00460762,0.02746025,-0.021
 05860,0.00211262,-0.00191480,-0.00000466,0.00002946,-0.00006682,0.0000
 9465,-0.00005978,0.00018743,-0.00021437,0.00261509,-0.00178767,0.00174
 208,-0.00058440,0.00072925,0.00256217,-0.00025732,-0.00123832,-0.00095
 038,0.06136844,-0.00029532,-0.00000668,-0.00002088,0.00021610,0.000156
 33,-0.00003557,0.00003433,-0.00008856,0.00006010,0.00002731,0.00007073
 ,0.00290376,0.00320053,-0.00017230,-0.00113410,-0.00179634,-0.00637859
 ,-0.00009421,-0.00267078,-0.00132402,0.00161779,-0.00128201,-0.0034041
 7,-0.00254776,0.00004972,-0.00002171,-0.00001498,0.00009405,-0.0000342
 6,-0.00004085,-0.00003312,0.00015618,0.00004349,-0.00005935,0.00001621
 ,-0.00001272,0.00003695,-0.00000022,-0.00001689,0.00003481,-0.00001708
 ,-0.00001404,-0.00028862,-0.00003982,-0.00026956,0.00007641,-0.0002205
 6,-0.00018043,0.00008248,0.00021258,0.00013940,0.00427756,0.00506880,-
 0.00401172,0.04324074,-0.19895359,0.15423114,-0.00062345,-0.00919303,0
 .00633872,-0.00124058,0.00081164,-0.00054192,0.00027361,0.00027308,-0.
 00010005,-0.00013398,-0.00019301,0.00037973,0.00060708,0.00177888,-0.0
 0031160,0.00201486,0.00302717,-0.00009769,-0.00239775,-0.00127646,-0.0
 0067760,-0.04563155,0.20943992,0.00047045,0.00008559,-0.00011898,-0.00
 024197,-0.00018192,0.00003433,-0.00003912,0.00014555,-0.00012766,0.000
 16641,0.00011016,0.00142820,0.00231163,-0.00145152,-0.00008796,-0.0018
 3558,-0.00521177,0.00024738,-0.00245284,-0.00151845,0.00196686,-0.0008
 2027,-0.00330142,-0.00262031,-0.00009613,0.00001754,0.00002674,-0.0000
 3045,0.00003135,-0.00001139,-0.00009976,0.00009282,0.00021657,-0.00001
 023,-0.00002485,0.00000182,0.00004778,-0.00005279,0.00000786,0.0000076
 3,-0.00000839,0.00001458,-0.00007596,0.00017070,0.00009565,0.00014131,
 0.00010691,0.00001139,0.00011480,0.00027508,0.00028824,-0.00342718,0.0
 2008138,-0.01671326,-0.02578914,0.14584371,-0.15663334,0.00178062,0.00
 102547,-0.00198086,-0.00097621,-0.00086984,0.00144644,0.00027853,0.000
 19537,0.00017975,-0.00020834,0.00011952,-0.00002484,0.00034136,-0.0005
 0153,0.00031512,0.00445896,0.00272201,-0.00218622,-0.00176861,-0.00196
 465,0.00062900,0.02798232,-0.15575145,0.17298248,0.00031922,0.00005479
 ,-0.00005440,-0.00014985,-0.00009582,0.00003553,-0.00001251,-0.0000267
 2,-0.00004992,0.00013607,-0.00036238,-0.00005769,0.00021149,-0.0000355
 3,0.00018113,0.00093220,0.00190232,-0.00065192,0.00004776,-0.00155758,
 0.00068854,-0.00058678,0.00071302,0.00045695,-0.00005805,0.00001725,0.
 00000593,-0.00004217,0.00001254,0.00002176,-0.00010644,0.00000887,0.00
 004230,0.00003403,-0.00001313,0.00000374,-0.00002796,0.00000166,0.0000
 0539,0.00000893,0.00001475,0.00001086,0.00003080,-0.00001545,0.0000399
 8,-0.00016054,-0.00026398,-0.00012996,0.00001220,-0.00003785,-0.000021
 21,0.00080787,-0.00004355,-0.00143764,-0.00561824,0.02643989,-0.018245
 56,-0.06078186,0.03151458,-0.01330834,0.00288760,-0.01025053,0.0137597
 9,0.00290456,-0.00099602,0.00077853,0.00204181,-0.00178550,-0.00125658
 ,-0.00363476,-0.02837990,0.00473737,0.00027754,-0.00034781,0.00091325,
 0.00030387,-0.00013634,0.00011747,-0.00561139,0.00228600,-0.00007722,0
 .06692069,-0.00014209,-0.00001078,-0.00000725,0.00007569,0.00007736,-0
 .00000826,0.00001747,0.00002422,0.00005770,0.00005104,0.00036188,-0.00
 015215,-0.00022297,-0.00000339,-0.00002754,-0.00016898,-0.00063494,0.0
 0064062,-0.00080057,0.00065440,-0.00102726,0.00046657,-0.00015688,0.00
 004401,0.00000163,0.00000025,-0.00000799,0.00001649,-0.00000885,-0.000
 00388,0.00002721,-0.00000887,-0.00000899,-0.00000658,0.00000293,-0.000
 00216,0.00002527,-0.00000462,-0.00000426,-0.00000327,-0.00000643,-0.00
 000680,-0.00003052,0.00000143,-0.00002729,0.00011494,0.00006943,0.0001
 8247,0.00004180,0.00001860,0.00000188,-0.00075990,0.00021633,0.0009236
 6,0.00256426,-0.00793124,0.00872230,0.03188668,-0.21277110,0.11026907,
 0.00072817,0.01240768,-0.00350937,-0.00144914,0.00066496,-0.00078318,0
 .00494252,-0.00334865,-0.00193657,-0.01735818,-0.02740100,0.00119816,0
 .00030087,-0.00005074,-0.00092578,-0.00017033,0.00008303,-0.00041582,0
 .00168514,0.00018580,-0.00013058,-0.01946474,0.23792359,0.00001663,0.0
 0000886,0.00002512,0.00002778,-0.00004100,0.00001166,-0.00004832,-0.00
 000264,0.00001117,0.00008826,-0.00025864,-0.00007526,0.00004564,-0.000
 06142,0.00008394,0.00001752,0.00112219,-0.00083326,0.00060777,-0.00069
 165,0.00051006,-0.00048259,0.00037926,0.00043392,0.00001340,-0.0000081
 1,0.00000265,-0.00001261,0.00000365,-0.00000073,0.00001052,0.00000006,
 -0.00001249,-0.00000318,0.00000234,-0.00000072,0.00000088,0.00000314,0
 .00000108,0.00000117,0.00000457,0.00000306,0.00002778,-0.00002898,0.00
 002177,0.00012089,0.00017856,-0.00011071,0.00000338,-0.00001325,-0.000
 00782,0.00016889,-0.00109846,0.00071427,-0.00043824,0.00358184,0.00133
 301,-0.01293102,0.10768021,-0.11539511,0.00865133,0.02160060,-0.037506
 51,-0.00647427,0.00026790,-0.00104139,0.00263972,-0.00241236,-0.001075
 48,-0.00729842,-0.01462094,0.01022596,-0.00022067,0.00008472,0.0002704
 9,-0.00012753,-0.00007906,0.00019687,0.00040843,0.00035657,0.00073360,
 0.01339093,-0.11520390,0.13968618,0.00002451,-0.00001232,-0.00001310,-
 0.00006070,0.00004748,-0.00000369,0.00007200,-0.00005278,0.00001614,-0
 .00005464,-0.00006282,0.00000204,-0.00003084,-0.00008942,0.00000068,0.
 00010554,0.00032536,0.00013366,-0.00010570,-0.00020526,-0.00001738,0.0
 0002081,0.00008507,-0.00003192,-0.00001630,0.00001371,-0.00000869,0.00
 000716,-0.00000558,-0.00000275,-0.00000748,-0.00000966,0.00001989,0.00
 002466,-0.00000807,0.00000236,-0.00002653,0.00001196,-0.00000445,-0.00
 000086,0.00001191,0.00000224,-0.00001484,0.00002110,-0.00000610,0.0000
 5912,0.00003379,0.00007253,-0.00000719,-0.00000675,-0.00000168,-0.0003
 8526,0.00052079,-0.00015033,-0.00026400,-0.00003273,0.00158844,-0.0048
 1455,-0.00405697,-0.00323994,-0.02394031,-0.00423013,0.03545101,-0.074
 96434,-0.01453133,0.07354371,0.00303724,0.00334703,-0.00215955,0.00078
 320,-0.00125350,-0.00122748,0.00006458,0.00003268,-0.00004452,-0.00021
 080,-0.00009926,0.00008305,-0.00008782,0.00003429,-0.00009541,-0.00018
 762,0.00003056,0.00097368,0.09335539,0.00001047,0.00000372,-0.00000097
 ,-0.00000878,-0.00000351,0.00000155,0.00000503,0.00000550,-0.00000156,
 0.00000367,0.00000723,0.00000764,0.00000261,-0.00000789,-0.00000683,0.
 00002025,0.00001928,0.00003841,-0.00002093,0.00001219,-0.00000710,0.00
 001530,-0.00002945,-0.00001903,0.00000038,-0.00000030,0.00000013,-0.00
 000166,-0.00000031,0.00000052,-0.00000428,0.00000088,0.00000034,0.0000
 0257,0.00000046,0.,-0.00000024,-0.00000167,0.00000029,0.00000085,0.000
 00024,0.00000026,-0.00000019,0.00000595,0.00000184,0.00000599,0.000021
 33,0.00004042,0.00000284,0.00000202,0.00000050,-0.00003516,0.00010549,
 0.00002097,0.00008552,0.00032813,0.00024355,-0.00151358,-0.00287617,-0
 .00372607,-0.00625088,0.00056388,0.00611113,-0.01507085,-0.06325959,0.
 04853904,0.00993369,0.00876716,-0.01993691,0.00374234,-0.00176431,-0.0
 0500756,0.00000836,-0.00001087,0.00001614,-0.00004266,-0.00003629,0.00
 001093,-0.00006731,-0.00000068,0.00000688,0.00040602,0.00018081,-0.000
 19609,0.01768046,0.06161325,-0.00002439,0.00000976,0.00000832,0.000050
 81,-0.00003259,0.00000190,-0.00004620,0.00004249,-0.00000688,0.0000371
 6,0.00004030,-0.00002165,0.00000315,0.00003672,-0.00000053,-0.00004470
 ,-0.00008495,-0.00001019,0.00007824,0.00009110,-0.00000216,-0.00000034
 ,-0.00003567,0.00003356,0.00001019,-0.00000976,0.00000543,-0.00000408,
 0.00000244,0.00000085,0.00001004,0.00000340,-0.00001131,-0.00002069,0.
 00000652,-0.00000179,0.00002113,-0.00000870,0.00000306,0.00000284,-0.0
 0000689,-0.00000092,0.00000393,-0.00001384,0.00000288,-0.00000939,-0.0
 0002651,-0.00003770,0.00000058,0.00000106,-0.00000187,-0.00005897,-0.0
 0000329,0.00007185,0.00014036,0.00012291,0.00023167,-0.00264885,-0.001
 31293,-0.00000365,-0.00028849,-0.00192293,0.00852941,0.08513935,0.0481
 2151,-0.28499449,0.00567733,0.00761114,-0.01207252,0.00167457,-0.00190
 542,-0.00156190,-0.00002241,-0.00000418,0.00001959,-0.00000314,-0.0000
 1526,0.00000083,0.00001859,-0.00001918,-0.00002559,-0.00002153,0.00020
 325,0.00003227,-0.09310164,-0.05149230,0.29918564,0.00005575,-0.000015
 04,-0.00001816,-0.00009078,0.00004435,0.00000407,0.00008275,-0.0000622
 1,0.00000570,-0.00004832,-0.00010244,0.00005151,0.00003763,-0.00003543
 ,0.00004920,0.00020809,0.00016699,-0.00013351,-0.00011884,-0.00020417,
 0.00007161,-0.00008800,0.00009624,0.00004181,-0.00001344,0.00001261,-0
 .00000933,0.00000023,-0.00000375,0.00000540,-0.00002104,-0.00000697,0.
 00001456,0.00003876,-0.00000790,0.00000373,-0.00003552,0.00001234,-0.0
 0000603,-0.00000469,0.00001372,0.00000673,0.00002276,0.00001619,0.0000
 0305,0.00013744,0.00026273,0.00009350,-0.00001990,-0.00001325,0.000001
 39,-0.00014979,0.00019300,-0.00006334,-0.00054253,-0.00045216,0.001217
 79,0.00155751,0.00029316,-0.00843409,-0.03838867,0.02489401,-0.0127434
 5,-0.08968253,0.08210210,-0.03377542,0.00202789,-0.00353079,0.00145651
 ,0.00160663,0.00076811,0.00074058,-0.00000087,-0.00001466,0.00003365,-
 0.00009537,-0.00002493,0.00007606,0.00025970,-0.00026967,-0.00004539,0
 .00020334,-0.00075706,0.00156243,0.00771526,-0.00834287,0.00347700,0.1
 1384629,-0.00003080,-0.00000316,0.00000407,0.00003987,-0.00000060,-0.0
 0000544,-0.00002548,0.00001098,0.00000549,0.00002617,0.00005451,-0.000
 01876,-0.00000285,0.00003241,-0.00001779,-0.00000894,-0.00013198,0.000
 08616,0.00000732,0.00011742,-0.00004604,0.00004701,-0.00005762,0.00000
 820,-0.00000003,-0.00000145,0.00000106,-0.00000036,0.00000014,-0.00000
 090,0.00001437,-0.00000330,-0.00000477,-0.00001436,0.00000303,-0.00000
 081,0.00001373,-0.00000183,0.00000218,0.00000168,-0.00000645,-0.000003
 69,-0.00000736,-0.00000576,-0.00000148,-0.00003149,-0.00003485,-0.0000
 3518,0.00000803,0.00000424,-0.00000268,-0.00001593,-0.00005014,0.00008
 986,-0.00001972,0.00018439,-0.00006165,-0.00048824,0.00054380,-0.00023
 861,-0.00015977,0.01415632,-0.00360843,0.08368576,-0.21696084,0.078405
 05,0.00790620,-0.02363004,0.01184791,0.00024919,0.00120326,-0.00049693
 ,-0.00001155,-0.00000690,-0.00000500,0.00000519,0.00000180,-0.00000686
 ,-0.00010329,-0.00000463,0.00002732,0.00071972,-0.00029701,-0.00046407
 ,0.00214329,-0.00386041,0.00199163,-0.09378311,0.23045187,0.00003125,-
 0.00000490,-0.00000979,-0.00004768,0.00001892,0.00000360,0.00004147,-0
 .00002545,-0.00000048,-0.00002043,-0.00004519,0.00001347,0.00000353,-0
 .00001016,0.00000760,0.00007051,0.00008281,-0.00002535,-0.00006129,-0.
 00009808,0.00002087,-0.00000585,0.00004812,0.00000491,-0.00000568,0.00
 000492,-0.00000475,-0.00000147,-0.00000190,0.00000440,-0.00001381,-0.0
 0000282,0.00000576,0.00002021,-0.00000278,0.00000165,-0.00001733,0.000
 00502,-0.00000278,-0.00000195,0.00000656,0.00000397,0.00001327,0.00000
 840,0.00000121,0.00003126,0.00009732,0.00003101,-0.00000455,-0.0000038
 0,0.00000239,-0.00003055,0.00007426,-0.00001943,0.00003486,0.00005317,
 0.00023316,0.00045370,-0.00155997,-0.00016424,-0.00667548,-0.00034186,
 0.00319306,-0.03520578,0.07970995,-0.09603139,0.00763844,-0.01915743,0
 .00866628,-0.00091842,0.00123801,0.00075128,0.00001418,-0.00000542,-0.
 00001238,-0.00004386,-0.00000879,0.00001352,0.00005289,-0.00002507,-0.
 00013639,-0.00051245,0.00058698,0.00084858,-0.01228604,0.02524748,-0.0
 1016548,0.04673418,-0.08319102,0.09326539,0.00005343,-0.00003632,-0.00
 003636,-0.00012989,0.00009541,0.00000825,0.00012872,-0.00012726,0.0000
 1193,-0.00015250,-0.00024410,0.00012671,0.00006442,-0.00013630,0.00001
 042,-0.00013758,0.00050739,-0.00004802,-0.00013927,-0.00027681,0.00016
 986,-0.00019062,0.00001974,-0.00024018,-0.00001873,0.00002216,-0.00001
 467,0.00000412,-0.00000608,0.00000886,-0.00002306,-0.00000975,0.000023
 74,0.00005461,-0.00001242,0.00000540,-0.00006653,0.00003342,-0.0000111
 4,-0.00001517,0.00002577,0.00001123,0.00000092,0.00002854,-0.00001243,
 0.00000763,-0.00001600,-0.00000080,-0.00000216,-0.00000185,0.00001310,
 0.00025056,0.00020188,-0.00044334,-0.00142018,-0.00120222,-0.00038943,
 -0.00161411,0.00609110,0.00201993,0.00152371,0.00095359,0.00069443,0.0
 0302874,-0.00016693,-0.00048465,-0.21556604,0.00268390,-0.12431889,-0.
 03054927,-0.01022373,-0.00279435,0.00000932,-0.00005989,-0.00000072,0.
 00000036,0.00006905,0.00005254,-0.00002547,0.00004971,0.00001088,-0.00
 005555,-0.00031867,0.00006273,-0.00047496,-0.00075303,-0.00010820,0.00
 062728,-0.00059623,0.00011258,0.24550501,-0.00000611,-0.00001428,-0.00
 000733,-0.00002118,0.00003618,-0.00000267,0.00004025,-0.00003250,0.000
 01754,-0.00004313,-0.00005177,0.00008253,0.00005026,-0.00004469,0.0000
 2198,-0.00012575,-0.00000174,-0.00006721,-0.00004353,0.00000709,0.0000
 1219,-0.00010636,-0.00003778,-0.00005996,-0.00000736,0.00000758,-0.000
 00435,0.00000270,-0.00000181,0.00000063,0.00000319,-0.00000844,0.00000
 578,0.00001239,-0.00000321,0.00000143,-0.00001448,0.00000931,-0.000003
 97,-0.00000722,0.00000654,0.00000212,-0.00000099,0.00000423,-0.0000062
 6,0.00006547,0.00010665,0.00007230,-0.00000357,0.00000397,0.00000579,0
 .00003535,0.00015455,-0.00011810,-0.00030439,-0.00040339,0.00023991,-0
 .00081455,-0.00117506,-0.00210290,-0.00426776,-0.00364340,-0.00203140,
 -0.01990609,0.00243940,-0.01203009,0.00411647,-0.05509456,0.00544520,-
 0.00473670,0.00292799,-0.00442281,0.00000213,-0.00001030,-0.00000907,-
 0.00002443,-0.00000227,0.00002437,-0.00001851,0.00001881,-0.00003417,-
 0.00002823,-0.00015229,0.00014075,0.00019566,-0.00086983,-0.00106736,-
 0.00003542,0.00108934,0.00077615,0.00252969,0.05377972,0.00002234,0.00
 001204,0.00000549,-0.00000229,-0.00002861,0.00000112,-0.00001464,0.000
 04182,-0.00000815,0.00008066,0.00009831,-0.00003393,-0.00004697,0.0000
 4599,0.00002491,0.00017623,-0.00022430,0.00000641,-0.00003405,0.000096
 43,-0.00007298,0.00006951,-0.00000346,0.00012770,0.00000353,-0.0000049
 1,0.00000202,-0.00000380,0.00000166,0.00000142,-0.00001102,0.00000601,
 -0.00000395,-0.00000084,0.00000110,-0.00000020,0.00001844,-0.00001501,
 0.00000183,0.00000511,-0.00000531,-0.00000058,0.00001248,-0.00000495,0
 .00000834,0.00007442,0.00012360,0.00007226,-0.00001137,-0.00000569,-0.
 00000430,-0.00006917,-0.00003303,0.00017754,0.00058917,0.00080033,0.00
 038208,0.00316950,-0.00285644,-0.00338817,-0.00254793,-0.00440093,-0.0
 0102756,-0.01575100,0.00554631,-0.00704315,-0.12938629,0.00046718,-0.1
 4279980,0.02532925,0.00456203,0.01338670,0.00001020,0.00002246,0.00000
 087,-0.00004795,-0.00004994,-0.00001530,-0.00000340,-0.00006846,-0.000
 01042,-0.00004783,0.00011377,0.00015872,0.00025307,-0.00068883,-0.0006
 1085,0.00052143,0.00002990,0.00135825,0.13056018,-0.00324330,0.1468010
 0,-0.00000316,-0.00001477,-0.00001108,-0.00003067,0.00004561,-0.000002
 59,0.00004910,-0.00004341,0.00001325,-0.00004326,-0.00002713,-0.000007
 59,-0.00004000,-0.00003658,0.00000042,0.00003619,0.00012167,0.00007276
 ,-0.00006599,-0.00003258,-0.00003151,0.00002507,0.00002991,-0.00004964
 ,-0.00001098,0.00000968,-0.00000632,0.00000400,-0.00000326,0.00000089,
 0.00000100,-0.00001057,0.00000913,0.00001599,-0.00000414,0.00000182,-0
 .00001868,0.00001158,-0.00000356,-0.00000435,0.00000731,0.00000207,-0.
 00000722,0.00000957,-0.00000711,0.00000335,-0.00000760,0.00001528,0.00
 000004,-0.00000284,0.00000218,0.00002565,0.00008381,-0.00008492,0.0000
 2798,-0.00004617,0.00009323,0.00231432,0.00024207,0.00624293,0.0019508
 5,0.00023318,-0.00167137,-0.00086074,0.00011953,-0.00033860,-0.0551926
 8,0.02699219,-0.02146222,-0.01008583,-0.02901904,0.02202007,0.00004979
 ,0.00000610,-0.00006825,-0.00002997,0.00001223,-0.00000366,-0.00018875
 ,0.00008603,-0.00002285,-0.00104625,-0.00132333,-0.00080292,0.00038524
 ,0.00018607,0.00005776,0.00087297,0.00043197,0.00060028,-0.00067775,0.
 02346220,-0.01291700,0.06254474,-0.00000359,-0.00002792,-0.00001526,-0
 .00004126,0.00006811,-0.00000721,0.00006525,-0.00007103,0.00002265,-0.
 00006685,-0.00003561,0.00002766,0.00000453,-0.00003369,0.00002569,0.00
 002824,0.00006403,0.00000593,-0.00011584,-0.00001095,-0.00000987,0.000
 01046,0.00000199,-0.00006437,-0.00001700,0.00001544,-0.00000993,0.0000
 0594,-0.00000460,0.00000119,0.00000416,-0.00001440,0.00001404,0.000021
 92,-0.00000688,0.00000274,-0.00002537,0.00001687,-0.00000435,-0.000006
 78,0.00000875,0.00000198,-0.00000850,0.00000949,-0.00001138,0.00004244
 ,0.00002028,0.00003844,-0.00000107,-0.00000026,0.00000341,-0.00001112,
 0.00010529,-0.00009333,-0.00000616,-0.00022848,0.00011525,0.00158853,-
 0.00024516,0.00118813,-0.00112558,0.00207726,-0.00048993,0.00739947,-0
 .02229675,0.01199914,0.02448634,-0.24211250,0.10099413,-0.01017562,0.0
 0368891,0.00582652,0.00003632,0.00000916,-0.00005233,-0.00003198,0.000
 01354,0.00002066,-0.00007123,0.00011325,-0.00005405,-0.00025034,-0.000
 08592,-0.00023463,0.00012143,0.00108379,-0.00032248,-0.00121370,-0.002
 79653,-0.00347343,0.00087624,0.00095594,-0.00033577,-0.02151928,0.2597
 1859,-0.00001467,0.00002655,0.00002001,0.00006116,-0.00006975,0.000002
 21,-0.00007749,0.00007592,-0.00001687,0.00006223,0.00006794,-0.0000354
 7,-0.00000150,0.00005082,0.00001409,-0.00003076,-0.00016883,-0.0000593
 8,0.00011825,0.00008943,-0.00000426,0.00001252,-0.00001913,0.00008474,
 0.00001710,-0.00001534,0.00001170,-0.00000247,0.00000556,-0.00000533,0
 .00000514,0.00001285,-0.00001385,-0.00002958,0.00000625,-0.00000320,0.
 00003237,-0.00001865,0.00000563,0.00000670,-0.00001085,-0.00000356,0.0
 0000344,-0.00001578,0.00000835,0.00000179,0.00000974,-0.00001701,-0.00
 000228,0.00000186,-0.00000405,-0.00006560,-0.00006710,0.00010167,0.000
 07027,0.00020264,-0.00009697,-0.00370572,-0.00185767,-0.00595064,-0.00
 030987,0.00147777,0.00152564,0.00452930,-0.02121900,0.01132538,-0.0220
 5034,0.10271935,-0.10846940,0.01800461,0.01782841,-0.01099533,-0.00005
 196,-0.00000774,0.00006698,0.00003749,-0.00002601,-0.00000614,0.000028
 53,-0.00008395,0.00005125,0.00068281,0.00124514,0.00075511,0.00025215,
 0.00079523,0.00140223,-0.00094316,-0.00428869,-0.00185792,-0.00499960,
 0.01836228,-0.00749733,0.00835913,-0.11510923,0.11966173\\0.00000040,0
 .00000055,0.00000014,0.00000028,0.00000092,-0.00000024,0.00000002,0.00
 000096,-0.00000074,-0.00000192,-0.00000108,-0.00000219,-0.00000126,0.0
 0000245,-0.00000019,-0.00000117,-0.00000099,0.00000026,0.00000040,-0.0
 0000054,0.00000036,-0.00000156,-0.00000476,-0.00000370,0.00000062,0.00
 000077,0.00000026,0.00000021,0.00000015,0.00000013,0.00000049,0.000000
 15,0.00000013,0.00000020,0.00000105,-0.00000057,-0.00000019,0.00000075
 ,-0.00000127,-0.00000056,0.00000020,-0.00000059,0.00000022,0.00000048,
 -0.00000060,-0.00000052,0.,-0.00000023,-0.00000161,-0.00000173,-0.0000
 0197,-0.00000421,0.00000045,0.00000556,0.00000686,0.00000393,-0.000005
 01,0.00000075,-0.00000062,0.00000027,-0.00000030,0.00000102,0.00000050
 ,-0.00000065,-0.00000049,0.00000241,-0.00000121,-0.00000033,0.00000089
 ,0.00000161,-0.00000103,0.00000071,0.00000070,0.00000032,0.00000015,0.
 00000169,0.00000146,0.00000175,-0.00000022,-0.00000117,0.00000008,-0.0
 0000070,-0.00000070,0.00000020,0.00000073,-0.00000027,0.00000102,-0.00
 000013,-0.00000087,0.00000060,0.00000041,-0.00000068,0.00000077,0.0000
 0065,-0.00000034,0.00000110\\\@
 The archive entry for this job was punched.


 I LOVE THOSE WHO LONG FOR THE IMPOSSIBLE.

                                 -- GOETHE
 Job cpu time:       0 days  0 hours 50 minutes 28.0 seconds.
 Elapsed time:       0 days  0 hours  1 minutes 48.4 seconds.
 File lengths (MBytes):  RWF=    256 Int=      0 D2E=      0 Chk=      7 Scr=      1
 Normal termination of Gaussian 16 at Mon Apr  8 12:21:30 2024.
