 Entering Gaussian System, Link 0=g16
 Initial command:
 /public/software/apps/Gaussian/g16/l1.exe "/tmp/Gau-59921.inp" -scrdir="/tmp/"
 Entering Link 1 = /public/software/apps/Gaussian/g16/l1.exe PID=     59922.
  
 Copyright (c) 1988-2019, Gaussian, Inc.  All Rights Reserved.
  
 This is part of the Gaussian(R) 16 program.  It is based on
 the Gaussian(R) 09 system (copyright 2009, Gaussian, Inc.),
 the Gaussian(R) 03 system (copyright 2003, Gaussian, Inc.),
 the Gaussian(R) 98 system (copyright 1998, Gaussian, Inc.),
 the Gaussian(R) 94 system (copyright 1995, Gaussian, Inc.),
 the Gaussian 92(TM) system (copyright 1992, Gaussian, Inc.),
 the Gaussian 90(TM) system (copyright 1990, Gaussian, Inc.),
 the Gaussian 88(TM) system (copyright 1988, Gaussian, Inc.),
 the Gaussian 86(TM) system (copyright 1986, Carnegie Mellon
 University), and the Gaussian 82(TM) system (copyright 1983,
 Carnegie Mellon University). Gaussian is a federally registered
 trademark of Gaussian, Inc.
  
 This software contains proprietary and confidential information,
 including trade secrets, belonging to Gaussian, Inc.
  
 This software is provided under written license and may be
 used, copied, transmitted, or stored only in accord with that
 written license.
  
 The following legend is applicable only to US Government
 contracts under FAR:
  
                    RESTRICTED RIGHTS LEGEND
  
 Use, reproduction and disclosure by the US Government is
 subject to restrictions as set forth in subparagraphs (a)
 and (c) of the Commercial Computer Software - Restricted
 Rights clause in FAR 52.227-19.
  
 Gaussian, Inc.
 340 Quinnipiac St., Bldg. 40, Wallingford CT 06492
  
  
 ---------------------------------------------------------------
 Warning -- This program may not be used in any manner that
 competes with the business of Gaussian, Inc. or will provide
 assistance to any competitor of Gaussian, Inc.  The licensee
 of this program is prohibited from giving any competitor of
 Gaussian, Inc. access to this program.  By using this program,
 the user acknowledges that Gaussian, Inc. is engaged in the
 business of creating and licensing software in the field of
 computational chemistry and represents and warrants to the
 licensee that it is not a competitor of Gaussian, Inc. and that
 it will not use this program in any manner prohibited above.
 ---------------------------------------------------------------
  

 Cite this work as:
 Gaussian 16, Revision C.01,
 M. J. Frisch, G. W. Trucks, H. B. Schlegel, G. E. Scuseria, 
 M. A. Robb, J. R. Cheeseman, G. Scalmani, V. Barone, 
 G. A. Petersson, H. Nakatsuji, X. Li, M. Caricato, A. V. Marenich, 
 J. Bloino, B. G. Janesko, R. Gomperts, B. Mennucci, H. P. Hratchian, 
 J. V. Ortiz, A. F. Izmaylov, J. L. Sonnenberg, D. Williams-Young, 
 F. Ding, F. Lipparini, F. Egidi, J. Goings, B. Peng, A. Petrone, 
 T. Henderson, D. Ranasinghe, V. G. Zakrzewski, J. Gao, N. Rega, 
 G. Zheng, W. Liang, M. Hada, M. Ehara, K. Toyota, R. Fukuda, 
 J. Hasegawa, M. Ishida, T. Nakajima, Y. Honda, O. Kitao, H. Nakai, 
 T. Vreven, K. Throssell, J. A. Montgomery, Jr., J. E. Peralta, 
 F. Ogliaro, M. J. Bearpark, J. J. Heyd, E. N. Brothers, K. N. Kudin, 
 V. N. Staroverov, T. A. Keith, R. Kobayashi, J. Normand, 
 K. Raghavachari, A. P. Rendell, J. C. Burant, S. S. Iyengar, 
 J. Tomasi, M. Cossi, J. M. Millam, M. Klene, C. Adamo, R. Cammi, 
 J. W. Ochterski, R. L. Martin, K. Morokuma, O. Farkas, 
 J. B. Foresman, and D. J. Fox, Gaussian, Inc., Wallingford CT, 2019.
 
 ******************************************
 Gaussian 16:  ES64L-G16RevC.01  3-Jul-2019
                11-Nov-2024 
 ******************************************
 %nprocshared=32
 Will use up to   32 processors via shared memory.
 %mem=80GB
 --------------------------------------------------------------
 # opt=maxcycle=150 freq b3lyp/genecp empiricaldispersion=gd3bj
 --------------------------------------------------------------
 1/6=150,18=20,19=15,26=3,38=1/1,3;
 2/9=110,12=2,17=6,18=5,40=1/2;
 3/5=7,11=2,16=1,17=8,25=1,30=1,71=1,74=-5,124=41/1,2,3;
 4//1;
 5/5=2,38=5/2;
 6/7=2,8=2,9=2,10=2,28=1/1;
 7//1,2,3,16;
 1/6=150,18=20,19=15,26=3/3(2);
 2/9=110/2;
 99//99;
 2/9=110/2;
 3/5=7,6=1,11=2,16=1,17=8,25=1,30=1,71=1,74=-5,82=7,124=41/1,2,3;
 4/5=5,16=3,69=1/1;
 5/5=2,38=5/2;
 7//1,2,3,16;
 1/6=150,18=20,19=15,26=3/3(-5);
 2/9=110/2;
 6/7=2,8=2,9=2,10=2,19=2,28=1/1;
 99/9=1/99;
 ------------------
 B3D3_Pople_Opt_Gas
 ------------------
 Symbolic Z-matrix:
 Charge = -1 Multiplicity = 1
 C                    -2.10821  -1.19     -0.00058 
 H                    -1.72335  -2.20442  -0.00131 
 C                    -1.20115  -0.11849  -0.00002 
 C                     0.24727  -0.32534   0.00002 
 C                     0.86257  -1.59659   0.00042 
 C                     1.08599   0.83074  -0.00025 
 C                    -0.91365   2.19038   0.00038 
 C                     2.23935  -1.725     0.00035 
 H                     0.25478  -2.49429   0.00091 
 C                     2.49502   0.67448  -0.00039 
 C                     0.46965   2.10935  -0.00015 
 H                    -1.40179   3.16404   0.00072 
 C                     3.06376  -0.58081  -0.00012 
 H                     2.6885   -2.71389   0.0007 
 H                     3.11774   1.56523  -0.00067 
 H                     1.07963   3.0078   -0.00045 
 H                     4.14426  -0.69203  -0.00019 
 N                    -1.73293   1.13416   0.00041 
 C                    -3.58954  -1.02951  -0.00016 
 H                    -3.86357   0.02625  -0.0004 
 H                    -4.03638  -1.5171   -0.87903 
 H                    -4.03564  -1.51606   0.87975 
 

 GradGradGradGradGradGradGradGradGradGradGradGradGradGradGradGradGradGrad
 Berny optimization.
 Initialization pass.
                           ----------------------------
                           !    Initial Parameters    !
                           ! (Angstroms and Degrees)  !
 --------------------------                            --------------------------
 ! Name  Definition              Value          Derivative Info.                !
 --------------------------------------------------------------------------------
 ! R1    R(1,2)                  1.085          estimate D2E/DX2                !
 ! R2    R(1,3)                  1.4039         estimate D2E/DX2                !
 ! R3    R(1,19)                 1.49           estimate D2E/DX2                !
 ! R4    R(3,4)                  1.4631         estimate D2E/DX2                !
 ! R5    R(3,18)                 1.3609         estimate D2E/DX2                !
 ! R6    R(4,5)                  1.4123         estimate D2E/DX2                !
 ! R7    R(4,6)                  1.4283         estimate D2E/DX2                !
 ! R8    R(5,8)                  1.3827         estimate D2E/DX2                !
 ! R9    R(5,9)                  1.0841         estimate D2E/DX2                !
 ! R10   R(6,10)                 1.4177         estimate D2E/DX2                !
 ! R11   R(6,11)                 1.4194         estimate D2E/DX2                !
 ! R12   R(7,11)                 1.3857         estimate D2E/DX2                !
 ! R13   R(7,12)                 1.0892         estimate D2E/DX2                !
 ! R14   R(7,18)                 1.3367         estimate D2E/DX2                !
 ! R15   R(8,13)                 1.4103         estimate D2E/DX2                !
 ! R16   R(8,14)                 1.0861         estimate D2E/DX2                !
 ! R17   R(10,13)                1.3781         estimate D2E/DX2                !
 ! R18   R(10,15)                1.0868         estimate D2E/DX2                !
 ! R19   R(11,16)                1.086          estimate D2E/DX2                !
 ! R20   R(13,17)                1.0862         estimate D2E/DX2                !
 ! R21   R(19,20)                1.0907         estimate D2E/DX2                !
 ! R22   R(19,21)                1.0999         estimate D2E/DX2                !
 ! R23   R(19,22)                1.1            estimate D2E/DX2                !
 ! A1    A(2,1,3)              118.9751         estimate D2E/DX2                !
 ! A2    A(2,1,19)             116.9596         estimate D2E/DX2                !
 ! A3    A(3,1,19)             124.0652         estimate D2E/DX2                !
 ! A4    A(1,3,4)              122.1211         estimate D2E/DX2                !
 ! A5    A(1,3,18)             116.7492         estimate D2E/DX2                !
 ! A6    A(4,3,18)             121.1297         estimate D2E/DX2                !
 ! A7    A(3,4,5)              123.9552         estimate D2E/DX2                !
 ! A8    A(3,4,6)              117.833          estimate D2E/DX2                !
 ! A9    A(5,4,6)              118.2118         estimate D2E/DX2                !
 ! A10   A(4,5,8)              121.1565         estimate D2E/DX2                !
 ! A11   A(4,5,9)              120.0722         estimate D2E/DX2                !
 ! A12   A(8,5,9)              118.7713         estimate D2E/DX2                !
 ! A13   A(4,6,10)             119.6322         estimate D2E/DX2                !
 ! A14   A(4,6,11)             118.3038         estimate D2E/DX2                !
 ! A15   A(10,6,11)            122.0639         estimate D2E/DX2                !
 ! A16   A(11,7,12)            119.9794         estimate D2E/DX2                !
 ! A17   A(11,7,18)            124.4475         estimate D2E/DX2                !
 ! A18   A(12,7,18)            115.573          estimate D2E/DX2                !
 ! A19   A(5,8,13)             120.4448         estimate D2E/DX2                !
 ! A20   A(5,8,14)             119.7563         estimate D2E/DX2                !
 ! A21   A(13,8,14)            119.7989         estimate D2E/DX2                !
 ! A22   A(6,10,13)            120.7026         estimate D2E/DX2                !
 ! A23   A(6,10,15)            118.6295         estimate D2E/DX2                !
 ! A24   A(13,10,15)           120.6679         estimate D2E/DX2                !
 ! A25   A(6,11,7)             119.0881         estimate D2E/DX2                !
 ! A26   A(6,11,16)            120.0905         estimate D2E/DX2                !
 ! A27   A(7,11,16)            120.8214         estimate D2E/DX2                !
 ! A28   A(8,13,10)            119.8521         estimate D2E/DX2                !
 ! A29   A(8,13,17)            119.8966         estimate D2E/DX2                !
 ! A30   A(10,13,17)           120.2513         estimate D2E/DX2                !
 ! A31   A(3,18,7)             119.1979         estimate D2E/DX2                !
 ! A32   A(1,19,20)            110.7339         estimate D2E/DX2                !
 ! A33   A(1,19,21)            110.8493         estimate D2E/DX2                !
 ! A34   A(1,19,22)            110.8404         estimate D2E/DX2                !
 ! A35   A(20,19,21)           109.0772         estimate D2E/DX2                !
 ! A36   A(20,19,22)           109.0517         estimate D2E/DX2                !
 ! A37   A(21,19,22)           106.1612         estimate D2E/DX2                !
 ! D1    D(2,1,3,4)             -0.0188         estimate D2E/DX2                !
 ! D2    D(2,1,3,18)           179.9771         estimate D2E/DX2                !
 ! D3    D(19,1,3,4)           179.9781         estimate D2E/DX2                !
 ! D4    D(19,1,3,18)           -0.026          estimate D2E/DX2                !
 ! D5    D(2,1,19,20)         -179.9455         estimate D2E/DX2                !
 ! D6    D(2,1,19,21)          -58.7385         estimate D2E/DX2                !
 ! D7    D(2,1,19,22)           58.8859         estimate D2E/DX2                !
 ! D8    D(3,1,19,20)            0.0576         estimate D2E/DX2                !
 ! D9    D(3,1,19,21)          121.2646         estimate D2E/DX2                !
 ! D10   D(3,1,19,22)         -121.1111         estimate D2E/DX2                !
 ! D11   D(1,3,4,5)             -0.0453         estimate D2E/DX2                !
 ! D12   D(1,3,4,6)            179.9613         estimate D2E/DX2                !
 ! D13   D(18,3,4,5)           179.959          estimate D2E/DX2                !
 ! D14   D(18,3,4,6)            -0.0344         estimate D2E/DX2                !
 ! D15   D(1,3,18,7)          -179.9721         estimate D2E/DX2                !
 ! D16   D(4,3,18,7)             0.0238         estimate D2E/DX2                !
 ! D17   D(3,4,5,8)            179.996          estimate D2E/DX2                !
 ! D18   D(3,4,5,9)             -0.0102         estimate D2E/DX2                !
 ! D19   D(6,4,5,8)             -0.0106         estimate D2E/DX2                !
 ! D20   D(6,4,5,9)            179.9833         estimate D2E/DX2                !
 ! D21   D(3,4,6,10)          -179.9924         estimate D2E/DX2                !
 ! D22   D(3,4,6,11)             0.0172         estimate D2E/DX2                !
 ! D23   D(5,4,6,10)             0.0138         estimate D2E/DX2                !
 ! D24   D(5,4,6,11)          -179.9767         estimate D2E/DX2                !
 ! D25   D(4,5,8,13)             0.0011         estimate D2E/DX2                !
 ! D26   D(4,5,8,14)           179.998          estimate D2E/DX2                !
 ! D27   D(9,5,8,13)          -179.9928         estimate D2E/DX2                !
 ! D28   D(9,5,8,14)             0.004          estimate D2E/DX2                !
 ! D29   D(4,6,10,13)           -0.0077         estimate D2E/DX2                !
 ! D30   D(4,6,10,15)          179.9951         estimate D2E/DX2                !
 ! D31   D(11,6,10,13)         179.9824         estimate D2E/DX2                !
 ! D32   D(11,6,10,15)          -0.0148         estimate D2E/DX2                !
 ! D33   D(4,6,11,7)             0.009          estimate D2E/DX2                !
 ! D34   D(4,6,11,16)         -179.9937         estimate D2E/DX2                !
 ! D35   D(10,6,11,7)         -179.9813         estimate D2E/DX2                !
 ! D36   D(10,6,11,16)           0.0161         estimate D2E/DX2                !
 ! D37   D(12,7,11,6)          179.9846         estimate D2E/DX2                !
 ! D38   D(12,7,11,16)          -0.0127         estimate D2E/DX2                !
 ! D39   D(18,7,11,6)           -0.0214         estimate D2E/DX2                !
 ! D40   D(18,7,11,16)         179.9812         estimate D2E/DX2                !
 ! D41   D(11,7,18,3)            0.0046         estimate D2E/DX2                !
 ! D42   D(12,7,18,3)          179.9988         estimate D2E/DX2                !
 ! D43   D(5,8,13,10)            0.0053         estimate D2E/DX2                !
 ! D44   D(5,8,13,17)         -179.9989         estimate D2E/DX2                !
 ! D45   D(14,8,13,10)        -179.9915         estimate D2E/DX2                !
 ! D46   D(14,8,13,17)           0.0042         estimate D2E/DX2                !
 ! D47   D(6,10,13,8)           -0.0019         estimate D2E/DX2                !
 ! D48   D(6,10,13,17)        -179.9977         estimate D2E/DX2                !
 ! D49   D(15,10,13,8)         179.9951         estimate D2E/DX2                !
 ! D50   D(15,10,13,17)         -0.0006         estimate D2E/DX2                !
 --------------------------------------------------------------------------------
 Trust Radius=3.00D-01 FncErr=1.00D-07 GrdErr=1.00D-06 EigMax=2.50D+02 EigMin=1.00D-04
 Number of steps in this run=    132 maximum allowed number of steps=    132.
 GradGradGradGradGradGradGradGradGradGradGradGradGradGradGradGradGradGrad

                          Input orientation:                          
 ---------------------------------------------------------------------
 Center     Atomic      Atomic             Coordinates (Angstroms)
 Number     Number       Type             X           Y           Z
 ---------------------------------------------------------------------
      1          6           0       -2.108208   -1.189998   -0.000577
      2          1           0       -1.723345   -2.204421   -0.001310
      3          6           0       -1.201154   -0.118488   -0.000018
      4          6           0        0.247265   -0.325337    0.000015
      5          6           0        0.862572   -1.596588    0.000424
      6          6           0        1.085986    0.830742   -0.000247
      7          6           0       -0.913645    2.190380    0.000384
      8          6           0        2.239346   -1.725003    0.000349
      9          1           0        0.254781   -2.494290    0.000905
     10          6           0        2.495017    0.674482   -0.000389
     11          6           0        0.469650    2.109351   -0.000149
     12          1           0       -1.401790    3.164035    0.000719
     13          6           0        3.063764   -0.580806   -0.000117
     14          1           0        2.688501   -2.713894    0.000703
     15          1           0        3.117742    1.565225   -0.000669
     16          1           0        1.079633    3.007799   -0.000446
     17          1           0        4.144264   -0.692026   -0.000190
     18          7           0       -1.732929    1.134162    0.000411
     19          6           0       -3.589543   -1.029510   -0.000161
     20          1           0       -3.863574    0.026245   -0.000396
     21          1           0       -4.036378   -1.517096   -0.879030
     22          1           0       -4.035636   -1.516058    0.879750
 ---------------------------------------------------------------------
                    Distance matrix (angstroms):
                    1          2          3          4          5
     1  C    0.000000
     2  H    1.084977   0.000000
     3  C    1.403881   2.150303   0.000000
     4  C    2.509162   2.722914   1.463115   0.000000
     5  C    2.998475   2.656394   2.538453   1.412332   0.000000
     6  C    3.779718   4.135765   2.476297   1.428276   2.437590
     7  C    3.585239   4.468769   2.326700   2.770658   4.182831
     8  C    4.380349   3.991587   3.797095   2.434636   1.382750
     9  H    2.699055   1.999253   2.786428   2.168966   1.084103
    10  C    4.966484   5.107119   3.780275   2.460087   2.796898
    11  C    4.187010   4.839200   2.784754   2.444823   3.726711
    12  H    4.410967   5.378078   3.288649   3.859417   5.271704
    13  C    5.207726   5.054952   4.289903   2.828061   2.424265
    14  H    5.032959   4.441166   4.676061   3.415383   2.140652
    15  H    5.907775   6.135663   4.635488   3.437130   3.883665
    16  H    5.271037   5.918101   3.869840   3.435496   4.609501
    17  H    6.272271   6.059387   5.376099   3.914213   3.404076
    18  N    2.354263   3.338597   1.360852   2.459940   3.767442
    19  C    1.490003   2.205247   2.556240   3.900892   4.488085
    20  H    2.135546   3.091351   2.666351   4.125846   4.997003
    21  H    2.143948   2.567670   3.281351   4.532395   4.977898
    22  H    2.143891   2.568424   3.280470   4.531555   4.977162
                    6          7          8          9         10
     6  C    0.000000
     7  C    2.418086   0.000000
     8  C    2.803939   5.027084   0.000000
     9  H    3.427352   4.828183   2.128450   0.000000
    10  C    1.417669   3.730539   2.413068   3.880693   0.000000
    11  C    1.419405   1.385666   4.223043   4.608653   2.482128
    12  H    3.410760   1.089169   6.095947   5.895835   4.624173
    13  C    2.429830   4.847603   1.410267   3.398795   1.378122
    14  H    3.890051   6.085011   1.086115   2.443608   3.393896
    15  H    2.160439   4.079571   3.405463   4.967515   1.086835
    16  H    2.177066   2.154375   4.872817   5.563575   2.729044
    17  H    3.416414   5.821573   2.166969   4.286751   2.141812
    18  N    2.835198   1.336721   4.894261   4.137228   4.252862
    19  C    5.032008   4.186660   5.870235   4.113929   6.318660
    20  H    5.014515   3.658628   6.349213   4.828452   6.391548
    21  H    5.702913   4.926480   6.340445   4.488122   6.945081
    22  H    5.702006   4.925220   6.339748   4.487425   6.944245
                   11         12         13         14         15
    11  C    0.000000
    12  H    2.148173   0.000000
    13  C    3.737161   5.827951   0.000000
    14  H    5.309142   7.161043   2.165846   0.000000
    15  H    2.703417   4.793993   2.146710   4.300594   0.000000
    16  H    1.085950   2.486337   4.100593   5.943587   2.496980
    17  H    4.620660   6.754844   1.086209   2.491425   2.479704
    18  N    2.408806   2.056706   5.094053   5.861448   4.869787
    19  C    5.131228   4.729914   6.668420   6.500076   7.191684
    20  H    4.807927   3.988246   6.953885   7.101975   7.148932
    21  H    5.850456   5.443161   7.215341   6.886963   7.839238
    22  H    5.849394   5.441793   7.214592   6.886331   7.838384
                   16         17         18         19         20
    16  H    0.000000
    17  H    4.804234   0.000000
    18  N    3.379500   6.154377   0.000000
    19  C    6.172606   7.741167   2.851051   0.000000
    20  H    5.772777   8.039986   2.401485   1.090739   0.000000
    21  H    6.886229   8.268978   3.620561   1.099915   1.784309
    22  H    6.885202   8.268258   3.619304   1.099987   1.784085
                   21         22
    21  H    0.000000
    22  H    1.758780   0.000000
 Stoichiometry    C11H10N(1-)
 Framework group  C1[X(C11H10N)]
 Deg. of freedom    60
 Full point group                 C1      NOp   1
 Largest Abelian subgroup         C1      NOp   1
 Largest concise Abelian subgroup C1      NOp   1
                         Standard orientation:                         
 ---------------------------------------------------------------------
 Center     Atomic      Atomic             Coordinates (Angstroms)
 Number     Number       Type             X           Y           Z
 ---------------------------------------------------------------------
      1          6           0       -2.108208   -1.189998   -0.000577
      2          1           0       -1.723345   -2.204421   -0.001310
      3          6           0       -1.201154   -0.118488   -0.000018
      4          6           0        0.247265   -0.325337    0.000015
      5          6           0        0.862572   -1.596588    0.000424
      6          6           0        1.085986    0.830742   -0.000247
      7          6           0       -0.913645    2.190380    0.000384
      8          6           0        2.239346   -1.725003    0.000349
      9          1           0        0.254781   -2.494290    0.000905
     10          6           0        2.495017    0.674482   -0.000389
     11          6           0        0.469650    2.109351   -0.000149
     12          1           0       -1.401790    3.164035    0.000719
     13          6           0        3.063764   -0.580806   -0.000117
     14          1           0        2.688501   -2.713894    0.000703
     15          1           0        3.117742    1.565225   -0.000669
     16          1           0        1.079633    3.007799   -0.000446
     17          1           0        4.144264   -0.692026   -0.000190
     18          7           0       -1.732929    1.134162    0.000411
     19          6           0       -3.589543   -1.029510   -0.000161
     20          1           0       -3.863574    0.026245   -0.000396
     21          1           0       -4.036378   -1.517096   -0.879030
     22          1           0       -4.035636   -1.516058    0.879750
 ---------------------------------------------------------------------
 Rotational constants (GHZ):           1.7375138           0.7878242           0.5438670
 General basis read from cards:  (5D, 7F)
 ======================================================================================================
                                       Pseudopotential Parameters
 ======================================================================================================
  Center     Atomic      Valence      Angular      Power
  Number     Number     Electrons     Momentum     of R      Exponent        Coefficient   SO-Coeffient
 ======================================================================================================
    1          6
                                   No pseudopotential on this center.
    2          1
                                   No pseudopotential on this center.
    3          6
                                   No pseudopotential on this center.
    4          6
                                   No pseudopotential on this center.
    5          6
                                   No pseudopotential on this center.
    6          6
                                   No pseudopotential on this center.
    7          6
                                   No pseudopotential on this center.
    8          6
                                   No pseudopotential on this center.
    9          1
                                   No pseudopotential on this center.
   10          6
                                   No pseudopotential on this center.
   11          6
                                   No pseudopotential on this center.
   12          1
                                   No pseudopotential on this center.
   13          6
                                   No pseudopotential on this center.
   14          1
                                   No pseudopotential on this center.
   15          1
                                   No pseudopotential on this center.
   16          1
                                   No pseudopotential on this center.
   17          1
                                   No pseudopotential on this center.
   18          7
                                   No pseudopotential on this center.
   19          6
                                   No pseudopotential on this center.
   20          1
                                   No pseudopotential on this center.
   21          1
                                   No pseudopotential on this center.
   22          1
                                   No pseudopotential on this center.
 ======================================================================================================
 There are   200 symmetry adapted cartesian basis functions of A   symmetry.
 There are   188 symmetry adapted basis functions of A   symmetry.
   188 basis functions,   376 primitive gaussians,   200 cartesian basis functions
    42 alpha electrons       42 beta electrons
       nuclear repulsion energy       626.7607144716 Hartrees.
 NAtoms=   22 NActive=   22 NUniq=   22 SFac= 1.00D+00 NAtFMM=   60 NAOKFM=F Big=F
 Integral buffers will be    131072 words long.
 Raffenetti 2 integral format.
 Two-electron integral symmetry is turned on.
 Nuclear repulsion after empirical dispersion term =      626.7160764168 Hartrees.
 One-electron integrals computed using PRISM.
   1 Symmetry operations used in ECPInt.
 ECPInt:  NShTT=    2346 NPrTT=   15124 LenC2=    2250 LenP2D=    9276.
 LDataN:  DoStor=T MaxTD1= 4 Len=   56
 NBasis=   188 RedAO= T EigKep=  3.53D-04  NBF=   188
 NBsUse=   188 1.00D-06 EigRej= -1.00D+00 NBFU=   188
 ExpMin= 1.61D-01 ExpMax= 4.17D+03 ExpMxC= 6.27D+02 IAcc=3 IRadAn=         5 AccDes= 0.00D+00
 Harris functional with IExCor=  402 and IRadAn=       5 diagonalized for initial guess.
 HarFok:  IExCor=  402 AccDes= 0.00D+00 IRadAn=         5 IDoV= 1 UseB2=F ITyADJ=14
 ICtDFT=  3500011 ScaDFX=  1.000000  1.000000  1.000000  1.000000
 FoFCou: FMM=F IPFlag=           0 FMFlag=      100000 FMFlg1=           0
         NFxFlg=           0 DoJE=T BraDBF=F KetDBF=T FulRan=T
         wScrn=  0.000000 ICntrl=       500 IOpCl=  0 I1Cent=   200000004 NGrid=           0
         NMat0=    1 NMatS0=      1 NMatT0=    0 NMatD0=    1 NMtDS0=    0 NMtDT0=    0
 Petite list used in FoFCou.
 Requested convergence on RMS density matrix=1.00D-08 within 128 cycles.
 Requested convergence on MAX density matrix=1.00D-06.
 Requested convergence on             energy=1.00D-06.
 No special actions if energy rises.
 Integral accuracy reduced to 1.0D-05 until final iterations.
 Initial convergence to 1.0D-05 achieved.  Increase integral accuracy.
 SCF Done:  E(RB3LYP) =  -479.980124945     A.U. after   16 cycles
            NFock= 16  Conv=0.25D-08     -V/T= 2.0061

 **********************************************************************

            Population analysis using the SCF Density.

 **********************************************************************

 Orbital symmetries:
       Occupied  (A) (A) (A) (A) (A) (A) (A) (A) (A) (A) (A) (A)
                 (A) (A) (A) (A) (A) (A) (A) (A) (A) (A) (A) (A)
                 (A) (A) (A) (A) (A) (A) (A) (A) (A) (A) (A) (A)
                 (A) (A) (A) (A) (A) (A)
       Virtual   (A) (A) (A) (A) (A) (A) (A) (A) (A) (A) (A) (A)
                 (A) (A) (A) (A) (A) (A) (A) (A) (A) (A) (A) (A)
                 (A) (A) (A) (A) (A) (A) (A) (A) (A) (A) (A) (A)
                 (A) (A) (A) (A) (A) (A) (A) (A) (A) (A) (A) (A)
                 (A) (A) (A) (A) (A) (A) (A) (A) (A) (A) (A) (A)
                 (A) (A) (A) (A) (A) (A) (A) (A) (A) (A) (A) (A)
                 (A) (A) (A) (A) (A) (A) (A) (A) (A) (A) (A) (A)
                 (A) (A) (A) (A) (A) (A) (A) (A) (A) (A) (A) (A)
                 (A) (A) (A) (A) (A) (A) (A) (A) (A) (A) (A) (A)
                 (A) (A) (A) (A) (A) (A) (A) (A) (A) (A) (A) (A)
                 (A) (A) (A) (A) (A) (A) (A) (A) (A) (A) (A) (A)
                 (A) (A) (A) (A) (A) (A) (A) (A) (A) (A) (A) (A)
                 (A) (A)
 The electronic state is 1-A.
 Alpha  occ. eigenvalues --  -14.10959 -10.03632 -10.03145 -10.02747 -10.02723
 Alpha  occ. eigenvalues --  -10.02613 -10.02543 -10.02537 -10.01947 -10.00581
 Alpha  occ. eigenvalues --   -9.98273  -9.96970  -0.73850  -0.68898  -0.61449
 Alpha  occ. eigenvalues --   -0.59818  -0.58117  -0.54447  -0.47905  -0.45407
 Alpha  occ. eigenvalues --   -0.44875  -0.39040  -0.35549  -0.34002  -0.31507
 Alpha  occ. eigenvalues --   -0.29247  -0.27811  -0.25870  -0.24703  -0.24598
 Alpha  occ. eigenvalues --   -0.23517  -0.22587  -0.21061  -0.19288  -0.18721
 Alpha  occ. eigenvalues --   -0.17635  -0.16077  -0.12285  -0.09280  -0.06372
 Alpha  occ. eigenvalues --   -0.05762   0.03391
 Alpha virt. eigenvalues --    0.13920   0.15408   0.22777   0.23138   0.25994
 Alpha virt. eigenvalues --    0.26534   0.27050   0.28960   0.29333   0.30226
 Alpha virt. eigenvalues --    0.32374   0.33096   0.34078   0.38030   0.38970
 Alpha virt. eigenvalues --    0.39311   0.42418   0.43067   0.45183   0.48013
 Alpha virt. eigenvalues --    0.48329   0.51212   0.53066   0.59542   0.62385
 Alpha virt. eigenvalues --    0.64638   0.66847   0.66973   0.70123   0.70521
 Alpha virt. eigenvalues --    0.70759   0.71255   0.72438   0.73337   0.73599
 Alpha virt. eigenvalues --    0.74410   0.75108   0.76344   0.77171   0.77530
 Alpha virt. eigenvalues --    0.78135   0.79433   0.79607   0.82803   0.83254
 Alpha virt. eigenvalues --    0.84546   0.85453   0.88398   0.90053   0.91094
 Alpha virt. eigenvalues --    0.95321   0.97634   0.97865   0.98225   0.99444
 Alpha virt. eigenvalues --    1.01042   1.02941   1.03715   1.03975   1.04297
 Alpha virt. eigenvalues --    1.08241   1.09046   1.09798   1.10069   1.11444
 Alpha virt. eigenvalues --    1.14872   1.15307   1.19308   1.20765   1.22076
 Alpha virt. eigenvalues --    1.22593   1.27197   1.30441   1.34020   1.35163
 Alpha virt. eigenvalues --    1.40749   1.41113   1.43206   1.44095   1.49479
 Alpha virt. eigenvalues --    1.51759   1.53747   1.56406   1.57505   1.60428
 Alpha virt. eigenvalues --    1.61040   1.63784   1.65478   1.66744   1.67955
 Alpha virt. eigenvalues --    1.69605   1.71374   1.74179   1.79518   1.90085
 Alpha virt. eigenvalues --    1.92833   1.94402   1.97132   1.98406   1.99323
 Alpha virt. eigenvalues --    2.03262   2.06701   2.07080   2.09920   2.10659
 Alpha virt. eigenvalues --    2.11802   2.13001   2.17289   2.19624   2.20534
 Alpha virt. eigenvalues --    2.23603   2.30235   2.30979   2.33856   2.36402
 Alpha virt. eigenvalues --    2.39219   2.39224   2.42223   2.43206   2.46445
 Alpha virt. eigenvalues --    2.46746   2.48803   2.51817   2.53380   2.54629
 Alpha virt. eigenvalues --    2.55729   2.58982   2.67599   2.71450   2.76249
 Alpha virt. eigenvalues --    2.79462   2.80460   2.81369   2.82673   2.87663
 Alpha virt. eigenvalues --    2.90826   2.91510   2.94808   2.98798   3.04126
 Alpha virt. eigenvalues --    3.10611   3.12720   3.17554   3.37720   3.54438
 Alpha virt. eigenvalues --    3.65832
          Condensed to atoms (all electrons):
               1          2          3          4          5          6
     1  C    5.276856   0.340006   0.577622  -0.074801  -0.021736   0.007777
     2  H    0.340006   0.710354  -0.018119  -0.018003   0.003322  -0.000123
     3  C    0.577622  -0.018119   4.644740   0.331045  -0.067754  -0.019569
     4  C   -0.074801  -0.018003   0.331045   5.022948   0.435390   0.456170
     5  C   -0.021736   0.003322  -0.067754   0.435390   5.167124  -0.065378
     6  C    0.007777  -0.000123  -0.019569   0.456170  -0.065378   4.695375
     7  C    0.004178  -0.000234  -0.050121  -0.035809  -0.000430   0.005561
     8  C    0.000603   0.000633   0.006686  -0.007216   0.498251  -0.036169
     9  H    0.004375   0.005353  -0.012242  -0.030076   0.342519   0.005231
    10  C   -0.000259   0.000012   0.011639  -0.023544  -0.065417   0.449829
    11  C    0.002206  -0.000026  -0.042149  -0.053476   0.015417   0.460889
    12  H   -0.000494   0.000006   0.002307   0.002160   0.000052   0.001055
    13  C    0.000006  -0.000011  -0.000132  -0.041703  -0.017870   0.000327
    14  H    0.000006   0.000001  -0.000184   0.002964  -0.043342   0.001093
    15  H    0.000002   0.000000  -0.000154   0.005805   0.000536  -0.039153
    16  H    0.000014  -0.000000   0.000110   0.007382  -0.000147  -0.047038
    17  H   -0.000000  -0.000000   0.000013   0.001118   0.004545   0.002945
    18  N   -0.101553   0.005046   0.427525  -0.039984   0.009764  -0.051521
    19  C    0.344125  -0.072876   0.004185   0.008135  -0.000010  -0.000180
    20  H   -0.035248   0.005279  -0.007264   0.000519  -0.000014   0.000029
    21  H   -0.044616  -0.000074  -0.002487  -0.000051  -0.000006   0.000005
    22  H   -0.044693  -0.000057  -0.002512  -0.000052  -0.000006   0.000005
               7          8          9         10         11         12
     1  C    0.004178   0.000603   0.004375  -0.000259   0.002206  -0.000494
     2  H   -0.000234   0.000633   0.005353   0.000012  -0.000026   0.000006
     3  C   -0.050121   0.006686  -0.012242   0.011639  -0.042149   0.002307
     4  C   -0.035809  -0.007216  -0.030076  -0.023544  -0.053476   0.002160
     5  C   -0.000430   0.498251   0.342519  -0.065417   0.015417   0.000052
     6  C    0.005561  -0.036169   0.005231   0.449829   0.460889   0.001055
     7  C    4.787322   0.000024  -0.000007   0.007903   0.463781   0.351442
     8  C    0.000024   4.949923  -0.058322  -0.024811  -0.000165  -0.000001
     9  H   -0.000007  -0.058322   0.650084   0.000672  -0.000171   0.000000
    10  C    0.007903  -0.024811   0.000672   5.162663  -0.100747  -0.000242
    11  C    0.463781  -0.000165  -0.000171  -0.100747   5.341774  -0.074570
    12  H    0.351442  -0.000001   0.000000  -0.000242  -0.074570   0.724342
    13  C   -0.000339   0.524023   0.004811   0.506436   0.008869   0.000004
    14  H   -0.000000   0.346355  -0.006593   0.004858   0.000012   0.000000
    15  H    0.000146   0.005071   0.000023   0.341845  -0.011650  -0.000011
    16  H   -0.046798   0.000005   0.000003  -0.013105   0.322956  -0.002148
    17  H    0.000003  -0.047720  -0.000231  -0.043992  -0.000228  -0.000000
    18  N    0.520060  -0.000156   0.000055   0.000071  -0.050000  -0.054315
    19  C    0.000449  -0.000009  -0.000210   0.000002  -0.000044   0.000048
    20  H   -0.000314   0.000001  -0.000000   0.000000   0.000065  -0.000145
    21  H    0.000013  -0.000000  -0.000004  -0.000000  -0.000001  -0.000002
    22  H    0.000013  -0.000000  -0.000005  -0.000000  -0.000001  -0.000002
              13         14         15         16         17         18
     1  C    0.000006   0.000006   0.000002   0.000014  -0.000000  -0.101553
     2  H   -0.000011   0.000001   0.000000  -0.000000  -0.000000   0.005046
     3  C   -0.000132  -0.000184  -0.000154   0.000110   0.000013   0.427525
     4  C   -0.041703   0.002964   0.005805   0.007382   0.001118  -0.039984
     5  C   -0.017870  -0.043342   0.000536  -0.000147   0.004545   0.009764
     6  C    0.000327   0.001093  -0.039153  -0.047038   0.002945  -0.051521
     7  C   -0.000339  -0.000000   0.000146  -0.046798   0.000003   0.520060
     8  C    0.524023   0.346355   0.005071   0.000005  -0.047720  -0.000156
     9  H    0.004811  -0.006593   0.000023   0.000003  -0.000231   0.000055
    10  C    0.506436   0.004858   0.341845  -0.013105  -0.043992   0.000071
    11  C    0.008869   0.000012  -0.011650   0.322956  -0.000228  -0.050000
    12  H    0.000004   0.000000  -0.000011  -0.002148  -0.000000  -0.054315
    13  C    4.912314  -0.049548  -0.059341   0.000097   0.343691  -0.000002
    14  H   -0.049548   0.691180  -0.000228   0.000000  -0.006414   0.000001
    15  H   -0.059341  -0.000228   0.686423   0.008589  -0.006840   0.000014
    16  H    0.000097   0.000000   0.008589   0.730952  -0.000013   0.005917
    17  H    0.343691  -0.006414  -0.006840  -0.000013   0.689842  -0.000000
    18  N   -0.000002   0.000001   0.000014   0.005917  -0.000000   6.811780
    19  C    0.000000  -0.000000  -0.000000  -0.000000   0.000000  -0.025193
    20  H   -0.000000  -0.000000  -0.000000  -0.000002   0.000000   0.030292
    21  H   -0.000000   0.000000   0.000000  -0.000000  -0.000000   0.001246
    22  H   -0.000000   0.000000   0.000000  -0.000000  -0.000000   0.001250
              19         20         21         22
     1  C    0.344125  -0.035248  -0.044616  -0.044693
     2  H   -0.072876   0.005279  -0.000074  -0.000057
     3  C    0.004185  -0.007264  -0.002487  -0.002512
     4  C    0.008135   0.000519  -0.000051  -0.000052
     5  C   -0.000010  -0.000014  -0.000006  -0.000006
     6  C   -0.000180   0.000029   0.000005   0.000005
     7  C    0.000449  -0.000314   0.000013   0.000013
     8  C   -0.000009   0.000001  -0.000000  -0.000000
     9  H   -0.000210  -0.000000  -0.000004  -0.000005
    10  C    0.000002   0.000000  -0.000000  -0.000000
    11  C   -0.000044   0.000065  -0.000001  -0.000001
    12  H    0.000048  -0.000145  -0.000002  -0.000002
    13  C    0.000000  -0.000000  -0.000000  -0.000000
    14  H   -0.000000  -0.000000   0.000000   0.000000
    15  H   -0.000000  -0.000000   0.000000   0.000000
    16  H   -0.000000  -0.000002  -0.000000  -0.000000
    17  H    0.000000   0.000000  -0.000000  -0.000000
    18  N   -0.025193   0.030292   0.001246   0.001250
    19  C    5.128154   0.359093   0.356778   0.356801
    20  H    0.359093   0.550011  -0.028624  -0.028681
    21  H    0.356778  -0.028624   0.693063  -0.057741
    22  H    0.356801  -0.028681  -0.057741   0.693167
 Mulliken charges:
               1
     1  C   -0.234379
     2  H    0.039511
     3  C    0.216815
     4  C    0.051078
     5  C   -0.194809
     6  C    0.172839
     7  C   -0.006844
     8  C   -0.157006
     9  H    0.094735
    10  C   -0.213811
    11  C   -0.282743
    12  H    0.050512
    13  C   -0.131631
    14  H    0.059839
    15  H    0.068922
    16  H    0.033225
    17  H    0.063281
    18  N   -0.490297
    19  C   -0.459249
    20  H    0.155001
    21  H    0.082501
    22  H    0.082511
 Sum of Mulliken charges =  -1.00000
 Mulliken charges with hydrogens summed into heavy atoms:
               1
     1  C   -0.194868
     3  C    0.216815
     4  C    0.051078
     5  C   -0.100074
     6  C    0.172839
     7  C    0.043668
     8  C   -0.097167
    10  C   -0.144889
    11  C   -0.249518
    13  C   -0.068350
    18  N   -0.490297
    19  C   -0.139236
 Electronic spatial extent (au):  <R**2>=           2088.8581
 Charge=             -1.0000 electrons
 Dipole moment (field-independent basis, Debye):
    X=              3.2482    Y=             -0.9557    Z=              0.0000  Tot=              3.3858
 Quadrupole moment (field-independent basis, Debye-Ang):
   XX=            -95.8771   YY=            -80.3027   ZZ=            -77.4684
   XY=              0.5132   XZ=              0.0001   YZ=             -0.0016
 Traceless Quadrupole moment (field-independent basis, Debye-Ang):
   XX=            -11.3277   YY=              4.2467   ZZ=              7.0810
   XY=              0.5132   XZ=              0.0001   YZ=             -0.0016
 Octapole moment (field-independent basis, Debye-Ang**2):
  XXX=             39.4911  YYY=             -5.5072  ZZZ=              0.0029  XYY=              5.6881
  XXY=             10.2497  XXZ=             -0.0040  XZZ=             -3.0527  YZZ=              0.5661
  YYZ=              0.0007  XYZ=             -0.0012
 Hexadecapole moment (field-independent basis, Debye-Ang**3):
 XXXX=          -2164.1274 YYYY=           -950.1513 ZZZZ=            -88.5368 XXXY=            -28.8171
 XXXZ=              0.0092 YYYX=            -12.3862 YYYZ=             -0.0032 ZZZX=             -0.0042
 ZZZY=             -0.0004 XXYY=           -514.0857 XXZZ=           -364.3154 YYZZ=           -185.2900
 XXYZ=             -0.0052 YYXZ=              0.0052 ZZXY=             -0.7957
 N-N= 6.267160764168D+02 E-N=-2.381612558149D+03  KE= 4.770576002234D+02
   1 Symmetry operations used in ECPInt.
 ECPInt:  NShTT=    2346 NPrTT=   15124 LenC2=    2250 LenP2D=    9276.
 LDataN:  DoStor=T MaxTD1= 5 Len=  102
 Calling FoFJK, ICntrl=      2127 FMM=F ISym2X=0 I1Cent= 0 IOpClX= 0 NMat=1 NMatS=1 NMatT=0.
 ***** Axes restored to original set *****
 -------------------------------------------------------------------
 Center     Atomic                   Forces (Hartrees/Bohr)
 Number     Number              X              Y              Z
 -------------------------------------------------------------------
      1        6           0.023162801    0.015736356   -0.000008324
      2        1          -0.000544266   -0.001886942    0.000002214
      3        6          -0.029946493   -0.039035430   -0.000031844
      4        6           0.012112100   -0.007268377    0.000008024
      5        6          -0.006302668    0.010909779   -0.000001691
      6        6          -0.001584816    0.007378765    0.000004917
      7        6          -0.004112153   -0.019927263   -0.000014754
      8        6           0.012508528   -0.000438762   -0.000002073
      9        1          -0.001474193   -0.000015722    0.000001480
     10        6          -0.002334442   -0.001229657   -0.000002906
     11        6           0.005696399    0.008005010   -0.000008606
     12        1          -0.001419415    0.003690850    0.000000578
     13        6          -0.001890515   -0.007756241    0.000000649
     14        1           0.001238805   -0.001726581   -0.000000251
     15        1           0.000714594    0.001487950    0.000000963
     16        1           0.001851916    0.001230761    0.000006663
     17        1           0.002349234   -0.000473578   -0.000000251
     18        7          -0.003765604    0.034295541    0.000031830
     19        6           0.004094496   -0.004095932    0.000057262
     20        1           0.000557328    0.001440363   -0.000018617
     21        1          -0.005456520   -0.000159650   -0.002569353
     22        1          -0.005455115   -0.000161242    0.002544091
 -------------------------------------------------------------------
 Cartesian Forces:  Max     0.039035430 RMS     0.009290250

 GradGradGradGradGradGradGradGradGradGradGradGradGradGradGradGradGradGrad
 Berny optimization.
 FormGI is forming the generalized inverse of G from B-inverse, IUseBI=4.
 Internal  Forces:  Max     0.024623997 RMS     0.004498686
 Search for a local minimum.
 Step number   1 out of a maximum of  132
 All quantities printed in internal units (Hartrees-Bohrs-Radians)
 Mixed Optimization -- RFO/linear search
 Second derivative matrix not updated -- first step.
 ITU=  0
     Eigenvalues ---    0.00898   0.01364   0.01530   0.01682   0.01758
     Eigenvalues ---    0.01827   0.01949   0.02037   0.02040   0.02044
     Eigenvalues ---    0.02058   0.02120   0.02144   0.02174   0.02243
     Eigenvalues ---    0.02315   0.02370   0.07278   0.07419   0.16000
     Eigenvalues ---    0.16000   0.16000   0.16000   0.16000   0.16000
     Eigenvalues ---    0.16000   0.16000   0.16000   0.16000   0.22000
     Eigenvalues ---    0.22000   0.22347   0.22657   0.24298   0.24618
     Eigenvalues ---    0.25000   0.25000   0.33449   0.33684   0.33692
     Eigenvalues ---    0.34727   0.34909   0.35181   0.35254   0.35265
     Eigenvalues ---    0.35285   0.35400   0.35409   0.35503   0.37668
     Eigenvalues ---    0.40591   0.41445   0.42478   0.43560   0.44983
     Eigenvalues ---    0.46691   0.47304   0.48640   0.51403   0.56396
 RFO step:  Lambda=-6.27614288D-03 EMin= 8.98184172D-03
 Linear search not attempted -- first point.
 Iteration  1 RMS(Cart)=  0.01809988 RMS(Int)=  0.00027993
 Iteration  2 RMS(Cart)=  0.00025337 RMS(Int)=  0.00017197
 Iteration  3 RMS(Cart)=  0.00000007 RMS(Int)=  0.00017197
 Variable       Old X    -DE/DX   Delta X   Delta X   Delta X     New X
                                 (Linear)    (Quad)   (Total)
    R1        2.05031   0.00157   0.00000   0.00436   0.00436   2.05467
    R2        2.65295  -0.01887   0.00000  -0.04137  -0.04137   2.61158
    R3        2.81570   0.00590   0.00000   0.01732   0.01732   2.83302
    R4        2.76489   0.01602   0.00000   0.04517   0.04519   2.81008
    R5        2.57164   0.02462   0.00000   0.04720   0.04725   2.61889
    R6        2.66892  -0.00397   0.00000  -0.00906  -0.00906   2.65986
    R7        2.69905   0.00556   0.00000   0.01367   0.01362   2.71267
    R8        2.61302   0.00983   0.00000   0.01993   0.01995   2.63297
    R9        2.04866   0.00084   0.00000   0.00232   0.00232   2.05098
   R10        2.67901   0.00372   0.00000   0.00859   0.00857   2.68758
   R11        2.68229   0.00109   0.00000   0.00113   0.00108   2.68336
   R12        2.61853   0.00588   0.00000   0.01049   0.01047   2.62900
   R13        2.05823   0.00394   0.00000   0.01107   0.01107   2.06931
   R14        2.52604  -0.00647   0.00000  -0.01141  -0.01139   2.51465
   R15        2.66502  -0.00547   0.00000  -0.01221  -0.01219   2.65283
   R16        2.05246   0.00208   0.00000   0.00581   0.00581   2.05827
   R17        2.60427   0.00626   0.00000   0.01259   0.01259   2.61686
   R18        2.05382   0.00163   0.00000   0.00455   0.00455   2.05837
   R19        2.05215   0.00206   0.00000   0.00573   0.00573   2.05788
   R20        2.05264   0.00239   0.00000   0.00665   0.00665   2.05929
   R21        2.06120   0.00125   0.00000   0.00355   0.00355   2.06475
   R22        2.07854   0.00434   0.00000   0.01265   0.01265   2.09118
   R23        2.07867   0.00432   0.00000   0.01259   0.01259   2.09126
    A1        2.07651   0.00208   0.00000   0.01111   0.01111   2.08762
    A2        2.04133  -0.00034   0.00000  -0.00342  -0.00342   2.03792
    A3        2.16535  -0.00174   0.00000  -0.00770  -0.00770   2.15765
    A4        2.13142  -0.00042   0.00000  -0.00406  -0.00410   2.12732
    A5        2.03766   0.01024   0.00000   0.03754   0.03750   2.07516
    A6        2.11411  -0.00982   0.00000  -0.03347  -0.03341   2.08071
    A7        2.16343  -0.00139   0.00000  -0.00684  -0.00681   2.15662
    A8        2.05657   0.00299   0.00000   0.01536   0.01535   2.07192
    A9        2.06319  -0.00159   0.00000  -0.00852  -0.00854   2.05464
   A10        2.11458   0.00554   0.00000   0.02386   0.02386   2.13844
   A11        2.09566  -0.00401   0.00000  -0.01940  -0.01940   2.07626
   A12        2.07295  -0.00153   0.00000  -0.00446  -0.00446   2.06849
   A13        2.08798  -0.00358   0.00000  -0.01328  -0.01328   2.07470
   A14        2.06479   0.00225   0.00000   0.00682   0.00675   2.07154
   A15        2.13042   0.00133   0.00000   0.00645   0.00653   2.13695
   A16        2.09404  -0.00510   0.00000  -0.02087  -0.02087   2.07316
   A17        2.17202   0.00941   0.00000   0.03697   0.03697   2.20899
   A18        2.01713  -0.00431   0.00000  -0.01610  -0.01610   2.00103
   A19        2.10216  -0.00344   0.00000  -0.01549  -0.01546   2.08670
   A20        2.09014   0.00214   0.00000   0.01030   0.01028   2.10042
   A21        2.09088   0.00129   0.00000   0.00519   0.00518   2.09606
   A22        2.10666   0.00373   0.00000   0.01637   0.01634   2.12300
   A23        2.07048  -0.00214   0.00000  -0.00983  -0.00982   2.06066
   A24        2.10605  -0.00159   0.00000  -0.00654  -0.00653   2.09953
   A25        2.07848  -0.00334   0.00000  -0.02146  -0.02154   2.05694
   A26        2.09597   0.00081   0.00000   0.00554   0.00558   2.10156
   A27        2.10873   0.00253   0.00000   0.01592   0.01596   2.12469
   A28        2.09181  -0.00066   0.00000  -0.00294  -0.00293   2.08889
   A29        2.09259   0.00009   0.00000   0.00005   0.00004   2.09263
   A30        2.09878   0.00056   0.00000   0.00290   0.00289   2.10167
   A31        2.08040  -0.00149   0.00000  -0.00423  -0.00412   2.07628
   A32        1.93267  -0.00397   0.00000  -0.02952  -0.02924   1.90343
   A33        1.93469   0.00569   0.00000   0.03699   0.03649   1.97117
   A34        1.93453   0.00572   0.00000   0.03723   0.03673   1.97126
   A35        1.90376  -0.00199   0.00000  -0.01732  -0.01706   1.88669
   A36        1.90331  -0.00197   0.00000  -0.01708  -0.01682   1.88649
   A37        1.85286  -0.00362   0.00000  -0.01075  -0.01189   1.84097
    D1       -0.00033   0.00000   0.00000   0.00007   0.00007  -0.00025
    D2        3.14119   0.00000   0.00000   0.00014   0.00014   3.14134
    D3        3.14121   0.00000   0.00000   0.00012   0.00012   3.14133
    D4       -0.00045   0.00000   0.00000   0.00019   0.00019  -0.00026
    D5       -3.14064   0.00001   0.00000   0.00015   0.00015  -3.14049
    D6       -1.02518  -0.00135   0.00000  -0.01676  -0.01730  -1.04248
    D7        1.02775   0.00134   0.00000   0.01659   0.01713   1.04488
    D8        0.00101   0.00001   0.00000   0.00011   0.00010   0.00111
    D9        2.11647  -0.00135   0.00000  -0.01680  -0.01734   2.09912
   D10       -2.11379   0.00133   0.00000   0.01654   0.01708  -2.09671
   D11       -0.00079   0.00000   0.00000   0.00003   0.00003  -0.00076
   D12        3.14092   0.00000   0.00000  -0.00002  -0.00003   3.14089
   D13        3.14088  -0.00000   0.00000  -0.00004  -0.00004   3.14083
   D14       -0.00060  -0.00000   0.00000  -0.00010  -0.00010  -0.00070
   D15       -3.14111   0.00000   0.00000   0.00010   0.00010  -3.14101
   D16        0.00042   0.00000   0.00000   0.00017   0.00017   0.00058
   D17        3.14152  -0.00000   0.00000  -0.00011  -0.00011   3.14141
   D18       -0.00018  -0.00000   0.00000  -0.00007  -0.00007  -0.00025
   D19       -0.00019  -0.00000   0.00000  -0.00005  -0.00005  -0.00024
   D20        3.14130  -0.00000   0.00000  -0.00001  -0.00001   3.14129
   D21       -3.14146   0.00000   0.00000   0.00007   0.00007  -3.14139
   D22        0.00030   0.00000   0.00000   0.00002   0.00002   0.00032
   D23        0.00024   0.00000   0.00000   0.00002   0.00002   0.00026
   D24       -3.14119  -0.00000   0.00000  -0.00003  -0.00003  -3.14122
   D25        0.00002   0.00000   0.00000   0.00004   0.00004   0.00006
   D26        3.14156   0.00000   0.00000   0.00004   0.00004  -3.14159
   D27       -3.14147  -0.00000   0.00000  -0.00000  -0.00000  -3.14147
   D28        0.00007  -0.00000   0.00000   0.00000   0.00000   0.00007
   D29       -0.00013   0.00000   0.00000   0.00002   0.00002  -0.00012
   D30        3.14151   0.00000   0.00000   0.00001   0.00001   3.14151
   D31        3.14128   0.00000   0.00000   0.00007   0.00007   3.14136
   D32       -0.00026   0.00000   0.00000   0.00006   0.00006  -0.00020
   D33        0.00016   0.00000   0.00000  -0.00000  -0.00000   0.00016
   D34       -3.14148  -0.00000   0.00000  -0.00011  -0.00011  -3.14159
   D35       -3.14127  -0.00000   0.00000  -0.00006  -0.00006  -3.14132
   D36        0.00028  -0.00000   0.00000  -0.00016  -0.00016   0.00012
   D37        3.14132  -0.00000   0.00000  -0.00006  -0.00006   3.14126
   D38       -0.00022   0.00000   0.00000   0.00005   0.00005  -0.00018
   D39       -0.00037   0.00000   0.00000   0.00007   0.00007  -0.00030
   D40        3.14126   0.00001   0.00000   0.00018   0.00018   3.14145
   D41        0.00008  -0.00001   0.00000  -0.00017  -0.00017  -0.00009
   D42        3.14157  -0.00000   0.00000  -0.00004  -0.00004   3.14153
   D43        0.00009   0.00000   0.00000   0.00001   0.00001   0.00010
   D44       -3.14157  -0.00000   0.00000  -0.00001  -0.00001  -3.14158
   D45       -3.14144   0.00000   0.00000   0.00000   0.00000  -3.14144
   D46        0.00007  -0.00000   0.00000  -0.00001  -0.00001   0.00006
   D47       -0.00003  -0.00000   0.00000  -0.00003  -0.00003  -0.00007
   D48       -3.14155  -0.00000   0.00000  -0.00002  -0.00002  -3.14157
   D49        3.14151  -0.00000   0.00000  -0.00002  -0.00002   3.14149
   D50       -0.00001  -0.00000   0.00000  -0.00001  -0.00001  -0.00002
         Item               Value     Threshold  Converged?
 Maximum Force            0.024624     0.000450     NO 
 RMS     Force            0.004499     0.000300     NO 
 Maximum Displacement     0.072976     0.001800     NO 
 RMS     Displacement     0.018004     0.001200     NO 
 Predicted change in Energy=-3.210681D-03
 GradGradGradGradGradGradGradGradGradGradGradGradGradGradGradGradGradGrad

                          Input orientation:                          
 ---------------------------------------------------------------------
 Center     Atomic      Atomic             Coordinates (Angstroms)
 Number     Number       Type             X           Y           Z
 ---------------------------------------------------------------------
      1          6           0       -2.103402   -1.199720   -0.000453
      2          1           0       -1.709785   -2.213255   -0.001097
      3          6           0       -1.230621   -0.128205    0.000074
      4          6           0        0.244428   -0.316573    0.000108
      5          6           0        0.867798   -1.578542    0.000509
      6          6           0        1.087979    0.844905   -0.000213
      7          6           0       -0.909149    2.189981    0.000406
      8          6           0        2.252862   -1.729886    0.000322
      9          1           0        0.249140   -2.470287    0.001046
     10          6           0        2.499222    0.668666   -0.000439
     11          6           0        0.480700    2.128471   -0.000154
     12          1           0       -1.393459    3.172088    0.000775
     13          6           0        3.073935   -0.591228   -0.000218
     14          1           0        2.697776   -2.724060    0.000641
     15          1           0        3.126868    1.558894   -0.000759
     16          1           0        1.093900    3.028399   -0.000396
     17          1           0        4.157897   -0.703173   -0.000377
     18          7           0       -1.748384    1.157297    0.000581
     19          6           0       -3.595571   -1.054997   -0.000179
     20          1           0       -3.850988    0.007346   -0.000662
     21          1           0       -4.074576   -1.524151   -0.880536
     22          1           0       -4.074253   -1.523065    0.880982
 ---------------------------------------------------------------------
                    Distance matrix (angstroms):
                    1          2          3          4          5
     1  C    0.000000
     2  H    1.087284   0.000000
     3  C    1.381989   2.139400   0.000000
     4  C    2.508436   2.723298   1.487028   0.000000
     5  C    2.995252   2.654580   2.550851   1.407536   0.000000
     6  C    3.790172   4.144855   2.514527   1.435483   2.433429
     7  C    3.593928   4.475433   2.340369   2.759267   4.166450
     8  C    4.388406   3.992019   3.834062   2.455862   1.393308
     9  H    2.673723   1.975716   2.770387   2.153719   1.085333
    10  C    4.967395   5.101098   3.814017   2.460649   2.776957
    11  C    4.213602   4.863004   2.832173   2.456433   3.727170
    12  H    4.429078   5.394625   3.304307   3.854015   5.261347
    13  C    5.212973   5.051233   4.329387   2.842806   2.416988
    14  H    5.037352   4.437061   4.708584   3.437282   2.158942
    15  H    5.913178   6.133704   4.672688   3.438872   3.866123
    16  H    5.300918   5.944374   3.920146   3.451151   4.612487
    17  H    6.280957   6.058881   5.419106   3.932519   3.404559
    18  N    2.383605   3.370773   1.385855   2.478627   3.785397
    19  C    1.499171   2.213086   2.540065   3.910353   4.493969
    20  H    2.123927   3.084772   2.623870   4.108205   4.978150
    21  H    2.182963   2.615437   3.288194   4.570292   5.020583
    22  H    2.183056   2.616321   3.287534   4.569745   5.020177
                    6          7          8          9         10
     6  C    0.000000
     7  C    2.407852   0.000000
     8  C    2.826040   5.036236   0.000000
     9  H    3.419671   4.802055   2.136140   0.000000
    10  C    1.422205   3.732478   2.411171   3.862110   0.000000
    11  C    1.419975   1.391209   4.245878   4.604584   2.491077
    12  H    3.401957   1.095030   6.109419   5.876608   4.628184
    13  C    2.450816   4.857992   1.403818   3.392689   1.384784
    14  H    3.915222   6.095712   1.089188   2.461751   3.398531
    15  H    2.160289   4.085059   3.402935   4.951326   1.089242
    16  H    2.183502   2.171440   4.897395   5.563198   2.746502
    17  H    3.438160   5.834834   2.164094   4.289648   2.152474
    18  N    2.853515   1.330696   4.934146   4.141192   4.275619
    19  C    5.054232   4.212688   5.887243   4.096931   6.333838
    20  H    5.009481   3.663101   6.346255   4.790586   6.384552
    21  H    5.747988   4.958907   6.391768   4.512967   6.985544
    22  H    5.747384   4.957823   6.391457   4.512565   6.985067
                   11         12         13         14         15
    11  C    0.000000
    12  H    2.145136   0.000000
    13  C    3.757876   5.841246   0.000000
    14  H    5.335024   7.176542   2.165750   0.000000
    15  H    2.706774   4.799557   2.150774   4.304396   0.000000
    16  H    1.088984   2.491506   4.125802   5.971868   2.508467
    17  H    4.641119   6.770170   1.089727   2.493179   2.485954
    18  N    2.431460   2.045814   5.129533   5.901972   4.891765
    19  C    5.172084   4.766292   6.685611   6.510912   7.212739
    20  H    4.823141   4.006874   6.950745   7.095554   7.148271
    21  H    5.904850   5.479028   7.262680   6.934046   7.882891
    22  H    5.904042   5.477763   7.262330   6.933813   7.882391
                   16         17         18         19         20
    16  H    0.000000
    17  H    4.828324   0.000000
    18  N    3.402882   6.192375   0.000000
    19  C    6.218140   7.761446   2.882073   0.000000
    20  H    5.794711   8.040340   2.396524   1.092617   0.000000
    21  H    6.943594   8.319994   3.657553   1.106607   1.780352
    22  H    6.942799   8.319694   3.656380   1.106647   1.780253
                   21         22
    21  H    0.000000
    22  H    1.761518   0.000000
 Stoichiometry    C11H10N(1-)
 Framework group  C1[X(C11H10N)]
 Deg. of freedom    60
 Full point group                 C1      NOp   1
 Largest Abelian subgroup         C1      NOp   1
 Largest concise Abelian subgroup C1      NOp   1
                         Standard orientation:                         
 ---------------------------------------------------------------------
 Center     Atomic      Atomic             Coordinates (Angstroms)
 Number     Number       Type             X           Y           Z
 ---------------------------------------------------------------------
      1          6           0       -2.106340   -1.195699   -0.000480
      2          1           0       -1.715282   -2.210223   -0.001124
      3          6           0       -1.230858   -0.126389    0.000047
      4          6           0        0.243710   -0.318479    0.000081
      5          6           0        0.863894   -1.582017    0.000482
      6          6           0        1.090189    0.840867   -0.000240
      7          6           0       -0.903538    2.190978    0.000378
      8          6           0        2.248572   -1.736855    0.000294
      9          1           0        0.242988   -2.472198    0.001019
     10          6           0        2.500983    0.661067   -0.000466
     11          6           0        0.486151    2.125961   -0.000182
     12          1           0       -1.385368    3.174304    0.000748
     13          6           0        3.072516   -0.600272   -0.000245
     14          1           0        2.690976   -2.732149    0.000614
     15          1           0        3.130874    1.549710   -0.000786
     16          1           0        1.101620    3.024340   -0.000423
     17          1           0        4.156192   -0.714952   -0.000404
     18          7           0       -1.745376    1.160415    0.000554
     19          6           0       -3.598139   -1.047211   -0.000206
     20          1           0       -3.850875    0.015773   -0.000689
     21          1           0       -4.078326   -1.515155   -0.880563
     22          1           0       -4.078001   -1.514070    0.880954
 ---------------------------------------------------------------------
 Rotational constants (GHZ):           1.7218462           0.7823746           0.5397400
 Basis read from rwf:  (5D, 7F)
 Pseudo-potential data read from rwf file.
 There are   200 symmetry adapted cartesian basis functions of A   symmetry.
 There are   188 symmetry adapted basis functions of A   symmetry.
   188 basis functions,   376 primitive gaussians,   200 cartesian basis functions
    42 alpha electrons       42 beta electrons
       nuclear repulsion energy       624.6040965100 Hartrees.
 NAtoms=   22 NActive=   22 NUniq=   22 SFac= 1.00D+00 NAtFMM=   60 NAOKFM=F Big=F
 Integral buffers will be    131072 words long.
 Raffenetti 2 integral format.
 Two-electron integral symmetry is turned on.
 Nuclear repulsion after empirical dispersion term =      624.5595838620 Hartrees.
 One-electron integrals computed using PRISM.
   1 Symmetry operations used in ECPInt.
 ECPInt:  NShTT=    2346 NPrTT=   15124 LenC2=    2249 LenP2D=    9261.
 LDataN:  DoStor=T MaxTD1= 4 Len=   56
 NBasis=   188 RedAO= T EigKep=  3.63D-04  NBF=   188
 NBsUse=   188 1.00D-06 EigRej= -1.00D+00 NBFU=   188
 Initial guess from the checkpoint file:  "/tmp/Gau-59922.chk"
 B after Tr=    -0.000000    0.000000    0.000000
         Rot=    1.000000   -0.000001   -0.000007    0.000902 Ang=  -0.10 deg.
 ExpMin= 1.61D-01 ExpMax= 4.17D+03 ExpMxC= 6.27D+02 IAcc=3 IRadAn=         5 AccDes= 0.00D+00
 Harris functional with IExCor=  402 and IRadAn=       5 diagonalized for initial guess.
 HarFok:  IExCor=  402 AccDes= 0.00D+00 IRadAn=         5 IDoV= 1 UseB2=F ITyADJ=14
 ICtDFT=  3500011 ScaDFX=  1.000000  1.000000  1.000000  1.000000
 FoFCou: FMM=F IPFlag=           0 FMFlag=      100000 FMFlg1=           0
         NFxFlg=           0 DoJE=T BraDBF=F KetDBF=T FulRan=T
         wScrn=  0.000000 ICntrl=       500 IOpCl=  0 I1Cent=   200000004 NGrid=           0
         NMat0=    1 NMatS0=      1 NMatT0=    0 NMatD0=    1 NMtDS0=    0 NMtDT0=    0
 Petite list used in FoFCou.
 Requested convergence on RMS density matrix=1.00D-08 within 128 cycles.
 Requested convergence on MAX density matrix=1.00D-06.
 Requested convergence on             energy=1.00D-06.
 No special actions if energy rises.
 Integral accuracy reduced to 1.0D-05 until final iterations.
 Initial convergence to 1.0D-05 achieved.  Increase integral accuracy.
 SCF Done:  E(RB3LYP) =  -479.983767992     A.U. after   13 cycles
            NFock= 13  Conv=0.49D-08     -V/T= 2.0065
   1 Symmetry operations used in ECPInt.
 ECPInt:  NShTT=    2346 NPrTT=   15124 LenC2=    2249 LenP2D=    9261.
 LDataN:  DoStor=T MaxTD1= 5 Len=  102
 Calling FoFJK, ICntrl=      2127 FMM=F ISym2X=0 I1Cent= 0 IOpClX= 0 NMat=1 NMatS=1 NMatT=0.
 ***** Axes restored to original set *****
 -------------------------------------------------------------------
 Center     Atomic                   Forces (Hartrees/Bohr)
 Number     Number              X              Y              Z
 -------------------------------------------------------------------
      1        6           0.003887860    0.004332253    0.000001667
      2        1          -0.000230045    0.000362289    0.000001397
      3        6          -0.005733837   -0.011120773   -0.000005884
      4        6           0.005674722   -0.003033332    0.000001510
      5        6          -0.002554857    0.003883899   -0.000001770
      6        6           0.000465090    0.002629755    0.000000513
      7        6          -0.002334460   -0.006755830    0.000000603
      8        6           0.002740341   -0.000791794    0.000000584
      9        1          -0.000154194   -0.000473810    0.000000816
     10        6          -0.001372947   -0.000724131   -0.000000959
     11        6           0.001969882    0.001405209   -0.000007006
     12        1          -0.000076563    0.001263411   -0.000001766
     13        6          -0.001252549   -0.001065756    0.000001021
     14        1          -0.000737695    0.000125097   -0.000000295
     15        1           0.000149047    0.000199758    0.000000501
     16        1          -0.000736837   -0.000498529    0.000003588
     17        1           0.000074210    0.000629369   -0.000000615
     18        7          -0.000374271    0.009080528    0.000007738
     19        6           0.001098765   -0.000942501    0.000012441
     20        1          -0.000333092    0.000802418   -0.000003402
     21        1          -0.000087140    0.000346697   -0.000044740
     22        1          -0.000081431    0.000345772    0.000034059
 -------------------------------------------------------------------
 Cartesian Forces:  Max     0.011120773 RMS     0.002523615

 GradGradGradGradGradGradGradGradGradGradGradGradGradGradGradGradGradGrad
 Berny optimization.
 Using GEDIIS/GDIIS optimizer.
 FormGI is forming the generalized inverse of G from B-inverse, IUseBI=4.
 Internal  Forces:  Max     0.006756224 RMS     0.001156179
 Search for a local minimum.
 Step number   2 out of a maximum of  132
 All quantities printed in internal units (Hartrees-Bohrs-Radians)
 Mixed Optimization -- RFO/linear search
 Update second derivatives using D2CorX and points    1    2
 DE= -3.64D-03 DEPred=-3.21D-03 R= 1.13D+00
 TightC=F SS=  1.41D+00  RLast= 1.47D-01 DXNew= 5.0454D-01 4.4051D-01
 Trust test= 1.13D+00 RLast= 1.47D-01 DXMaxT set to 4.41D-01
 ITU=  1  0
 Use linear search instead of GDIIS.
     Eigenvalues ---    0.00898   0.01369   0.01534   0.01680   0.01770
     Eigenvalues ---    0.01828   0.01950   0.02037   0.02042   0.02044
     Eigenvalues ---    0.02059   0.02121   0.02144   0.02176   0.02243
     Eigenvalues ---    0.02319   0.02371   0.07041   0.07344   0.15752
     Eigenvalues ---    0.16000   0.16000   0.16000   0.16000   0.16000
     Eigenvalues ---    0.16000   0.16000   0.16000   0.16454   0.20667
     Eigenvalues ---    0.22003   0.22248   0.22695   0.24279   0.24569
     Eigenvalues ---    0.24848   0.26011   0.32829   0.33559   0.33688
     Eigenvalues ---    0.33965   0.34759   0.34955   0.35183   0.35257
     Eigenvalues ---    0.35272   0.35368   0.35492   0.35622   0.37768
     Eigenvalues ---    0.40331   0.41340   0.41707   0.42803   0.43825
     Eigenvalues ---    0.46735   0.47308   0.49000   0.50295   0.56158
 RFO step:  Lambda=-2.81902856D-04 EMin= 8.98184135D-03
 Quartic linear search produced a step of  0.20958.
 Iteration  1 RMS(Cart)=  0.00951785 RMS(Int)=  0.00005442
 Iteration  2 RMS(Cart)=  0.00006411 RMS(Int)=  0.00003879
 Iteration  3 RMS(Cart)=  0.00000000 RMS(Int)=  0.00003879
 Variable       Old X    -DE/DX   Delta X   Delta X   Delta X     New X
                                 (Linear)    (Quad)   (Total)
    R1        2.05467  -0.00042   0.00091  -0.00215  -0.00123   2.05344
    R2        2.61158  -0.00676  -0.00867  -0.01142  -0.02009   2.59149
    R3        2.83302  -0.00054   0.00363  -0.00477  -0.00114   2.83188
    R4        2.81008   0.00328   0.00947   0.00432   0.01379   2.82386
    R5        2.61889   0.00537   0.00990   0.00488   0.01480   2.63368
    R6        2.65986  -0.00315  -0.00190  -0.00728  -0.00918   2.65067
    R7        2.71267   0.00076   0.00285   0.00029   0.00313   2.71580
    R8        2.63297   0.00098   0.00418  -0.00076   0.00343   2.63640
    R9        2.05098   0.00048   0.00049   0.00125   0.00173   2.05272
   R10        2.68758  -0.00119   0.00180  -0.00481  -0.00301   2.68457
   R11        2.68336  -0.00063   0.00023  -0.00235  -0.00213   2.68123
   R12        2.62900   0.00078   0.00220  -0.00037   0.00183   2.63083
   R13        2.06931   0.00117   0.00232   0.00224   0.00456   2.07387
   R14        2.51465  -0.00415  -0.00239  -0.00706  -0.00944   2.50521
   R15        2.65283  -0.00074  -0.00255   0.00003  -0.00251   2.65032
   R16        2.05827  -0.00042   0.00122  -0.00237  -0.00115   2.05712
   R17        2.61686   0.00026   0.00264  -0.00140   0.00124   2.61810
   R18        2.05837   0.00025   0.00095   0.00012   0.00107   2.05944
   R19        2.05788  -0.00083   0.00120  -0.00376  -0.00256   2.05532
   R20        2.05929   0.00001   0.00139  -0.00105   0.00034   2.05963
   R21        2.06475   0.00086   0.00074   0.00241   0.00315   2.06790
   R22        2.09118  -0.00007   0.00265  -0.00232   0.00033   2.09151
   R23        2.09126  -0.00008   0.00264  -0.00235   0.00029   2.09155
    A1        2.08762   0.00085   0.00233   0.00307   0.00540   2.09302
    A2        2.03792   0.00068  -0.00072   0.00412   0.00341   2.04132
    A3        2.15765  -0.00154  -0.00161  -0.00719  -0.00881   2.14884
    A4        2.12732   0.00190  -0.00086   0.00901   0.00815   2.13547
    A5        2.07516  -0.00053   0.00786  -0.00950  -0.00164   2.07352
    A6        2.08071  -0.00137  -0.00700   0.00048  -0.00651   2.07420
    A7        2.15662  -0.00070  -0.00143  -0.00307  -0.00449   2.15213
    A8        2.07192  -0.00034   0.00322  -0.00236   0.00085   2.07277
    A9        2.05464   0.00103  -0.00179   0.00543   0.00364   2.05828
   A10        2.13844   0.00044   0.00500  -0.00128   0.00372   2.14216
   A11        2.07626  -0.00008  -0.00407   0.00295  -0.00111   2.07514
   A12        2.06849  -0.00037  -0.00094  -0.00167  -0.00261   2.06588
   A13        2.07470  -0.00123  -0.00278  -0.00380  -0.00659   2.06811
   A14        2.07154   0.00043   0.00141   0.00085   0.00225   2.07378
   A15        2.13695   0.00080   0.00137   0.00295   0.00434   2.14129
   A16        2.07316  -0.00160  -0.00437  -0.00538  -0.00976   2.06341
   A17        2.20899   0.00218   0.00775   0.00387   0.01162   2.22061
   A18        2.00103  -0.00058  -0.00337   0.00151  -0.00187   1.99916
   A19        2.08670  -0.00108  -0.00324  -0.00308  -0.00632   2.08038
   A20        2.10042  -0.00010   0.00215  -0.00370  -0.00155   2.09887
   A21        2.09606   0.00118   0.00109   0.00679   0.00787   2.10393
   A22        2.12300   0.00045   0.00343  -0.00013   0.00330   2.12630
   A23        2.06066  -0.00022  -0.00206   0.00038  -0.00167   2.05898
   A24        2.09953  -0.00023  -0.00137  -0.00026  -0.00162   2.09790
   A25        2.05694  -0.00025  -0.00452  -0.00019  -0.00472   2.05222
   A26        2.10156   0.00046   0.00117   0.00348   0.00466   2.10621
   A27        2.12469  -0.00021   0.00335  -0.00329   0.00006   2.12476
   A28        2.08889   0.00038  -0.00061   0.00286   0.00225   2.09114
   A29        2.09263   0.00046   0.00001   0.00372   0.00373   2.09635
   A30        2.10167  -0.00084   0.00061  -0.00658  -0.00598   2.09569
   A31        2.07628  -0.00065  -0.00086  -0.00266  -0.00349   2.07279
   A32        1.90343  -0.00000  -0.00613   0.00374  -0.00232   1.90111
   A33        1.97117   0.00022   0.00765  -0.00372   0.00381   1.97498
   A34        1.97126   0.00022   0.00770  -0.00375   0.00383   1.97509
   A35        1.88669  -0.00026  -0.00358  -0.00014  -0.00366   1.88303
   A36        1.88649  -0.00026  -0.00352  -0.00011  -0.00358   1.88291
   A37        1.84097   0.00003  -0.00249   0.00414   0.00139   1.84236
    D1       -0.00025   0.00000   0.00002   0.00005   0.00007  -0.00018
    D2        3.14134   0.00000   0.00003  -0.00003  -0.00001   3.14133
    D3        3.14133   0.00000   0.00003   0.00015   0.00017   3.14150
    D4       -0.00026   0.00000   0.00004   0.00006   0.00010  -0.00017
    D5       -3.14049   0.00000   0.00003  -0.00005  -0.00002  -3.14051
    D6       -1.04248  -0.00019  -0.00362  -0.00005  -0.00379  -1.04627
    D7        1.04488   0.00018   0.00359  -0.00007   0.00365   1.04853
    D8        0.00111   0.00000   0.00002  -0.00014  -0.00012   0.00099
    D9        2.09912  -0.00019  -0.00363  -0.00014  -0.00389   2.09523
   D10       -2.09671   0.00018   0.00358  -0.00016   0.00354  -2.09316
   D11       -0.00076  -0.00000   0.00001  -0.00013  -0.00013  -0.00089
   D12        3.14089  -0.00000  -0.00001  -0.00015  -0.00016   3.14073
   D13        3.14083  -0.00000  -0.00001  -0.00004  -0.00005   3.14078
   D14       -0.00070  -0.00000  -0.00002  -0.00006  -0.00008  -0.00078
   D15       -3.14101   0.00000   0.00002   0.00015   0.00017  -3.14083
   D16        0.00058   0.00000   0.00004   0.00006   0.00010   0.00068
   D17        3.14141  -0.00000  -0.00002  -0.00000  -0.00002   3.14139
   D18       -0.00025  -0.00000  -0.00001  -0.00002  -0.00004  -0.00028
   D19       -0.00024   0.00000  -0.00001   0.00002   0.00001  -0.00023
   D20        3.14129  -0.00000  -0.00000  -0.00000  -0.00001   3.14128
   D21       -3.14139   0.00000   0.00002   0.00001   0.00003  -3.14136
   D22        0.00032  -0.00000   0.00000   0.00000   0.00001   0.00032
   D23        0.00026  -0.00000   0.00000  -0.00001  -0.00000   0.00026
   D24       -3.14122  -0.00000  -0.00001  -0.00002  -0.00002  -3.14124
   D25        0.00006  -0.00000   0.00001  -0.00002  -0.00001   0.00005
   D26       -3.14159   0.00000   0.00001  -0.00000   0.00001  -3.14158
   D27       -3.14147   0.00000  -0.00000   0.00000   0.00000  -3.14146
   D28        0.00007   0.00000   0.00000   0.00002   0.00002   0.00009
   D29       -0.00012   0.00000   0.00000  -0.00000  -0.00000  -0.00012
   D30        3.14151   0.00000   0.00000   0.00001   0.00001   3.14152
   D31        3.14136   0.00000   0.00002   0.00000   0.00002   3.14138
   D32       -0.00020   0.00000   0.00001   0.00002   0.00003  -0.00017
   D33        0.00016   0.00000  -0.00000   0.00005   0.00005   0.00021
   D34       -3.14159  -0.00000  -0.00002  -0.00005  -0.00007   3.14153
   D35       -3.14132   0.00000  -0.00001   0.00004   0.00003  -3.14129
   D36        0.00012  -0.00000  -0.00003  -0.00006  -0.00009   0.00003
   D37        3.14126   0.00000  -0.00001   0.00001  -0.00000   3.14126
   D38       -0.00018   0.00000   0.00001   0.00011   0.00012  -0.00006
   D39       -0.00030  -0.00000   0.00002  -0.00005  -0.00004  -0.00034
   D40        3.14145   0.00000   0.00004   0.00005   0.00009   3.14153
   D41       -0.00009  -0.00000  -0.00004  -0.00001  -0.00004  -0.00013
   D42        3.14153  -0.00000  -0.00001  -0.00007  -0.00008   3.14146
   D43        0.00010   0.00000   0.00000   0.00000   0.00000   0.00010
   D44       -3.14158   0.00000  -0.00000   0.00001   0.00001  -3.14157
   D45       -3.14144  -0.00000   0.00000  -0.00001  -0.00001  -3.14145
   D46        0.00006   0.00000  -0.00000   0.00000  -0.00000   0.00006
   D47       -0.00007   0.00000  -0.00001   0.00001   0.00000  -0.00007
   D48       -3.14157  -0.00000  -0.00000  -0.00001  -0.00001  -3.14158
   D49        3.14149  -0.00000  -0.00000  -0.00000  -0.00001   3.14148
   D50       -0.00002  -0.00000  -0.00000  -0.00002  -0.00002  -0.00004
         Item               Value     Threshold  Converged?
 Maximum Force            0.006756     0.000450     NO 
 RMS     Force            0.001156     0.000300     NO 
 Maximum Displacement     0.036539     0.001800     NO 
 RMS     Displacement     0.009524     0.001200     NO 
 Predicted change in Energy=-2.478493D-04
 GradGradGradGradGradGradGradGradGradGradGradGradGradGradGradGradGradGrad

                          Input orientation:                          
 ---------------------------------------------------------------------
 Center     Atomic      Atomic             Coordinates (Angstroms)
 Number     Number       Type             X           Y           Z
 ---------------------------------------------------------------------
      1          6           0       -2.101288   -1.205047   -0.000373
      2          1           0       -1.714820   -2.220631   -0.001060
      3          6           0       -1.233717   -0.143000    0.000228
      4          6           0        0.249811   -0.322307    0.000208
      5          6           0        0.873854   -1.578519    0.000621
      6          6           0        1.087480    0.845462   -0.000222
      7          6           0       -0.915259    2.175719    0.000484
      8          6           0        2.260496   -1.732103    0.000358
      9          1           0        0.255686   -2.471720    0.001243
     10          6           0        2.497017    0.668431   -0.000529
     11          6           0        0.476021    2.125793   -0.000206
     12          1           0       -1.399260    3.160667    0.000825
     13          6           0        3.075271   -0.590564   -0.000286
     14          1           0        2.702152   -2.727063    0.000686
     15          1           0        3.124124    1.559732   -0.000922
     16          1           0        1.080982    3.029649   -0.000462
     17          1           0        4.160334   -0.693231   -0.000521
     18          7           0       -1.754698    1.149647    0.000786
     19          6           0       -3.591301   -1.045143   -0.000252
     20          1           0       -3.833741    0.021948   -0.000655
     21          1           0       -4.078469   -1.504815   -0.881350
     22          1           0       -4.078355   -1.503997    0.881360
 ---------------------------------------------------------------------
                    Distance matrix (angstroms):
                    1          2          3          4          5
     1  C    0.000000
     2  H    1.086631   0.000000
     3  C    1.371359   2.132607   0.000000
     4  C    2.511354   2.731924   1.494324   0.000000
     5  C    2.998492   2.667122   2.550014   1.402676   0.000000
     6  C    3.791152   4.153771   2.522898   1.437141   2.433377
     7  C    3.582770   4.468466   2.340485   2.756359   4.158753
     8  C    4.393512   4.005222   3.838590   2.455684   1.395122
     9  H    2.675779   1.986440   2.764283   2.149422   1.086250
    10  C    4.965313   5.107470   3.817957   2.455911   2.771903
    11  C    4.211534   4.867359   2.840885   2.458528   3.725614
    12  H    4.421799   5.390542   3.307812   3.853640   5.256133
    13  C    5.212903   5.059851   4.332170   2.838167   2.412944
    14  H    5.038807   4.445911   4.708338   3.434652   2.159127
    15  H    5.911762   6.140563   4.678683   3.435658   3.861650
    16  H    5.297121   5.948272   3.927280   3.453469   4.612821
    17  H    6.282505   6.070452   5.422042   3.928075   3.403629
[...]
 0073,-0.00000151,0.10579451,-0.23781158,-0.00008775,0.00014202,-0.0002
 4914,0.00000017,-0.00008282,-0.00003009,-0.00000003,0.00022094,-0.0006
 3165,0.00000026,0.00178283,-0.00231254,-0.00000273,-0.10503062,0.27642
 937,-0.00000109,0.00000159,0.00024070,0.00000050,0.00000071,-0.0007112
 1,0.00000348,0.00000333,0.01053648,0.00000234,0.00000022,-0.00020602,-
 0.00000084,-0.00000015,-0.00137558,0.00001155,0.00000078,0.00740929,0.
 00007071,-0.00008498,-0.04204657,0.00000133,0.00000107,0.00017447,-0.0
 0000008,0.00000003,-0.00002008,-0.00000209,-0.00000093,-0.00016210,0.0
 0000336,-0.00001943,0.00595104,-0.00007039,0.00009658,0.02639713,-0.00
 005083,0.00248280,-0.00000118,0.00001900,0.00022619,-0.00000031,-0.002
 81015,-0.00184309,0.00000128,0.00331186,-0.01180299,0.00000521,-0.0435
 4074,-0.01793615,0.00002522,-0.01635919,0.03944733,-0.00000889,-0.0040
 3279,-0.00054197,0.00000266,-0.18870741,-0.13091109,0.00009414,-0.0052
 8977,0.00068750,0.00000232,-0.16520526,0.12345294,-0.00001831,-0.00101
 077,-0.00719492,0.00000218,-0.00065395,0.00011638,0.00000050,0.7242920
 3,0.00156360,-0.00166875,0.00000081,-0.00000348,-0.00002681,-0.0000000
 3,-0.00710435,0.01221708,0.00001044,0.00422596,-0.05292113,0.00001201,
 -0.06586506,0.03267617,0.00000533,0.07459971,0.01042516,-0.00002342,0.
 01484778,0.00437939,-0.00000469,-0.06614570,-0.25453380,0.00011829,0.0
 0268004,0.00127212,0.00000082,0.06454219,-0.32596838,0.00007743,-0.018
 72393,0.00900596,0.00000830,-0.00023150,0.00019188,-0.00000189,-0.0166
 7022,0.68074347,-0.00000005,-0.00000078,-0.00041774,-0.00000006,-0.000
 00009,-0.00030978,0.00000624,-0.00000430,-0.00009409,-0.00000585,0.000
 02407,-0.00483479,0.00004377,-0.00000908,0.00524955,-0.00002191,-0.000
 01457,0.00240005,-0.00000409,-0.00000069,0.00208022,0.00006341,0.00013
 082,-0.04957738,-0.00000026,0.00000335,0.00724083,0.00000411,0.0000701
 1,-0.04843580,0.00000873,-0.00000170,0.00446153,-0.00000058,0.00000001
 ,-0.00086769,-0.00016165,-0.00022648,0.11614025,-0.00015862,0.00006663
 ,0.00000030,-0.00000694,-0.00006228,-0.00000033,0.00093233,0.00148494,
 -0.00000083,-0.00558132,-0.00193827,0.00000391,-0.00824939,0.03177336,
 -0.00001562,-0.00093438,-0.00064526,0.00000043,-0.00023438,-0.00036961
 ,-0.00000002,-0.10251748,0.09897186,-0.00002812,0.00113537,-0.00047848
 ,-0.00000040,-0.00207176,-0.00250651,0.00000309,0.00037569,0.00006081,
 -0.00000072,0.00000507,0.00008088,0.00000013,0.01142036,-0.01825882,0.
 00000559,0.10522999,0.00022583,0.00005091,0.00000020,-0.00001617,-0.00
 000383,0.00000012,-0.00046544,-0.00047625,0.00000019,0.00062346,0.0016
 8545,0.00000252,-0.00100595,-0.00088935,0.00000017,-0.00068153,0.00067
 508,-0.00000002,-0.00030496,-0.00001351,0.00000001,0.09895221,-0.28536
 935,0.00010837,0.00050338,0.00114346,-0.00000281,-0.00515043,-0.001802
 10,0.00000488,0.00029875,0.00001498,-0.00000081,0.00004215,-0.00008674
 ,0.00000012,0.01486198,-0.01991397,0.00000549,-0.10839511,0.30503215,-
 0.00000006,-0.00000021,0.00009610,0.00000006,-0.00000001,0.00014405,-0
 .00000179,0.00000138,0.00064500,0.00000457,0.00000044,0.00718847,-0.00
 000407,-0.00000815,-0.00222406,0.00000247,0.00000009,-0.00042557,0.000
 00068,0.00000067,-0.00026293,-0.00002389,0.00011108,-0.02230164,-0.000
 00064,-0.00000194,-0.00355128,0.00000373,0.00000460,0.00545541,-0.0000
 0164,-0.00000009,-0.00125558,0.00000018,-0.00000004,0.00028341,-0.0000
 1155,0.00001094,-0.00201539,0.00003322,-0.00011700,0.02019026,-0.00055
 049,0.00049545,0.00000026,0.00004370,-0.00002623,0.00000011,-0.0000458
 8,-0.00206987,0.00000045,-0.00513373,0.00294168,0.00000128,-0.00097259
 ,0.00106538,-0.00000005,-0.01485386,-0.02861367,0.00001410,-0.00013468
 ,0.00014858,0.00000015,-0.00000631,0.00246702,0.00000094,0.00009888,-0
 .00021570,-0.00000030,-0.14832084,-0.12533191,0.00007217,0.00138549,-0
 .00179408,-0.00000179,-0.00005448,0.00007850,0.00000009,0.01049518,0.0
 1214098,-0.00000680,0.00039897,0.00066675,-0.00000034,0.15620529,-0.00
 013262,-0.00001123,-0.00000008,0.00000419,0.00001336,0.00000002,0.0006
 0291,-0.00020902,-0.00000028,0.00066194,0.00136166,0.00000134,0.000776
 90,0.00023793,-0.00000048,0.00235630,0.00314391,-0.00000069,-0.0000828
 8,0.00017497,-0.00000007,0.00470465,-0.00301746,0.00000208,-0.00016364
 ,-0.00002813,-0.00000031,-0.12515650,-0.23508235,0.00009697,0.00110203
 ,0.00115910,-0.00000191,-0.00008248,0.00008031,0.00000013,-0.02069053,
 -0.02034206,0.00001211,-0.00101398,-0.00133704,0.00000156,0.13709169,0
 .25208497,0.00000040,0.00000031,-0.00010688,-0.00000010,0.00000002,-0.
 00008189,-0.00000042,0.00000003,-0.00046234,0.00000280,0.00000347,0.00
 531396,0.00000208,-0.00000137,0.00037806,-0.00000196,0.00000683,0.0030
 8744,-0.00000042,-0.00000034,-0.00064402,-0.00000091,0.00000193,0.0065
 0409,0.00000004,-0.00000084,-0.00134205,0.00007454,0.00009373,-0.03013
 732,-0.00000075,0.00000010,-0.00277236,0.00000026,-0.00000011,0.000221
 22,0.00000409,0.00000652,0.00014742,0.00000038,0.00000065,0.00127529,-
 0.00007876,-0.00010892,0.02237873,0.00002498,-0.00034846,-0.00000036,-
 0.00004132,-0.00015240,-0.00000038,-0.00029761,0.00188543,0.00000087,-
 0.00139027,0.00219008,0.00000124,0.00046495,0.00063013,-0.00000006,0.0
 0926202,0.01259652,-0.00000437,-0.01105547,-0.03202334,-0.00000060,0.0
 0010832,-0.00003810,0.00000006,-0.00007699,0.00019444,-0.00000026,0.00
 154397,0.00062233,-0.00000115,-0.14056173,-0.12541591,0.00005535,0.000
 76392,0.00076133,-0.00000173,0.00022514,-0.00011145,-0.00000022,0.0000
 2436,-0.00002579,0.00000002,0.00020298,-0.00052048,0.00000004,0.146364
 89,-0.00022822,0.00014909,-0.00000007,0.00002835,0.00000593,0.00000012
 ,0.00097152,0.00028247,0.00000025,0.00457405,-0.00277121,-0.00000089,-
 0.00187787,-0.00049322,0.00000084,-0.01847536,-0.01993968,0.00000683,0
 .00440638,0.00333090,-0.00000249,0.00038628,0.00036778,-0.00000038,0.0
 0020312,-0.00057862,0.00000034,-0.00267007,0.00111212,0.00000027,-0.12
 547865,-0.24569624,0.00005606,-0.00093377,0.00075533,0.00000074,0.0004
 7749,-0.00031792,0.00000021,0.00011253,-0.00001352,-0.00000005,0.00139
 642,0.00047876,-0.00000062,0.13728251,0.26227794,-0.00000072,-0.000001
 65,-0.00031654,-0.00000009,0.00000027,-0.00020521,0.00000086,0.0000001
 8,-0.00014274,-0.00000095,0.00000014,0.00378395,0.00000110,0.00000069,
 0.00115122,-0.00000329,0.00000264,-0.00259042,0.00000552,0.00002006,-0
 .00660317,-0.00000082,-0.00000066,-0.00021329,-0.00000086,-0.00000038,
 -0.00015550,0.00000021,-0.00000140,-0.00197326,0.00005100,0.00004507,-
 0.01324399,-0.00000258,0.00000031,-0.00272197,-0.00000027,0.00000089,-
 0.00048432,0.00000006,0.00000009,0.00015530,0.00000020,0.00000028,0.00
 008143,-0.00005646,-0.00006102,0.01544903,-0.00015891,-0.00027076,-0.0
 0000028,0.00000052,0.00005754,0.00000022,0.00015321,0.00032142,-0.0000
 0012,0.00067373,0.00022657,-0.00000044,0.00042987,-0.00468004,0.000004
 08,0.00185375,0.00245509,0.00000067,0.00067848,0.00058201,-0.00000039,
 -0.01589152,0.00605296,0.00000123,-0.00104287,0.00021183,0.00000028,-0
 .01158959,-0.00190803,0.00000375,-0.00135751,-0.00017064,0.00000047,-0
 .00014460,0.00010908,0.00000014,-0.32237686,0.02426002,0.00006713,0.00
 105619,-0.00065447,-0.00000094,0.00119386,0.00064052,-0.00000155,0.000
 06281,0.00012683,-0.00000003,0.34679737,0.00009929,-0.00002260,-0.0000
 0010,-0.00000485,0.00010378,0.00000031,-0.00015788,0.00015329,-0.00000
 048,0.00013715,-0.00116431,0.00000014,-0.00208282,-0.00437701,0.000006
 01,0.00070744,-0.00539174,0.00000438,0.00006164,-0.00055982,-0.0000001
 6,-0.02649902,0.00824337,0.00000289,-0.00143454,0.00013293,0.00000047,
 0.03072365,0.00258945,-0.00000859,0.00118925,0.00098198,-0.00000033,0.
 00017667,-0.00004085,-0.00000020,0.02402046,-0.06313496,0.00000748,0.0
 0076149,0.00104009,-0.00000233,-0.00062348,0.00106327,-0.00000160,-0.0
 0003463,-0.00007110,0.00000008,-0.02694623,0.06027456,-0.00000012,0.00
 000103,0.00003242,0.00000005,-0.00000031,0.00012141,-0.00000141,-0.000
 00051,-0.00112259,0.00000028,0.00000038,-0.00059670,0.00000159,0.00000
 691,0.00643739,0.00000012,0.00000292,0.00812251,-0.00000048,-0.0000000
 9,-0.00046744,0.00001681,-0.00000476,0.00021482,0.00000150,0.00000041,
 0.00044644,-0.00000758,-0.00000146,0.00077561,-0.00000004,0.00000009,0
 .00030041,0.00000005,-0.00000006,0.00001351,0.00006576,0.00000774,-0.0
 3089652,-0.00000141,-0.00000194,-0.00312883,-0.00000112,-0.00000189,-0
 .00410918,0.00000003,0.,0.00002258,-0.00007434,-0.00000804,0.02358960,
 0.02392564,-0.01709991,-0.00000995,-0.00246841,-0.00521461,-0.00000327
 ,-0.13750888,0.04040070,0.00003484,-0.00860594,0.03538485,0.00001124,-
 0.00914052,-0.00131398,0.00000338,0.01361200,-0.01799961,-0.00000684,-
 0.22872772,-0.13799238,0.00008102,0.00447683,0.00575103,-0.00000646,0.
 00009406,0.00080359,-0.00000023,-0.00794605,0.00510540,0.00000007,-0.0
 5253069,-0.02739506,0.00004304,0.01309261,-0.00244515,-0.00001866,0.00
 046019,-0.00751894,0.00000317,-0.00073685,0.00045308,-0.00000004,0.000
 17706,-0.00005384,0.00000015,-0.00578994,-0.00025088,0.00000841,-0.000
 28310,-0.00012305,0.00000038,0.39949960,-0.00191388,-0.07328516,-0.000
 04213,-0.00366970,-0.00388871,-0.00000996,0.06546484,-0.21306725,-0.00
 009331,0.02951661,-0.00548051,-0.00001900,-0.00227807,0.00195189,0.000
 00305,0.01649521,-0.03870878,-0.00000363,-0.15095142,-0.29649680,0.000
 07262,0.00579019,0.00897538,-0.00000363,-0.00050668,0.00212693,-0.0000
 0103,-0.01380227,0.00981076,0.00000336,-0.06223974,0.02174252,0.000034
 27,-0.02293562,-0.03740680,0.00000303,0.00171785,-0.01275718,0.0000047
 0,0.00044096,0.00021426,-0.00000127,0.00034115,0.00024606,0.00000030,0
 .00264156,0.00118044,-0.00000555,-0.00040687,0.00009550,-0.00000031,0.
 13547016,0.64039550,-0.00001750,-0.00005653,0.01087549,-0.00000220,-0.
 00000626,0.00715177,0.00005596,-0.00004599,-0.06373435,0.00000791,-0.0
 0001168,0.01091066,-0.00000311,0.00000493,0.00115315,-0.00000959,0.000
 00504,-0.00413151,0.00006083,0.00004823,-0.05565649,0.00000218,-0.0000
 0143,-0.00042398,-0.00000040,0.,0.00020865,0.00000455,-0.00000129,-0.0
 0197112,0.00004268,0.00001605,0.02282615,-0.00001320,-0.00000453,-0.00
 336748,-0.00000223,-0.00000011,-0.00005264,0.00000030,-0.00000005,-0.0
 0003225,-0.00000025,0.,-0.00004522,0.00000785,-0.00000008,0.00785380,0
 .00000012,0.00000020,0.00028032,-0.00013104,0.00005724,0.07248544,-0.2
 1529431,0.01794911,0.00002819,-0.00949485,-0.00097513,-0.00000463,-0.0
 2892599,-0.01359761,-0.00000747,0.00460880,-0.00331487,0.00000265,-0.0
 0087667,0.00168408,0.00000080,-0.00057605,0.00029665,-0.00000082,-0.00
 286406,-0.00110125,0.00000159,0.00186541,0.00021364,-0.00000099,-0.000
 02369,0.00003527,0.00000139,-0.00030081,-0.00004016,0.00000005,0.00108
 384,0.00049201,-0.00000175,-0.00006585,0.00013577,-0.00000003,-0.00023
 695,-0.00111676,0.00000034,0.00007907,-0.00010752,-0.00000006,-0.00000
 950,0.00009846,-0.00000004,-0.00001092,0.00004041,0.00000022,0.0001531
 5,-0.00002603,0.,-0.00460464,0.00673414,0.00000146,0.47624309,0.018499
 93,-0.09234734,-0.00002864,0.03001730,-0.00129549,-0.00000441,-0.02468
 720,0.01090882,0.00000734,-0.00119824,-0.00311997,-0.00000588,0.000748
 43,-0.00174213,0.00000204,-0.00172764,0.00083935,-0.00000058,-0.000909
 84,0.00047767,-0.00000126,-0.00103450,0.00037472,0.00000022,-0.0001789
 6,0.00103874,-0.00000193,0.00052937,-0.00067077,0.00000063,0.00033787,
 -0.00047882,0.00000090,0.00005765,0.00005863,-0.00000105,0.00010343,0.
 00090841,-0.00000089,-0.00007697,0.00002625,0.00000046,-0.00013732,-0.
 00002261,-0.00000007,-0.00003759,-0.00000906,0.00000040,0.00001523,0.0
 0008635,-0.00000003,0.00027329,-0.00348694,0.00000287,0.00443714,0.573
 81409,0.00000881,-0.00001749,-0.06056461,0.00001753,0.00000057,-0.0001
 7493,-0.00001757,-0.00000179,0.00153001,0.00000168,-0.00000933,0.00753
 822,0.00000037,0.00000153,-0.00049365,-0.00000153,-0.00000335,0.000505
 02,0.00000012,0.00000342,-0.00045398,0.00000096,0.00000152,0.00028460,
 0.00000127,-0.00000090,-0.00037018,-0.00000334,-0.00000020,-0.00060046
 ,-0.00000309,0.00000337,-0.00009061,0.00000037,-0.00000015,0.00032405,
 0.00000117,-0.00000288,0.00025652,-0.00000004,-0.00000014,-0.00024118,
 -0.00000037,0.00000009,0.00032768,-0.00000029,-0.00000014,-0.00000099,
 -0.00000009,-0.00000010,-0.00002861,-0.00000659,-0.00000271,-0.0031276
 3,0.00002738,0.00004585,0.50205323,-0.00895768,0.03385565,0.00000103,-
 0.00661295,0.00039214,-0.00000276,0.00130421,0.00297579,0.00000241,-0.
 00063373,0.00000246,0.00000104,0.00034914,0.00021747,-0.00000118,-0.00
 052640,0.00130366,0.00000008,0.00027745,-0.00183383,0.00000170,-0.0004
 8257,-0.00067576,0.00000071,0.00004818,-0.00037018,0.00000053,0.000593
 80,-0.00045500,-0.00000006,0.00139897,-0.00037523,-0.00000114,-0.00010
 130,0.00017377,0.00000105,-0.00003963,0.00079981,-0.00000014,0.0000208
 6,-0.00001643,-0.00000008,0.00001842,-0.00000335,0.,0.00027873,0.00003
 612,-0.00000092,0.00000091,-0.00001938,-0.00000003,-0.00014213,-0.0001
 3141,-0.00000018,-0.05893029,0.05734734,-0.00000880,0.06751396,0.00530
 433,-0.00386254,-0.00000468,0.00014020,0.00092000,0.00000377,-0.000342
 02,-0.00160757,-0.00000322,0.00014291,-0.00035678,0.00000090,0.0001389
 7,-0.00008150,0.00000034,-0.00007510,0.00019648,0.00000024,-0.00024957
 ,-0.00040154,0.00000234,0.00009176,-0.00003206,-0.00000002,0.00006665,
 0.00008419,0.00000015,0.00008609,-0.00005627,-0.00000002,0.00033766,-0
 .00005296,-0.00000059,-0.00002019,0.00008066,0.00000058,0.00000997,0.0
 0002777,-0.00000001,0.00002504,-0.00002524,-0.00000009,0.00002130,0.00
 003208,0.,0.00006840,0.00002321,-0.00000071,0.00003774,0.00000021,-0.0
 0000004,-0.00410940,-0.00073423,-0.00000274,0.06182335,-0.30286266,0.0
 0003292,-0.06673896,0.32961789,0.00000720,-0.00000825,0.00029661,0.000
 00163,-0.00000041,0.00105039,-0.00000068,0.00000135,0.00041842,0.00000
 044,-0.00000004,0.00010554,0.00000076,-0.00000041,-0.00006218,0.000000
 09,-0.00000067,-0.00001655,0.00000308,-0.00000034,-0.00033947,-0.00000
 067,0.,0.00001233,0.00000010,0.00000011,-0.00005544,-0.00000004,-0.000
 00012,-0.00001995,-0.00000079,0.00000078,0.00005548,-0.00000012,0.0000
 0027,-0.00005434,0.00000018,0.00000043,0.00002527,0.00000004,-0.000000
 02,-0.00000117,0.00000003,0.,-0.00000745,0.00000034,0.00000006,0.00011
 701,0.,0.,-0.00000155,-0.00000278,-0.00000145,-0.00127350,-0.00001157,
 0.00003096,-0.05186953,-0.00000029,-0.00003554,0.05076911,-0.02269604,
 -0.01846345,-0.02237436,0.00091633,0.00063257,0.00093855,-0.00085696,0
 .00745813,-0.00265578,-0.00161308,0.00024966,0.00175683,0.00075468,-0.
 00122401,-0.00009274,-0.00061432,0.00027658,0.00020391,0.00120737,0.00
 102883,-0.00006702,-0.00131948,-0.00019693,0.00002093,0.00008035,0.000
 14050,-0.00005691,0.00042526,-0.00035125,-0.00011995,-0.00040533,-0.00
 039093,-0.00001838,0.00006968,-0.00020442,0.00003939,0.00004533,0.0010
 4380,0.00003871,-0.00009354,0.00009803,-0.00004779,-0.00006883,-0.0000
 6960,0.00008016,-0.00005140,-0.00006362,0.00000642,-0.00010441,0.00003
 738,-0.00000123,0.00157224,-0.00288477,-0.00071451,-0.08093579,-0.0412
 1345,-0.07810958,0.00231181,0.00162167,0.00699902,0.09583734,-0.000917
 74,0.00310242,0.00420634,-0.00057988,0.00028223,0.00017476,0.00079102,
 0.00026588,-0.00030422,-0.00011017,-0.00003700,-0.00049408,-0.00003088
 ,0.00000244,0.00001361,0.00008831,-0.00018203,0.00000162,-0.00010949,0
 .00056315,-0.00052741,0.00005864,0.00004471,0.00000174,0.00004325,-0.0
 0005554,-0.00000268,-0.00011493,0.00008118,0.00004780,-0.00029970,-0.0
 0004336,0.00002710,0.00003381,-0.00012040,-0.00010599,-0.00000645,-0.0
 0013170,-0.00004129,-0.00001661,0.00002417,0.00002800,-0.00002131,-0.0
 0001324,-0.00000178,-0.00008225,-0.00003668,0.00014251,-0.00002992,-0.
 00000119,0.00000289,-0.00106630,-0.00071593,0.00156857,-0.03685756,-0.
 09128735,-0.07859040,-0.01324604,-0.01045361,-0.02803046,0.04665183,0.
 09277468,-0.00378544,0.00093595,0.00718753,-0.00066894,0.00021094,0.00
 018470,0.00128995,0.00271274,-0.00057398,-0.00050742,0.00043313,-0.000
 20394,0.00030587,-0.00049369,-0.00000684,-0.00006272,-0.00010913,0.000
 05201,0.00074359,0.00067301,-0.00014434,-0.00053628,-0.00005853,0.0000
 1630,0.00004245,0.00002305,-0.00003506,0.00011235,-0.00006573,0.000028
 58,-0.00038372,-0.00007615,0.00001809,0.00004041,-0.00009829,-0.000009
 15,0.00003078,0.00037578,-0.00000789,-0.00004228,0.00004918,0.00000332
 ,-0.00001913,-0.00003220,-0.00000326,-0.00004165,-0.00003130,0.0000183
 9,-0.00005510,0.00001343,-0.00000280,0.00014848,-0.00147449,0.00003449
 ,-0.07350608,-0.08022661,-0.19736689,0.00130373,-0.00004230,0.00043120
 ,0.08488797,0.08958951,0.21706277,-0.02270907,-0.01845222,0.02237566,0
 .00091182,0.00063346,-0.00093525,-0.00084275,0.00746361,0.00266381,-0.
 00161818,0.00025719,-0.00176052,0.00075574,-0.00122665,0.00009221,-0.0
 0061330,0.00027770,-0.00020336,0.00120797,0.00102991,0.00006677,-0.001
 32205,-0.00019769,-0.00001946,0.00008008,0.00014083,0.00005611,0.00042
 706,-0.00035121,0.00012012,-0.00040477,-0.00039341,0.00002060,0.000069
 75,-0.00020466,-0.00003967,0.00004522,0.00104635,-0.00003960,-0.000093
 60,0.00009817,0.00004796,-0.00006864,-0.00006970,-0.00008003,-0.000051
 42,-0.00006358,-0.00000700,-0.00010448,0.00003745,0.00000118,0.0015746
 2,-0.00289225,0.00071036,-0.08088300,-0.04116529,0.07809162,0.00231023
 ,0.00161919,-0.00699597,0.00553879,0.00582239,-0.00929682,0.09578997,-
 0.00092341,0.00310554,-0.00420749,-0.00057886,0.00028005,-0.00017143,0
 .00078621,0.00026822,0.00030408,-0.00010819,-0.00003884,0.00049315,-0.
 00003140,0.00000350,-0.00001356,0.00008644,-0.00017938,-0.00000140,-0.
 00011276,0.00055994,0.00052693,0.00005877,0.00004373,-0.00000177,0.000
 04315,-0.00005550,0.00000247,-0.00011379,0.00008042,-0.00004777,-0.000
 29596,-0.00004412,-0.00002631,0.00003372,-0.00012025,0.00010572,-0.000
 00690,-0.00013077,0.00004153,-0.00001659,0.00002411,-0.00002804,-0.000
 02132,-0.00001326,0.00000177,-0.00008231,-0.00003671,-0.00014226,-0.00
 002986,-0.00000120,-0.00000292,-0.00105900,-0.00071094,-0.00157244,-0.
 03680316,-0.09120990,0.07854029,-0.01323866,-0.01045554,0.02804373,0.0
 0582346,0.00593716,-0.01230829,0.04659041,0.09269374,0.00380867,-0.000
 93497,0.00719489,0.00066867,-0.00021000,0.00018132,-0.00129507,-0.0027
 1786,-0.00057767,0.00051080,-0.00043407,-0.00020395,-0.00030691,0.0004
 9510,-0.00000669,0.00006235,0.00010957,0.00005205,-0.00074462,-0.00067
 456,-0.00014454,0.00053746,0.00005843,0.00001583,-0.00004241,-0.000023
 23,-0.00003463,-0.00011230,0.00006564,0.00002862,0.00038465,0.00007666
 ,0.00001702,-0.00004051,0.00009844,-0.00000911,-0.00003111,-0.00037623
 ,-0.00000761,0.00004233,-0.00004923,0.00000327,0.00001913,0.00003224,-
 0.00000335,0.00004173,0.00003131,0.00001872,0.00005517,-0.00001346,-0.
 00000280,-0.00014834,0.00147992,0.00003625,0.07346938,0.08017969,-0.19
 743608,-0.00129670,0.00004872,0.00041978,0.00928634,0.01229387,-0.0266
 8321,-0.08486871,-0.08953598,0.21714187\\-0.00004428,-0.00017424,-0.00
 000041,-0.00002800,0.00004458,-0.00000032,-0.00028148,0.00009053,0.000
 00508,0.00031760,0.00003229,-0.00000088,0.00000281,0.00004797,-0.00000
 098,-0.00000724,-0.00016137,0.00000012,0.00008478,-0.00008869,-0.00000
 053,0.00003154,-0.00003380,0.00000030,0.00001451,-0.00000568,-0.000001
 00,0.00000399,-0.00003081,0.00000003,-0.00010554,0.00019367,0.00000113
 ,-0.00002546,0.00004165,-0.00000011,0.00001505,0.00001473,0.,-0.000000
 48,0.00001032,0.,-0.00000915,0.00000563,0.00000004,0.00000874,-0.00004
 209,-0.00000002,0.00000266,-0.00000948,0.00000003,0.00004744,0.0000782
 6,-0.00000270,0.00004263,-0.00003612,-0.00000066,-0.00000923,0.0000031
 4,0.00000014,-0.00003008,0.00000882,0.00000132,-0.00003082,0.00001067,
 -0.00000057\\\@
 The archive entry for this job was punched.


 FESTINA LENTE!
     - IMPERATOR AUGUSTUS 
 Job cpu time:       0 days  0 hours 16 minutes 47.2 seconds.
 Elapsed time:       0 days  0 hours  0 minutes 31.9 seconds.
 File lengths (MBytes):  RWF=    101 Int=      0 D2E=      0 Chk=      4 Scr=      1
 Normal termination of Gaussian 16 at Mon Nov 11 15:16:41 2024.
