 Entering Gaussian System, Link 0=g16
 Input=2-modfreq.gjf
 Output=2-modfreq.log
 Initial command:
 /home/echo/g16/l1.exe "/home/echo/scratch/Gau-82188.inp" -scrdir="/home/echo/scratch/"
 Entering Link 1 = /home/echo/g16/l1.exe PID=     82190.
  
 Copyright (c) 1988-2019, Gaussian, Inc.  All Rights Reserved.
  
 This is part of the Gaussian(R) 16 program.  It is based on
 the Gaussian(R) 09 system (copyright 2009, Gaussian, Inc.),
 the Gaussian(R) 03 system (copyright 2003, Gaussian, Inc.),
 the Gaussian(R) 98 system (copyright 1998, Gaussian, Inc.),
 the Gaussian(R) 94 system (copyright 1995, Gaussian, Inc.),
 the Gaussian 92(TM) system (copyright 1992, Gaussian, Inc.),
 the Gaussian 90(TM) system (copyright 1990, Gaussian, Inc.),
 the Gaussian 88(TM) system (copyright 1988, Gaussian, Inc.),
 the Gaussian 86(TM) system (copyright 1986, Carnegie Mellon
 University), and the Gaussian 82(TM) system (copyright 1983,
 Carnegie Mellon University). Gaussian is a federally registered
 trademark of Gaussian, Inc.
  
 This software contains proprietary and confidential information,
 including trade secrets, belonging to Gaussian, Inc.
  
 This software is provided under written license and may be
 used, copied, transmitted, or stored only in accord with that
 written license.
  
 The following legend is applicable only to US Government
 contracts under FAR:
  
                    RESTRICTED RIGHTS LEGEND
  
 Use, reproduction and disclosure by the US Government is
 subject to restrictions as set forth in subparagraphs (a)
 and (c) of the Commercial Computer Software - Restricted
 Rights clause in FAR 52.227-19.
  
 Gaussian, Inc.
 340 Quinnipiac St., Bldg. 40, Wallingford CT 06492
  
  
 ---------------------------------------------------------------
 Warning -- This program may not be used in any manner that
 competes with the business of Gaussian, Inc. or will provide
 assistance to any competitor of Gaussian, Inc.  The licensee
 of this program is prohibited from giving any competitor of
 Gaussian, Inc. access to this program.  By using this program,
 the user acknowledges that Gaussian, Inc. is engaged in the
 business of creating and licensing software in the field of
 computational chemistry and represents and warrants to the
 licensee that it is not a competitor of Gaussian, Inc. and that
 it will not use this program in any manner prohibited above.
 ---------------------------------------------------------------
  

 Cite this work as:
 Gaussian 16, Revision C.01,
 M. J. Frisch, G. W. Trucks, H. B. Schlegel, G. E. Scuseria, 
 M. A. Robb, J. R. Cheeseman, G. Scalmani, V. Barone, 
 G. A. Petersson, H. Nakatsuji, X. Li, M. Caricato, A. V. Marenich, 
 J. Bloino, B. G. Janesko, R. Gomperts, B. Mennucci, H. P. Hratchian, 
 J. V. Ortiz, A. F. Izmaylov, J. L. Sonnenberg, D. Williams-Young, 
 F. Ding, F. Lipparini, F. Egidi, J. Goings, B. Peng, A. Petrone, 
 T. Henderson, D. Ranasinghe, V. G. Zakrzewski, J. Gao, N. Rega, 
 G. Zheng, W. Liang, M. Hada, M. Ehara, K. Toyota, R. Fukuda, 
 J. Hasegawa, M. Ishida, T. Nakajima, Y. Honda, O. Kitao, H. Nakai, 
 T. Vreven, K. Throssell, J. A. Montgomery, Jr., J. E. Peralta, 
 F. Ogliaro, M. J. Bearpark, J. J. Heyd, E. N. Brothers, K. N. Kudin, 
 V. N. Staroverov, T. A. Keith, R. Kobayashi, J. Normand, 
 K. Raghavachari, A. P. Rendell, J. C. Burant, S. S. Iyengar, 
 J. Tomasi, M. Cossi, J. M. Millam, M. Klene, C. Adamo, R. Cammi, 
 J. W. Ochterski, R. L. Martin, K. Morokuma, O. Farkas, 
 J. B. Foresman, and D. J. Fox, Gaussian, Inc., Wallingford CT, 2019.
 
 ******************************************
 Gaussian 16:  ES64L-G16RevC.01  3-Jul-2019
                22-Oct-2024 
 ******************************************
 %chk=2-modfreq.chk
 ---------------------------
 #p freq external='./xtb.sh'
 ---------------------------
 1/10=4,18=10,30=1,38=1/1,3;
 2/12=2,17=6,18=5,40=1/2;
 3/11=9,25=1,30=1,41=9900000,43=2,71=2,140=1/1;
 4/20=17,22=2,24=3,113=1,114=1/2;
 6/7=2,8=2,9=2,10=2/1;
 7/8=1,25=1,44=-1/16;
 1/10=4,18=10,30=1/3;
 99//99;
 Leave Link    1 at Tue Oct 22 17:28:57 2024, MaxMem=           0 cpu:               0.0 elap:               0.0
 (Enter /home/echo/g16/l101.exe)
 ------------------------------
 Generate automatically by rxnb
 ------------------------------
 Symbolic Z-matrix:
 Charge =  0 Multiplicity = 1
 C                    -1.19078   1.51449  -0.78778 
 C                    -2.96408   0.05391  -1.95109 
 C                    -2.4995    1.31309  -1.32991 
 C                    -1.40681   2.25412   0.40794 
 C                    -2.74953   2.65073   0.49605 
 C                    -3.4365    2.04684  -0.56506 
 H                    -0.66794   2.43823   1.15793 
 H                    -3.18513   3.19385   1.30147 
 H                    -4.49613   2.00756  -0.67176 
 H                    -3.99939  -0.04756  -1.62 
 N                    -2.18253  -1.08179  -1.42312 
 H                    -2.93016   0.03835  -3.04414 
 C                    -2.48884   0.34049   2.37061 
 C                    -3.78778   0.70127   1.95718 
 C                    -4.18816  -0.1849    0.94161 
 C                    -3.14798  -1.1059    0.74056 
 C                    -2.09337  -0.79406   1.64965 
 H                    -1.85929   0.91318   3.01111 
 H                    -4.33514   1.55874   2.2681 
 H                    -5.07321  -0.08648   0.35624 
 H                    -1.22     -1.37879   1.85637 
 Fe                   -2.5566    0.71829   0.48384 
 C                    -2.97062  -1.89903  -0.48769 
 H                    -3.93618  -2.16945  -0.93325 
 H                    -2.39865  -2.80397  -0.27577 
 C                    -1.63075  -1.90309  -2.49907 
 H                    -1.02989  -2.70488  -2.06746 
 H                    -2.42209  -2.3506   -3.11625 
 H                    -0.99227  -1.28732  -3.13823 
 Pd                   -0.41087  -0.47005  -0.39623 
 O                     0.06007  -2.30971   0.27237 
 N                     1.35754   0.01309   0.35628 
 C                     1.09525  -2.29982   1.02496 
 C                     2.10943  -1.16928   0.74145 
 C                     1.96191   1.09243  -0.05551 
 O                     1.31298  -3.13065   1.89123 
 O                     1.38758   1.95546  -0.78312 
 H                     0.11667   1.596    -1.04577 
 H                     2.71157  -0.97002   1.63502 
 O                     3.23032   1.25552   0.35318 
 C                     5.34838   2.18608   0.68042 
 C                     3.99726   2.42362   0.0025 
 C                     4.17321   2.51629  -1.51398 
 C                     3.33796   3.6862    0.55874 
 H                     5.21049   2.074     1.75251 
 H                     5.80398   1.27695   0.29661 
 H                     6.01301   3.02376   0.49117 
 H                     4.60459   1.59346  -1.89681 
 H                     4.83714   3.34166  -1.75522 
 H                     3.2126    2.68287  -1.99348 
 H                     3.18219   3.58126   1.63039 
 H                     3.97907   4.54415   0.37675 
 H                     2.37808   3.85173   0.07726 
 C                     3.03809  -1.62003  -0.41894 
 C                     2.24699  -1.80997  -1.72019 
 C                     3.79951  -2.90582  -0.08149 
 C                     4.69827  -2.77456   1.14249 
 H                     1.58276  -2.67151  -1.63006 
 H                     2.93286  -1.99476  -2.54662 
 H                     1.65377  -0.91303  -1.96434 
 H                     3.77257  -0.82041  -0.57073 
 H                     4.40942  -3.17278  -0.9502 
 H                     3.08889  -3.71593   0.09073 
 H                     4.09744  -2.72812   2.04607 
 H                     5.35534  -3.63837   1.21852 
 H                     5.31248  -1.87772   1.07842 
 
 ITRead=  0  0  0  0  0  0  0  0  0  0  0  0  0  0  0  0  0  0  0  0
 ITRead=  0  0  0  0  0  0  0  0  0  0  0  0  0  0  0  0  0  0  0  0
 ITRead=  0  0  0  0  0  0  0  0  0  0  0  0  0  0  0  0  0  0  0  0
 ITRead=  0  0  0  0  0  0
 MicOpt= -1 -1 -1 -1 -1 -1 -1 -1 -1 -1 -1 -1 -1 -1 -1 -1 -1 -1 -1 -1
 MicOpt= -1 -1 -1 -1 -1 -1 -1 -1 -1 -1 -1 -1 -1 -1 -1 -1 -1 -1 -1 -1
 MicOpt= -1 -1 -1 -1 -1 -1 -1 -1 -1 -1 -1 -1 -1 -1 -1 -1 -1 -1 -1 -1
 MicOpt= -1 -1 -1 -1 -1 -1
 NAtoms=     66 NQM=       66 NQMF=       0 NMMI=      0 NMMIF=      0
                NMic=       0 NMicF=      0.
                    Isotopes and Nuclear Properties:
 (Nuclear quadrupole moments (NQMom) in fm**2, nuclear magnetic moments (NMagM)
  in nuclear magnetons)

  Atom         1           2           3           4           5           6           7           8           9          10
 IAtWgt=          12          12          12          12          12          12           1           1           1           1
 AtmWgt=  12.0000000  12.0000000  12.0000000  12.0000000  12.0000000  12.0000000   1.0078250   1.0078250   1.0078250   1.0078250
 NucSpn=           0           0           0           0           0           0           1           1           1           1
 AtZEff=  -0.0000000  -0.0000000  -0.0000000  -0.0000000  -0.0000000  -0.0000000  -0.0000000  -0.0000000  -0.0000000  -0.0000000
 NQMom=    0.0000000   0.0000000   0.0000000   0.0000000   0.0000000   0.0000000   0.0000000   0.0000000   0.0000000   0.0000000
 NMagM=    0.0000000   0.0000000   0.0000000   0.0000000   0.0000000   0.0000000   2.7928460   2.7928460   2.7928460   2.7928460
 AtZNuc=   6.0000000   6.0000000   6.0000000   6.0000000   6.0000000   6.0000000   1.0000000   1.0000000   1.0000000   1.0000000

  Atom        11          12          13          14          15          16          17          18          19          20
 IAtWgt=          14           1          12          12          12          12          12           1           1           1
 AtmWgt=  14.0030740   1.0078250  12.0000000  12.0000000  12.0000000  12.0000000  12.0000000   1.0078250   1.0078250   1.0078250
 NucSpn=           2           1           0           0           0           0           0           1           1           1
 AtZEff=  -0.0000000  -0.0000000  -0.0000000  -0.0000000  -0.0000000  -0.0000000  -0.0000000  -0.0000000  -0.0000000  -0.0000000
 NQMom=    2.0440000   0.0000000   0.0000000   0.0000000   0.0000000   0.0000000   0.0000000   0.0000000   0.0000000   0.0000000
 NMagM=    0.4037610   2.7928460   0.0000000   0.0000000   0.0000000   0.0000000   0.0000000   2.7928460   2.7928460   2.7928460
 AtZNuc=   7.0000000   1.0000000   6.0000000   6.0000000   6.0000000   6.0000000   6.0000000   1.0000000   1.0000000   1.0000000

  Atom        21          22          23          24          25          26          27          28          29          30
 IAtWgt=           1          56          12           1           1          12           1           1           1         106
 AtmWgt=   1.0078250  55.9349393  12.0000000   1.0078250   1.0078250  12.0000000   1.0078250   1.0078250   1.0078250 105.9032000
 NucSpn=           1           0           0           1           1           0           1           1           1           0
 AtZEff=  -0.0000000  -0.0000000  -0.0000000  -0.0000000  -0.0000000  -0.0000000  -0.0000000  -0.0000000  -0.0000000  -0.0000000
 NQMom=    0.0000000   0.0000000   0.0000000   0.0000000   0.0000000   0.0000000   0.0000000   0.0000000   0.0000000   0.0000000
 NMagM=    2.7928460   0.0000000   0.0000000   2.7928460   2.7928460   0.0000000   2.7928460   2.7928460   2.7928460   0.0000000
 AtZNuc=   1.0000000  26.0000000   6.0000000   1.0000000   1.0000000   6.0000000   1.0000000   1.0000000   1.0000000  46.0000000

  Atom        31          32          33          34          35          36          37          38          39          40
 IAtWgt=          16          14          12          12          12          16          16           1           1          16
 AtmWgt=  15.9949146  14.0030740  12.0000000  12.0000000  12.0000000  15.9949146  15.9949146   1.0078250   1.0078250  15.9949146
 NucSpn=           0           2           0           0           0           0           0           1           1           0
 AtZEff=  -0.0000000  -0.0000000  -0.0000000  -0.0000000  -0.0000000  -0.0000000  -0.0000000  -0.0000000  -0.0000000  -0.0000000
 NQMom=    0.0000000   2.0440000   0.0000000   0.0000000   0.0000000   0.0000000   0.0000000   0.0000000   0.0000000   0.0000000
 NMagM=    0.0000000   0.4037610   0.0000000   0.0000000   0.0000000   0.0000000   0.0000000   2.7928460   2.7928460   0.0000000
 AtZNuc=   8.0000000   7.0000000   6.0000000   6.0000000   6.0000000   8.0000000   8.0000000   1.0000000   1.0000000   8.0000000

  Atom        41          42          43          44          45          46          47          48          49          50
 IAtWgt=          12          12          12          12           1           1           1           1           1           1
 AtmWgt=  12.0000000  12.0000000  12.0000000  12.0000000   1.0078250   1.0078250   1.0078250   1.0078250   1.0078250   1.0078250
 NucSpn=           0           0           0           0           1           1           1           1           1           1
 AtZEff=  -0.0000000  -0.0000000  -0.0000000  -0.0000000  -0.0000000  -0.0000000  -0.0000000  -0.0000000  -0.0000000  -0.0000000
 NQMom=    0.0000000   0.0000000   0.0000000   0.0000000   0.0000000   0.0000000   0.0000000   0.0000000   0.0000000   0.0000000
 NMagM=    0.0000000   0.0000000   0.0000000   0.0000000   2.7928460   2.7928460   2.7928460   2.7928460   2.7928460   2.7928460
 AtZNuc=   6.0000000   6.0000000   6.0000000   6.0000000   1.0000000   1.0000000   1.0000000   1.0000000   1.0000000   1.0000000

  Atom        51          52          53          54          55          56          57          58          59          60
 IAtWgt=           1           1           1          12          12          12          12           1           1           1
 AtmWgt=   1.0078250   1.0078250   1.0078250  12.0000000  12.0000000  12.0000000  12.0000000   1.0078250   1.0078250   1.0078250
 NucSpn=           1           1           1           0           0           0           0           1           1           1
 AtZEff=  -0.0000000  -0.0000000  -0.0000000  -0.0000000  -0.0000000  -0.0000000  -0.0000000  -0.0000000  -0.0000000  -0.0000000
 NQMom=    0.0000000   0.0000000   0.0000000   0.0000000   0.0000000   0.0000000   0.0000000   0.0000000   0.0000000   0.0000000
 NMagM=    2.7928460   2.7928460   2.7928460   0.0000000   0.0000000   0.0000000   0.0000000   2.7928460   2.7928460   2.7928460
 AtZNuc=   1.0000000   1.0000000   1.0000000   6.0000000   6.0000000   6.0000000   6.0000000   1.0000000   1.0000000   1.0000000

  Atom        61          62          63          64          65          66
 IAtWgt=           1           1           1           1           1           1
 AtmWgt=   1.0078250   1.0078250   1.0078250   1.0078250   1.0078250   1.0078250
 NucSpn=           1           1           1           1           1           1
 AtZEff=  -0.0000000  -0.0000000  -0.0000000  -0.0000000  -0.0000000  -0.0000000
 NQMom=    0.0000000   0.0000000   0.0000000   0.0000000   0.0000000   0.0000000
 NMagM=    2.7928460   2.7928460   2.7928460   2.7928460   2.7928460   2.7928460
 AtZNuc=   1.0000000   1.0000000   1.0000000   1.0000000   1.0000000   1.0000000
 Leave Link  101 at Tue Oct 22 17:28:57 2024, MaxMem=   104857600 cpu:               0.1 elap:               0.1
 (Enter /home/echo/g16/l103.exe)

 GradGradGradGradGradGradGradGradGradGradGradGradGradGradGradGradGradGrad
 Berny optimization.
 Initialization pass.
 Trust Radius=3.00D-01 FncErr=1.00D-07 GrdErr=1.00D-07 EigMax=2.50D+02 EigMin=1.00D-04
 Number of steps in this run=      2 maximum allowed number of steps=      2.
 GradGradGradGradGradGradGradGradGradGradGradGradGradGradGradGradGradGrad

 Leave Link  103 at Tue Oct 22 17:28:57 2024, MaxMem=   104857600 cpu:               0.0 elap:               0.1
 (Enter /home/echo/g16/l202.exe)
 Stoichiometry    C24H34FeN2O4Pd
 Framework group  C1[X(C24H34FeN2O4Pd)]
 Deg. of freedom   192
 Full point group                 C1      NOp   1
 Largest Abelian subgroup         C1      NOp   1
 Largest concise Abelian subgroup C1      NOp   1
                         Standard orientation:                         
 ---------------------------------------------------------------------
 Center     Atomic      Atomic             Coordinates (Angstroms)
 Number     Number       Type             X           Y           Z
 ---------------------------------------------------------------------
      1          6           0        1.190780    1.514490    0.787780
      2          6           0        2.964080    0.053910    1.951090
      3          6           0        2.499500    1.313090    1.329910
      4          6           0        1.406810    2.254120   -0.407940
      5          6           0        2.749530    2.650730   -0.496050
      6          6           0        3.436500    2.046840    0.565060
      7          1           0        0.667940    2.438230   -1.157930
      8          1           0        3.185130    3.193850   -1.301470
      9          1           0        4.496130    2.007559    0.671760
     10          1           0        3.999390   -0.047561    1.620000
     11          7           0        2.182529   -1.081790    1.423120
     12          1           0        2.930160    0.038350    3.044140
     13          6           0        2.488840    0.340490   -2.370610
     14          6           0        3.787780    0.701269   -1.957180
     15          6           0        4.188159   -0.184901   -0.941610
     16          6           0        3.147979   -1.105900   -0.740560
     17          6           0        2.093369   -0.794060   -1.649650
     18          1           0        1.859290    0.913180   -3.011110
     19          1           0        4.335140    1.558739   -2.268100
     20          1           0        5.073210   -0.086481   -0.356240
     21          1           0        1.219999   -1.378790   -1.856370
     22         26           0        2.556600    0.718290   -0.483840
     23          6           0        2.970619   -1.899030    0.487690
     24          1           0        3.936179   -2.169451    0.933250
     25          1           0        2.398649   -2.803970    0.275770
     26          6           0        1.630749   -1.903090    2.499070
     27          1           0        1.029889   -2.704880    2.067460
     28          1           0        2.422089   -2.350600    3.116250
     29          1           0        0.992269   -1.287320    3.138230
     30         46           0        0.410869   -0.470050    0.396230
     31          8           0       -0.060071   -2.309710   -0.272370
     32          7           0       -1.357540    0.013090   -0.356280
     33          6           0       -1.095251   -2.299820   -1.024960
     34          6           0       -2.109431   -1.169279   -0.741450
     35          6           0       -1.961910    1.092431    0.055510
     36          8           0       -1.312981   -3.130650   -1.891230
     37          8           0       -1.387580    1.955460    0.783120
     38          1           0       -0.116670    1.596000    1.045770
     39          1           0       -2.711571   -0.970019   -1.635020
     40          8           0       -3.230320    1.255521   -0.353180
     41          6           0       -5.348380    2.186081   -0.680420
     42          6           0       -3.997260    2.423621   -0.002500
     43          6           0       -4.173210    2.516291    1.513980
     44          6           0       -3.337960    3.686201   -0.558740
     45          1           0       -5.210490    2.074001   -1.752510
     46          1           0       -5.803980    1.276951   -0.296610
     47          1           0       -6.013010    3.023761   -0.491170
     48          1           0       -4.604590    1.593461    1.896810
     49          1           0       -4.837140    3.341661    1.755220
     50          1           0       -3.212600    2.682871    1.993480
     51          1           0       -3.182190    3.581261   -1.630390
     52          1           0       -3.979070    4.544151   -0.376750
     53          1           0       -2.378080    3.851731   -0.077260
     54          6           0       -3.038091   -1.620029    0.418940
     55          6           0       -2.246991   -1.809969    1.720190
     56          6           0       -3.799511   -2.905819    0.081490
     57          6           0       -4.698271   -2.774559   -1.142490
     58          1           0       -1.582761   -2.671510    1.630060
     59          1           0       -2.932861   -1.994759    2.546620
     60          1           0       -1.653771   -0.913030    1.964340
     61          1           0       -3.772571   -0.820409    0.570730
     62          1           0       -4.409421   -3.172779    0.950200
     63          1           0       -3.088891   -3.715929   -0.090730
     64          1           0       -4.097441   -2.728119   -2.046070
     65          1           0       -5.355341   -3.638369   -1.218520
     66          1           0       -5.312481   -1.877719   -1.078420
 ---------------------------------------------------------------------
 Rotational constants (GHZ):           0.2151216           0.1088973           0.0892386
 Leave Link  202 at Tue Oct 22 17:28:57 2024, MaxMem=   104857600 cpu:               0.0 elap:               0.1
 (Enter /home/echo/g16/l301.exe)
 Standard basis: STO-3G (5D, 7F)
 Ernie: Thresh=  0.10000D-02 Tol=  0.10000D-05 Strict=F.
 There are   232 symmetry adapted cartesian basis functions of A   symmetry.
 There are   229 symmetry adapted basis functions of A   symmetry.
   229 basis functions,   696 primitive gaussians,   232 cartesian basis functions
   148 alpha electrons      148 beta electrons
       nuclear repulsion energy      6011.4272360589 Hartrees.
 IExCor=    0 DFT=F Ex=HF Corr=None ExCW=0 ScaHFX=  1.000000
 ScaDFX=  1.000000  1.000000  1.000000  1.000000 ScalE2=  1.000000  1.000000
 IRadAn=      5 IRanWt=     -1 IRanGd=            0 ICorTp=0 IEmpDi=  4
 NAtoms=   66 NActive=   66 NUniq=   66 SFac= 1.00D+00 NAtFMM=   60 NAOKFM=T Big=T
 Integral buffers will be    131072 words long.
 Raffenetti 1 integral format.
 Two-electron integral symmetry is turned on.
 Leave Link  301 at Tue Oct 22 17:28:57 2024, MaxMem=   104857600 cpu:               0.0 elap:               0.0
 (Enter /home/echo/g16/l402.exe)
 External calculation of energy, first and second derivatives.
 Running external command "./xtb.sh R"
         input file       "/home/echo/scratch/Gau-82190.EIn"
         output file      "/home/echo/scratch/Gau-82190.EOu"
         message file     "/home/echo/scratch/Gau-82190.EMs"
         fchk file        "/home/echo/scratch/Gau-82190.EFC"
         mat. el file     "/home/echo/scratch/Gau-82190.EUF"
Generating mol.tmp
Generating mol.xyz via genxyz
Running: xtb mol.xyz --chrg 0 --uhf 0 --gfn2 --hess --grad > xtbout
xtb running finished!
Extracting data from xtb outputs via extderi
 Recovered energy= -98.7167242695     dipole=      0.000000000000      0.000000000000      0.000000000000
 Energy=    -98.7167243     NIter=   0.
 Dipole moment=       0.000000       0.000000       0.000000
 Leave Link  402 at Tue Oct 22 17:29:06 2024, MaxMem=   104857600 cpu:               0.0 elap:               8.3
 (Enter /home/echo/g16/l601.exe)
 Leave Link  601 at Tue Oct 22 17:29:06 2024, MaxMem=   104857600 cpu:               0.0 elap:               0.0
 (Enter /home/echo/g16/l716.exe)
 Dipole        = 0.00000000D+00 0.00000000D+00 0.00000000D+00
 Full mass-weighted force constant matrix:
 Low frequencies --- -918.5861   -0.0244   -0.0121   -0.0102    0.0048    0.0162
 Low frequencies ---    0.0204   18.2218   25.6112
 ******    1 imaginary frequencies (negative Signs) ****** 
 Diagonal vibrational polarizability:
        0.0000000       0.0000000       0.0000000
 Harmonic frequencies (cm**-1), IR intensities (KM/Mole), Raman scattering
 activities (A**4/AMU), depolarization ratios for plane and unpolarized
 incident light, reduced masses (AMU), force constants (mDyne/A),
 and normal coordinates:
                      1                      2                      3
                      A                      A                      A
 Frequencies --   -918.5861                18.2218                25.6112
 Red. masses --      1.1278                 4.2610                 3.5213
 Frc consts  --      0.5607                 0.0008                 0.0014
 IR Inten    --      0.0000                 0.0000                 0.0000
  Atom  AN      X      Y      Z        X      Y      Z        X      Y      Z
     1   6    -0.01   0.05   0.00     0.00   0.02  -0.06     0.01   0.02  -0.03
     2   6    -0.00  -0.00   0.00    -0.01   0.06   0.00     0.01   0.05   0.00
     3   6    -0.01   0.00   0.00    -0.00   0.04  -0.05     0.01   0.04  -0.02
     4   6     0.01   0.01  -0.01     0.01  -0.03  -0.09     0.01  -0.01  -0.05
     5   6     0.00  -0.00  -0.00     0.01  -0.04  -0.10     0.00  -0.00  -0.05
     6   6    -0.00  -0.00  -0.00     0.01   0.00  -0.07     0.00   0.03  -0.04
     7   1    -0.02   0.02   0.03     0.02  -0.06  -0.10     0.01  -0.03  -0.06
     8   1     0.00  -0.00  -0.00     0.02  -0.07  -0.12     0.00  -0.02  -0.06
     9   1    -0.01  -0.01   0.01     0.01   0.01  -0.06     0.00   0.04  -0.03
    10   1     0.00   0.01   0.00    -0.01   0.04   0.01     0.01   0.05   0.01
    11   7     0.01  -0.00   0.00    -0.02   0.05   0.04     0.01   0.04   0.02
    12   1    -0.00   0.00   0.00    -0.02   0.10   0.00     0.01   0.07   0.00
    13   6    -0.00  -0.00  -0.00     0.03  -0.10  -0.01     0.04  -0.04  -0.00
    14   6    -0.00   0.00   0.00     0.03  -0.10  -0.01     0.03  -0.03   0.00
    15   6    -0.00  -0.00   0.00     0.01  -0.06   0.03     0.03  -0.01   0.02
    16   6     0.00   0.00   0.00     0.00  -0.05   0.05     0.03  -0.01   0.03
    17   6    -0.00   0.00  -0.00     0.01  -0.08   0.03     0.03  -0.03   0.02
    18   1    -0.01  -0.00   0.00     0.04  -0.13  -0.04     0.04  -0.06  -0.02
    19   1     0.00  -0.00  -0.01     0.04  -0.11  -0.03     0.03  -0.03  -0.01
    20   1     0.00  -0.00  -0.00     0.00  -0.05   0.04     0.02   0.01   0.03
    21   1    -0.01   0.01   0.01     0.01  -0.08   0.04     0.04  -0.03   0.02
    22  26    -0.01  -0.00   0.00     0.01  -0.03  -0.02     0.02  -0.00  -0.01
    23   6     0.00  -0.00   0.00    -0.02  -0.00   0.08     0.02   0.02   0.05
    24   1     0.00  -0.01  -0.01    -0.03   0.00   0.10     0.02   0.03   0.06
    25   1    -0.00   0.00  -0.00    -0.03  -0.00   0.11     0.02   0.02   0.06
    26   6    -0.00   0.00   0.00    -0.05   0.10   0.06    -0.00   0.07   0.03
    27   1    -0.00   0.00  -0.00    -0.05   0.09   0.09    -0.01   0.07   0.05
    28   1    -0.00   0.00   0.00    -0.07   0.12   0.10    -0.01   0.07   0.05
    29   1    -0.01   0.00  -0.00    -0.06   0.14   0.02     0.00   0.09   0.02
    30  46    -0.00  -0.00  -0.00    -0.01   0.02  -0.00     0.01   0.01  -0.00
    31   8     0.01   0.01   0.00    -0.03   0.01   0.04     0.02   0.00   0.03
    32   7     0.01  -0.01  -0.02    -0.01   0.03  -0.01     0.01  -0.01  -0.01
    33   6    -0.01   0.01  -0.00     0.02   0.04  -0.02     0.02  -0.03   0.03
    34   6     0.00  -0.00   0.00     0.00   0.03  -0.03     0.02  -0.02  -0.02
    35   6     0.02   0.04   0.04    -0.01   0.01   0.03    -0.00  -0.02   0.00
    36   8     0.01  -0.00   0.00     0.07   0.07  -0.07     0.02  -0.07   0.07
    37   8    -0.03  -0.02  -0.02    -0.01  -0.01   0.06    -0.01  -0.03   0.02
    38   1     0.94  -0.23   0.22     0.01   0.03  -0.04     0.01   0.01  -0.03
    39   1    -0.00   0.00   0.01     0.02   0.03  -0.05     0.05  -0.03  -0.04
    40   8    -0.01  -0.01  -0.01    -0.01   0.02   0.04     0.00  -0.02  -0.01
    41   6    -0.00   0.00   0.00    -0.02   0.02   0.09    -0.01  -0.04   0.02
    42   6     0.00  -0.01  -0.00    -0.02   0.00   0.09    -0.02  -0.05   0.03
    43   6    -0.00   0.00  -0.00    -0.02  -0.07   0.10    -0.02  -0.11   0.04
    44   6    -0.00  -0.00   0.00    -0.03   0.03   0.15    -0.04  -0.01   0.08
    45   1    -0.00   0.00   0.00    -0.02   0.07   0.08    -0.01  -0.01   0.02
    46   1    -0.00   0.00   0.00    -0.01  -0.00   0.05     0.00  -0.06  -0.01
    47   1    -0.00   0.00   0.00    -0.03   0.01   0.12    -0.03  -0.06   0.05
    48   1    -0.00  -0.00   0.00    -0.01  -0.09   0.06    -0.01  -0.13   0.00
    49   1     0.00   0.00   0.00    -0.02  -0.09   0.14    -0.04  -0.12   0.07
    50   1     0.01  -0.01  -0.01    -0.02  -0.08   0.10    -0.03  -0.11   0.05
    51   1    -0.00  -0.00   0.00    -0.03   0.08   0.14    -0.04   0.03   0.08
    52   1     0.00   0.00   0.01    -0.04   0.02   0.19    -0.05  -0.03   0.12
    53   1     0.00  -0.02   0.00    -0.03   0.02   0.15    -0.04  -0.02   0.09
    54   6    -0.00  -0.00   0.00    -0.02   0.02  -0.06    -0.02  -0.01  -0.05
    55   6     0.00   0.00  -0.00    -0.06   0.07  -0.02    -0.03  -0.11  -0.05
    56   6    -0.00  -0.00   0.00     0.05  -0.03  -0.06    -0.10   0.06  -0.11
    57   6    -0.00  -0.00   0.00     0.16  -0.12  -0.15    -0.21   0.23  -0.01
    58   1     0.00  -0.00   0.00    -0.02   0.10   0.01    -0.12  -0.17  -0.06
    59   1     0.00   0.01   0.00    -0.08   0.05  -0.05    -0.05  -0.04  -0.05
    60   1     0.00   0.01  -0.01    -0.11   0.10  -0.01     0.06  -0.17  -0.05
    61   1     0.01   0.00  -0.00    -0.06  -0.01  -0.10     0.03   0.03  -0.02
    62   1    -0.00  -0.00  -0.00    -0.02   0.00  -0.10    -0.04  -0.00  -0.08
    63   1    -0.00  -0.00   0.00     0.09  -0.01   0.05    -0.15   0.04  -0.26
    64   1     0.00   0.00   0.00     0.24  -0.16  -0.10    -0.30   0.31  -0.07
    65   1    -0.00   0.00  -0.00     0.19  -0.14  -0.16    -0.24   0.25  -0.05
    66   1     0.00   0.00   0.00     0.13  -0.13  -0.26    -0.17   0.24   0.15
                      4                      5                      6
                      A                      A                      A
 Frequencies --     33.3084                41.6242                49.0404
 Red. masses --      4.5299                 3.5505                 3.7240
 Frc consts  --      0.0030                 0.0036                 0.0053
 IR Inten    --      0.0000                 0.0000                 0.0000
  Atom  AN      X      Y      Z        X      Y      Z        X      Y      Z
     1   6    -0.01  -0.00   0.01    -0.01   0.00  -0.03    -0.02  -0.01  -0.03
     2   6     0.04   0.03  -0.03    -0.02   0.03   0.01    -0.03   0.03   0.01
     3   6     0.01   0.02  -0.03    -0.02   0.02  -0.00    -0.03   0.02  -0.00
     4   6    -0.06  -0.01   0.00    -0.00  -0.02  -0.04    -0.01  -0.02  -0.04
     5   6    -0.06   0.01  -0.04    -0.00  -0.01  -0.02    -0.02  -0.00  -0.02
     6   6    -0.02   0.03  -0.06    -0.01   0.02  -0.00    -0.03   0.02   0.01
     7   1    -0.08  -0.02   0.02     0.01  -0.04  -0.05     0.00  -0.05  -0.06
     8   1    -0.10   0.01  -0.06     0.00  -0.01  -0.03    -0.01  -0.01  -0.01
     9   1    -0.02   0.04  -0.10    -0.01   0.03   0.01    -0.03   0.04   0.03
    10   1     0.03   0.04  -0.06    -0.01   0.03   0.03    -0.02   0.04   0.04
    11   7     0.04   0.02   0.00    -0.00   0.02   0.01    -0.01   0.01   0.00
    12   1     0.08   0.04  -0.03    -0.03   0.04   0.01    -0.05   0.03   0.01
    13   6    -0.09  -0.01  -0.02     0.05  -0.03   0.01     0.07  -0.03   0.01
    14   6    -0.08   0.01  -0.06     0.04  -0.02   0.03     0.05  -0.00   0.04
    15   6    -0.04   0.02  -0.06     0.03  -0.00   0.05     0.04   0.01   0.06
    16   6    -0.03   0.01  -0.03     0.03  -0.01   0.04     0.05  -0.00   0.04
    17   6    -0.06  -0.01  -0.00     0.05  -0.02   0.02     0.07  -0.02   0.01
    18   1    -0.11  -0.02  -0.01     0.06  -0.04  -0.01     0.08  -0.04  -0.01
    19   1    -0.10   0.02  -0.08     0.04  -0.02   0.03     0.05   0.00   0.04
    20   1    -0.03   0.04  -0.09     0.02   0.01   0.06     0.03   0.03   0.08
    21   1    -0.05  -0.02   0.02     0.06  -0.03   0.01     0.08  -0.04   0.00
    22  26    -0.04   0.01  -0.02     0.02  -0.01   0.01     0.02  -0.01   0.01
    23   6     0.02   0.02  -0.02     0.02   0.01   0.04     0.03   0.01   0.04
    24   1     0.03   0.03  -0.04     0.01   0.02   0.07     0.02   0.02   0.07
    25   1     0.02   0.01   0.01     0.02   0.00   0.05     0.04   0.00   0.03
    26   6     0.07   0.02   0.02    -0.03   0.04   0.02    -0.03   0.02   0.00
    27   1     0.06   0.02   0.04    -0.02   0.03   0.02    -0.00   0.01  -0.01
    28   1     0.09   0.03   0.01    -0.04   0.05   0.04    -0.04   0.04   0.03
    29   1     0.08   0.03   0.03    -0.04   0.05  -0.01    -0.05   0.02  -0.03
    30  46     0.00  -0.01   0.05    -0.01   0.00  -0.02    -0.01  -0.01  -0.04
    31   8     0.01  -0.02   0.07     0.00   0.02  -0.06    -0.00   0.01  -0.10
    32   7     0.00  -0.02   0.07    -0.03  -0.01   0.02    -0.02   0.00  -0.01
    33   6     0.04  -0.01   0.03    -0.00   0.03  -0.06    -0.03   0.02  -0.06
    34   6     0.02  -0.02   0.01    -0.02  -0.00   0.00    -0.03  -0.00   0.00
    35   6    -0.01  -0.04   0.10    -0.04  -0.02   0.06    -0.03  -0.01   0.02
    36   8     0.07   0.01  -0.00     0.01   0.06  -0.09    -0.05   0.04  -0.07
    37   8    -0.03  -0.08   0.17    -0.02  -0.02   0.04    -0.04  -0.05   0.07
    38   1     0.00  -0.02   0.06     0.00   0.00  -0.02    -0.02  -0.01  -0.02
    39   1     0.05  -0.00  -0.00    -0.04   0.01   0.02    -0.08   0.00   0.04
    40   8     0.01  -0.01   0.05    -0.06  -0.04   0.13    -0.02   0.01   0.00
    41   6     0.10   0.13  -0.15    -0.05  -0.01   0.12     0.05   0.11  -0.14
    42   6     0.06   0.05  -0.03    -0.01   0.02   0.03    -0.00   0.02  -0.00
    43   6    -0.07   0.09  -0.05     0.07   0.22   0.02    -0.12  -0.06  -0.01
    44   6     0.19  -0.00  -0.00     0.02  -0.07  -0.16     0.08   0.04   0.12
    45   1     0.19   0.11  -0.14    -0.10  -0.16   0.13     0.13   0.20  -0.13
    46   1     0.01   0.16  -0.18    -0.07   0.06   0.27    -0.00   0.09  -0.25
    47   1     0.14   0.17  -0.21    -0.00   0.04   0.04     0.05   0.11  -0.12
    48   1    -0.18   0.13  -0.07     0.06   0.29   0.16    -0.22  -0.06  -0.11
    49   1    -0.02   0.15  -0.12     0.10   0.27  -0.06    -0.08  -0.03  -0.01
    50   1    -0.09   0.01   0.03     0.09   0.26  -0.04    -0.15  -0.16   0.07
    51   1     0.29  -0.05   0.02    -0.03  -0.22  -0.16     0.20   0.08   0.14
    52   1     0.22   0.04  -0.10     0.06  -0.02  -0.24     0.08   0.04   0.09
    53   1     0.15  -0.04   0.09     0.05  -0.05  -0.23     0.03   0.00   0.23
    54   6    -0.01  -0.05  -0.03     0.01  -0.06   0.00     0.03  -0.02   0.05
    55   6    -0.04  -0.09  -0.01     0.03  -0.11  -0.02     0.09   0.01   0.02
    56   6    -0.01  -0.03  -0.09     0.01  -0.06  -0.04     0.04  -0.03   0.10
    57   6     0.02   0.01  -0.10    -0.05   0.00   0.02    -0.07  -0.04   0.18
    58   1    -0.06  -0.11  -0.02     0.03  -0.10  -0.07     0.13   0.04  -0.02
    59   1    -0.06  -0.09  -0.03     0.05  -0.13  -0.01     0.13  -0.04   0.04
    60   1    -0.02  -0.12   0.01     0.04  -0.11  -0.01     0.06   0.03   0.01
    61   1    -0.01  -0.05  -0.02     0.00  -0.07   0.05     0.02  -0.03   0.08
    62   1    -0.03  -0.06  -0.11     0.06  -0.12  -0.02     0.13  -0.07   0.15
    63   1    -0.01  -0.03  -0.10     0.02  -0.03  -0.13     0.06  -0.01   0.02
    64   1     0.04   0.04  -0.09    -0.10   0.08  -0.01    -0.15   0.02   0.13
    65   1     0.01   0.02  -0.15    -0.03  -0.01  -0.01    -0.03  -0.08   0.21
    66   1     0.02   0.02  -0.08    -0.07  -0.02   0.11    -0.11  -0.08   0.27
                      7                      8                      9
                      A                      A                      A
 Frequencies --     60.9026                79.0946                84.8941
 Red. masses --      5.6584                 3.6127                 4.3723
 Frc consts  --      0.0124                 0.0133                 0.0186
 IR Inten    --      0.0000                 0.0000                 0.0000
  Atom  AN      X      Y      Z        X      Y      Z        X      Y      Z
     1   6    -0.00   0.00   0.03     0.02   0.02  -0.00    -0.05  -0.04   0.03
     2   6     0.02  -0.01  -0.01    -0.02  -0.02  -0.01     0.00   0.05   0.03
     3   6     0.01  -0.01  -0.01     0.01  -0.00   0.00    -0.04   0.03   0.01
     4   6    -0.02  -0.02   0.01     0.03   0.04   0.01    -0.10  -0.05   0.01
     5   6    -0.02  -0.04  -0.03     0.04   0.01   0.02    -0.12   0.01  -0.01
     6   6     0.00  -0.03  -0.04     0.03  -0.02   0.01    -0.08   0.05  -0.01
     7   1    -0.03  -0.02   0.03     0.04   0.06   0.01    -0.12  -0.08   0.02
     8   1    -0.04  -0.05  -0.04     0.06   0.01   0.02    -0.15   0.02  -0.03
     9   1     0.01  -0.04  -0.06     0.03  -0.04   0.01    -0.08   0.10  -0.03
    10   1     0.01  -0.02  -0.04    -0.03  -0.05  -0.03     0.01   0.09   0.04
    11   7     0.00  -0.01   0.02    -0.06   0.01  -0.00     0.05   0.02   0.03
    12   1     0.05  -0.01  -0.01     0.00  -0.02  -0.01    -0.01   0.07   0.03
    13   6    -0.07  -0.04  -0.00     0.01   0.06  -0.01    -0.07  -0.06   0.03
    14   6    -0.06  -0.05  -0.03     0.02  -0.02   0.02    -0.08   0.04  -0.01
    15   6    -0.05  -0.04  -0.03    -0.04  -0.06   0.01     0.01   0.10   0.00
    16   6    -0.05  -0.04  -0.01    -0.09  -0.00  -0.02     0.08   0.03   0.05
    17   6    -0.06  -0.03   0.01    -0.06   0.07  -0.03     0.03  -0.07   0.06
    18   1    -0.08  -0.04   0.01     0.05   0.10  -0.01    -0.13  -0.12   0.03
    19   1    -0.06  -0.05  -0.04     0.07  -0.03   0.05    -0.15   0.07  -0.05
    20   1    -0.03  -0.05  -0.05    -0.04  -0.11   0.02     0.01   0.18  -0.02
    21   1    -0.06  -0.03   0.02    -0.09   0.13  -0.06     0.09  -0.16   0.09
    22  26    -0.03  -0.03  -0.00    -0.00   0.02  -0.00    -0.04  -0.00   0.02
    23   6    -0.03  -0.03   0.00    -0.12  -0.01  -0.03     0.12   0.05   0.06
    24   1    -0.02  -0.04  -0.02    -0.13  -0.08  -0.05     0.14   0.13   0.08
    25   1    -0.05  -0.02   0.02    -0.18   0.02  -0.04     0.19  -0.00   0.08
    26   6     0.03  -0.00   0.04    -0.06   0.02   0.01     0.07   0.01   0.03
    27   1     0.02  -0.01   0.07    -0.09   0.03   0.02     0.11  -0.02   0.03
    28   1     0.05  -0.00   0.02    -0.06   0.00  -0.01     0.08   0.04   0.05
    29   1     0.05   0.00   0.06    -0.04   0.03   0.02     0.04  -0.01   0.01
    30  46     0.01  -0.01   0.06    -0.02   0.03   0.01    -0.01  -0.05  -0.00
    31   8    -0.01  -0.01   0.03     0.03  -0.00   0.08    -0.02  -0.04  -0.01
    32   7     0.05   0.05   0.02    -0.01  -0.03  -0.05     0.01  -0.02  -0.04
    33   6     0.06   0.10  -0.07     0.07  -0.04   0.02    -0.00  -0.02  -0.03
    34   6     0.04   0.06   0.01     0.03  -0.06  -0.04    -0.00  -0.02  -0.04
    35   6     0.03   0.05  -0.01    -0.01  -0.03  -0.05     0.02   0.00  -0.09
    36   8     0.16   0.25  -0.24     0.15  -0.05   0.01     0.01  -0.01  -0.06
    37   8     0.01   0.08  -0.03     0.01  -0.04  -0.06     0.02   0.01  -0.10
    38   1    -0.00   0.04   0.04    -0.01  -0.01  -0.04    -0.03  -0.04   0.03
    39   1     0.02   0.08   0.03     0.04  -0.10  -0.07     0.00  -0.02  -0.04
    40   8     0.04   0.01  -0.04    -0.01  -0.00  -0.03     0.03   0.05  -0.11
    41   6    -0.02  -0.12  -0.05     0.01   0.10   0.05     0.02   0.11   0.11
    42   6    -0.04  -0.04  -0.05     0.04   0.02   0.02     0.08   0.05   0.01
    43   6    -0.05  -0.05  -0.05     0.09  -0.01   0.03     0.20  -0.02   0.03
    44   6    -0.11   0.01  -0.04     0.08   0.01   0.03     0.05   0.07   0.02
    45   1    -0.00  -0.12  -0.05    -0.02   0.13   0.04    -0.08   0.15   0.10
    46   1     0.04  -0.15  -0.05    -0.02   0.11   0.04     0.02   0.12   0.12
    47   1    -0.07  -0.16  -0.06     0.06   0.13   0.10     0.06   0.13   0.20
    48   1     0.01  -0.08  -0.05     0.07  -0.00   0.02     0.28  -0.06   0.02
    49   1    -0.10  -0.10  -0.04     0.11   0.01   0.06     0.16  -0.07   0.11
    50   1    -0.06   0.01  -0.04     0.10  -0.04   0.01     0.22   0.02  -0.03
    51   1    -0.12   0.03  -0.04     0.06   0.02   0.03    -0.06   0.13  -0.00
    52   1    -0.15  -0.03  -0.02     0.11   0.03   0.05     0.09   0.07   0.14
    53   1    -0.11   0.05  -0.05     0.09  -0.03   0.02     0.10   0.02  -0.07
    54   6     0.07   0.02   0.01     0.01  -0.06  -0.06    -0.01   0.00  -0.04
    55   6     0.08   0.00   0.01    -0.03   0.01  -0.03    -0.02   0.03  -0.03
    56   6     0.10   0.01  -0.01     0.07  -0.10  -0.04    -0.00  -0.01  -0.01
    57   6    -0.08   0.10   0.12    -0.11  -0.11   0.10    -0.04  -0.02   0.02
    58   1     0.09   0.01  -0.01    -0.02   0.01   0.04     0.01   0.05  -0.01
    59   1     0.09  -0.02   0.00    -0.05   0.05  -0.04    -0.02   0.02  -0.03
    60   1     0.07   0.01   0.02    -0.04   0.02  -0.05    -0.04   0.05  -0.02
    61   1     0.06   0.00   0.04    -0.03  -0.08  -0.10    -0.01   0.01  -0.06
    62   1     0.22  -0.11   0.04     0.21  -0.21   0.03     0.03  -0.02   0.01
    63   1     0.12   0.07  -0.19     0.12  -0.03  -0.18     0.01   0.00  -0.03
    64   1    -0.21   0.29   0.05    -0.25   0.10   0.02    -0.08   0.01   0.00
    65   1    -0.01   0.05   0.09     0.01  -0.20   0.09    -0.02  -0.04   0.03
    66   1    -0.15   0.04   0.33    -0.25  -0.21   0.29    -0.08  -0.04   0.06
                     10                     11                     12
                      A                      A                      A
 Frequencies --    100.3925               111.1775               122.4456
 Red. masses --      3.3090                 4.0869                 3.7754
 Frc consts  --      0.0196                 0.0298                 0.0334
 IR Inten    --      0.0000                 0.0000                 0.0000
  Atom  AN      X      Y      Z        X      Y      Z        X      Y      Z
     1   6    -0.01  -0.01   0.03    -0.02  -0.04   0.03    -0.05   0.03  -0.05
     2   6     0.05   0.02  -0.06     0.04   0.00  -0.06    -0.14  -0.00   0.06
     3   6     0.01   0.03  -0.01    -0.01   0.01  -0.00    -0.08  -0.02  -0.01
     4   6    -0.06  -0.04   0.00    -0.08  -0.05   0.01     0.00   0.04  -0.03
     5   6    -0.08  -0.00  -0.04    -0.10   0.00  -0.02     0.02   0.01   0.02
     6   6    -0.03   0.04  -0.05    -0.05   0.05  -0.03    -0.03  -0.03   0.03
     7   1    -0.09  -0.08   0.02    -0.10  -0.10   0.02     0.04   0.07  -0.06
     8   1    -0.12  -0.02  -0.08    -0.14   0.00  -0.04     0.06   0.01   0.05
     9   1    -0.03   0.06  -0.09    -0.05   0.08  -0.06    -0.04  -0.05   0.07
    10   1     0.01   0.00  -0.17     0.01   0.01  -0.14    -0.10  -0.01   0.18
    11   7    -0.03   0.04   0.01    -0.00   0.01  -0.02    -0.08  -0.02   0.01
    12   1     0.16   0.01  -0.06     0.13  -0.02  -0.05    -0.26   0.03   0.06
    13   6     0.06   0.05   0.00     0.07   0.05  -0.00    -0.03  -0.03  -0.02
    14   6     0.05  -0.02   0.07     0.05   0.03   0.07    -0.03  -0.01  -0.02
    15   6    -0.03  -0.06   0.06     0.00  -0.01   0.05    -0.03   0.02   0.00
    16   6    -0.08  -0.02  -0.01    -0.02  -0.00  -0.02    -0.02   0.01   0.02
    17   6    -0.03   0.06  -0.04     0.02   0.05  -0.05    -0.02  -0.02   0.00
    18   1     0.10   0.10   0.00     0.10   0.09  -0.00    -0.03  -0.05  -0.04
    19   1     0.10  -0.03   0.13     0.08   0.03   0.12    -0.04  -0.01  -0.04
    20   1    -0.04  -0.12   0.08    -0.01  -0.04   0.08    -0.04   0.04   0.02
    21   1    -0.07   0.13  -0.08    -0.01   0.09  -0.07    -0.01  -0.04  -0.00
    22  26    -0.02  -0.01   0.01    -0.01  -0.00   0.01    -0.03   0.01  -0.02
    23   6    -0.13  -0.03  -0.02    -0.06  -0.02  -0.04    -0.01   0.02   0.03
    24   1    -0.15  -0.13  -0.05    -0.08  -0.10  -0.05    -0.01   0.08   0.05
    25   1    -0.24   0.04  -0.02    -0.12   0.02  -0.05     0.04  -0.01   0.02
    26   6    -0.01   0.10   0.07     0.00   0.05   0.02    -0.08  -0.08  -0.03
    27   1    -0.06   0.11   0.14    -0.02   0.05   0.05    -0.03  -0.09  -0.08
    28   1     0.01   0.09   0.05     0.00   0.06   0.02    -0.08  -0.06  -0.02
    29   1     0.06   0.16   0.09     0.02   0.09   0.00    -0.13  -0.12  -0.03
    30  46    -0.01  -0.01   0.02     0.01  -0.03  -0.00    -0.01  -0.00  -0.02
    31   8     0.04   0.01  -0.10    -0.00  -0.03  -0.02     0.03  -0.05   0.07
    32   7     0.01  -0.01  -0.00     0.06   0.02  -0.06     0.04   0.02  -0.09
    33   6    -0.00  -0.01  -0.04     0.00  -0.01  -0.02     0.07  -0.03   0.01
    34   6     0.01  -0.01   0.01     0.04   0.04  -0.07     0.07  -0.02  -0.02
    35   6     0.02  -0.00  -0.03     0.03  -0.03   0.05    -0.01  -0.04  -0.01
    36   8    -0.06  -0.02  -0.01    -0.03  -0.03   0.01     0.11  -0.01  -0.01
    37   8     0.02   0.01  -0.05    -0.02  -0.10   0.17    -0.05  -0.06   0.05
    38   1    -0.00  -0.02   0.04    -0.01  -0.04   0.08    -0.06   0.05  -0.06
    39   1    -0.03  -0.01   0.04     0.07   0.04  -0.09     0.05  -0.07  -0.02
    40   8     0.02   0.01  -0.05     0.05  -0.03   0.02    -0.01  -0.05   0.01
    41   6     0.02   0.03   0.02     0.03  -0.10   0.02     0.01   0.02   0.04
    42   6     0.03   0.01  -0.01     0.03  -0.04   0.00     0.03  -0.02   0.02
    43   6     0.06  -0.03   0.00     0.03   0.02  -0.00     0.04  -0.00   0.02
    44   6     0.02   0.02   0.01     0.01  -0.06  -0.05     0.07  -0.05  -0.00
    45   1    -0.01   0.06   0.01     0.03  -0.21   0.03    -0.01   0.00   0.04
    46   1     0.02   0.02   0.00     0.02  -0.06   0.11    -0.03   0.05   0.06
    47   1     0.02   0.03   0.06     0.03  -0.08  -0.07     0.05   0.06   0.04
    48   1     0.09  -0.05  -0.01     0.10   0.00   0.04     0.01   0.02   0.03
    49   1     0.05  -0.05   0.03    -0.03  -0.02  -0.04     0.06   0.02   0.01
    50   1     0.07  -0.03  -0.02     0.02   0.11  -0.01     0.04  -0.03   0.02
    51   1    -0.01   0.05   0.00    -0.03  -0.08  -0.05     0.09  -0.09   0.01
    52   1     0.03   0.02   0.05     0.03  -0.04  -0.04     0.08  -0.03  -0.04
    53   1     0.04   0.00  -0.01     0.03  -0.06  -0.09     0.06  -0.06   0.01
    54   6     0.07  -0.03   0.05    -0.01   0.11  -0.08     0.11   0.05   0.03
    55   6     0.14  -0.13  -0.01    -0.07   0.25  -0.02     0.13   0.04   0.01
    56   6    -0.01   0.02   0.03     0.02   0.08   0.00     0.01   0.10   0.07
    57   6     0.09   0.06  -0.04    -0.05   0.02   0.05     0.09   0.15   0.01
    58   1     0.11  -0.14  -0.10     0.01   0.30   0.06     0.10   0.01   0.01
    59   1     0.18  -0.17   0.02    -0.10   0.23  -0.05     0.14   0.07   0.03
    60   1     0.17  -0.16   0.01    -0.16   0.31  -0.02     0.16   0.02  -0.01
    61   1     0.11  -0.01   0.13    -0.04   0.11  -0.18     0.15   0.09   0.04
    62   1    -0.09   0.09  -0.00     0.07   0.08   0.04    -0.06   0.21   0.05
    63   1    -0.06  -0.04   0.10     0.04   0.09  -0.01    -0.06   0.03   0.14
    64   1     0.16  -0.11   0.00    -0.09   0.07   0.02     0.14  -0.08   0.03
    65   1    -0.03   0.15  -0.02     0.02  -0.03   0.07    -0.09   0.29   0.08
    66   1     0.22   0.15  -0.15    -0.11  -0.03   0.09     0.28   0.29  -0.12
                     13                     14                     15
                      A                      A                      A
 Frequencies --    136.3768               143.2369               145.6822
 Red. masses --      5.2801                 5.2538                 2.2683
 Frc consts  --      0.0579                 0.0635                 0.0284
 IR Inten    --      0.0000                 0.0000                 0.0000
  Atom  AN      X      Y      Z        X      Y      Z        X      Y      Z
     1   6    -0.02  -0.04  -0.04    -0.07  -0.06   0.00     0.01   0.02  -0.06
     2   6     0.01   0.00  -0.05    -0.03  -0.04  -0.04    -0.04   0.01   0.03
     3   6    -0.03   0.01  -0.01    -0.07  -0.04  -0.01    -0.01  -0.00  -0.02
     4   6    -0.04  -0.04  -0.04    -0.10  -0.11  -0.03     0.04   0.04  -0.04
     5   6    -0.05   0.02  -0.01    -0.11  -0.05  -0.03     0.05   0.02   0.00
     6   6    -0.05   0.05   0.00    -0.09  -0.01  -0.02     0.02  -0.00   0.01
     7   1    -0.03  -0.07  -0.05    -0.10  -0.15  -0.03     0.06   0.06  -0.05
     8   1    -0.06   0.03  -0.01    -0.14  -0.05  -0.04     0.08   0.03   0.02
     9   1    -0.05   0.09   0.02    -0.09   0.03  -0.02     0.01  -0.01   0.04
    10   1     0.00   0.03  -0.09    -0.03  -0.00  -0.06    -0.02  -0.00   0.09
    11   7     0.01  -0.00  -0.04     0.00  -0.06  -0.06    -0.01  -0.01   0.02
    12   1     0.05  -0.02  -0.05    -0.02  -0.07  -0.04    -0.11   0.04   0.02
    13   6     0.14   0.07  -0.02     0.09  -0.01  -0.02     0.04   0.01  -0.03
    14   6     0.12   0.05   0.07     0.06   0.02   0.06     0.04  -0.01  -0.02
    15   6     0.05   0.01   0.06     0.04   0.00   0.05     0.01  -0.01   0.00
    16   6     0.03   0.02  -0.03     0.06  -0.03  -0.03    -0.01   0.02   0.00
    17   6     0.07   0.07  -0.06     0.09  -0.03  -0.06     0.00   0.02  -0.01
    18   1     0.18   0.10  -0.03     0.10  -0.00  -0.02     0.06   0.00  -0.05
    19   1     0.15   0.05   0.13     0.05   0.04   0.11     0.06  -0.03  -0.02
    20   1     0.03  -0.03   0.10     0.01   0.01   0.09    -0.00  -0.02   0.02
    21   1     0.04   0.12  -0.09     0.08  -0.01  -0.07    -0.01   0.05  -0.01
    22  26     0.03   0.01  -0.01    -0.02  -0.06  -0.00     0.02   0.03  -0.03
    23   6    -0.01  -0.01  -0.05     0.03  -0.05  -0.05    -0.01   0.02   0.00
    24   1    -0.03  -0.07  -0.05     0.02  -0.05  -0.03    -0.00   0.03  -0.00
    25   1    -0.05   0.02  -0.08     0.04  -0.04  -0.08     0.01   0.01   0.00
    26   6     0.04  -0.01  -0.03     0.04  -0.11  -0.08     0.05  -0.05   0.02
    27   1     0.03  -0.00  -0.01     0.06  -0.11  -0.10     0.06  -0.06   0.02
    28   1     0.06  -0.01  -0.06     0.06  -0.11  -0.11     0.08  -0.04  -0.01
    29   1     0.06  -0.01  -0.01     0.03  -0.15  -0.05     0.04  -0.09   0.06
    30  46     0.01  -0.04  -0.02    -0.00   0.01   0.00    -0.01  -0.01   0.02
    31   8    -0.07  -0.07   0.18     0.08   0.04   0.08    -0.01   0.00  -0.01
    32   7    -0.05  -0.05   0.06    -0.01   0.08   0.02    -0.02  -0.02   0.03
    33   6     0.01  -0.00   0.06     0.09   0.02   0.08    -0.02   0.00  -0.01
    34   6    -0.05  -0.06   0.09     0.07   0.03   0.01    -0.02  -0.01   0.01
    35   6    -0.03  -0.01  -0.01    -0.04   0.08   0.02    -0.01  -0.01   0.03
    36   8     0.17   0.15  -0.12     0.07  -0.06   0.16    -0.01   0.02  -0.02
    37   8     0.01   0.03  -0.10    -0.06   0.06   0.03    -0.03  -0.07   0.12
    38   1     0.04  -0.05  -0.03    -0.01  -0.02   0.06     0.00  -0.01  -0.04
    39   1    -0.03  -0.08   0.07     0.08  -0.02  -0.01    -0.03  -0.00   0.02
    40   8    -0.04  -0.02   0.00    -0.03   0.10  -0.02     0.04   0.06  -0.10
    41   6    -0.02   0.05   0.00    -0.07   0.07   0.00    -0.00  -0.01   0.00
    42   6    -0.01  -0.00   0.00    -0.06   0.09  -0.01     0.01   0.02  -0.04
    43   6    -0.01  -0.01   0.00    -0.07   0.09  -0.01     0.05  -0.02  -0.03
    44   6     0.02  -0.01   0.01    -0.11   0.12   0.01    -0.05   0.06  -0.02
    45   1    -0.03   0.12  -0.01    -0.07   0.02   0.01     0.01  -0.26   0.03
    46   1    -0.02   0.03  -0.05    -0.09   0.10   0.05    -0.09   0.12   0.19
    47   1    -0.01   0.04   0.06    -0.05   0.10  -0.04     0.07   0.09  -0.20
    48   1    -0.09   0.02  -0.01     0.02   0.05   0.01     0.35  -0.16  -0.01
    49   1     0.07   0.04   0.02    -0.14   0.03  -0.01    -0.19  -0.23  -0.00
    50   1     0.01  -0.11   0.00    -0.08   0.18  -0.01     0.02   0.26  -0.07
    51   1     0.06  -0.02   0.02    -0.22   0.20  -0.01    -0.32   0.21  -0.08
    52   1     0.01  -0.01  -0.02    -0.09   0.11   0.14     0.06   0.08   0.28
    53   1     0.00  -0.01   0.04    -0.06   0.08  -0.07     0.09  -0.08  -0.23
    54   6    -0.09  -0.00   0.08     0.07  -0.02  -0.01    -0.02  -0.02   0.02
    55   6    -0.14  -0.01   0.11     0.06  -0.03  -0.00    -0.01  -0.05   0.01
    56   6    -0.15   0.04   0.08     0.12  -0.03  -0.07    -0.03  -0.01   0.02
    57   6    -0.02   0.03  -0.01     0.05   0.03  -0.01    -0.01  -0.03   0.01
    58   1    -0.22  -0.07   0.17     0.04  -0.04   0.01    -0.01  -0.05  -0.01
    59   1    -0.17   0.12   0.11     0.05  -0.01  -0.01    -0.00  -0.06   0.01
    60   1    -0.05  -0.05   0.05     0.07  -0.04  -0.00    -0.00  -0.05   0.02
    61   1    -0.05   0.04   0.04     0.05  -0.04   0.00    -0.01  -0.01   0.03
    62   1    -0.25   0.13   0.04     0.18  -0.14  -0.06    -0.05   0.01   0.02
    63   1    -0.19  -0.03   0.21     0.15   0.02  -0.17    -0.04  -0.02   0.05
    64   1     0.07  -0.14   0.04    -0.01   0.17  -0.04     0.01  -0.06   0.01
    65   1    -0.12   0.10   0.01     0.11  -0.01  -0.06    -0.02  -0.02   0.02
    66   1     0.09   0.11  -0.16    -0.02  -0.02   0.12     0.00  -0.02  -0.03
                     16                     17                     18
                      A                      A                      A
 Frequencies --    150.8411               163.4693               168.5445
 Red. masses --      2.8405                 2.6691                 1.9090
 Frc consts  --      0.0381                 0.0420                 0.0320
 IR Inten    --      0.0000                 0.0000                 0.0000
  Atom  AN      X      Y      Z        X      Y      Z        X      Y      Z
     1   6    -0.01   0.00  -0.06     0.03  -0.03   0.05     0.02  -0.01   0.01
     2   6    -0.03   0.02   0.03     0.10  -0.02  -0.03     0.04  -0.01  -0.02
     3   6    -0.02  -0.01  -0.03     0.04  -0.01   0.03     0.02  -0.01   0.01
     4   6     0.01   0.03  -0.04     0.01  -0.03   0.05     0.01  -0.01   0.01
     5   6     0.02   0.02  -0.01     0.00  -0.02   0.02     0.01  -0.01   0.01
     6   6    -0.00   0.00  -0.00     0.03  -0.01   0.01     0.01  -0.01   0.00
     7   1     0.02   0.05  -0.04    -0.00  -0.03   0.06     0.01  -0.02   0.01
     8   1     0.04   0.02   0.01    -0.02  -0.02   0.01     0.00  -0.01   0.00
     9   1    -0.01   0.00   0.02     0.03  -0.01  -0.01     0.02  -0.01  -0.00
    10   1    -0.02   0.01   0.09     0.07  -0.01  -0.12     0.03  -0.01  -0.05
    11   7    -0.00  -0.04   0.08     0.05  -0.00   0.02     0.02   0.00  -0.01
    12   1    -0.08   0.08   0.03     0.20  -0.04  -0.02     0.07  -0.03  -0.01
    13   6     0.06   0.00  -0.03    -0.05  -0.01   0.04    -0.01  -0.00   0.01
    14   6     0.05  -0.02   0.00    -0.03  -0.01  -0.00    -0.01  -0.00  -0.01
    15   6    -0.00  -0.02   0.03     0.00  -0.02  -0.02     0.01  -0.00  -0.02
    16   6    -0.04   0.02   0.02     0.01  -0.02  -0.00     0.02  -0.01  -0.01
    17   6    -0.00   0.03  -0.02    -0.02  -0.02   0.03     0.00  -0.01   0.01
    18   1     0.10   0.00  -0.07    -0.07  -0.00   0.07    -0.03  -0.00   0.03
    19   1     0.08  -0.04   0.01    -0.05  -0.00  -0.01    -0.02   0.00  -0.01
    20   1    -0.02  -0.04   0.05     0.02  -0.02  -0.06     0.02  -0.00  -0.03
    21   1    -0.02   0.07  -0.03    -0.00  -0.04   0.03     0.01  -0.02   0.02
    22  26     0.00   0.02  -0.03     0.02  -0.02   0.03     0.02  -0.01   0.01
    23   6    -0.02   0.01   0.01     0.02  -0.02  -0.00     0.02  -0.01  -0.01
    24   1    -0.01   0.00  -0.02     0.02  -0.05  -0.02     0.02  -0.01  -0.01
    25   1    -0.03   0.01   0.01    -0.01  -0.01   0.01     0.01  -0.01  -0.01
    26   6     0.23  -0.13   0.13     0.13   0.01   0.06     0.02   0.01  -0.01
    27   1     0.24  -0.16   0.19     0.08   0.02   0.11    -0.00   0.02  -0.01
    28   1     0.37  -0.08  -0.02     0.18  -0.01  -0.01     0.01  -0.01  -0.02
    29   1     0.27  -0.22   0.25     0.20   0.02   0.11     0.03   0.02  -0.01
    30  46    -0.02  -0.02   0.03    -0.02   0.04  -0.03    -0.02   0.02   0.00
    31   8     0.01   0.01  -0.04     0.01   0.03   0.00     0.01   0.03   0.00
    32   7     0.00   0.02  -0.04    -0.03  -0.00  -0.08    -0.02  -0.01  -0.02
    33   6    -0.01   0.00  -0.02     0.03  -0.01  -0.02     0.02  -0.00  -0.01
    34   6     0.00   0.02  -0.04    -0.01  -0.03  -0.05    -0.01  -0.02  -0.02
    35   6    -0.01   0.01  -0.02    -0.04  -0.02  -0.03    -0.02  -0.02   0.01
    36   8    -0.03  -0.02   0.01     0.08  -0.02  -0.02     0.05  -0.01  -0.01
    37   8    -0.00   0.02  -0.04    -0.02  -0.05  -0.02    -0.04  -0.09   0.11
    38   1     0.00   0.00  -0.06    -0.03  -0.06   0.01    -0.02  -0.05   0.01
    39   1     0.00   0.01  -0.04    -0.02  -0.07  -0.05    -0.01  -0.03  -0.02
    40   8    -0.03  -0.02   0.03    -0.06  -0.02   0.02     0.01   0.05  -0.07
    41   6    -0.02   0.02   0.01    -0.04   0.05  -0.01    -0.04  -0.01   0.03
    42   6    -0.02  -0.00   0.02    -0.05  -0.00   0.01    -0.01   0.02  -0.03
    43   6    -0.03   0.02   0.02    -0.07   0.01   0.01     0.04   0.01  -0.03
    44   6     0.00  -0.02   0.01    -0.00  -0.02   0.01    -0.05   0.03  -0.05
    45   1    -0.05   0.20  -0.01     0.01  -0.28   0.03    -0.16   0.43  -0.03
    46   1     0.05  -0.07  -0.11    -0.25   0.24   0.21     0.22  -0.26  -0.26
    47   1    -0.07  -0.05   0.17     0.10   0.22  -0.30    -0.20  -0.23   0.45
    48   1    -0.21   0.10   0.01     0.02  -0.02   0.02    -0.10   0.08  -0.03
    49   1     0.12   0.15   0.01    -0.15  -0.05  -0.01     0.18   0.12   0.00
    50   1    -0.01  -0.16   0.03    -0.08   0.10   0.01     0.07  -0.15  -0.04
    51   1     0.16  -0.10   0.04    -0.15   0.05  -0.01     0.05  -0.02  -0.03
    52   1    -0.06  -0.03  -0.16     0.10   0.02   0.16    -0.12   0.00  -0.16
    53   1    -0.07   0.07   0.12     0.07  -0.14  -0.10    -0.10   0.12   0.02
    54   6     0.00   0.02  -0.03     0.01   0.02  -0.02     0.00  -0.00  -0.00
    55   6     0.01   0.05  -0.03     0.03   0.03  -0.03     0.02  -0.02  -0.01
    56   6     0.02   0.01  -0.03    -0.05   0.03   0.04    -0.04   0.01   0.04
    57   6    -0.01   0.01  -0.01    -0.01   0.01   0.01    -0.01  -0.02   0.01
    58   1     0.06   0.08  -0.04     0.03   0.03  -0.02    -0.00  -0.03  -0.02
    59   1     0.01  -0.01  -0.04     0.04   0.05  -0.01     0.02  -0.00  -0.00
    60   1    -0.04   0.08  -0.01     0.04   0.03  -0.05     0.04  -0.03  -0.02
    61   1    -0.01   0.01  -0.04     0.03   0.04  -0.02     0.02   0.02   0.01
    62   1     0.03  -0.00  -0.02    -0.08   0.12   0.05    -0.07   0.08   0.04
    63   1     0.02   0.02  -0.04    -0.08  -0.01   0.11    -0.07  -0.02   0.10
    64   1    -0.02   0.03  -0.02     0.02  -0.17   0.02     0.01  -0.12   0.02
    65   1     0.01  -0.01  -0.01    -0.12   0.09   0.10    -0.06   0.01   0.07
    66   1    -0.02  -0.01   0.01     0.11   0.10  -0.10     0.04   0.02  -0.06
                     19                     20                     21
                      A                      A                      A
 Frequencies --    184.2598               203.8628               206.4983
 Red. masses --      6.7696                 3.9596                 2.9860
 Frc consts  --      0.1354                 0.0970                 0.0750
 IR Inten    --      0.0000                 0.0000                 0.0000
  Atom  AN      X      Y      Z        X      Y      Z        X      Y      Z
     1   6    -0.00   0.01  -0.02    -0.02  -0.02   0.03     0.02  -0.01  -0.04
     2   6    -0.03  -0.01  -0.03    -0.01  -0.02   0.01     0.04   0.01  -0.05
     3   6    -0.01   0.00  -0.02    -0.01  -0.02   0.01     0.01   0.02   0.01
     4   6    -0.01  -0.06  -0.06    -0.04  -0.03   0.02     0.06   0.01  -0.03
     5   6    -0.01  -0.04  -0.06    -0.05  -0.02   0.00     0.06   0.01   0.01
     6   6    -0.01  -0.01  -0.04    -0.03  -0.01  -0.00     0.03   0.02   0.03
     7   1    -0.00  -0.10  -0.07    -0.06  -0.03   0.03     0.08  -0.01  -0.06
     8   1    -0.02  -0.05  -0.07    -0.06  -0.02  -0.01     0.08   0.01   0.02
     9   1    -0.01  -0.00  -0.04    -0.03   0.01  -0.01     0.02   0.01   0.05
    10   1    -0.02   0.00   0.01    -0.00  -0.01   0.01     0.02   0.03  -0.13
    11   7    -0.00  -0.00  -0.09    -0.01  -0.02   0.01     0.02   0.02  -0.04
    12   1    -0.08  -0.04  -0.03    -0.01  -0.01   0.01     0.12  -0.03  -0.05
    13   6     0.05  -0.01  -0.02     0.01  -0.03   0.01    -0.01   0.03   0.03
    14   6     0.04   0.03  -0.01     0.00  -0.01   0.03     0.00   0.01  -0.01
    15   6     0.07   0.03  -0.02    -0.00  -0.01   0.03     0.03  -0.00  -0.04
    16   6     0.10  -0.01  -0.05     0.00  -0.01   0.01     0.03   0.00  -0.02
    17   6     0.09  -0.02  -0.03     0.01  -0.03  -0.00    -0.00   0.03   0.03
    18   1     0.03  -0.02  -0.00     0.02  -0.03  -0.01    -0.03   0.05   0.06
    19   1     0.03   0.04  -0.02    -0.01  -0.00   0.04     0.00   0.01  -0.02
    20   1     0.06   0.05  -0.01    -0.01   0.00   0.05     0.05  -0.01  -0.06
    21   1     0.07  -0.00   0.03     0.03  -0.05  -0.01    -0.01   0.04   0.05
    22  26     0.02  -0.04  -0.01    -0.02  -0.02   0.01     0.04   0.01   0.02
    23   6     0.08   0.01  -0.05    -0.02  -0.02   0.00     0.02   0.00  -0.02
    24   1     0.06   0.07   0.01    -0.03  -0.04   0.01     0.02  -0.00  -0.01
    25   1     0.13  -0.01  -0.06    -0.03  -0.00  -0.01     0.02   0.00  -0.02
    26   6    -0.06  -0.07  -0.18     0.10  -0.09   0.02     0.01   0.07  -0.01
    27   1    -0.02  -0.05  -0.27     0.03  -0.04   0.03     0.05   0.02   0.03
    28   1    -0.10  -0.10  -0.15     0.17  -0.14  -0.11     0.00   0.14   0.06
    29   1    -0.11  -0.12  -0.17     0.18  -0.13   0.14    -0.03   0.10  -0.07
    30  46    -0.05   0.06   0.14    -0.02   0.08  -0.06    -0.05  -0.03   0.00
    31   8     0.10   0.14  -0.16    -0.07   0.07   0.06    -0.06  -0.05   0.05
    32   7    -0.00  -0.03   0.03     0.01   0.01   0.01    -0.02  -0.01  -0.00
    33   6     0.02   0.04  -0.06    -0.05   0.05   0.04    -0.04  -0.02   0.02
    34   6    -0.01  -0.01  -0.01    -0.05   0.04   0.06    -0.02  -0.00   0.03
    35   6    -0.02  -0.03  -0.03     0.02  -0.00   0.02    -0.04  -0.02  -0.01
    36   8     0.02   0.01  -0.03    -0.04   0.06   0.03    -0.05  -0.00   0.01
    37   8    -0.02   0.00  -0.07    -0.00  -0.00   0.03    -0.03  -0.03   0.01
    38   1    -0.01  -0.00  -0.03    -0.03  -0.02   0.05    -0.00  -0.02  -0.07
    39   1     0.00   0.02  -0.01    -0.07   0.05   0.08    -0.04  -0.00   0.05
    40   8    -0.04  -0.09  -0.01     0.04  -0.05  -0.03    -0.03  -0.02  -0.03
    41   6    -0.01   0.04   0.02     0.07  -0.05  -0.01    -0.05   0.06   0.01
    42   6     0.02  -0.07  -0.00     0.07  -0.06  -0.02    -0.02  -0.01  -0.02
    43   6     0.05  -0.11   0.00     0.12  -0.12  -0.01     0.01  -0.04  -0.02
    44   6     0.10  -0.12  -0.01     0.12  -0.10  -0.04     0.00  -0.03  -0.03
    45   1    -0.02  -0.08   0.03     0.06   0.01  -0.02    -0.11   0.13  -0.00
    46   1    -0.14   0.14   0.10     0.11  -0.09  -0.05    -0.07   0.05  -0.03
    47   1     0.11   0.15  -0.06     0.04  -0.09   0.05    -0.02   0.07   0.10
    48   1     0.01  -0.11  -0.03     0.32  -0.22  -0.02    -0.04  -0.03  -0.04
    49   1     0.09  -0.09   0.05    -0.04  -0.26   0.04     0.06  -0.01   0.02
    50   1     0.06  -0.18  -0.00     0.10   0.05  -0.04     0.02  -0.11  -0.03
    51   1     0.12  -0.17  -0.01     0.21  -0.18  -0.02    -0.10   0.00  -0.05
    52   1     0.15  -0.08  -0.06     0.10  -0.08  -0.17     0.07   0.01   0.06
    53   1     0.10  -0.16   0.00     0.08  -0.06   0.03     0.06  -0.11  -0.11
    54   6    -0.03   0.02  -0.01    -0.02  -0.01   0.06     0.03  -0.02   0.05
    55   6    -0.05   0.08   0.00    -0.03  -0.04   0.06     0.02   0.06   0.07
    56   6    -0.06   0.02   0.03     0.05  -0.02  -0.03     0.13  -0.05  -0.07
    57   6    -0.02   0.01  -0.00     0.04   0.03  -0.02     0.09   0.15  -0.02
    58   1     0.09   0.18  -0.03    -0.09  -0.09   0.08     0.22   0.22   0.04
    59   1    -0.04  -0.08  -0.03    -0.03   0.03   0.07     0.02  -0.15   0.02
    60   1    -0.21   0.16   0.07     0.05  -0.09   0.04    -0.21   0.19   0.15
    61   1    -0.03   0.03  -0.05    -0.05  -0.04   0.10    -0.03  -0.07   0.04
    62   1    -0.09   0.08   0.02     0.06  -0.13  -0.05     0.17  -0.23  -0.09
    63   1    -0.08  -0.00   0.08     0.09   0.03  -0.10     0.17   0.03  -0.23
    64   1     0.00  -0.10   0.01     0.04   0.24  -0.01     0.06   0.30  -0.03
    65   1    -0.09   0.06   0.04     0.17  -0.06  -0.15     0.08   0.17  -0.15
    66   1     0.05   0.06  -0.07    -0.09  -0.07   0.11     0.10   0.15   0.16
                     22                     23                     24
                      A                      A                      A
 Frequencies --    218.6553               224.5940               229.1608
 Red. masses --      3.2975                 1.3844                 1.5583
 Frc consts  --      0.0929                 0.0411                 0.0482
 IR Inten    --      0.0000                 0.0000                 0.0000
  Atom  AN      X      Y      Z        X      Y      Z        X      Y      Z
     1   6    -0.02   0.02   0.04     0.00  -0.01   0.00    -0.01   0.03  -0.01
     2   6    -0.00  -0.01   0.03     0.00  -0.01   0.01    -0.00   0.01  -0.02
     3   6    -0.00  -0.03  -0.00     0.01  -0.01  -0.00    -0.01   0.03   0.00
     4   6    -0.02   0.02   0.04    -0.01   0.00   0.01     0.02  -0.00  -0.03
     5   6    -0.01  -0.00   0.02    -0.01   0.00   0.01     0.03  -0.01  -0.02
     6   6    -0.00  -0.03  -0.01     0.00  -0.01  -0.00     0.00   0.00   0.00
     7   1    -0.03   0.05   0.06    -0.01   0.01   0.02     0.04  -0.02  -0.05
     8   1    -0.02  -0.00   0.01    -0.01   0.01   0.01     0.04  -0.02  -0.02
     9   1    -0.00  -0.04  -0.02     0.00  -0.00  -0.00     0.00  -0.01   0.01
    10   1     0.01  -0.02   0.06     0.00  -0.01   0.02    -0.01   0.03  -0.05
    11   7     0.01  -0.02   0.04     0.00  -0.01   0.01     0.00   0.01  -0.02
    12   1    -0.03   0.01   0.03    -0.01   0.00   0.01     0.02  -0.01  -0.02
    13   6    -0.01  -0.03  -0.02     0.00  -0.01  -0.01    -0.01   0.02   0.02
    14   6    -0.01  -0.03   0.00    -0.00  -0.00  -0.00    -0.00   0.01   0.01
    15   6    -0.03  -0.03   0.01    -0.01  -0.00   0.00     0.01  -0.00  -0.01
    16   6    -0.05  -0.01   0.01    -0.01   0.00   0.00     0.01  -0.00  -0.01
    17   6    -0.02  -0.02  -0.02    -0.00  -0.00  -0.01    -0.00   0.01   0.01
    18   1     0.01  -0.03  -0.04     0.00  -0.01  -0.02    -0.02   0.03   0.04
    19   1    -0.00  -0.03   0.00    -0.00  -0.00  -0.00    -0.00   0.01   0.01
    20   1    -0.04  -0.03   0.02    -0.01  -0.00   0.00     0.01  -0.01  -0.01
    21   1    -0.02  -0.02  -0.04     0.00  -0.01  -0.02    -0.01   0.02   0.02
    22  26    -0.03   0.00  -0.01    -0.00   0.00  -0.01     0.01  -0.01   0.02
    23   6    -0.02  -0.02   0.02    -0.00  -0.00   0.01     0.01   0.00  -0.01
    24   1    -0.01  -0.04  -0.02     0.00   0.00  -0.00     0.00   0.01  -0.00
    25   1    -0.04  -0.02   0.03     0.00  -0.00   0.01     0.01   0.00  -0.01
    26   6    -0.01  -0.01   0.05    -0.00   0.01   0.02     0.01   0.00  -0.02
    27   1    -0.00  -0.01   0.05     0.05  -0.04   0.02    -0.04   0.04  -0.02
    28   1    -0.02   0.00   0.07    -0.01   0.07   0.07     0.02  -0.05  -0.07
    29   1    -0.02   0.01   0.02    -0.06   0.00  -0.03     0.07   0.01   0.02
    30  46     0.09   0.01  -0.02    -0.01  -0.00  -0.01     0.01  -0.01   0.02
    31   8     0.08   0.04  -0.09     0.06   0.02  -0.04    -0.04  -0.03   0.03
    32   7    -0.01  -0.01   0.07    -0.02  -0.02   0.02     0.02   0.03  -0.03
    33   6     0.02   0.02  -0.01     0.03  -0.01  -0.00    -0.02   0.00  -0.01
    34   6     0.00  -0.01   0.05     0.00  -0.03   0.02     0.01   0.03  -0.03
    35   6    -0.06  -0.02   0.01     0.00  -0.01   0.01    -0.02   0.00  -0.01
    36   8    -0.01   0.03  -0.01     0.04  -0.02  -0.00    -0.04   0.00  -0.00
    37   8    -0.07  -0.01   0.01     0.02   0.01  -0.03    -0.03   0.02  -0.01
    38   1    -0.03   0.03   0.04     0.01  -0.03   0.00    -0.01   0.06  -0.02
    39   1     0.01   0.01   0.04     0.01  -0.04   0.01     0.01   0.03  -0.03
    40   8    -0.06  -0.04  -0.04    -0.00  -0.00   0.04    -0.04  -0.04   0.03
    41   6    -0.10   0.12   0.02     0.03  -0.02  -0.02    -0.03   0.05   0.00
    42   6    -0.04  -0.02  -0.03     0.01   0.01   0.01    -0.01  -0.01   0.00
    43   6    -0.01  -0.06  -0.03    -0.02   0.04   0.01    -0.03  -0.00  -0.00
    44   6     0.00  -0.05  -0.05     0.01   0.02   0.02     0.03  -0.04  -0.02
    45   1    -0.21   0.31  -0.01     0.03   0.21  -0.05    -0.08   0.33  -0.03
    46   1    -0.11   0.08  -0.09     0.17  -0.16  -0.20     0.06  -0.07  -0.19
    47   1    -0.04   0.13   0.23    -0.08  -0.15   0.15    -0.08  -0.04   0.24
    48   1    -0.13  -0.02  -0.07     0.33  -0.10   0.06     0.29  -0.14   0.03
    49   1     0.10   0.02   0.02    -0.33  -0.20  -0.04    -0.32  -0.23  -0.02
    50   1     0.02  -0.21  -0.03    -0.08   0.42  -0.00    -0.09   0.34  -0.01
    51   1    -0.33   0.07  -0.11     0.01   0.03   0.02    -0.07  -0.02  -0.03
    52   1     0.21   0.03   0.26     0.00   0.01   0.03     0.11  -0.00   0.07
    53   1     0.17  -0.28  -0.31     0.01   0.02   0.02     0.09  -0.13  -0.10
    54   6    -0.03  -0.00   0.03    -0.01  -0.02   0.01     0.02   0.03  -0.03
    55   6    -0.07   0.06   0.05    -0.03   0.04   0.02     0.04  -0.02  -0.04
    56   6    -0.01  -0.01  -0.00    -0.01  -0.02  -0.00    -0.00   0.03   0.00
    57   6     0.01   0.03  -0.01    -0.01   0.03  -0.00    -0.01  -0.03   0.00
    58   1    -0.02   0.08   0.09     0.18   0.20  -0.03    -0.17  -0.18   0.02
    59   1    -0.08   0.04   0.04    -0.02  -0.21  -0.02     0.03   0.23   0.01
    60   1    -0.11   0.08   0.05    -0.26   0.16   0.13     0.26  -0.13  -0.16
    61   1    -0.05  -0.01  -0.02    -0.03  -0.03  -0.02     0.03   0.04  -0.01
    62   1    -0.01  -0.04  -0.02    -0.01  -0.03  -0.01     0.00   0.07   0.02
    63   1     0.00   0.01  -0.02    -0.02  -0.03  -0.02    -0.01   0.02   0.03
    64   1     0.02   0.11   0.00    -0.01  -0.07  -0.01    -0.01   0.00   0.00
    65   1     0.04   0.01  -0.08    -0.11   0.11   0.03     0.06  -0.09   0.01
    66   1    -0.03   0.01   0.04     0.11   0.11  -0.03    -0.07  -0.08  -0.00
                     25                     26                     27
                      A                      A                      A
 Frequencies --    231.2066               244.4386               248.7288
 Red. masses --      1.2969                 1.5871                 1.4080
 Frc consts  --      0.0408                 0.0559                 0.0513
 IR Inten    --      0.0000                 0.0000                 0.0000
  Atom  AN      X      Y      Z        X      Y      Z        X      Y      Z
     1   6     0.01  -0.02   0.00     0.01  -0.01   0.00    -0.00  -0.00  -0.02
     2   6    -0.01  -0.00   0.01     0.01   0.00   0.01    -0.01   0.01  -0.01
     3   6     0.01  -0.00  -0.00     0.01   0.00  -0.00    -0.01   0.01   0.01
     4   6    -0.01  -0.01   0.00     0.00   0.00   0.00     0.01  -0.00  -0.02
     5   6    -0.02   0.00  -0.00     0.00   0.00  -0.00     0.02  -0.01  -0.00
     6   6    -0.00   0.01  -0.01     0.01   0.00  -0.01    -0.00  -0.00   0.01
     7   1    -0.02  -0.02   0.01    -0.00   0.00   0.01     0.03  -0.01  -0.03
     8   1    -0.03   0.01  -0.01    -0.00   0.00  -0.00     0.03  -0.01   0.00
     9   1    -0.00   0.02  -0.01     0.01   0.00  -0.01    -0.00  -0.01   0.02
    10   1    -0.00  -0.01   0.03     0.01  -0.00   0.01    -0.01   0.01  -0.02
    11   7    -0.01   0.00   0.00    -0.00   0.01   0.01    -0.00   0.00  -0.01
    12   1    -0.03   0.01   0.01     0.01   0.01   0.01     0.01  -0.00  -0.01
    13   6     0.01  -0.00  -0.00    -0.00  -0.01  -0.00    -0.02   0.01   0.01
    14   6     0.01   0.00  -0.00    -0.00  -0.00  -0.01    -0.01   0.00  -0.00
    15   6     0.01   0.01   0.00     0.00   0.01  -0.00    -0.00  -0.01  -0.01
    16   6     0.01   0.01   0.01     0.00   0.01   0.01    -0.01  -0.00  -0.01
    17   6     0.01  -0.00   0.00     0.00  -0.00   0.00    -0.01   0.01   0.01
    18   1     0.01  -0.01  -0.01    -0.01  -0.01  -0.00    -0.02   0.02   0.03
    19   1     0.00   0.01  -0.00    -0.01  -0.00  -0.01    -0.01   0.00  -0.00
    20   1     0.00   0.02   0.01     0.00   0.01  -0.01    -0.00  -0.01  -0.02
    21   1     0.01  -0.01   0.01     0.01  -0.01   0.00    -0.01   0.00  -0.00
    22  26     0.00   0.00  -0.01     0.00   0.00  -0.00     0.00  -0.00   0.01
    23   6    -0.00   0.01   0.00    -0.00   0.01   0.01     0.00   0.00  -0.00
    24   1    -0.01   0.01   0.01    -0.00   0.01   0.01     0.01   0.02  -0.00
    25   1     0.00   0.01  -0.00    -0.00   0.01   0.01     0.01  -0.00   0.01
    26   6    -0.01  -0.02  -0.01    -0.00  -0.00  -0.00     0.01   0.01   0.01
    27   1    -0.02   0.00  -0.02    -0.12   0.09  -0.01     0.03  -0.01   0.02
    28   1    -0.00  -0.04  -0.03    -0.00  -0.12  -0.09     0.02   0.05   0.02
    29   1     0.01  -0.03   0.01     0.11   0.02   0.09    -0.01   0.01  -0.01
    30  46    -0.02   0.01   0.00    -0.02  -0.00   0.00    -0.02  -0.01  -0.01
    31   8    -0.02   0.00   0.02     0.06   0.01  -0.08     0.07   0.01  -0.05
    32   7     0.01  -0.00  -0.02    -0.01  -0.02  -0.01    -0.00  -0.01   0.01
    33   6    -0.01  -0.00   0.00     0.02  -0.02  -0.03     0.04  -0.02  -0.00
    34   6    -0.00   0.00  -0.01     0.01  -0.03   0.02     0.01  -0.03   0.02
    35   6     0.03  -0.00   0.00     0.00  -0.01  -0.01    -0.00  -0.01  -0.00
    36   8     0.00  -0.00  -0.00    -0.00  -0.02  -0.03     0.04  -0.01  -0.01
    37   8     0.05   0.00  -0.02     0.01  -0.02  -0.01     0.00  -0.01  -0.00
    38   1     0.01  -0.03   0.01    -0.00  -0.01  -0.01    -0.01  -0.00  -0.03
    39   1    -0.01   0.00  -0.00    -0.01  -0.05   0.03     0.02  -0.03   0.01
    40   8     0.02  -0.01   0.05     0.00   0.01   0.00     0.00   0.00   0.00
    41   6     0.05  -0.06  -0.03     0.01  -0.02  -0.01     0.01  -0.01  -0.00
    42   6     0.02  -0.01   0.01     0.00   0.01   0.01     0.00   0.00   0.01
    43   6    -0.01   0.03   0.00    -0.01   0.03   0.00    -0.00   0.02   0.00
    44   6     0.02  -0.01   0.02    -0.02   0.03   0.02    -0.00   0.01   0.01
    45   1     0.06   0.09  -0.04     0.03  -0.02  -0.00     0.02  -0.02   0.00
    46   1     0.15  -0.16  -0.15     0.03  -0.02  -0.00     0.02  -0.01   0.00
    47   1    -0.05  -0.16   0.07    -0.01  -0.03  -0.02    -0.00  -0.02  -0.01
    48   1    -0.20   0.12   0.00     0.01   0.03   0.02     0.00   0.02   0.01
    49   1     0.15   0.17  -0.02    -0.02   0.02  -0.02    -0.01   0.01  -0.01
    50   1     0.01  -0.15   0.02    -0.01   0.06   0.00    -0.01   0.03   0.01
    51   1    -0.42   0.22  -0.07     0.01   0.04   0.02     0.00   0.02   0.01
    52   1     0.24   0.06   0.47    -0.05   0.01   0.00    -0.01   0.00   0.01
    53   1     0.22  -0.28  -0.31    -0.04   0.06   0.04    -0.01   0.02   0.02
    54   6     0.00   0.00  -0.00     0.01  -0.02   0.02    -0.00   0.03   0.03
    55   6     0.01  -0.01  -0.01    -0.08   0.04   0.09     0.00  -0.00   0.02
    56   6     0.00   0.00   0.00     0.06  -0.03  -0.01    -0.06   0.06   0.04
    57   6     0.00  -0.00   0.00     0.04   0.05   0.01     0.03   0.01  -0.02
    58   1    -0.00  -0.02  -0.01    -0.40  -0.24   0.34    -0.00  -0.00  -0.01
    59   1     0.01  -0.01  -0.00    -0.16   0.54   0.13     0.01  -0.01   0.02
    60   1     0.02  -0.02  -0.00     0.27  -0.12  -0.15     0.01  -0.01   0.03
    61   1     0.01   0.00   0.01    -0.01  -0.03  -0.04     0.04   0.07   0.02
    62   1     0.00   0.01   0.00     0.08  -0.11  -0.02    -0.14   0.12   0.01
    63   1     0.00   0.00   0.00     0.08   0.00  -0.08    -0.08   0.02   0.12
    64   1    -0.00   0.00   0.00     0.03   0.01  -0.00     0.11   0.51   0.06
    65   1     0.01  -0.01   0.00    -0.04   0.11   0.01     0.43  -0.26  -0.33
    66   1    -0.01  -0.01   0.00     0.12   0.11   0.03    -0.38  -0.28   0.15
                     28                     29                     30
                      A                      A                      A
 Frequencies --    253.0337               271.0435               281.9524
 Red. masses --      4.0024                 2.9350                 2.2534
 Frc consts  --      0.1510                 0.1270                 0.1055
 IR Inten    --      0.0000                 0.0000                 0.0000
  Atom  AN      X      Y      Z        X      Y      Z        X      Y      Z
     1   6    -0.05   0.09  -0.07     0.04  -0.01   0.08    -0.00  -0.09  -0.02
     2   6    -0.09   0.08  -0.03    -0.01   0.07   0.15    -0.00   0.00   0.07
     3   6    -0.10   0.11   0.03     0.07   0.02   0.01    -0.01  -0.04   0.01
     4   6     0.06  -0.04  -0.13    -0.04  -0.06   0.04    -0.02  -0.06   0.01
     5   6     0.07  -0.07  -0.08    -0.05  -0.04  -0.05    -0.03  -0.01   0.04
     6   6    -0.02  -0.00   0.02     0.03  -0.01  -0.07    -0.02  -0.00   0.03
     7   1     0.12  -0.12  -0.21    -0.08  -0.10   0.07    -0.02  -0.07   0.00
     8   1     0.13  -0.14  -0.08    -0.11  -0.07  -0.11    -0.03   0.00   0.04
     9   1    -0.03  -0.06   0.06     0.04   0.00  -0.14    -0.02   0.02   0.04
    10   1    -0.09   0.13  -0.05     0.05   0.03   0.35     0.02   0.02   0.13
    11   7    -0.02   0.04  -0.06     0.04   0.07   0.04     0.04  -0.01   0.03
    12   1    -0.09   0.03  -0.03    -0.24   0.12   0.14    -0.07   0.03   0.06
    13   6    -0.08   0.09   0.09     0.03   0.07  -0.01     0.00   0.05  -0.02
    14   6    -0.05   0.02   0.07     0.04  -0.01   0.01     0.02  -0.02  -0.04
    15   6    -0.04  -0.06  -0.02    -0.02  -0.07  -0.02    -0.01  -0.06  -0.07
    16   6    -0.05  -0.05  -0.06    -0.07  -0.01  -0.05    -0.05  -0.01  -0.04
    17   6    -0.08   0.05   0.01    -0.06   0.07  -0.04    -0.05   0.06  -0.03
    18   1    -0.09   0.18   0.18     0.06   0.13   0.01     0.02   0.09  -0.01
    19   1    -0.01   0.01   0.10     0.10  -0.04   0.05     0.05  -0.02  -0.01
    20   1    -0.03  -0.11  -0.02    -0.04  -0.14   0.02    -0.01  -0.10  -0.06
    21   1    -0.10   0.08  -0.03    -0.11   0.15  -0.07    -0.09   0.12  -0.05
    22  26    -0.01  -0.06   0.09     0.01  -0.03   0.01     0.03  -0.00  -0.01
    23   6     0.02   0.04  -0.02     0.06   0.10   0.04     0.07   0.03   0.02
    24   1     0.05   0.16  -0.02     0.14   0.28  -0.02     0.14   0.18  -0.05
    25   1     0.08  -0.03   0.08     0.17   0.00   0.18     0.17  -0.05   0.10
    26   6     0.11  -0.02  -0.04    -0.02  -0.06  -0.08    -0.02   0.05   0.05
    27   1     0.16  -0.07  -0.01    -0.09   0.07  -0.21     0.27  -0.17   0.06
    28   1     0.20   0.04  -0.10    -0.05  -0.23  -0.16    -0.07   0.36   0.34
    29   1     0.09  -0.10   0.02     0.04  -0.12   0.03    -0.32   0.03  -0.23
    30  46     0.02   0.00  -0.03     0.02   0.01   0.00    -0.03  -0.01  -0.01
    31   8     0.06  -0.01  -0.04    -0.07  -0.03   0.03     0.04   0.05  -0.01
    32   7     0.01  -0.00   0.06    -0.02  -0.03  -0.05     0.01   0.04   0.01
    33   6     0.03  -0.00   0.00    -0.04  -0.04  -0.01     0.03   0.05   0.02
    34   6     0.02  -0.01   0.03    -0.04  -0.03  -0.02     0.02   0.04   0.00
    35   6     0.01   0.00   0.03    -0.01  -0.03  -0.03     0.01   0.04   0.02
    36   8    -0.00   0.01  -0.00    -0.01  -0.02  -0.04     0.01   0.03   0.04
    37   8    -0.03   0.04   0.02     0.02  -0.06  -0.02     0.02   0.04   0.02
    38   1    -0.04   0.17  -0.08     0.01  -0.06   0.07     0.01  -0.09   0.00
[...]
 0024007,-0.00004449,0.00080166,-0.00063298,0.00073667,-0.00037271,0.00
 086409,0.00004038,-0.00018076,0.00018027,0.00043110,-0.00068050,0.0002
 4878,-0.00014268,0.00016630,-0.00014770,0.00013038,-0.00005650,0.00004
 534,0.00129863,-0.00143079,0.00018742,0.00000144,0.00004315,-0.0001041
 3,-0.00000182,0.00000767,0.00002274,-0.00006576,-0.00006930,0.00006029
 ,0.00000713,0.00001675,-0.00000885,0.00002000,0.00001328,-0.00000055,-
 0.00001798,-0.00003924,-0.00001131,-0.00001455,0.00006329,0.00000209,0
 .00002103,0.00001348,-0.00002350,-0.00000812,0.00000554,-0.00001426,0.
 00000701,0.00000977,-0.00001605,0.00000101,-0.00000559,-0.00000430,0.0
 0000249,-0.00001671,-0.00000970,0.00000168,0.00001948,-0.00000351,0.00
 000072,-0.00000322,-0.00000220,-0.00008694,0.00013353,0.00022102,0.000
 06028,0.00002498,-0.00004419,0.00096022,0.00008130,-0.00339195,0.00482
 585,-0.04563236,-0.00675557,0.00000842,-0.00000157,-0.00002341,-0.0000
 1160,-0.00003313,-0.00004237,-0.00000249,-0.00000245,0.00002149,-0.000
 12256,-0.00005434,0.00002878,-0.00054481,0.00062572,-0.00121079,0.0002
 1662,0.00015121,-0.00085208,-0.00780384,0.05053323,-0.00000076,-0.0000
 5608,0.00012206,0.00000848,0.00000986,-0.00000900,-0.00000313,-0.00002
 125,0.00001650,-0.00000858,-0.00000424,0.00001092,-0.00000226,-0.00000
 777,-0.00000214,0.00002794,-0.00000759,-0.00001896,-0.00000451,0.00001
 030,0.00000720,0.00000689,-0.00000587,-0.00000375,0.00001303,0.0000013
 0,0.00000154,0.00000564,-0.00000078,0.00000128,0.00005174,0.00007877,0
 .00006038,0.00000515,-0.00000021,0.00000883,-0.00000268,0.00003059,0.0
 0001658,-0.00000261,-0.00000580,-0.00001186,0.00001615,-0.00000768,0.0
 0000701,-0.00002935,-0.00000139,-0.00001432,-0.00001811,0.00000555,-0.
 00002696,-0.00000339,0.00000778,0.00000931,0.00001297,-0.00000718,-0.0
 0000401,0.00001163,-0.00000204,0.00000550,-0.00003549,-0.00000463,0.00
 003560,0.00008018,-0.00002910,0.00005765,-0.00000620,0.00000514,0.0000
 0291,0.00001921,-0.00000458,0.00000713,-0.00001248,-0.00001453,-0.0000
 0860,0.00000593,0.00000617,-0.00001204,0.00000566,-0.00000999,-0.00002
 100,0.00001803,0.00000205,0.00001517,0.00000671,-0.00001018,0.00000219
 ,-0.00016039,-0.00003227,-0.00032516,0.00050603,0.00010546,0.00043040,
 0.00004179,-0.00017805,0.00035888,-0.00146273,0.00042289,-0.00102726,-
 0.00006917,-0.00014361,-0.00030180,0.00011909,0.00036394,-0.00023941,0
 .00107908,-0.00042928,0.00049542,0.00006931,-0.00025816,0.00024862,-0.
 00003628,0.00001897,-0.00009854,-0.00029624,0.00084143,0.00083609,-0.0
 0012557,-0.00010579,0.00004295,-0.00001388,-0.00003551,-0.00000146,0.0
 0009491,0.00011610,-0.00007247,-0.00000788,-0.00002870,0.00001525,-0.0
 0001900,-0.00003310,0.00000461,0.00000973,0.00003221,0.00004409,0.0000
 2557,0.00001265,-0.00003516,-0.00001563,-0.00004070,0.00000323,0.00000
 212,0.00000196,-0.00000302,-0.00000396,-0.00001424,0.00001476,0.000006
 12,0.00000128,-0.00000899,-0.00000177,0.00001440,0.00002581,-0.0000014
 1,-0.00002430,-0.00000320,0.00000062,0.00001097,-0.00000500,0.00050216
 ,-0.00013104,-0.00006136,-0.00006854,0.00005413,0.00000437,0.01100823,
 -0.00279862,-0.02714224,0.11535822,-0.00781322,-0.20833021,0.00008049,
 -0.00003883,-0.00000661,-0.00002402,-0.00001573,0.00023155,-0.00002090
 ,0.00005936,0.00003802,0.00004775,-0.00010831,-0.00008584,-0.00349630,
 -0.00054998,-0.00492611,0.00066849,0.00012076,0.00085320,-0.13104321,0
 .01058247,0.24291882,-0.00002798,0.00007390,-0.00001407,0.00000320,-0.
 00002131,0.00001453,0.00003317,0.00000658,-0.00000823,0.00002328,-0.00
 000788,-0.00002574,-0.00000348,0.00000677,0.00000353,-0.00001888,0.000
 00139,0.00001243,0.00000386,-0.00001138,-0.00000654,-0.00000689,-0.000
 00077,0.00000674,-0.00000763,-0.00000268,0.00000155,-0.00000755,-0.000
 00433,0.00000359,-0.00010805,-0.00003532,-0.00006690,0.00000850,-0.000
 00165,-0.00000414,0.00001465,-0.00002405,0.00000036,0.00000452,-0.0000
 0362,0.00000828,0.00000036,-0.00000713,-0.00000506,0.00003476,-0.00000
 998,0.00002103,-0.00000950,-0.00002371,0.00000652,0.00000728,-0.000000
 99,-0.00000463,-0.00000273,0.00000840,-0.00000272,-0.00000137,0.000002
 57,-0.00000608,0.00002006,0.00000744,-0.00001695,-0.00011970,0.0000561
 1,0.00000962,0.00001400,0.00001818,-0.00000608,-0.00002033,-0.00000602
 ,-0.00000996,0.00001234,0.00001433,-0.00000285,-0.00000699,0.00001218,
 0.00000695,0.00001645,0.00003093,0.00000393,-0.00002316,-0.00001060,-0
 .00001378,0.00001109,-0.00000808,0.00002335,0.00026217,-0.00002998,0.0
 0009737,-0.00009233,-0.00007408,0.00006031,0.00001890,0.00006568,-0.00
 009329,0.00032071,0.00060451,-0.00024456,-0.00007753,-0.00006157,-0.00
 007889,-0.00007212,-0.00044647,0.00013981,-0.00001525,-0.00041806,0.00
 012247,-0.00019290,0.00027662,-0.00017352,0.00020544,-0.00007659,0.000
 06374,-0.00010847,-0.00017660,-0.00011315,0.00007294,0.00012811,-0.000
 00872,0.00000628,-0.00001182,0.00001749,-0.00010187,-0.00011215,0.0000
 1809,0.00002336,0.00001713,-0.00001126,0.00001394,0.00001576,0.0000046
 2,-0.00001615,0.00000574,0.00001373,-0.00000190,0.00004264,-0.00003200
 ,0.00002404,-0.00000374,-0.00000614,-0.00002183,0.00000040,-0.00000317
 ,0.00001820,0.00001837,-0.00000984,-0.00000194,-0.00001973,0.00000972,
 -0.00000550,-0.00000479,0.00000420,0.00001234,0.00002004,-0.00000352,-
 0.00000183,-0.00001561,-0.00000279,-0.00194135,-0.00100980,-0.00297874
 ,-0.00047828,0.00082841,-0.00023777,-0.01337300,0.01560836,-0.00465349
 ,-0.12892706,0.11408811,-0.00655918,0.00003304,0.00003265,0.00003821,0
 .00003228,0.00000754,-0.00000238,-0.00015688,0.00000697,-0.00025420,-0
 .00002519,-0.00018975,0.00000443,0.00100655,-0.00004811,0.00052198,-0.
 00021500,0.00011560,0.00013528,-0.01399309,0.01813410,0.00233643,0.148
 03110,0.00011130,0.00004181,-0.00000333,-0.00000068,0.00001612,-0.0000
 1644,-0.00004115,-0.00001541,0.00000524,-0.00001848,-0.00000036,0.0000
 3844,-0.00000319,0.00000099,0.00000411,0.00001599,-0.00001069,-0.00002
 460,-0.00000564,0.00000960,0.00000863,0.00000666,0.00000210,-0.0000065
 9,0.00000852,0.00000579,-0.00000297,0.00001094,0.00000295,-0.00000265,
 0.00010335,0.00007371,0.00006365,-0.00000542,0.00000021,0.00000898,-0.
 00000091,0.00001347,-0.00000328,-0.00000969,0.00000689,-0.00001298,0.0
 0000807,-0.00000785,-0.00000594,-0.00002208,0.00002219,-0.00002078,-0.
 00000176,0.00001827,-0.00001442,-0.00000859,-0.00000184,0.00000474,0.0
 0000254,-0.00000999,0.00000397,0.00000472,-0.00000382,0.00000982,-0.00
 001781,-0.00000255,0.00001111,0.00010337,-0.00003216,0.00001496,-0.000
 01244,-0.00001599,0.00001109,0.00002389,0.00000718,0.00001026,-0.00001
 089,-0.00000442,0.00000011,0.00000462,-0.00001236,-0.00001022,-0.00000
 797,-0.00001529,-0.00000518,0.00002337,0.00001435,0.00002012,-0.000005
 72,0.00000091,-0.00001034,-0.00037195,-0.00006756,-0.00013438,0.000324
 04,0.00007185,0.00009594,-0.00000979,-0.00007665,0.00012283,-0.0003803
 3,-0.00032930,-0.00000401,-0.00002278,0.00012949,-0.00014548,-0.000090
 54,0.00037766,-0.00018229,0.00013685,0.00021431,-0.00002516,0.00020747
 ,-0.00017621,0.00019117,-0.00014746,-0.00009728,-0.00002998,-0.0000039
 2,0.00004574,0.00029975,-0.00002025,-0.00017461,0.00001622,-0.00005191
 ,-0.00004455,0.00001385,0.00009350,0.00022025,-0.00005323,-0.00001857,
 -0.00002006,0.00003071,-0.00000083,-0.00003790,-0.00000327,0.00001261,
 0.00005025,0.00006140,0.00010323,0.00002976,-0.00006841,-0.00000831,-0
 .00004920,0.00001035,0.00001973,-0.00000320,-0.00003795,-0.00001747,-0
 .00002112,0.00001060,0.00000314,0.00001087,-0.00001079,-0.00000477,0.0
 0001596,0.00000958,-0.00001360,-0.00002362,0.00000194,0.00000214,0.000
 01276,0.00000288,0.00020835,0.00068875,0.00030807,0.00012143,0.0000217
 9,-0.00008574,0.00058360,0.00078674,0.00118835,0.11343568,-0.19756632,
 0.01122119,0.00004222,0.00002815,0.00002904,-0.00001737,-0.00000409,0.
 00005377,-0.00002100,0.00003059,0.00000109,0.00003265,0.00030170,-0.00
 024982,-0.00042957,0.00044157,0.00015475,-0.00002110,0.00023910,-0.000
 15332,0.00357163,-0.00327285,-0.00131381,-0.13335964,0.22652968,-0.000
 00704,0.00000103,0.00015161,0.00000737,-0.00000468,0.00000611,0.000018
 64,-0.00001011,0.00000078,0.00000561,-0.00000562,-0.00000628,-0.000005
 24,0.00000453,0.00000597,-0.00000181,-0.00000729,-0.00000627,0.0000000
 9,0.00000447,-0.00000381,-0.00000197,0.00000075,-0.00000121,0.00000284
 ,0.00000064,-0.00000085,0.00000011,-0.00000191,0.00000126,-0.00001853,
 0.00001976,0.00000852,0.00000453,-0.00000111,0.00000331,0.00000605,-0.
 00000524,0.00000492,-0.00000467,0.00000520,-0.00000058,0.00000440,-0.0
 0001389,-0.00000567,0.00000818,-0.00000420,-0.00000099,-0.00001769,-0.
 00001106,-0.00000713,0.00000062,0.00001108,0.00000529,-0.00000135,0.00
 000419,-0.00000221,-0.00000023,0.00000218,-0.00000285,0.00000060,-0.00
 000998,-0.00000194,-0.00001581,0.00003446,0.00002631,0.00000420,0.0000
 0994,0.00000496,-0.00000302,-0.00000115,-0.00000361,0.00000418,0.00000
 028,-0.00000411,-0.00000614,0.00000647,0.00000324,0.00001250,0.0000156
 1,-0.00000185,-0.00000711,-0.00000140,0.00000100,0.00000750,-0.0000100
 8,0.00001719,0.00008561,-0.00007830,-0.00021091,0.00007541,0.00002945,
 0.00016248,0.00009419,0.00000825,0.00020917,-0.00018034,0.00014662,-0.
 00026067,0.00012055,-0.00032423,-0.00019145,-0.00003090,-0.00006727,-0
 .00009810,0.00021278,-0.00008047,0.00010617,-0.00000272,0.00001763,0.0
 0007740,0.00001322,-0.00000510,-0.00010106,0.00003883,0.00024701,0.000
 09271,0.00001921,0.00004043,0.00005562,0.00000443,0.00000523,0.0000107
 9,-0.00002512,-0.00002512,-0.00003059,0.00000901,0.00001250,-0.0000020
 8,-0.00000120,0.00000190,0.00000439,0.00000681,0.00000874,0.00000560,-
 0.00000387,0.00000005,-0.00000807,-0.00000109,-0.00000510,0.00000351,-
 0.00002101,-0.00000435,0.00000608,0.00000478,0.00000496,0.00000300,0.0
 0000684,-0.00001560,0.00000754,-0.00000173,0.00000445,0.00000407,0.000
 00191,-0.00000089,-0.00000082,0.00000250,-0.00000681,-0.00000195,-0.00
 343168,-0.00062844,-0.00368614,-0.00079672,0.00102826,-0.00043122,-0.0
 1694044,0.01948668,-0.00508820,-0.00618901,0.01077879,-0.04291970,0.00
 006086,0.00003937,0.00003721,0.00001008,0.00002273,0.00008783,-0.00019
 877,0.00002291,-0.00033307,0.00005679,-0.00023381,-0.00002651,-0.00036
 533,0.00095007,0.00062281,0.00020798,0.00005171,0.00023654,0.01758222,
 -0.02206433,-0.00029287,0.01096093,-0.01263918,0.05126067,0.00008321,0
 .00008720,-0.00006338,0.00000717,-0.00001687,0.00000260,-0.00002137,-0
 .00000636,-0.00001914,-0.00001327,0.00000387,0.00003144,-0.00002075,0.
 00000795,0.00001127,0.00000146,0.00000090,0.00000646,-0.00000442,0.000
 00720,0.00000722,0.00000291,-0.00000352,-0.00000105,0.00001066,0.00000
 037,0.00000050,0.00000594,0.00000142,0.00000111,0.00003981,0.00003082,
 0.00002435,0.00000296,0.00000070,0.00000121,-0.00000053,-0.00002148,-0
 .00001363,0.00000039,-0.00000321,-0.00000811,0.00002831,-0.00002297,0.
 00000795,0.00001260,0.00001412,0.00000620,-0.00003412,0.00001129,-0.00
 000841,-0.00000243,0.00000612,0.00000750,0.00000167,0.00000585,-0.0000
 0122,0.00000352,0.00000262,-0.00000095,0.00001041,-0.00002477,-0.00000
 755,0.00005187,0.00003212,0.00000558,0.00001013,-0.00000214,0.00001401
 ,0.00000494,0.00000250,-0.00000271,0.00000870,0.00000310,0.00000132,0.
 00001067,-0.00000670,0.00000714,0.00000824,0.00000058,0.00000340,0.000
 00561,0.00000538,0.00000596,0.00000029,-0.00000075,-0.00000155,-0.0001
 2584,-0.00022960,0.00002959,0.00003662,0.00028113,-0.00009839,0.000255
 83,0.00011873,0.00006842,0.00016605,-0.00077375,0.00042573,-0.00004520
 ,0.00011176,-0.00041310,-0.00081270,-0.00009257,-0.00019251,-0.0002452
 2,0.00050220,-0.00014429,0.00029075,-0.00002954,0.00013811,-0.00019275
 ,-0.00007575,-0.00001173,-0.00055591,0.00016402,0.00045845,0.00056012,
 -0.00016721,0.00016619,-0.00004458,-0.00001759,0.00001447,-0.00004111,
 0.00028617,-0.00007101,-0.00000907,-0.00000849,0.00002620,0.00000376,-
 0.00003289,-0.00000129,0.00003325,0.00006923,0.00006913,0.00022289,-0.
 00000911,-0.00006806,-0.00003493,-0.00008709,0.00002920,0.00002217,0.0
 0000360,-0.00005821,-0.00000613,-0.00003131,0.00001597,-0.00000198,-0.
 00001042,0.00001385,-0.00000762,0.00001121,0.00001374,0.00000253,-0.00
 002800,-0.00000353,0.00000390,-0.00001600,-0.00000033,0.00021299,-0.00
 118491,0.00065425,0.00018785,0.00006088,0.00008719,-0.01434810,-0.0164
 0912,-0.00247661,-0.11639589,-0.10809328,0.01135756,0.00016544,0.00005
 968,0.00011071,0.00003478,-0.00002273,0.00005277,0.00003414,0.00006452
 ,0.00002215,0.00004108,0.00075006,-0.00065757,0.00040204,0.00020190,0.
 00035701,-0.00220269,-0.00093368,-0.00426356,-0.01267178,-0.01790250,0
 .00474495,0.00989491,0.01585799,-0.00138183,0.13495580,0.00004701,0.00
 011902,-0.00000463,0.00001007,-0.00001957,0.00001469,0.00001003,0.0000
 0435,-0.00001071,0.00000037,0.00000280,0.00000706,-0.00002427,0.000000
 26,0.00000412,-0.00000746,0.00000323,0.00001376,0.00000198,0.00000018,
 0.00000012,-0.00000349,-0.00000395,0.00000290,0.00000069,-0.00000201,0
 .00000247,-0.00000383,-0.00000058,0.00000243,-0.00003442,0.00002086,-0
 .00001711,0.00000322,-0.00000062,-0.00000769,-0.00000603,-0.00001900,-
 0.00000612,0.00000235,-0.00000712,-0.00000609,0.00002119,-0.00000972,0
 .00000867,0.00001657,0.00000218,0.00001065,-0.00002597,-0.00000694,-0.
 00000248,0.00000380,0.00000954,0.00000588,-0.00000007,0.00000914,-0.00
 000437,0.00000033,0.00000414,-0.00000583,0.00001082,-0.00001930,-0.000
 00967,0.00001198,0.00003016,0.00000219,0.00001109,0.00000339,0.0000035
 0,-0.00000908,-0.00000442,-0.00000583,0.00001124,0.00000005,0.00000181
 ,0.00000372,-0.00000199,0.00001104,0.00000715,0.00000216,0.00000542,-0
 .00000627,-0.00000587,-0.00000638,0.00000311,0.00000146,-0.00000023,-0
 .00002140,-0.00019515,0.00002072,-0.00020353,0.00019126,-0.00016041,0.
 00013880,0.00012144,0.00002216,0.00026240,-0.00048860,0.00039972,0.000
 08406,-0.00004854,-0.00014035,-0.00029581,-0.00019876,0.00000034,-0.00
 028627,0.00039473,-0.00011921,0.00001171,0.00014488,-0.00004738,-0.000
 05690,-0.00011853,0.00000215,-0.00007510,0.00018073,0.00014115,0.00030
 431,0.00008087,0.00007558,0.00008386,-0.00001902,-0.00002230,-0.000076
 83,-0.00006384,0.00003797,0.00000557,0.00001341,-0.00000023,0.00000030
 ,0.00001309,-0.00001452,0.00001255,-0.00002294,-0.00008470,-0.00006737
 ,-0.00005768,0.00009769,-0.00005049,0.00006047,0.00001315,-0.00000848,
 0.00001451,0.00000695,-0.00000211,-0.00000082,-0.00000735,0.00000184,-
 0.00000478,0.00000822,0.00000170,-0.00000489,-0.00001133,-0.00000333,0
 .00000529,-0.00000014,-0.00000116,-0.00000461,0.00000302,0.00099482,0.
 00107062,0.00046704,0.00018528,-0.00004512,0.00015363,-0.00544133,-0.0
 0443494,-0.00219525,-0.10771129,-0.20568455,0.01442449,0.00009948,-0.0
 0006552,0.00008127,0.00001659,-0.00002903,-0.00004381,0.00003082,0.000
 03102,0.00000626,-0.00002361,0.00050055,-0.00004302,0.00014050,-0.0001
 4253,0.00001177,-0.00028365,0.00048891,-0.00140935,-0.00130135,-0.0007
 8497,0.00137760,-0.01401749,-0.02838622,0.00323840,0.12749711,0.237377
 37,0.00000005,-0.00000776,0.00011764,-0.00000085,-0.00000104,-0.000001
 44,0.00000354,-0.00000638,-0.00000456,0.00000795,0.00000194,0.00000327
 ,-0.00000235,0.00000174,0.00000087,-0.00000145,-0.00000321,-0.00000404
 ,0.00000263,0.00000285,0.00000108,0.00000112,-0.00000013,-0.00000246,0
 .00000275,0.00000080,-0.00000209,0.00000258,-0.00000059,-0.00000211,-0
 .00001717,0.00001202,0.00002372,0.00000045,-0.00000187,0.00000101,0.00
 000431,-0.00000027,0.00000453,-0.00000263,0.00000141,-0.00000184,0.000
 00065,-0.00000805,-0.00000400,0.00000528,0.00000095,-0.00000217,-0.000
 01333,-0.00000342,-0.00000503,0.00000274,0.00000444,0.00000343,-0.0000
 0042,0.00000125,-0.00000108,-0.00000063,-0.00000019,-0.00000101,0.0000
 0049,0.00000048,-0.00000494,0.00001335,0.00001114,0.00000757,0.0000007
 0,0.00000153,0.00000421,0.00000207,-0.00000017,-0.00000132,0.00000336,
 -0.00000031,-0.00000414,-0.00000103,-0.00000252,0.00000263,0.00000895,
 -0.00000219,-0.00000016,0.00000283,0.00000174,0.00000204,-0.00000011,-
 0.00000194,0.00000140,0.00000496,-0.00004758,-0.00011619,0.00006389,0.
 00000505,0.00017002,-0.00001059,-0.00001383,-0.00005417,-0.00012584,-0
 .00007662,-0.00028665,0.00004452,0.00004738,0.00004161,-0.00006607,0.0
 0001972,0.00005653,0.00012897,0.00011114,0.00006439,0.00001457,0.00001
 273,0.00002817,-0.00002624,0.00000095,-0.00010478,0.00028275,0.0000129
 2,0.00001886,0.00006682,-0.00004699,-0.00010841,-0.00005972,0.00005538
 ,0.00004244,-0.00003248,0.00004592,0.00007756,-0.00003122,0.00003178,-
 0.00000061,0.00001090,-0.00000682,-0.00000642,0.00003444,-0.00010552,-
 0.00005781,0.00004815,0.00010118,0.00010087,0.00001505,-0.00001910,-0.
 00003579,0.00000015,0.00000891,-0.00005126,0.00000559,-0.00001414,-0.0
 0000881,0.00000433,-0.00001506,-0.00001506,0.00001211,-0.00001746,-0.0
 0001367,0.00000155,0.00000057,-0.00000252,-0.00000206,-0.00000013,-0.0
 0000599,0.00011341,-0.00101250,0.00093014,0.00013252,-0.00001741,-0.00
 000421,-0.01623831,-0.02033582,0.00024507,0.01091494,0.01422055,-0.045
 25829,0.00010505,0.00006345,0.00002411,-0.00001516,-0.00004516,0.00000
 329,0.00006433,0.00002600,0.00006891,-0.00005906,0.00046664,-0.0002355
 8,-0.00012337,-0.00026612,0.00040588,-0.00359101,-0.00102521,-0.003858
 97,0.01632835,0.02289460,-0.00385448,0.00098911,0.00123783,0.00049870,
 -0.00903117,-0.01629948,0.05117213\\-0.02764387,0.01655082,0.00054656,
 0.00000330,-0.00000964,0.00000299,0.00000854,0.00001797,0.00000635,-0.
 00002841,0.00002171,0.00002646,0.00001191,-0.00000276,0.00000388,0.000
 00371,-0.00000907,0.00000760,0.00001017,-0.00000996,-0.00000763,0.0000
 0378,0.00000202,-0.00000072,0.00000105,0.00000487,-0.00000630,0.000003
 68,0.00000055,-0.00000082,-0.00735954,-0.00252826,-0.00426710,0.000000
 67,0.00000071,0.00000099,-0.00001095,0.00001072,-0.00000131,0.00001293
 ,0.00000243,0.00001530,0.00000823,-0.00000596,-0.00000536,-0.00000709,
 -0.00000148,-0.00001640,0.00002427,0.00002346,0.00000924,0.00001223,-0
 .00000421,0.00000168,-0.00000772,0.00000046,-0.00000878,-0.00000475,0.
 00000322,0.00000480,-0.00000431,-0.00001088,0.00000212,-0.00003833,-0.
 00002480,-0.00003592,0.00000353,-0.00000366,0.00001361,-0.00000007,0.0
 0000040,-0.00000137,0.00000126,0.00000157,-0.00000128,0.00000125,-0.00
 000315,0.00000484,-0.00000006,0.00000233,-0.00000173,0.00000080,0.0000
 0089,0.00000026,0.00000165,0.00000002,-0.00000125,0.01450868,-0.027232
 78,0.01068762,-0.00286440,0.01119034,-0.00407057,0.00272251,0.00073781
 ,0.00115591,0.00000529,-0.00001704,0.00001571,0.00000221,-0.00000512,-
 0.00000239,0.00000701,0.00000380,0.00001537,-0.00000038,0.00001127,-0.
 00000930,-0.01863293,-0.00526767,-0.00385912,0.03924975,0.00654794,-0.
 00022327,0.00000037,0.00000183,-0.00000158,0.00000315,-0.00000148,-0.0
 0001188,-0.00000608,-0.00000330,-0.00000114,-0.00000705,0.00000161,0.0
 0001948,-0.00000170,0.00000191,-0.00001074,0.00000302,-0.00000594,-0.0
 0000180,0.00000082,-0.00000056,0.00000100,-0.00000036,-0.00000061,0.00
 000007,0.00000268,0.00000506,-0.00000035,0.00000032,-0.00000056,0.0000
 0119,-0.00000013,-0.00000002,-0.00000061,0.00000271,-0.00000193,0.0000
 0259,-0.00000029,0.00000125,-0.00000101,0.00000062,0.00000027,-0.00000
 034,-0.00000091,0.00000174,-0.00000112,0.00001091,-0.00000277,-0.00000
 140,0.00000274,0.00000186,-0.00000090,-0.00001121,0.00000452,0.0000013
 5,0.00000416,0.00000593,0.00000300,-0.00000093,-0.00000075,0.00000220,
 0.00000106,0.00000017,-0.00000034,-0.00000301,0.00000130,0.00000092,-0
 .00000548,-0.00000293,0.00000387,-0.00000053,-0.00000314,-0.00000207,0
 .00000165,0.00000192,0.00000122,-0.00000113,-0.00000253,-0.00000145,0.
 00000026,-0.00000005,-0.00000117,-0.00000128,-0.00000165,0.00000035\\\
 @
 The archive entry for this job was punched.


 ROSE IS A RED
 TY COBB IS BLUE
 'CAUSE PETE JUST HIT
 NO. 4592.
 Job cpu time:       0 days  0 hours  0 minutes  0.5 seconds.
 Elapsed time:       0 days  0 hours  0 minutes 10.0 seconds.
 File lengths (MBytes):  RWF=      6 Int=      0 D2E=      0 Chk=      2 Scr=      1
 Normal termination of Gaussian 16 at Tue Oct 22 17:29:07 2024.
