 Entering Gaussian System, Link 0=g16
 Initial command:
 /public/software/apps/Gaussian/g16/l1.exe "/tmp/Gau-41518.inp" -scrdir="/tmp/"
 Entering Link 1 = /public/software/apps/Gaussian/g16/l1.exe PID=     41519.
  
 Copyright (c) 1988-2019, Gaussian, Inc.  All Rights Reserved.
  
 This is part of the Gaussian(R) 16 program.  It is based on
 the Gaussian(R) 09 system (copyright 2009, Gaussian, Inc.),
 the Gaussian(R) 03 system (copyright 2003, Gaussian, Inc.),
 the Gaussian(R) 98 system (copyright 1998, Gaussian, Inc.),
 the Gaussian(R) 94 system (copyright 1995, Gaussian, Inc.),
 the Gaussian 92(TM) system (copyright 1992, Gaussian, Inc.),
 the Gaussian 90(TM) system (copyright 1990, Gaussian, Inc.),
 the Gaussian 88(TM) system (copyright 1988, Gaussian, Inc.),
 the Gaussian 86(TM) system (copyright 1986, Carnegie Mellon
 University), and the Gaussian 82(TM) system (copyright 1983,
 Carnegie Mellon University). Gaussian is a federally registered
 trademark of Gaussian, Inc.
  
 This software contains proprietary and confidential information,
 including trade secrets, belonging to Gaussian, Inc.
  
 This software is provided under written license and may be
 used, copied, transmitted, or stored only in accord with that
 written license.
  
 The following legend is applicable only to US Government
 contracts under FAR:
  
                    RESTRICTED RIGHTS LEGEND
  
 Use, reproduction and disclosure by the US Government is
 subject to restrictions as set forth in subparagraphs (a)
 and (c) of the Commercial Computer Software - Restricted
 Rights clause in FAR 52.227-19.
  
 Gaussian, Inc.
 340 Quinnipiac St., Bldg. 40, Wallingford CT 06492
  
  
 ---------------------------------------------------------------
 Warning -- This program may not be used in any manner that
 competes with the business of Gaussian, Inc. or will provide
 assistance to any competitor of Gaussian, Inc.  The licensee
 of this program is prohibited from giving any competitor of
 Gaussian, Inc. access to this program.  By using this program,
 the user acknowledges that Gaussian, Inc. is engaged in the
 business of creating and licensing software in the field of
 computational chemistry and represents and warrants to the
 licensee that it is not a competitor of Gaussian, Inc. and that
 it will not use this program in any manner prohibited above.
 ---------------------------------------------------------------
  

 Cite this work as:
 Gaussian 16, Revision C.01,
 M. J. Frisch, G. W. Trucks, H. B. Schlegel, G. E. Scuseria, 
 M. A. Robb, J. R. Cheeseman, G. Scalmani, V. Barone, 
 G. A. Petersson, H. Nakatsuji, X. Li, M. Caricato, A. V. Marenich, 
 J. Bloino, B. G. Janesko, R. Gomperts, B. Mennucci, H. P. Hratchian, 
 J. V. Ortiz, A. F. Izmaylov, J. L. Sonnenberg, D. Williams-Young, 
 F. Ding, F. Lipparini, F. Egidi, J. Goings, B. Peng, A. Petrone, 
 T. Henderson, D. Ranasinghe, V. G. Zakrzewski, J. Gao, N. Rega, 
 G. Zheng, W. Liang, M. Hada, M. Ehara, K. Toyota, R. Fukuda, 
 J. Hasegawa, M. Ishida, T. Nakajima, Y. Honda, O. Kitao, H. Nakai, 
 T. Vreven, K. Throssell, J. A. Montgomery, Jr., J. E. Peralta, 
 F. Ogliaro, M. J. Bearpark, J. J. Heyd, E. N. Brothers, K. N. Kudin, 
 V. N. Staroverov, T. A. Keith, R. Kobayashi, J. Normand, 
 K. Raghavachari, A. P. Rendell, J. C. Burant, S. S. Iyengar, 
 J. Tomasi, M. Cossi, J. M. Millam, M. Klene, C. Adamo, R. Cammi, 
 J. W. Ochterski, R. L. Martin, K. Morokuma, O. Farkas, 
 J. B. Foresman, and D. J. Fox, Gaussian, Inc., Wallingford CT, 2019.
 
 ******************************************
 Gaussian 16:  ES64L-G16RevC.01  3-Jul-2019
                11-Nov-2024 
 ******************************************
 %nprocshared=32
 Will use up to   32 processors via shared memory.
 %mem=80GB
 --------------------------------------------------------------
 # opt=maxcycle=150 freq b3lyp/genecp empiricaldispersion=gd3bj
 --------------------------------------------------------------
 1/6=150,18=20,19=15,26=3,38=1/1,3;
 2/9=110,12=2,17=6,18=5,40=1/2;
 3/5=7,11=2,16=1,17=8,25=1,30=1,71=1,74=-5,124=41/1,2,3;
 4//1;
 5/5=2,38=5/2;
 6/7=2,8=2,9=2,10=2,28=1/1;
 7//1,2,3,16;
 1/6=150,18=20,19=15,26=3/3(2);
 2/9=110/2;
 99//99;
 2/9=110/2;
 3/5=7,6=1,11=2,16=1,17=8,25=1,30=1,71=1,74=-5,82=7,124=41/1,2,3;
 4/5=5,16=3,69=1/1;
 5/5=2,38=5/2;
 7//1,2,3,16;
 1/6=150,18=20,19=15,26=3/3(-5);
 2/9=110/2;
 6/7=2,8=2,9=2,10=2,19=2,28=1/1;
 99/9=1/99;
 ------------------
 B3D3_Pople_Opt_Gas
 ------------------
 Symbolic Z-matrix:
 Charge = -1 Multiplicity = 1
 C                     1.59869   0.00609  -0.00004 
 C                     0.17362   0.0169   -0.00006 
 C                    -0.5905   -1.18733   0.00026 
 C                    -0.58579   1.21862  -0.00033 
 H                    -0.07891  -2.14687   0.00058 
 C                    -1.97012   1.16019  -0.00034 
 H                    -0.08355   2.18024  -0.00056 
 C                    -2.59796  -0.09004  -0.00005 
 H                    -2.56468   2.06921  -0.00057 
 H                    -3.68307  -0.16863  -0.00006 
 N                    -1.91784  -1.24835   0.00026 
 C                     2.35435  -1.29334   0.00011 
 H                     3.43412  -1.12222  -0.0009 
 H                     2.11765  -1.90868   0.8804 
 H                     2.11613  -1.90978  -0.87898 
 C                     2.36267   1.29997   0.0001 
 H                     2.12813   1.91699  -0.88017 
 H                     2.12763   1.9171    0.88016 
 H                     3.4417    1.12469   0.00041 
 

 GradGradGradGradGradGradGradGradGradGradGradGradGradGradGradGradGradGrad
 Berny optimization.
 Initialization pass.
                           ----------------------------
                           !    Initial Parameters    !
                           ! (Angstroms and Degrees)  !
 --------------------------                            --------------------------
 ! Name  Definition              Value          Derivative Info.                !
 --------------------------------------------------------------------------------
 ! R1    R(1,2)                  1.4251         estimate D2E/DX2                !
 ! R2    R(1,12)                 1.5032         estimate D2E/DX2                !
 ! R3    R(1,16)                 1.5026         estimate D2E/DX2                !
 ! R4    R(2,3)                  1.4262         estimate D2E/DX2                !
 ! R5    R(2,4)                  1.4216         estimate D2E/DX2                !
 ! R6    R(3,5)                  1.0874         estimate D2E/DX2                !
 ! R7    R(3,11)                 1.3287         estimate D2E/DX2                !
 ! R8    R(4,6)                  1.3856         estimate D2E/DX2                !
 ! R9    R(4,7)                  1.0849         estimate D2E/DX2                !
 ! R10   R(6,8)                  1.399          estimate D2E/DX2                !
 ! R11   R(6,9)                  1.0862         estimate D2E/DX2                !
 ! R12   R(8,10)                 1.088          estimate D2E/DX2                !
 ! R13   R(8,11)                 1.3432         estimate D2E/DX2                !
 ! R14   R(12,13)                1.0933         estimate D2E/DX2                !
 ! R15   R(12,14)                1.0998         estimate D2E/DX2                !
 ! R16   R(12,15)                1.0998         estimate D2E/DX2                !
 ! R17   R(16,17)                1.1003         estimate D2E/DX2                !
 ! R18   R(16,18)                1.1003         estimate D2E/DX2                !
 ! R19   R(16,19)                1.0932         estimate D2E/DX2                !
 ! A1    A(2,1,12)             120.6143         estimate D2E/DX2                !
 ! A2    A(2,1,16)             120.1247         estimate D2E/DX2                !
 ! A3    A(12,1,16)            119.261          estimate D2E/DX2                !
 ! A4    A(1,2,3)              121.961          estimate D2E/DX2                !
 ! A5    A(1,2,4)              122.7252         estimate D2E/DX2                !
 ! A6    A(3,2,4)              115.3139         estimate D2E/DX2                !
 ! A7    A(2,3,5)              119.5392         estimate D2E/DX2                !
 ! A8    A(2,3,11)             125.0279         estimate D2E/DX2                !
 ! A9    A(5,3,11)             115.4328         estimate D2E/DX2                !
 ! A10   A(2,4,6)              119.8734         estimate D2E/DX2                !
 ! A11   A(2,4,7)              120.1325         estimate D2E/DX2                !
 ! A12   A(6,4,7)              119.9941         estimate D2E/DX2                !
 ! A13   A(4,6,8)              119.0817         estimate D2E/DX2                !
 ! A14   A(4,6,9)              120.7705         estimate D2E/DX2                !
 ! A15   A(8,6,9)              120.1478         estimate D2E/DX2                !
 ! A16   A(6,8,10)             120.8072         estimate D2E/DX2                !
 ! A17   A(6,8,11)             122.915          estimate D2E/DX2                !
 ! A18   A(10,8,11)            116.2778         estimate D2E/DX2                !
 ! A19   A(3,11,8)             117.7882         estimate D2E/DX2                !
 ! A20   A(1,12,13)            111.1745         estimate D2E/DX2                !
 ! A21   A(1,12,14)            112.0582         estimate D2E/DX2                !
 ! A22   A(1,12,15)            112.06           estimate D2E/DX2                !
 ! A23   A(13,12,14)           107.5098         estimate D2E/DX2                !
 ! A24   A(13,12,15)           107.5128         estimate D2E/DX2                !
 ! A25   A(14,12,15)           106.234          estimate D2E/DX2                !
 ! A26   A(1,16,17)            111.9898         estimate D2E/DX2                !
 ! A27   A(1,16,18)            111.9899         estimate D2E/DX2                !
 ! A28   A(1,16,19)            111.3326         estimate D2E/DX2                !
 ! A29   A(17,16,18)           106.2514         estimate D2E/DX2                !
 ! A30   A(17,16,19)           107.4906         estimate D2E/DX2                !
 ! A31   A(18,16,19)           107.4915         estimate D2E/DX2                !
 ! D1    D(12,1,2,3)             0.0098         estimate D2E/DX2                !
 ! D2    D(12,1,2,4)          -179.993          estimate D2E/DX2                !
 ! D3    D(16,1,2,3)          -179.9789         estimate D2E/DX2                !
 ! D4    D(16,1,2,4)             0.0183         estimate D2E/DX2                !
 ! D5    D(2,1,12,13)          179.9434         estimate D2E/DX2                !
 ! D6    D(2,1,12,14)          -59.7188         estimate D2E/DX2                !
 ! D7    D(2,1,12,15)           59.6005         estimate D2E/DX2                !
 ! D8    D(16,1,12,13)          -0.0678         estimate D2E/DX2                !
 ! D9    D(16,1,12,14)         120.27           estimate D2E/DX2                !
 ! D10   D(16,1,12,15)        -120.4107         estimate D2E/DX2                !
 ! D11   D(2,1,16,17)          -59.6409         estimate D2E/DX2                !
 ! D12   D(2,1,16,18)           59.6051         estimate D2E/DX2                !
 ! D13   D(2,1,16,19)          179.9827         estimate D2E/DX2                !
 ! D14   D(12,1,16,17)         120.3703         estimate D2E/DX2                !
 ! D15   D(12,1,16,18)        -120.3837         estimate D2E/DX2                !
 ! D16   D(12,1,16,19)          -0.0061         estimate D2E/DX2                !
 ! D17   D(1,2,3,5)              0.0027         estimate D2E/DX2                !
 ! D18   D(1,2,3,11)          -179.9999         estimate D2E/DX2                !
 ! D19   D(4,2,3,5)           -179.9947         estimate D2E/DX2                !
 ! D20   D(4,2,3,11)             0.0027         estimate D2E/DX2                !
 ! D21   D(1,2,4,6)            179.9997         estimate D2E/DX2                !
 ! D22   D(1,2,4,7)              0.0012         estimate D2E/DX2                !
 ! D23   D(3,2,4,6)             -0.0029         estimate D2E/DX2                !
 ! D24   D(3,2,4,7)            179.9986         estimate D2E/DX2                !
 ! D25   D(2,3,11,8)            -0.0006         estimate D2E/DX2                !
 ! D26   D(5,3,11,8)           179.9969         estimate D2E/DX2                !
 ! D27   D(2,4,6,8)              0.0012         estimate D2E/DX2                !
 ! D28   D(2,4,6,9)           -179.9989         estimate D2E/DX2                !
 ! D29   D(7,4,6,8)            179.9997         estimate D2E/DX2                !
 ! D30   D(7,4,6,9)             -0.0005         estimate D2E/DX2                !
 ! D31   D(4,6,8,10)          -179.9997         estimate D2E/DX2                !
 ! D32   D(4,6,8,11)             0.0011         estimate D2E/DX2                !
 ! D33   D(9,6,8,10)             0.0005         estimate D2E/DX2                !
 ! D34   D(9,6,8,11)          -179.9987         estimate D2E/DX2                !
 ! D35   D(6,8,11,3)            -0.0014         estimate D2E/DX2                !
 ! D36   D(10,8,11,3)          179.9993         estimate D2E/DX2                !
 --------------------------------------------------------------------------------
 Trust Radius=3.00D-01 FncErr=1.00D-07 GrdErr=1.00D-06 EigMax=2.50D+02 EigMin=1.00D-04
 Number of steps in this run=    114 maximum allowed number of steps=    114.
 GradGradGradGradGradGradGradGradGradGradGradGradGradGradGradGradGradGrad

                          Input orientation:                          
 ---------------------------------------------------------------------
 Center     Atomic      Atomic             Coordinates (Angstroms)
 Number     Number       Type             X           Y           Z
 ---------------------------------------------------------------------
      1          6           0        1.598691    0.006085   -0.000036
      2          6           0        0.173617    0.016904   -0.000056
      3          6           0       -0.590496   -1.187333    0.000263
      4          6           0       -0.585788    1.218620   -0.000334
      5          1           0       -0.078909   -2.146869    0.000575
      6          6           0       -1.970120    1.160193   -0.000344
      7          1           0       -0.083551    2.180236   -0.000563
      8          6           0       -2.597962   -0.090040   -0.000052
      9          1           0       -2.564677    2.069210   -0.000572
     10          1           0       -3.683070   -0.168627   -0.000057
     11          7           0       -1.917839   -1.248349    0.000262
     12          6           0        2.354346   -1.293336    0.000106
     13          1           0        3.434122   -1.122222   -0.000904
     14          1           0        2.117654   -1.908680    0.880404
     15          1           0        2.116135   -1.909780   -0.878977
     16          6           0        2.362665    1.299974    0.000099
     17          1           0        2.128128    1.916991   -0.880173
     18          1           0        2.127631    1.917102    0.880157
     19          1           0        3.441697    1.124686    0.000405
 ---------------------------------------------------------------------
                    Distance matrix (angstroms):
                    1          2          3          4          5
     1  C    0.000000
     2  C    1.425115   0.000000
     3  C    2.493348   1.426203   0.000000
     4  C    2.498437   1.421555   2.405958   0.000000
     5  H    2.729387   2.178459   1.087396   3.403446   0.000000
     6  C    3.750784   2.429551   2.722910   1.385564   3.809638
     7  H    2.748976   2.178564   3.405512   1.084872   4.327108
     8  C    4.197754   2.773642   2.287788   2.400299   3.252103
     9  H    4.646517   3.422019   3.808210   2.153951   4.894320
    10  H    5.284650   3.861147   3.256037   3.393760   4.111377
    11  N    3.733576   2.444392   1.328745   2.803622   2.046705
    12  C    1.503166   2.544073   2.946749   3.867080   2.578614
    13  H    2.154503   3.453766   4.025145   4.651797   3.659411
    14  H    2.170443   2.874433   2.937527   4.226618   2.378176
    15  H    2.170443   2.873672   2.936127   4.226025   2.376561
    16  C    1.502599   2.537361   3.861069   2.949575   4.223980
    17  H    2.169448   2.864446   4.219350   2.937206   4.707620
    18  H    2.169448   2.864210   4.218998   2.936969   4.707265
    19  H    2.155908   3.450729   4.648012   4.028580   4.806011
                    6          7          8          9         10
     6  C    0.000000
     7  H    2.144675   0.000000
     8  C    1.399024   3.387686   0.000000
     9  H    1.086191   2.483609   2.159507   0.000000
    10  H    2.167939   4.298104   1.087950   2.501743   0.000000
    11  N    2.409109   3.888420   1.343223   3.380029   2.069261
    12  C    4.972003   4.243706   5.096398   5.958482   6.141283
    13  H    5.866451   4.824961   6.119758   6.794912   7.180791
    14  H    5.186868   4.726589   5.130272   6.206767   6.119754
    15  H    5.185963   4.726358   5.129003   6.205961   6.118406
    16  C    4.335039   2.599776   5.151695   4.987026   6.221551
    17  H    4.259399   2.394689   5.209483   4.776954   6.236540
    18  H    4.259079   2.394626   5.209090   4.776670   6.236128
    19  H    5.411934   3.679886   6.160604   6.080185   7.241199
                   11         12         13         14         15
    11  N    0.000000
    12  C    4.272422   0.000000
    13  H    5.353447   1.093251   0.000000
    14  H    4.182809   1.099816   1.768702   0.000000
    15  H    4.181327   1.099788   1.768714   1.759382   0.000000
    16  C    4.981633   2.593323   2.648595   3.336230   3.337075
    17  H    5.211947   3.336505   3.422799   4.211354   3.826790
    18  H    5.211537   3.336585   3.423548   3.825795   4.211854
    19  H    5.861392   2.651257   2.246921   3.424733   3.426136
                   16         17         18         19
    16  C    0.000000
    17  H    1.100271   0.000000
    18  H    1.100268   1.760330   0.000000
    19  H    1.093177   1.768793   1.768801   0.000000
 Stoichiometry    C8H10N(1-)
 Framework group  C1[X(C8H10N)]
 Deg. of freedom    51
 Full point group                 C1      NOp   1
 Largest Abelian subgroup         C1      NOp   1
 Largest concise Abelian subgroup C1      NOp   1
                         Standard orientation:                         
 ---------------------------------------------------------------------
 Center     Atomic      Atomic             Coordinates (Angstroms)
 Number     Number       Type             X           Y           Z
 ---------------------------------------------------------------------
      1          6           0        1.598691    0.006085   -0.000036
      2          6           0        0.173617    0.016904   -0.000056
      3          6           0       -0.590496   -1.187333    0.000263
      4          6           0       -0.585788    1.218620   -0.000334
      5          1           0       -0.078909   -2.146869    0.000575
      6          6           0       -1.970120    1.160193   -0.000344
      7          1           0       -0.083551    2.180236   -0.000563
      8          6           0       -2.597962   -0.090040   -0.000052
      9          1           0       -2.564677    2.069210   -0.000572
     10          1           0       -3.683070   -0.168627   -0.000057
     11          7           0       -1.917839   -1.248349    0.000262
     12          6           0        2.354346   -1.293336    0.000106
     13          1           0        3.434122   -1.122222   -0.000904
     14          1           0        2.117654   -1.908680    0.880404
     15          1           0        2.116135   -1.909780   -0.878977
     16          6           0        2.362665    1.299974    0.000099
     17          1           0        2.128128    1.916991   -0.880173
     18          1           0        2.127631    1.917102    0.880157
     19          1           0        3.441697    1.124686    0.000405
 ---------------------------------------------------------------------
 Rotational constants (GHZ):           3.4318659           1.2126922           0.9060878
 General basis read from cards:  (5D, 7F)
 ======================================================================================================
                                       Pseudopotential Parameters
 ======================================================================================================
  Center     Atomic      Valence      Angular      Power
  Number     Number     Electrons     Momentum     of R      Exponent        Coefficient   SO-Coeffient
 ======================================================================================================
    1          6
                                   No pseudopotential on this center.
    2          6
                                   No pseudopotential on this center.
    3          6
                                   No pseudopotential on this center.
    4          6
                                   No pseudopotential on this center.
    5          1
                                   No pseudopotential on this center.
    6          6
                                   No pseudopotential on this center.
    7          1
                                   No pseudopotential on this center.
    8          6
                                   No pseudopotential on this center.
    9          1
                                   No pseudopotential on this center.
   10          1
                                   No pseudopotential on this center.
   11          7
                                   No pseudopotential on this center.
   12          6
                                   No pseudopotential on this center.
   13          1
                                   No pseudopotential on this center.
   14          1
                                   No pseudopotential on this center.
   15          1
                                   No pseudopotential on this center.
   16          6
                                   No pseudopotential on this center.
   17          1
                                   No pseudopotential on this center.
   18          1
                                   No pseudopotential on this center.
   19          1
                                   No pseudopotential on this center.
 ======================================================================================================
 There are   155 symmetry adapted cartesian basis functions of A   symmetry.
 There are   146 symmetry adapted basis functions of A   symmetry.
   146 basis functions,   292 primitive gaussians,   155 cartesian basis functions
    33 alpha electrons       33 beta electrons
       nuclear repulsion energy       412.2604772957 Hartrees.
 NAtoms=   19 NActive=   19 NUniq=   19 SFac= 1.00D+00 NAtFMM=   60 NAOKFM=F Big=F
 Integral buffers will be    131072 words long.
 Raffenetti 2 integral format.
 Two-electron integral symmetry is turned on.
 Nuclear repulsion after empirical dispersion term =      412.2275724508 Hartrees.
 One-electron integrals computed using PRISM.
   1 Symmetry operations used in ECPInt.
 ECPInt:  NShTT=    1596 NPrTT=    9922 LenC2=    1567 LenP2D=    6644.
 LDataN:  DoStor=T MaxTD1= 4 Len=   56
 NBasis=   146 RedAO= T EigKep=  8.72D-04  NBF=   146
 NBsUse=   146 1.00D-06 EigRej= -1.00D+00 NBFU=   146
 ExpMin= 1.61D-01 ExpMax= 4.17D+03 ExpMxC= 6.27D+02 IAcc=3 IRadAn=         5 AccDes= 0.00D+00
 Harris functional with IExCor=  402 and IRadAn=       5 diagonalized for initial guess.
 HarFok:  IExCor=  402 AccDes= 0.00D+00 IRadAn=         5 IDoV= 1 UseB2=F ITyADJ=14
 ICtDFT=  3500011 ScaDFX=  1.000000  1.000000  1.000000  1.000000
 FoFCou: FMM=F IPFlag=           0 FMFlag=      100000 FMFlg1=           0
         NFxFlg=           0 DoJE=T BraDBF=F KetDBF=T FulRan=T
         wScrn=  0.000000 ICntrl=       500 IOpCl=  0 I1Cent=   200000004 NGrid=           0
         NMat0=    1 NMatS0=      1 NMatT0=    0 NMatD0=    1 NMtDS0=    0 NMtDT0=    0
 Petite list used in FoFCou.
 Requested convergence on RMS density matrix=1.00D-08 within 128 cycles.
 Requested convergence on MAX density matrix=1.00D-06.
 Requested convergence on             energy=1.00D-06.
 No special actions if energy rises.
 Integral accuracy reduced to 1.0D-05 until final iterations.
 Initial convergence to 1.0D-05 achieved.  Increase integral accuracy.
 SCF Done:  E(RB3LYP) =  -365.620379837     A.U. after   15 cycles
            NFock= 15  Conv=0.82D-08     -V/T= 2.0060

 **********************************************************************

            Population analysis using the SCF Density.

 **********************************************************************

 Orbital symmetries:
       Occupied  (A) (A) (A) (A) (A) (A) (A) (A) (A) (A) (A) (A)
                 (A) (A) (A) (A) (A) (A) (A) (A) (A) (A) (A) (A)
                 (A) (A) (A) (A) (A) (A) (A) (A) (A)
       Virtual   (A) (A) (A) (A) (A) (A) (A) (A) (A) (A) (A) (A)
                 (A) (A) (A) (A) (A) (A) (A) (A) (A) (A) (A) (A)
                 (A) (A) (A) (A) (A) (A) (A) (A) (A) (A) (A) (A)
                 (A) (A) (A) (A) (A) (A) (A) (A) (A) (A) (A) (A)
                 (A) (A) (A) (A) (A) (A) (A) (A) (A) (A) (A) (A)
                 (A) (A) (A) (A) (A) (A) (A) (A) (A) (A) (A) (A)
                 (A) (A) (A) (A) (A) (A) (A) (A) (A) (A) (A) (A)
                 (A) (A) (A) (A) (A) (A) (A) (A) (A) (A) (A) (A)
                 (A) (A) (A) (A) (A) (A) (A) (A) (A) (A) (A) (A)
                 (A) (A) (A) (A) (A)
 The electronic state is 1-A.
 Alpha  occ. eigenvalues --  -14.13384 -10.00664 -10.00394 -10.00374 -10.00282
 Alpha  occ. eigenvalues --  -10.00274  -9.98940  -9.98753  -9.95220  -0.73721
 Alpha  occ. eigenvalues --   -0.61997  -0.58780  -0.54623  -0.52052  -0.44479
 Alpha  occ. eigenvalues --   -0.42648  -0.36080  -0.32645  -0.28422  -0.27363
 Alpha  occ. eigenvalues --   -0.25913  -0.25054  -0.22161  -0.21743  -0.20868
 Alpha  occ. eigenvalues --   -0.19730  -0.19657  -0.17102  -0.15211  -0.09419
 Alpha  occ. eigenvalues --   -0.07399  -0.06203   0.05817
 Alpha virt. eigenvalues --    0.17549   0.21141   0.24706   0.27394   0.28731
 Alpha virt. eigenvalues --    0.28754   0.32447   0.33257   0.33523   0.33759
 Alpha virt. eigenvalues --    0.34255   0.36821   0.36842   0.41225   0.43779
 Alpha virt. eigenvalues --    0.46214   0.48116   0.51362   0.55235   0.58274
 Alpha virt. eigenvalues --    0.61768   0.63509   0.69885   0.70893   0.71428
 Alpha virt. eigenvalues --    0.72290   0.76005   0.76950   0.77739   0.78314
 Alpha virt. eigenvalues --    0.78800   0.79495   0.81712   0.83152   0.84422
 Alpha virt. eigenvalues --    0.86233   0.89876   0.90893   0.91254   0.96167
 Alpha virt. eigenvalues --    0.96928   0.98794   1.00315   1.01083   1.03240
 Alpha virt. eigenvalues --    1.03475   1.05049   1.05692   1.06368   1.08042
 Alpha virt. eigenvalues --    1.09419   1.11171   1.12837   1.16014   1.18109
 Alpha virt. eigenvalues --    1.20842   1.21636   1.26822   1.30658   1.34504
 Alpha virt. eigenvalues --    1.37319   1.45190   1.46409   1.52704   1.54582
 Alpha virt. eigenvalues --    1.59819   1.60792   1.62690   1.64774   1.67367
 Alpha virt. eigenvalues --    1.68912   1.69570   1.70482   1.72298   1.90274
 Alpha virt. eigenvalues --    1.94941   1.98752   2.01458   2.01490   2.06122
 Alpha virt. eigenvalues --    2.08174   2.13408   2.13533   2.14823   2.16921
 Alpha virt. eigenvalues --    2.29353   2.30863   2.33448   2.35812   2.36985
 Alpha virt. eigenvalues --    2.38257   2.39179   2.42259   2.44859   2.49979
 Alpha virt. eigenvalues --    2.50111   2.50222   2.55411   2.57966   2.62272
 Alpha virt. eigenvalues --    2.72624   2.73260   2.74144   2.78849   2.81769
 Alpha virt. eigenvalues --    2.88926   2.93918   2.98426   2.99540   3.10916
 Alpha virt. eigenvalues --    3.13454   3.36487   3.59314
          Condensed to atoms (all electrons):
               1          2          3          4          5          6
     1  C    5.098602   0.570477  -0.066399  -0.094073  -0.014986   0.010483
     2  C    0.570477   4.585186   0.408035   0.426418  -0.056067   0.002379
     3  C   -0.066399   0.408035   5.130402  -0.045744   0.352349  -0.040596
     4  C   -0.094073   0.426418  -0.045744   5.218712   0.005676   0.520826
     5  H   -0.014986  -0.056067   0.352349   0.005676   0.691640   0.000994
     6  C    0.010483   0.002379  -0.040596   0.520826   0.000994   4.944760
     7  H   -0.023081  -0.040087   0.008192   0.349464  -0.000207  -0.068816
     8  C    0.000863  -0.025658  -0.103716  -0.043953   0.004219   0.523598
     9  H   -0.000113   0.005201   0.000069  -0.051323   0.000038   0.325697
    10  H    0.000027   0.001461   0.003732   0.002999  -0.000329  -0.071233
    11  N    0.008126  -0.007949   0.489497  -0.063206  -0.058886  -0.025245
    12  C    0.376609  -0.007540  -0.030689   0.010823   0.007880  -0.000314
    13  H   -0.021819   0.001455   0.000571  -0.000149  -0.000163   0.000004
    14  H   -0.046361  -0.009537   0.006144   0.000024   0.001970   0.000011
    15  H   -0.046284  -0.009555   0.006151   0.000024   0.001973   0.000011
    16  C    0.379315  -0.008911   0.009267  -0.030819   0.000048  -0.000071
    17  H   -0.047443  -0.009762   0.000055   0.006900  -0.000004   0.000064
    18  H   -0.047426  -0.009772   0.000055   0.006910  -0.000004   0.000064
    19  H   -0.021772   0.001693  -0.000125   0.000536  -0.000007   0.000003
               7          8          9         10         11         12
     1  C   -0.023081   0.000863  -0.000113   0.000027   0.008126   0.376609
     2  C   -0.040087  -0.025658   0.005201   0.001461  -0.007949  -0.007540
     3  C    0.008192  -0.103716   0.000069   0.003732   0.489497  -0.030689
     4  C    0.349464  -0.043953  -0.051323   0.002999  -0.063206   0.010823
     5  H   -0.000207   0.004219   0.000038  -0.000329  -0.058886   0.007880
     6  C   -0.068816   0.523598   0.325697  -0.071233  -0.025245  -0.000314
     7  H    0.704906   0.005709  -0.008679  -0.000254  -0.000564   0.000198
     8  C    0.005709   4.916878  -0.047323   0.356338   0.494615   0.000034
     9  H   -0.008679  -0.047323   0.728790  -0.002612   0.006606   0.000002
    10  H   -0.000254   0.356338  -0.002612   0.728749  -0.053328  -0.000000
    11  N   -0.000564   0.494615   0.006606  -0.053328   6.582323  -0.000029
    12  C    0.000198   0.000034   0.000002  -0.000000  -0.000029   5.198658
    13  H   -0.000013   0.000000  -0.000000  -0.000000   0.000000   0.349911
    14  H   -0.000006  -0.000030   0.000000  -0.000000   0.000070   0.342072
    15  H   -0.000006  -0.000031   0.000000  -0.000000   0.000070   0.342088
    16  C    0.009004   0.000004  -0.000010  -0.000000  -0.000166  -0.099885
    17  H    0.002201  -0.000017  -0.000001   0.000000   0.000002   0.003984
    18  H    0.002200  -0.000017  -0.000001   0.000000   0.000002   0.003984
    19  H   -0.000227   0.000000   0.000000  -0.000000   0.000001  -0.010163
              13         14         15         16         17         18
     1  C   -0.021819  -0.046361  -0.046284   0.379315  -0.047443  -0.047426
     2  C    0.001455  -0.009537  -0.009555  -0.008911  -0.009762  -0.009772
     3  C    0.000571   0.006144   0.006151   0.009267   0.000055   0.000055
     4  C   -0.000149   0.000024   0.000024  -0.030819   0.006900   0.006910
     5  H   -0.000163   0.001970   0.001973   0.000048  -0.000004  -0.000004
     6  C    0.000004   0.000011   0.000011  -0.000071   0.000064   0.000064
     7  H   -0.000013  -0.000006  -0.000006   0.009004   0.002201   0.002200
     8  C    0.000000  -0.000030  -0.000031   0.000004  -0.000017  -0.000017
     9  H   -0.000000   0.000000   0.000000  -0.000010  -0.000001  -0.000001
    10  H   -0.000000  -0.000000  -0.000000  -0.000000   0.000000   0.000000
    11  N    0.000000   0.000070   0.000070  -0.000166   0.000002   0.000002
    12  C    0.349911   0.342072   0.342088  -0.099885   0.003984   0.003984
    13  H    0.664768  -0.036974  -0.036881  -0.010761   0.000256   0.000249
    14  H   -0.036974   0.719646  -0.074835   0.003931  -0.000556   0.000822
    15  H   -0.036881  -0.074835   0.719382   0.003938   0.000818  -0.000555
    16  C   -0.010761   0.003931   0.003938   5.204462   0.339580   0.339580
    17  H    0.000256  -0.000556   0.000818   0.339580   0.727629  -0.076838
    18  H    0.000249   0.000822  -0.000555   0.339580  -0.076838   0.727591
    19  H    0.008540   0.000247   0.000246   0.350601  -0.036913  -0.036904
              19
     1  C   -0.021772
     2  C    0.001693
     3  C   -0.000125
     4  C    0.000536
     5  H   -0.000007
     6  C    0.000003
     7  H   -0.000227
     8  C    0.000000
     9  H    0.000000
    10  H   -0.000000
    11  N    0.000001
    12  C   -0.010163
    13  H    0.008540
    14  H    0.000247
    15  H    0.000246
    16  C    0.350601
    17  H   -0.036913
    18  H   -0.036904
    19  H    0.661895
 Mulliken charges:
               1
     1  C   -0.014743
     2  C    0.182534
     3  C   -0.127252
     4  C   -0.220044
     5  H    0.063866
     6  C   -0.122619
     7  H    0.060066
     8  C   -0.081513
     9  H    0.043656
    10  H    0.034451
    11  N   -0.371940
    12  C   -0.487622
    13  H    0.081006
    14  H    0.093364
    15  H    0.093445
    16  C   -0.489106
    17  H    0.090046
    18  H    0.090059
    19  H    0.082347
 Sum of Mulliken charges =  -1.00000
 Mulliken charges with hydrogens summed into heavy atoms:
               1
     1  C   -0.014743
     2  C    0.182534
     3  C   -0.063386
     4  C   -0.159978
     6  C   -0.078963
     8  C   -0.047063
    11  N   -0.371940
    12  C   -0.219807
    16  C   -0.226654
 Electronic spatial extent (au):  <R**2>=           1323.2537
 Charge=             -1.0000 electrons
 Dipole moment (field-independent basis, Debye):
    X=              1.1851    Y=              1.5262    Z=             -0.0004  Tot=              1.9323
 Quadrupole moment (field-independent basis, Debye-Ang):
   XX=            -77.0620   YY=            -65.3951   ZZ=            -60.5878
   XY=             -4.5621   XZ=              0.0003   YZ=              0.0015
 Traceless Quadrupole moment (field-independent basis, Debye-Ang):
   XX=             -9.3804   YY=              2.2865   ZZ=              7.0939
   XY=             -4.5621   XZ=              0.0003   YZ=              0.0015
 Octapole moment (field-independent basis, Debye-Ang**2):
  XXX=             -0.6684  YYY=              4.9988  ZZZ=              0.0014  XYY=              0.6499
  XXY=              9.9156  XXZ=             -0.0045  XZZ=              0.0007  YZZ=             -1.5454
  YYZ=             -0.0042  XYZ=              0.0003
 Hexadecapole moment (field-independent basis, Debye-Ang**3):
 XXXX=          -1409.9509 YYYY=           -542.9583 ZZZZ=            -78.7363 XXXY=            -21.7384
 XXXZ=             -0.0252 YYYX=            -16.4461 YYYZ=              0.0384 ZZZX=             -0.0235
 ZZZY=              0.0371 XXYY=           -353.2611 XXZZ=           -244.3571 YYZZ=           -103.4864
 XXYZ=              0.0200 YYXZ=             -0.0075 ZZXY=              2.0868
 N-N= 4.122275724508D+02 E-N=-1.684963168666D+03  KE= 3.634290463653D+02
   1 Symmetry operations used in ECPInt.
 ECPInt:  NShTT=    1596 NPrTT=    9922 LenC2=    1567 LenP2D=    6644.
 LDataN:  DoStor=T MaxTD1= 5 Len=  102
 Calling FoFJK, ICntrl=      2127 FMM=F ISym2X=0 I1Cent= 0 IOpClX= 0 NMat=1 NMatS=1 NMatT=0.
 ***** Axes restored to original set *****
 -------------------------------------------------------------------
 Center     Atomic                   Forces (Hartrees/Bohr)
 Number     Number              X              Y              Z
 -------------------------------------------------------------------
      1        6          -0.020743089    0.000252242   -0.000015070
      2        6           0.054769942   -0.000942414    0.000002080
      3        6          -0.014923234   -0.007829737    0.000001519
      4        6          -0.014947248    0.011483493    0.000000137
      5        1           0.001256582   -0.001163645    0.000001507
      6        6           0.008089929   -0.002914348    0.000000898
      7        1           0.001218544    0.001038249   -0.000000130
      8        6          -0.012596486    0.002879719   -0.000001855
      9        1          -0.001913910    0.002657194   -0.000000728
     10        1          -0.002917846    0.000105507    0.000000880
     11        7           0.006174250   -0.005276593   -0.000001271
     12        6          -0.008555763    0.008286543    0.000019927
     13        1           0.003599455   -0.000198050   -0.000003665
     14        1           0.001769624   -0.007032144    0.003036392
     15        1           0.001758507   -0.007018634   -0.003034178
     16        6          -0.008764426   -0.008923107   -0.000007203
     17        1           0.001575675    0.007222389   -0.003147706
     18        1           0.001574430    0.007217801    0.003147527
     19        1           0.003575062    0.000155535    0.000000937
 -------------------------------------------------------------------
 Cartesian Forces:  Max     0.054769942 RMS     0.009345596

 GradGradGradGradGradGradGradGradGradGradGradGradGradGradGradGradGradGrad
 Berny optimization.
 FormGI is forming the generalized inverse of G from B-inverse, IUseBI=4.
 Internal  Forces:  Max     0.024209653 RMS     0.004832745
 Search for a local minimum.
 Step number   1 out of a maximum of  114
 All quantities printed in internal units (Hartrees-Bohrs-Radians)
 Mixed Optimization -- RFO/linear search
 Second derivative matrix not updated -- first step.
 ITU=  0
     Eigenvalues ---    0.00724   0.00732   0.00989   0.01757   0.01769
     Eigenvalues ---    0.01861   0.02000   0.02051   0.02157   0.02180
     Eigenvalues ---    0.02237   0.02416   0.07042   0.07059   0.07069
     Eigenvalues ---    0.07079   0.16000   0.16000   0.16000   0.16000
     Eigenvalues ---    0.16000   0.16000   0.16000   0.16000   0.16000
     Eigenvalues ---    0.16000   0.22000   0.23200   0.23418   0.25000
     Eigenvalues ---    0.25000   0.25000   0.32047   0.32106   0.33652
     Eigenvalues ---    0.33652   0.33702   0.33706   0.34440   0.34448
     Eigenvalues ---    0.35051   0.35115   0.35257   0.35412   0.39504
     Eigenvalues ---    0.41170   0.41699   0.44579   0.46838   0.54847
     Eigenvalues ---    0.58265
 RFO step:  Lambda=-6.27314571D-03 EMin= 7.24061207D-03
 Linear search not attempted -- first point.
 Iteration  1 RMS(Cart)=  0.02200949 RMS(Int)=  0.00037902
 Iteration  2 RMS(Cart)=  0.00033633 RMS(Int)=  0.00020834
 Iteration  3 RMS(Cart)=  0.00000014 RMS(Int)=  0.00020834
 Variable       Old X    -DE/DX   Delta X   Delta X   Delta X     New X
                                 (Linear)    (Quad)   (Total)
    R1        2.69308  -0.02421   0.00000  -0.05720  -0.05720   2.63588
    R2        2.84057   0.00444   0.00000   0.01358   0.01358   2.85415
    R3        2.83950   0.00385   0.00000   0.01175   0.01175   2.85125
    R4        2.69513   0.01647   0.00000   0.03975   0.03980   2.73493
    R5        2.68635   0.01705   0.00000   0.04002   0.04008   2.72643
    R6        2.05488   0.00162   0.00000   0.00453   0.00453   2.05941
    R7        2.51096   0.00186   0.00000   0.00339   0.00339   2.51436
    R8        2.61834   0.00141   0.00000   0.00251   0.00251   2.62084
    R9        2.05011   0.00148   0.00000   0.00412   0.00412   2.05423
   R10        2.64377   0.00481   0.00000   0.00975   0.00969   2.65347
   R11        2.05260   0.00327   0.00000   0.00912   0.00912   2.06172
   R12        2.05593   0.00290   0.00000   0.00814   0.00814   2.06406
   R13        2.53832   0.00802   0.00000   0.01385   0.01379   2.55212
   R14        2.06594   0.00352   0.00000   0.01005   0.01005   2.07599
   R15        2.07835   0.00598   0.00000   0.01743   0.01743   2.09578
   R16        2.07830   0.00598   0.00000   0.01741   0.01741   2.09571
   R17        2.07921   0.00623   0.00000   0.01818   0.01818   2.09739
   R18        2.07921   0.00623   0.00000   0.01817   0.01817   2.09738
   R19        2.06581   0.00350   0.00000   0.00999   0.00999   2.07580
    A1        2.10512  -0.00059   0.00000  -0.00231  -0.00231   2.10281
    A2        2.09657  -0.00200   0.00000  -0.00780  -0.00780   2.08877
    A3        2.08150   0.00259   0.00000   0.01011   0.01011   2.09161
    A4        2.12862   0.00534   0.00000   0.02030   0.02024   2.14886
    A5        2.14196   0.00454   0.00000   0.01716   0.01710   2.15905
    A6        2.01261  -0.00988   0.00000  -0.03745  -0.03733   1.97527
    A7        2.08635  -0.00241   0.00000  -0.01231  -0.01234   2.07402
    A8        2.18215   0.00367   0.00000   0.01768   0.01774   2.19989
    A9        2.01468  -0.00126   0.00000  -0.00537  -0.00540   2.00928
   A10        2.09219   0.00258   0.00000   0.01051   0.01057   2.10276
   A11        2.09671  -0.00191   0.00000  -0.00895  -0.00898   2.08772
   A12        2.09429  -0.00068   0.00000  -0.00156  -0.00159   2.09270
   A13        2.07837   0.00543   0.00000   0.02139   0.02134   2.09971
   A14        2.10784  -0.00256   0.00000  -0.00979  -0.00977   2.09808
   A15        2.09697  -0.00286   0.00000  -0.01160  -0.01158   2.08540
   A16        2.10848   0.00229   0.00000   0.01070   0.01076   2.11924
   A17        2.14527  -0.00524   0.00000  -0.02532  -0.02543   2.11984
   A18        2.02943   0.00295   0.00000   0.01462   0.01467   2.04410
   A19        2.05579   0.00344   0.00000   0.01319   0.01311   2.06890
   A20        1.94036  -0.00165   0.00000  -0.01338  -0.01322   1.92715
   A21        1.95578   0.00609   0.00000   0.03840   0.03794   1.99372
   A22        1.95582   0.00606   0.00000   0.03817   0.03771   1.99352
   A23        1.87640  -0.00296   0.00000  -0.02094  -0.02079   1.85561
   A24        1.87645  -0.00295   0.00000  -0.02096  -0.02081   1.85564
   A25        1.85413  -0.00539   0.00000  -0.02601  -0.02694   1.82720
   A26        1.95459   0.00602   0.00000   0.03765   0.03723   1.99182
   A27        1.95459   0.00601   0.00000   0.03761   0.03718   1.99177
   A28        1.94312  -0.00161   0.00000  -0.01261  -0.01246   1.93066
   A29        1.85444  -0.00548   0.00000  -0.02759  -0.02844   1.82599
   A30        1.87606  -0.00286   0.00000  -0.01986  -0.01973   1.85634
   A31        1.87608  -0.00286   0.00000  -0.01987  -0.01974   1.85634
    D1        0.00017  -0.00000   0.00000  -0.00011  -0.00011   0.00006
    D2       -3.14147  -0.00000   0.00000  -0.00009  -0.00009  -3.14156
    D3       -3.14122  -0.00000   0.00000  -0.00011  -0.00011  -3.14133
    D4        0.00032  -0.00000   0.00000  -0.00009  -0.00009   0.00023
    D5        3.14060  -0.00000   0.00000   0.00004   0.00004   3.14064
    D6       -1.04229  -0.00075   0.00000  -0.00970  -0.01010  -1.05239
    D7        1.04022   0.00076   0.00000   0.00996   0.01036   1.05059
    D8       -0.00118  -0.00000   0.00000   0.00004   0.00004  -0.00115
    D9        2.09911  -0.00075   0.00000  -0.00971  -0.01011   2.08900
   D10       -2.10156   0.00076   0.00000   0.00996   0.01036  -2.09120
   D11       -1.04093  -0.00063   0.00000  -0.00820  -0.00857  -1.04950
   D12        1.04031   0.00064   0.00000   0.00833   0.00870   1.04900
   D13        3.14129  -0.00000   0.00000   0.00004   0.00004   3.14134
   D14        2.10086  -0.00063   0.00000  -0.00820  -0.00856   2.09229
   D15       -2.10109   0.00064   0.00000   0.00834   0.00870  -2.09239
   D16       -0.00011  -0.00000   0.00000   0.00005   0.00005  -0.00006
   D17        0.00005   0.00000   0.00000   0.00004   0.00004   0.00008
   D18       -3.14159   0.00000   0.00000   0.00005   0.00005  -3.14154
   D19       -3.14150   0.00000   0.00000   0.00002   0.00002  -3.14148
   D20        0.00005   0.00000   0.00000   0.00004   0.00004   0.00008
   D21        3.14159  -0.00000   0.00000  -0.00003  -0.00003   3.14156
   D22        0.00002  -0.00000   0.00000  -0.00002  -0.00002  -0.00000
   D23       -0.00005  -0.00000   0.00000  -0.00002  -0.00002  -0.00007
   D24        3.14157  -0.00000   0.00000  -0.00001  -0.00001   3.14156
   D25       -0.00001  -0.00000   0.00000  -0.00003  -0.00003  -0.00004
   D26        3.14154  -0.00000   0.00000  -0.00002  -0.00002   3.14152
   D27        0.00002  -0.00000   0.00000  -0.00001  -0.00001   0.00002
   D28       -3.14157  -0.00000   0.00000  -0.00000  -0.00000  -3.14157
   D29        3.14159  -0.00000   0.00000  -0.00001  -0.00001   3.14157
   D30       -0.00001  -0.00000   0.00000  -0.00001  -0.00001  -0.00002
   D31       -3.14159  -0.00000   0.00000  -0.00001  -0.00001   3.14159
   D32        0.00002   0.00000   0.00000   0.00001   0.00001   0.00003
   D33        0.00001  -0.00000   0.00000  -0.00002  -0.00002  -0.00001
   D34       -3.14157   0.00000   0.00000   0.00001   0.00001  -3.14157
   D35       -0.00003   0.00000   0.00000   0.00001   0.00001  -0.00002
   D36        3.14158   0.00000   0.00000   0.00003   0.00003  -3.14157
         Item               Value     Threshold  Converged?
 Maximum Force            0.024210     0.000450     NO 
 RMS     Force            0.004833     0.000300     NO 
 Maximum Displacement     0.075127     0.001800     NO 
 RMS     Displacement     0.021992     0.001200     NO 
 Predicted change in Energy=-3.213872D-03
 GradGradGradGradGradGradGradGradGradGradGradGradGradGradGradGradGradGrad

                          Input orientation:                          
 ---------------------------------------------------------------------
 Center     Atomic      Atomic             Coordinates (Angstroms)
 Number     Number       Type             X           Y           Z
 ---------------------------------------------------------------------
      1          6           0        1.596887    0.004059   -0.000021
      2          6           0        0.202087    0.015507   -0.000031
      3          6           0       -0.598619   -1.190080    0.000243
      4          6           0       -0.588643    1.222283   -0.000274
      5          1           0       -0.094112   -2.156060    0.000547
      6          6           0       -1.973931    1.155613   -0.000312
      7          1           0       -0.092635    2.189578   -0.000459
      8          6           0       -2.623364   -0.089330   -0.000095
      9          1           0       -2.567603    2.070963   -0.000513
     10          1           0       -3.713122   -0.163133   -0.000114
     11          7           0       -1.927939   -1.247041    0.000189
     12          6           0        2.352331   -1.303790    0.000205
     13          1           0        3.435533   -1.120688   -0.000796
     14          1           0        2.146078   -1.948435    0.878762
     15          1           0        2.144586   -1.949353   -0.877279
     16          6           0        2.354666    1.308784    0.000022
     17          1           0        2.146258    1.954415   -0.878378
     18          1           0        2.145843    1.954544    0.878219
     19          1           0        3.437972    1.126932    0.000289
 ---------------------------------------------------------------------
                    Distance matrix (angstroms):
                    1          2          3          4          5
     1  C    0.000000
     2  C    1.394848   0.000000
     3  C    2.499244   1.447263   0.000000
     4  C    2.502122   1.442762   2.412384   0.000000
     5  H    2.743282   2.191675   1.089791   3.414347   0.000000
     6  C    3.751908   2.456602   2.719146   1.386891   3.808004
     7  H    2.762423   2.193957   3.417325   1.087052   4.345639
     8  C    4.221284   2.827395   2.304613   2.420830   3.266265
     9  H    4.649202   3.449070   3.809371   2.153263   4.897539
    10  H    5.312641   3.919283   3.279444   3.417858   4.131464
    11  N    3.740275   2.476093   1.330540   2.809142   2.046763
    12  C    1.510352   2.522716   2.953141   3.876902   2.590647
    13  H    2.155383   3.427260   4.034749   4.656555   3.678368
    14  H    2.210453   2.899733   2.979977   4.278418   2.415124
    15  H    2.210289   2.898887   2.978543   4.277728   2.413520
    16  C    1.508819   2.511207   3.868619   2.944579   4.242836
    17  H    2.208440   2.882821   4.265463   2.964248   4.763169
    18  H    2.208405   2.882599   4.265159   2.964012   4.762854
    19  H    2.156487   3.421435   4.654311   4.027744   4.822204
                    6          7          8          9         10
     6  C    0.000000
     7  H    2.146708   0.000000
     8  C    1.404153   3.405585   0.000000
     9  H    1.091015   2.477809   2.161013   0.000000
    10  H    2.182631   4.317774   1.092255   2.510657   0.000000
    11  N    2.403094   3.895984   1.350522   3.379101   2.088477
    12  C    4.976465   4.263975   5.121762   5.966131   6.171777
    13  H    5.868888   4.837958   6.146050   6.798844   7.212502
    14  H    5.232816   4.786233   5.193865   6.256795   6.187888
    15  H    5.231832   4.785888   5.192541   6.255909   6.186498
    16  C    4.331306   2.600977   5.170638   4.980929   6.243764
    17  H    4.287778   2.416338   5.262848   4.796324   6.291876
    18  H    4.287499   2.416217   5.262527   4.796072   6.291542
    19  H    5.411978   3.687059   6.182158   6.079320   7.266527
                   11         12         13         14         15
    11  N    0.000000
    12  C    4.280647   0.000000
    13  H    5.364960   1.098568   0.000000
    14  H    4.226282   1.109041   1.766771   0.000000
    15  H    4.224767   1.109003   1.766763   1.756042   0.000000
    16  C    4.987278   2.612574   2.659062   3.380113   3.380717
    17  H    5.255500   3.380868   3.447991   4.280161   3.903769
    18  H    5.255168   3.380871   3.448626   3.902980   4.280443
    19  H    5.867602   2.662146   2.247622   3.449433   3.450580
                   16         17         18         19
    16  C    0.000000
    17  H    1.109892   0.000000
    18  H    1.109885   1.756597   0.000000
    19  H    1.098464   1.767854   1.767852   0.000000
 Stoichiometry    C8H10N(1-)
 Framework group  C1[X(C8H10N)]
 Deg. of freedom    51
 Full point group                 C1      NOp   1
 Largest Abelian subgroup         C1      NOp   1
 Largest concise Abelian subgroup C1      NOp   1
                         Standard orientation:                         
 ---------------------------------------------------------------------
 Center     Atomic      Atomic             Coordinates (Angstroms)
 Number     Number       Type             X           Y           Z
 ---------------------------------------------------------------------
      1          6           0        1.599630    0.004637   -0.000021
      2          6           0        0.204829    0.016014   -0.000031
      3          6           0       -0.595816   -1.189614    0.000242
      4          6           0       -0.585962    1.222750   -0.000274
      5          1           0       -0.091259   -2.155569    0.000547
      6          6           0       -1.971247    1.156009   -0.000312
      7          1           0       -0.090004    2.190069   -0.000460
      8          6           0       -2.620616   -0.088968   -0.000096
      9          1           0       -2.564966    2.071329   -0.000514
     10          1           0       -3.710371   -0.162826   -0.000115
     11          7           0       -1.925133   -1.246643    0.000189
     12          6           0        2.355141   -1.303173    0.000204
     13          1           0        3.438333   -1.120017   -0.000797
     14          1           0        2.148920   -1.947830    0.878761
     15          1           0        2.147428   -1.948748   -0.877280
     16          6           0        2.357342    1.309400    0.000022
     17          1           0        2.148901    1.955021   -0.878378
     18          1           0        2.148486    1.955150    0.878219
     19          1           0        3.440657    1.127603    0.000288
 ---------------------------------------------------------------------
 Rotational constants (GHZ):           3.4021736           1.2053982           0.8999051
 Basis read from rwf:  (5D, 7F)
 Pseudo-potential data read from rwf file.
 There are   155 symmetry adapted cartesian basis functions of A   symmetry.
 There are   146 symmetry adapted basis functions of A   symmetry.
   146 basis functions,   292 primitive gaussians,   155 cartesian basis functions
    33 alpha electrons       33 beta electrons
       nuclear repulsion energy       410.6687922215 Hartrees.
 NAtoms=   19 NActive=   19 NUniq=   19 SFac= 1.00D+00 NAtFMM=   60 NAOKFM=F Big=F
 Integral buffers will be    131072 words long.
 Raffenetti 2 integral format.
 Two-electron integral symmetry is turned on.
 Nuclear repulsion after empirical dispersion term =      410.6360488928 Hartrees.
 One-electron integrals computed using PRISM.
   1 Symmetry operations used in ECPInt.
 ECPInt:  NShTT=    1596 NPrTT=    9922 LenC2=    1565 LenP2D=    6621.
 LDataN:  DoStor=T MaxTD1= 4 Len=   56
 NBasis=   146 RedAO= T EigKep=  9.00D-04  NBF=   146
 NBsUse=   146 1.00D-06 EigRej= -1.00D+00 NBFU=   146
 Initial guess from the checkpoint file:  "/tmp/Gau-41519.chk"
 B after Tr=     0.000000   -0.000000   -0.000000
         Rot=    1.000000   -0.000001    0.000003    0.000093 Ang=  -0.01 deg.
 ExpMin= 1.61D-01 ExpMax= 4.17D+03 ExpMxC= 6.27D+02 IAcc=3 IRadAn=         5 AccDes= 0.00D+00
 Harris functional with IExCor=  402 and IRadAn=       5 diagonalized for initial guess.
 HarFok:  IExCor=  402 AccDes= 0.00D+00 IRadAn=         5 IDoV= 1 UseB2=F ITyADJ=14
 ICtDFT=  3500011 ScaDFX=  1.000000  1.000000  1.000000  1.000000
 FoFCou: FMM=F IPFlag=           0 FMFlag=      100000 FMFlg1=           0
         NFxFlg=           0 DoJE=T BraDBF=F KetDBF=T FulRan=T
         wScrn=  0.000000 ICntrl=       500 IOpCl=  0 I1Cent=   200000004 NGrid=           0
         NMat0=    1 NMatS0=      1 NMatT0=    0 NMatD0=    1 NMtDS0=    0 NMtDT0=    0
 Petite list used in FoFCou.
 Requested convergence on RMS density matrix=1.00D-08 within 128 cycles.
 Requested convergence on MAX density matrix=1.00D-06.
 Requested convergence on             energy=1.00D-06.
 No special actions if energy rises.
 Integral accuracy reduced to 1.0D-05 until final iterations.
 Initial convergence to 1.0D-05 achieved.  Increase integral accuracy.
 SCF Done:  E(RB3LYP) =  -365.623789554     A.U. after   13 cycles
            NFock= 13  Conv=0.38D-08     -V/T= 2.0065
   1 Symmetry operations used in ECPInt.
 ECPInt:  NShTT=    1596 NPrTT=    9922 LenC2=    1565 LenP2D=    6621.
 LDataN:  DoStor=T MaxTD1= 5 Len=  102
 Calling FoFJK, ICntrl=      2127 FMM=F ISym2X=0 I1Cent= 0 IOpClX= 0 NMat=1 NMatS=1 NMatT=0.
 ***** Axes restored to original set *****
 -------------------------------------------------------------------
 Center     Atomic                   Forces (Hartrees/Bohr)
 Number     Number              X              Y              Z
 -------------------------------------------------------------------
      1        6          -0.003355273   -0.000078442    0.000000479
      2        6           0.010007067    0.000343270    0.000000858
      3        6          -0.008301255   -0.000809250   -0.000000451
      4        6          -0.006295622    0.001201619   -0.000000466
      5        1           0.000662541   -0.000241501    0.000000483
      6        6           0.003095831   -0.001948548   -0.000000134
      7        1           0.000126507    0.000066775    0.000000491
      8        6          -0.001428047    0.001763297   -0.000000908
      9        1           0.000006716    0.000753339    0.000000101
     10        1           0.000937677   -0.000259142    0.000000068
     11        7           0.004183511   -0.000854355    0.000000726
     12        6          -0.000922337    0.004159934    0.000000546
     13        1           0.000962288   -0.000413258    0.000000426
     14        1           0.000013146   -0.000201749    0.000227304
     15        1           0.000014786   -0.000203913   -0.000229527
     16        6          -0.000706893   -0.004276863   -0.000001081
     17        1           0.000007923    0.000256410   -0.000248636
     18        1           0.000010280    0.000258180    0.000250123
     19        1           0.000981155    0.000484196   -0.000000400
 -------------------------------------------------------------------
 Cartesian Forces:  Max     0.010007067 RMS     0.002296624

 GradGradGradGradGradGradGradGradGradGradGradGradGradGradGradGradGradGrad
 Berny optimization.
 Using GEDIIS/GDIIS optimizer.
 FormGI is forming the generalized inverse of G from B-inverse, IUseBI=4.
 Internal  Forces:  Max     0.003803545 RMS     0.001087725
 Search for a local minimum.
 Step number   2 out of a maximum of  114
 All quantities printed in internal units (Hartrees-Bohrs-Radians)
 Mixed Optimization -- RFO/linear search
 Update second derivatives using D2CorX and points    1    2
 DE= -3.41D-03 DEPred=-3.21D-03 R= 1.06D+00
 TightC=F SS=  1.41D+00  RLast= 1.53D-01 DXNew= 5.0454D-01 4.5877D-01
 Trust test= 1.06D+00 RLast= 1.53D-01 DXMaxT set to 4.59D-01
 ITU=  1  0
 Use linear search instead of GDIIS.
     Eigenvalues ---    0.00724   0.00732   0.00986   0.01757   0.01769
     Eigenvalues ---    0.01864   0.02001   0.02051   0.02158   0.02180
     Eigenvalues ---    0.02238   0.02418   0.06637   0.06706   0.06996
     Eigenvalues ---    0.07013   0.15562   0.16000   0.16000   0.16000
     Eigenvalues ---    0.16000   0.16000   0.16000   0.16000   0.16000
     Eigenvalues ---    0.16588   0.21243   0.22435   0.23268   0.24998
     Eigenvalues ---    0.25000   0.25533   0.31984   0.32079   0.33652
     Eigenvalues ---    0.33678   0.33704   0.34170   0.34283   0.34444
     Eigenvalues ---    0.35070   0.35175   0.35315   0.35432   0.37239
     Eigenvalues ---    0.41058   0.41408   0.44844   0.47000   0.55022
     Eigenvalues ---    0.59200
 RFO step:  Lambda=-3.04158049D-04 EMin= 7.24061164D-03
 Quartic linear search produced a step of  0.09868.
 Iteration  1 RMS(Cart)=  0.00670786 RMS(Int)=  0.00002741
 Iteration  2 RMS(Cart)=  0.00002580 RMS(Int)=  0.00002081
 Iteration  3 RMS(Cart)=  0.00000000 RMS(Int)=  0.00002081
 Variable       Old X    -DE/DX   Delta X   Delta X   Delta X     New X
                                 (Linear)    (Quad)   (Total)
    R1        2.63588  -0.00299  -0.00564  -0.00502  -0.01066   2.62522
    R2        2.85415  -0.00286   0.00134  -0.01047  -0.00913   2.84502
    R3        2.85125  -0.00269   0.00116  -0.00978  -0.00862   2.84263
    R4        2.73493   0.00334   0.00393   0.00706   0.01100   2.74593
    R5        2.72643   0.00272   0.00395   0.00529   0.00926   2.73569
    R6        2.05941   0.00052   0.00045   0.00140   0.00185   2.06125
    R7        2.51436  -0.00380   0.00033  -0.00715  -0.00682   2.50754
    R8        2.62084  -0.00296   0.00025  -0.00689  -0.00664   2.61421
    R9        2.05423   0.00012   0.00041   0.00016   0.00056   2.05479
   R10        2.65347  -0.00090   0.00096  -0.00285  -0.00191   2.65155
   R11        2.06172   0.00063   0.00090   0.00150   0.00240   2.06412
   R12        2.06406  -0.00092   0.00080  -0.00328  -0.00248   2.06158
   R13        2.55212   0.00055   0.00136   0.00020   0.00154   2.55366
   R14        2.07599   0.00088   0.00099   0.00230   0.00329   2.07928
   R15        2.09578   0.00030   0.00172   0.00008   0.00180   2.09759
   R16        2.09571   0.00030   0.00172   0.00009   0.00181   2.09752
   R17        2.09739   0.00034   0.00179   0.00021   0.00200   2.09939
   R18        2.09738   0.00035   0.00179   0.00021   0.00201   2.09938
   R19        2.07580   0.00089   0.00099   0.00232   0.00331   2.07911
    A1        2.10281   0.00119  -0.00023   0.00535   0.00512   2.10793
    A2        2.08877   0.00156  -0.00077   0.00725   0.00648   2.09525
    A3        2.09161  -0.00275   0.00100  -0.01260  -0.01160   2.08001
    A4        2.14886   0.00113   0.00200   0.00363   0.00561   2.15446
    A5        2.15905   0.00162   0.00169   0.00591   0.00758   2.16664
    A6        1.97527  -0.00275  -0.00368  -0.00954  -0.01319   1.96208
    A7        2.07402  -0.00118  -0.00122  -0.00626  -0.00748   2.06654
    A8        2.19989   0.00138   0.00175   0.00616   0.00793   2.20781
    A9        2.00928  -0.00020  -0.00053   0.00009  -0.00045   2.00883
   A10        2.10276   0.00074   0.00104   0.00341   0.00447   2.10723
   A11        2.08772  -0.00046  -0.00089  -0.00209  -0.00299   2.08474
   A12        2.09270  -0.00029  -0.00016  -0.00132  -0.00148   2.09122
   A13        2.09971   0.00085   0.00211   0.00248   0.00458   2.10429
   A14        2.09808  -0.00085  -0.00096  -0.00423  -0.00519   2.09289
   A15        2.08540   0.00001  -0.00114   0.00174   0.00061   2.08601
   A16        2.11924   0.00049   0.00106   0.00305   0.00412   2.12336
   A17        2.11984  -0.00031  -0.00251  -0.00135  -0.00389   2.11596
   A18        2.04410  -0.00018   0.00145  -0.00170  -0.00024   2.04387
   A19        2.06890   0.00009   0.00129  -0.00117   0.00010   2.06900
   A20        1.92715   0.00079  -0.00130   0.00673   0.00543   1.93258
   A21        1.99372  -0.00007   0.00374  -0.00276   0.00094   1.99466
   A22        1.99352  -0.00007   0.00372  -0.00272   0.00095   1.99448
   A23        1.85561  -0.00034  -0.00205  -0.00074  -0.00278   1.85282
   A24        1.85564  -0.00035  -0.00205  -0.00074  -0.00278   1.85286
   A25        1.82720  -0.00004  -0.00266   0.00011  -0.00264   1.82456
   A26        1.99182  -0.00006   0.00367  -0.00271   0.00092   1.99274
   A27        1.99177  -0.00006   0.00367  -0.00267   0.00095   1.99273
   A28        1.93066   0.00089  -0.00123   0.00744   0.00622   1.93688
   A29        1.82599  -0.00008  -0.00281  -0.00026  -0.00315   1.82285
   A30        1.85634  -0.00039  -0.00195  -0.00102  -0.00296   1.85338
   A31        1.85634  -0.00039  -0.00195  -0.00102  -0.00296   1.85338
    D1        0.00006  -0.00000  -0.00001   0.00001   0.00000   0.00006
    D2       -3.14156   0.00000  -0.00001   0.00003   0.00002  -3.14154
    D3       -3.14133  -0.00000  -0.00001  -0.00001  -0.00003  -3.14136
    D4        0.00023   0.00000  -0.00001   0.00000  -0.00001   0.00022
    D5        3.14064   0.00000   0.00000   0.00012   0.00012   3.14076
    D6       -1.05239   0.00008  -0.00100   0.00218   0.00115  -1.05124
    D7        1.05059  -0.00008   0.00102  -0.00198  -0.00092   1.04967
    D8       -0.00115   0.00000   0.00000   0.00014   0.00015  -0.00100
    D9        2.08900   0.00008  -0.00100   0.00221   0.00118   2.09018
   D10       -2.09120  -0.00008   0.00102  -0.00195  -0.00089  -2.09209
   D11       -1.04950   0.00010  -0.00085   0.00239   0.00151  -1.04799
   D12        1.04900  -0.00010   0.00086  -0.00215  -0.00126   1.04774
   D13        3.14134   0.00000   0.00000   0.00013   0.00013   3.14147
   D14        2.09229   0.00010  -0.00085   0.00236   0.00148   2.09377
   D15       -2.09239  -0.00010   0.00086  -0.00218  -0.00129  -2.09368
   D16       -0.00006   0.00000   0.00000   0.00010   0.00010   0.00004
   D17        0.00008   0.00000   0.00000   0.00003   0.00003   0.00012
   D18       -3.14154   0.00000   0.00001   0.00003   0.00003  -3.14151
   D19       -3.14148   0.00000   0.00000   0.00001   0.00001  -3.14147
   D20        0.00008   0.00000   0.00000   0.00001   0.00001   0.00010
   D21        3.14156  -0.00000  -0.00000  -0.00003  -0.00004   3.14152
   D22       -0.00000  -0.00000  -0.00000  -0.00003  -0.00003  -0.00004
   D23       -0.00007  -0.00000  -0.00000  -0.00002  -0.00002  -0.00008
   D24        3.14156  -0.00000  -0.00000  -0.00001  -0.00002   3.14154
   D25       -0.00004   0.00000  -0.00000   0.00001   0.00000  -0.00004
   D26        3.14152   0.00000  -0.00000   0.00000   0.00000   3.14152
   D27        0.00002   0.00000  -0.00000   0.00001   0.00001   0.00002
   D28       -3.14157   0.00000  -0.00000   0.00000   0.00000  -3.14157
   D29        3.14157   0.00000  -0.00000   0.00001   0.00001   3.14158
   D30       -0.00002  -0.00000  -0.00000  -0.00000  -0.00000  -0.00002
   D31        3.14159  -0.00000  -0.00000  -0.00000  -0.00001   3.14158
   D32        0.00003   0.00000   0.00000   0.00001   0.00001   0.00004
   D33       -0.00001   0.00000  -0.00000   0.00000   0.00000  -0.00001
   D34       -3.14157   0.00000   0.00000   0.00002   0.00002  -3.14155
   D35       -0.00002  -0.00000   0.00000  -0.00002  -0.00001  -0.00003
   D36       -3.14157  -0.00000   0.00000  -0.00000  -0.00000  -3.14157
         Item               Value     Threshold  Converged?
 Maximum Force            0.003804     0.000450     NO 
 RMS     Force            0.001088     0.000300     NO 
 Maximum Displacement     0.020275     0.001800     NO 
 RMS     Displacement     0.006703     0.001200     NO 
 Predicted change in Energy=-1.794481D-04
 GradGradGradGradGradGradGradGradGradGradGradGradGradGradGradGradGradGrad

                          Input orientation:                          
 ---------------------------------------------------------------------
 Center     Atomic      Atomic             Coordinates (Angstroms)
 Number     Number       Type             X           Y           Z
 ---------------------------------------------------------------------
      1          6           0        1.595242    0.004842   -0.000002
      2          6           0        0.206090    0.017154   -0.000001
      3          6           0       -0.605404   -1.188224    0.000273
      4          6           0       -0.595694    1.222505   -0.000256
      5          1           0       -0.099270   -2.154456    0.000601
      6          6           0       -1.977306    1.152613   -0.000325
      7          1           0       -0.103364    2.192011   -0.000429
      8          6           0       -2.628911   -0.090053   -0.000118
      9          1           0       -2.569164    2.070647   -0.000536
     10          1           0       -3.717211   -0.165945   -0.000157
     11          7           0       -1.931023   -1.247235    0.000197
     12          6           0        2.354080   -1.295447    0.000208
     13          1           0        3.439175   -1.113109   -0.000676
     14          1           0        2.150327   -1.942791    0.878570
     15          1           0        2.149010   -1.943615   -0.877196
     16          6           0        2.359996    1.300194    0.000008
     17          1           0        2.155517    1.949269   -0.878116
     18          1           0        2.155323    1.949350    0.878021
     19          1           0        3.444862    1.117055    0.000135
 ---------------------------------------------------------------------
                    Distance matrix (angstroms):
                    1          2          3          4          5
     1  C    0.000000
     2  C    1.389207   0.000000
     3  C    2.503247   1.453085   0.000000
     4  C    2.506572   1.447664   2.410749   0.000000
     5  H    2.744802   2.192973   1.090768   3.413254   0.000000
     6  C    3.752396   2.460992   2.713233   1.383379   3.803120
     7  H    2.769291   2.196763   3.417314   1.087350   4.346469
     8  C    4.225219   2.837027   2.302295   2.420079   3.265095
     9  H    4.648638   3.452372   3.804812   2.148006   4.894065
    10  H    5.315197   3.927571   3.275423   3.416381   4.128398
    11  N    3.741957   2.483129   1.326932   2.807618   2.044106
    12  C    1.505519   2.517296   2.961425   3.878305   2.599389
    13  H    2.156364   3.424957   4.045276   4.662109   3.688495
    14  H    2.207551   2.897124   2.989119   4.281596   2.424112
    15  H    2.207400   2.896381   2.987869   4.280975   2.422756
    16  C    1.504256   2.507091   3.871153   2.956711   4.240589
    17  H    2.205853   2.881739   4.270610   2.977916   4.764112
    18  H    2.205840   2.881635   4.270413   2.977880   4.763851
    19  H    2.158267   3.420443   4.660362   4.041932   4.823242
                    6          7          8          9         10
     6  C    0.000000
     7  H    2.142897   0.000000
     8  C    1.403142   3.403851   0.000000
     9  H    1.092284   2.468785   2.161526   0.000000
    10  H    2.183086   4.315072   1.090942   2.514032   0.000000
    11  N    2.400293   3.894708   1.351339   3.378693   2.087978
    12  C    4.975329   4.266309   5.126712   5.963969   6.175463
    13  H    5.871265   4.844936   6.153724   6.799739   7.218793
    14  H    5.233673   4.790444   5.200563   6.257325   6.193331
    15  H    5.232783   4.790127   5.199374   6.256517   6.192080
    16  C    4.339812   2.619825   5.178995   4.989010   6.251561
    17  H    4.299465   2.435529   5.274511   4.807025   6.303481
    18  H    4.299408   2.435617   5.274391   4.807012   6.303358
    19  H    5.422285   3.707485   6.192563   6.089159   7.276083
                   11         12         13         14         15
    11  N    0.000000
    12  C    4.285374   0.000000
    13  H    5.371873   1.100309   0.000000
    14  H    4.232347   1.109995   1.767080   0.000000
    15  H    4.231009   1.109961   1.767075   1.755767   0.000000
    16  C    4.990215   2.595648   2.643607   3.366420   3.366943
    17  H    5.262022   3.367353   3.434508   4.270141   3.892890
    18  H    5.261840   3.367309   3.434973   3.892144   4.270364
    19  H    5.872820   2.647636   2.230172   3.436587   3.437536
                   16         17         18         19
    16  C    0.000000
    17  H    1.110951   0.000000
    18  H    1.110946   1.756137   0.000000
    19  H    1.100216   1.768140   1.768137   0.000000
 Stoichiometry    C8H10N(1-)
 Framework group  C1[X(C8H10N)]
 Deg. of freedom    51
 Full point group                 C1      NOp   1
 Largest Abelian subgroup         C1      NOp   1
 Largest concise Abelian subgroup C1      NOp   1
                         Standard orientation:                         
 ---------------------------------------------------------------------
 Center     Atomic      Atomic             Coordinates (Angstroms)
 Number     Number       Type             X           Y           Z
 ---------------------------------------------------------------------
      1          6           0        1.599297    0.004418   -0.000007
      2          6           0        0.210152    0.017508   -0.000006
      3          6           0       -0.602017   -1.187414    0.000268
      4          6           0       -0.590956    1.223310   -0.000261
      5          1           0       -0.096426   -2.153929    0.000596
      6          6           0       -1.972607    1.154192   -0.000330
      7          1           0       -0.098083    2.192539   -0.000434
      8          6           0       -2.624909   -0.088109   -0.000123
      9          1           0       -2.563950    2.072558   -0.000541
     10          1           0       -3.713251   -0.163390   -0.000162
     11          7           0       -1.927670   -1.245681    0.000192
     12          6           0        2.357405   -1.296297    0.000203
     13          1           0        3.442603   -1.114567   -0.000681
     14          1           0        2.153290   -1.943526    0.878565
     15          1           0        2.151972   -1.944350   -0.877201
     16          6           0        2.364778    1.299341    0.000003
     17          1           0        2.160662    1.948531   -0.878121
     18          1           0        2.160469    1.948612    0.878016
     19          1           0        3.449541    1.115594    0.000130
 ---------------------------------------------------------------------
 Rotational constants (GHZ):           3.4200686           1.2012730           0.8988406
 Basis read from rwf:  (5D, 7F)
 Pseudo-potential data read from rwf file.
 There are   155 symmetry adapted cartesian basis functions of A   symmetry.
 There are   146 symmetry adapted basis functions of A   symmetry.
   146 basis functions,   292 primitive gaussians,   155 cartesian basis functions
    33 alpha electrons       33 beta electrons
       nuclear repulsion energy       410.6975520518 Hartrees.
 NAtoms=   19 NActive=   19 NUniq=   19 SFac= 1.00D+00 NAtFMM=   60 NAOKFM=F Big=F
 Integral buffers will be    131072 words long.
 Raffenetti 2 integral format.
 Two-electron integral symmetry is turned on.
 Nuclear repulsion after empirical dispersion term =      410.6648218616 Hartrees.
 One-electron integrals computed using PRISM.
   1 Symmetry operations used in ECPInt.
 ECPInt:  NShTT=    1596 NPrTT=    9922 LenC2=    1565 LenP2D=    6616.
 LDataN:  DoStor=T MaxTD1= 4 Len=   56
 NBasis=   146 RedAO= T EigKep=  8.98D-04  NBF=   146
 NBsUse=   146 1.00D-06 EigRej= -1.00D+00 NBFU=   146
 Initial guess from the checkpoint file:  "/tmp/Gau-41519.chk"
 B after Tr=    -0.000000    0.000000   -0.000000
         Rot=    1.000000    0.000002    0.000001    0.000286 Ang=   0.03 deg.
 ExpMin= 1.61D-01 ExpMax= 4.17D+03 ExpMxC= 6.27D+02 IAcc=3 IRadAn=         5 AccDes= 0.00D+00
 Harris functional with IExCor=  402 and IRadAn=       5 diagonalized for initial guess.
 HarFok:  IExCor=  402 AccDes= 0.00D+00 IRadAn=         5 IDoV= 1 UseB2=F ITyADJ=14
 ICtDFT=  3500011 ScaDFX=  1.000000  1.000000  1.000000  1.000000
 FoFCou: FMM=F IPFlag=           0 FMFlag=      100000 FMFlg1=           0
         NFxFlg=           0 DoJE=T BraDBF=F KetDBF=T FulRan=T
         wScrn=  0.000000 ICntrl=       500 IOpCl=  0 I1Cent=   200000004 NGrid=           0
         NMat0=    1 NMatS0=      1 NMatT0=    0 NMatD0=    1 NMtDS0=    0 NMtDT0=    0
 Petite list used in FoFCou.
 Requested convergence on RMS density matrix=1.00D-08 within 128 cycles.
 Requested convergence on MAX density matrix=1.00D-06.
 Requested convergence on             energy=1.00D-06.
 No special actions if energy rises.
 Integral accuracy reduced to 1.0D-05 until final iterations.
 Initial convergence to 1.0D-05 achieved.  Increase integral accuracy.
 SCF Done:  E(RB3LYP) =  -365.623971025     A.U. after   11 cycles
            NFock= 11  Conv=0.58D-08     -V/T= 2.0065
   1 Symmetry operations used in ECPInt.
 ECPInt:  NShTT=    1596 NPrTT=    9922 LenC2=    1565 LenP2D=    6616.
 LDataN:  DoStor=T MaxTD1= 5 Len=  102
 Calling FoFJK, ICntrl=      2127 FMM=F ISym2X=0 I1Cent= 0 IOpClX= 0 NMat=1 NMatS=1 NMatT=0.
 ***** Axes restored to original set *****
 -------------------------------------------------------------------
 Center     Atomic                   Forces (Hartrees/Bohr)
 Number     Number              X              Y              Z
 -------------------------------------------------------------------
      1        6          -0.000286368   -0.000089551    0.000001453
      2        6          -0.000107029    0.000513712   -0.000001335
      3        6          -0.001611148   -0.000633239   -0.000000219
      4        6          -0.000019868   -0.000148115    0.000000457
      5        1           0.000458232   -0.000122308   -0.000000008
      6        6          -0.000204126   -0.000470121   -0.000000185
      7        1           0.000176398    0.000143767    0.000000681
      8        6          -0.000581688    0.000906255   -0.000000144
      9        1           0.000143790    0.000025942   -0.000000005
     10        1           0.000212353   -0.000100746   -0.000000049
     11        7           0.001575835   -0.000009774    0.000000288
     12        6           0.000398546   -0.000102976    0.000000632
     13        1          -0.000285350   -0.000197505    0.000000881
     14        1           0.000031370    0.000054381   -0.000100442
     15        1           0.000032958    0.000051705    0.000098577
     16        6           0.000320005    0.000095980   -0.000001690
     17        1           0.000023785   -0.000057587    0.000089773
     18        1           0.000025417   -0.000056004   -0.000088225
     19        1          -0.000303112    0.000196184   -0.000000440
 -------------------------------------------------------------------
 Cartesian Forces:  Max     0.001611148 RMS     0.000379898

 GradGradGradGradGradGradGradGradGradGradGradGradGradGradGradGradGradGrad
 Berny optimization.
 Using GEDIIS/GDIIS optimizer.
 FormGI is forming the generalized inverse of G from B-inverse, IUseBI=4.
 Internal  Forces:  Max     0.001121439 RMS     0.000195745
 Search for a local minimum.
 Step number   3 out of a maximum of  114
 All quantities printed in internal units (Hartrees-Bohrs-Radians)
 Mixed Optimization -- En-DIIS/RFO-DIIS
 Update second derivatives using D2CorX and points    1    2    3
 DE= -1.81D-04 DEPred=-1.79D-04 R= 1.01D+00
 TightC=F SS=  1.41D+00  RLast= 3.82D-02 DXNew= 7.7156D-01 1.1450D-01
 Trust test= 1.01D+00 RLast= 3.82D-02 DXMaxT set to 4.59D-01
 ITU=  1  1  0
 Use linear search instead of GDIIS.
     Eigenvalues ---    0.00724   0.00732   0.00990   0.01757   0.01769
     Eigenvalues ---    0.01866   0.02002   0.02052   0.02159   0.02180
     Eigenvalues ---    0.02238   0.02418   0.06627   0.06684   0.06947
     Eigenvalues ---    0.06970   0.14624   0.16000   0.16000   0.16000
     Eigenvalues ---    0.16000   0.16000   0.16000   0.16000   0.16030
     Eigenvalues ---    0.16695   0.21550   0.22591   0.23631   0.24984
     Eigenvalues ---    0.25001   0.25874   0.32073   0.32694   0.33652
     Eigenvalues ---    0.33679   0.33704   0.34168   0.34427   0.34450
     Eigenvalues ---    0.34920   0.35256   0.35284   0.35616   0.36735
     Eigenvalues ---    0.41133   0.41364   0.44854   0.47183   0.55066
     Eigenvalues ---    0.57920
 RFO step:  Lambda=-9.60005110D-06 EMin= 7.24059898D-03
 Quartic linear search produced a step of  0.00907.
 Iteration  1 RMS(Cart)=  0.00116676 RMS(Int)=  0.00000080
 Iteration  2 RMS(Cart)=  0.00000092 RMS(Int)=  0.00000008
 Variable       Old X    -DE/DX   Delta X   Delta X   Delta X     New X
                                 (Linear)    (Quad)   (Total)
    R1        2.62522  -0.00004  -0.00010  -0.00038  -0.00047   2.62475
    R2        2.84502   0.00026  -0.00008   0.00071   0.00063   2.84565
    R3        2.84263   0.00019  -0.00008   0.00049   0.00041   2.84305
    R4        2.74593   0.00027   0.00010   0.00086   0.00096   2.74690
    R5        2.73569  -0.00020   0.00008  -0.00027  -0.00019   2.73550
    R6        2.06125   0.00032   0.00002   0.00096   0.00097   2.06223
    R7        2.50754  -0.00112  -0.00006  -0.00200  -0.00206   2.50548
    R8        2.61421  -0.00004  -0.00006  -0.00014  -0.00020   2.61401
    R9        2.05479   0.00021   0.00001   0.00061   0.00061   2.05541
   R10        2.65155  -0.00035  -0.00002  -0.00073  -0.00075   2.65081
   R11        2.06412  -0.00006   0.00002  -0.00011  -0.00008   2.06403
   R12        2.06158  -0.00020  -0.00002  -0.00061  -0.00063   2.06095
   R13        2.55366   0.00065   0.00001   0.00121   0.00123   2.55489
   R14        2.07928  -0.00031   0.00003  -0.00085  -0.00082   2.07846
   R15        2.09759  -0.00012   0.00002  -0.00029  -0.00027   2.09732
   R16        2.09752  -0.00011   0.00002  -0.00028  -0.00026   2.09726
   R17        2.09939  -0.00011   0.00002  -0.00026  -0.00024   2.09915
   R18        2.09938  -0.00011   0.00002  -0.00025  -0.00024   2.09915
   R19        2.07911  -0.00033   0.00003  -0.00090  -0.00087   2.07824
    A1        2.10793   0.00005   0.00005   0.00025   0.00030   2.10822
    A2        2.09525  -0.00021   0.00006  -0.00077  -0.00071   2.09454
    A3        2.08001   0.00016  -0.00011   0.00052   0.00041   2.08042
    A4        2.15446  -0.00012   0.00005  -0.00033  -0.00027   2.15419
    A5        2.16664  -0.00009   0.00007  -0.00018  -0.00011   2.16652
    A6        1.96208   0.00020  -0.00012   0.00051   0.00039   1.96247
[...]
 5,0.04811054,-0.00000845,0.04490630,-0.00152298,0.00000291,0.72478434,
 0.02518649,0.00498176,-0.00000404,0.07152402,-0.22113654,0.00002649,0.
 00380748,-0.03658787,0.00000887,0.05133553,0.63864616,-0.00000274,0.00
 000162,0.01199170,-0.00001694,0.00002328,-0.06140454,0.00000285,0.0000
 0960,0.00138521,0.00002343,-0.00008028,0.10443597,0.00091801,0.0002326
 0,-0.00000037,0.00934748,-0.01331330,0.00000451,-0.09768282,0.09924605
 ,-0.00003662,-0.00121893,-0.00267012,0.00000097,0.12922753,0.00022251,
 -0.00021711,0.00000036,0.01656690,-0.02024553,0.00000734,0.09532911,-0
 .27171254,0.00007564,-0.00504209,-0.00276664,0.00000167,-0.11425727,0.
 28481607,0.00000146,0.00000082,-0.00071322,-0.00000529,0.00000290,0.00
 587435,-0.00003499,0.00007622,-0.02975619,0.00000122,0.00000169,0.0042
 1539,0.00003923,-0.00008070,0.02153236,0.01240710,-0.00421398,-0.00000
 203,-0.02732377,0.04412861,-0.00001184,-0.02781609,0.00434050,-0.00000
 142,-0.38441773,-0.03150461,-0.00001509,-0.00128894,-0.00104325,-0.000
 00050,0.71187485,-0.00071807,-0.00998015,0.00000204,0.03435481,0.02712
 918,-0.00000534,-0.03332243,-0.00480062,-0.00000356,0.01196690,-0.1156
 9222,0.00001399,-0.00035243,-0.00023109,-0.00000064,-0.02498904,0.6894
 9231,0.00000123,0.00000169,0.00272103,-0.00000611,-0.00000228,-0.00216
 132,0.00000572,-0.00000102,-0.00749547,-0.00002520,0.00000958,-0.04678
 331,-0.00000045,0.00000063,0.00177129,0.00004269,-0.00009690,0.1204537
 1,0.00042015,-0.00050095,0.00000005,0.01170038,0.01404189,-0.00000174,
 -0.00167852,0.00292895,-0.00000079,-0.11320910,-0.10859320,0.00001221,
 0.00061268,0.00099677,-0.00000004,-0.01156663,-0.03197727,0.00000477,0
 .12215427,-0.00049124,0.00021425,-0.00000059,-0.01649265,-0.01983703,0
 .00000350,0.00558475,-0.00239552,0.00000116,-0.10789609,-0.27405126,0.
 00003321,-0.00100334,-0.00165277,-0.00000003,0.00055436,-0.00016957,0.
 00000006,0.12044856,0.29197145,0.00000030,-0.00000012,-0.00115986,0.00
 000185,0.00000545,0.00504405,-0.00000162,0.00000174,0.00542113,0.00001
 300,0.00003320,-0.02635818,0.00000059,-0.00000046,-0.00216987,-0.00000
 088,-0.00000239,-0.00036972,-0.00001351,-0.00003689,0.01924852,-0.0129
 7047,0.00031410,0.00000354,0.01006811,0.00436885,0.00000009,-0.0714881
 2,0.04430161,-0.00001841,-0.03206127,-0.03121915,0.00000187,-0.0028126
 0,-0.00245690,-0.00000091,-0.16400591,-0.11381154,0.00001186,-0.005088
 96,0.00032315,-0.00000126,0.72813739,-0.00129437,0.00716184,-0.0000026
 1,-0.00248281,-0.04325240,0.00000740,0.07413680,-0.00914042,0.00001105
 ,-0.06991766,0.00349969,-0.00000486,-0.00010632,0.00399946,0.00000319,
 -0.05441962,-0.26207390,0.00002969,0.00259490,0.00356746,0.00000153,0.
 02094883,0.61825783,-0.00000189,-0.00000123,-0.00043713,0.00000266,0.0
 0000689,-0.01241910,-0.00002340,0.00000599,0.01066748,0.00000956,-0.00
 000088,0.01162433,-0.00000112,0.00000221,0.01102891,0.00000247,0.00002
 824,-0.05189284,-0.00000121,0.00000049,0.00768915,0.00003985,-0.000096
 88,0.09789003,0.00017233,0.00175237,-0.00000031,-0.00476681,-0.0032573
 1,-0.00000044,-0.00127746,-0.00087525,0.00000008,-0.01294975,0.0307679
 8,-0.00000566,0.00017808,0.00018705,0.00000012,-0.13426564,0.11543983,
 -0.00002569,0.00124646,-0.00070819,0.00000049,0.01170009,-0.01130116,0
 .00000280,0.13967273,0.00065834,-0.00014703,-0.00000016,-0.00139998,0.
 00217354,0.00000104,-0.00220226,0.00118010,-0.00000045,-0.00165604,0.0
 0287318,-0.00000032,0.00040229,-0.00012315,-0.00000014,0.11558370,-0.2
 4424526,0.00004153,0.00060937,0.00147646,-0.00000100,0.02335818,-0.016
 61991,0.00000413,-0.13005698,0.25958102,-0.00000010,0.00000030,0.00036
 260,-0.00000038,0.00000139,0.00896675,-0.00000010,-0.00000020,0.000328
 70,0.00000014,0.00000187,0.00149925,0.00000003,-0.00000045,-0.00177846
 ,-0.00002584,0.00004078,-0.03282248,0.00000026,-0.00000096,-0.00479356
 ,-0.00000250,0.00000229,-0.00080494,0.00002853,-0.00004651,0.02444021,
 -0.00042174,-0.00015621,0.00000020,0.00087263,0.00020383,-0.00000015,0
 .00186499,0.00122170,-0.00000045,0.00089190,-0.00330700,0.00000043,-0.
 00072953,0.00008255,-0.00000019,-0.01215062,0.00283920,-0.00000066,-0.
 00093670,-0.00003321,-0.00000024,-0.31341554,-0.03353880,-0.00001144,0
 .00062800,-0.00098686,0.00000031,0.34389496,0.00006530,0.00033770,-0.0
 0000015,0.00057752,-0.00047768,0.00000029,0.00196322,-0.00311022,0.000
 00226,0.00015611,-0.00508069,0.00000165,0.00102403,-0.00006042,0.00000
 041,-0.02966209,0.00267700,-0.00000279,-0.00159230,-0.00016897,0.00000
 021,-0.03215101,-0.05847012,0.00000640,0.00100572,0.00073431,-0.000000
 44,0.02192866,0.06506316,0.00000024,0.00000021,-0.00049643,-0.00000019
 ,0.00000039,0.00079982,-0.00000091,0.00000203,0.00679498,0.00000026,0.
 00000130,0.00438451,-0.00000036,0.00000042,0.00120586,0.00000397,-0.00
 000139,-0.00342165,0.00000001,0.00000031,0.00187873,-0.00000951,0.0000
 0623,-0.01604565,0.,-0.00000051,-0.00232179,0.00001525,-0.00000808,0.0
 1768846,0.01375914,0.00232578,-0.00000540,-0.03759849,-0.05467117,0.00
 000816,-0.39049034,-0.02104816,-0.00001486,-0.03556413,0.00073077,-0.0
 0000284,-0.03247123,0.00834369,-0.00000247,0.04310246,0.03985375,-0.00
 000707,-0.00024801,0.00076494,0.00000073,-0.15346637,0.07542346,-0.000
 01895,0.00032415,-0.00425843,-0.00000019,-0.02031109,0.03669682,-0.000
 00872,0.62009162,0.00140206,-0.01115275,0.00000479,-0.03601148,0.02923
 582,-0.00000427,-0.01676134,-0.11126261,0.00001069,0.02996508,0.002041
 32,0.00000075,0.03127181,0.00675045,-0.00000229,-0.01282987,-0.0776371
 4,0.00001924,0.00044945,-0.00031844,-0.00000078,0.08676728,-0.25556635
 ,0.00004641,-0.00288095,-0.00685054,0.00000192,0.01176699,-0.00159909,
 -0.00000043,-0.09189514,0.43077528,0.00000060,0.00000122,0.00304884,0.
 00000430,-0.00000675,0.01841215,-0.00001691,0.00001407,-0.05691106,-0.
 00000932,-0.00000205,-0.00558977,-0.00000908,-0.00000499,-0.01002680,0
 .00000449,0.00002269,0.01784392,0.00000003,-0.00000017,-0.00294266,-0.
 00002282,0.00004552,-0.05756251,0.00000007,0.00000221,0.00729150,-0.00
 000297,0.00000040,-0.00986974,0.00005143,-0.00007625,0.09488903,-0.109
 29460,0.05559246,-0.00001641,-0.02826843,0.03155474,-0.00000686,0.0026
 0866,0.00219430,-0.00000010,-0.00084752,-0.00628011,-0.00000045,-0.002
 13587,0.00128218,0.00000044,-0.00291668,0.00094539,-0.00000060,0.00013
 149,0.00008781,0.00000032,0.00262265,-0.00010772,0.00000026,-0.0004643
 2,-0.00009991,-0.00000007,0.00002400,0.00000398,-0.00000023,-0.0031556
 3,0.00196468,0.00000055,0.54285827,0.03911167,-0.17507985,0.00002942,0
 .02049722,-0.00222891,0.00000188,-0.01137653,0.00134996,-0.00000354,-0
 .00562628,0.00527681,-0.00000131,-0.00021283,-0.00147913,0.00000002,0.
 00153210,-0.00126930,0.00000029,0.00007547,0.00024122,0.00000014,-0.00
 434396,0.00282883,-0.00000123,-0.00032677,0.00033061,-0.00000012,-0.00
 022271,-0.00003617,-0.00000031,0.00655761,-0.00353731,0.00000379,0.035
 16620,0.47873788,-0.00000986,0.00001100,-0.05444721,0.00000095,0.00000
 100,-0.00085343,0.00000283,0.00000144,-0.00408028,-0.00000114,0.000001
 18,0.00560464,0.00000148,-0.00000301,-0.00013503,0.00000231,0.00000200
 ,0.00154057,-0.00000007,0.00000019,-0.00046097,-0.00000015,-0.00000216
 ,-0.00028887,0.00000019,-0.00000023,-0.00062748,0.00000025,-0.00000012
 ,-0.00001831,0.00000080,-0.00000096,0.00097425,-0.00001543,0.00003281,
 0.48322948,-0.01805073,-0.00411606,0.00000656,0.00016310,0.00417723,0.
 00000550,0.00050579,-0.00012647,-0.00000001,-0.00075371,-0.00076022,-0
 .00000055,0.00000912,0.00044775,-0.00000077,-0.00023172,0.00036010,-0.
 00000059,0.00005283,0.00025030,0.00000012,-0.00008194,0.00042110,-0.00
 000012,-0.00019441,0.00009622,0.,-0.00012221,0.00002282,-0.00000018,-0
 .00004496,-0.00033105,0.00000103,-0.28881782,-0.04303495,0.00018213,0.
 31807752,0.02727806,0.00461262,-0.00001885,0.00130019,-0.00516120,-0.0
 0000249,-0.00028330,-0.00157621,0.00000016,0.00165380,0.00063940,0.000
 00177,-0.00046190,0.00080215,-0.00000054,-0.00022508,-0.00066762,0.000
 00078,-0.00003664,-0.00001788,-0.00000032,-0.00011055,0.00042941,-0.00
 000017,0.00014195,-0.00000235,-0.00000014,-0.00002257,0.00004145,-0.00
 000008,0.00003686,0.00028546,0.00000025,-0.04557632,-0.05540238,0.0000
 3373,0.04876377,0.06355261,-0.00000826,-0.00000040,-0.00115614,-0.0000
 0087,-0.00000040,0.00053619,-0.00000215,0.00000030,0.00029703,0.000000
 04,0.00000044,0.00044142,-0.00000015,0.00000019,-0.00039055,-0.0000006
 0,-0.00000081,-0.00006560,0.00000002,-0.00000010,0.00002200,-0.0000003
 8,0.00000090,-0.00003869,0.,-0.00000001,-0.00004561,0.,0.00000001,-0.0
 0002943,0.00000068,-0.00000002,0.00027931,0.00018641,0.00003143,-0.048
 13444,-0.00020466,-0.00004500,0.04658934,0.00310144,0.01052378,-0.0115
 2120,0.00274199,0.00053457,-0.00019976,0.00139821,-0.00130268,-0.00048
 479,-0.00138595,0.00037511,0.00078914,-0.00104335,-0.00004054,-0.00128
 892,0.00166581,0.00136844,0.00018820,-0.00000999,0.00003410,-0.0000931
 6,0.00015874,-0.00214919,-0.00005341,0.00002313,0.00001185,-0.00009967
 ,0.00001115,-0.00002141,-0.00019671,-0.00166872,0.00084651,0.00121204,
 -0.05818499,-0.02443724,0.03571210,-0.00651490,-0.01718131,0.02760448,
 0.05767887,0.00478295,-0.02376137,0.01531327,-0.00917441,0.00090096,-0
 .00078784,0.00278841,0.00080081,-0.00016993,0.00305565,-0.00267204,-0.
 00068931,0.00001901,0.00098513,0.00025158,-0.00217521,-0.00050473,-0.0
 0019365,-0.00006639,-0.00002802,0.00020918,0.00190131,0.00039314,0.000
 05020,0.00006989,-0.00016027,0.00006271,0.00010110,0.00003762,-0.00004
 707,-0.00153347,0.00101254,0.00011693,-0.03020499,-0.11039982,0.099299
 24,-0.00200898,-0.00371516,0.00489673,0.02735861,0.13026481,-0.0072162
 4,0.00417787,0.00992860,0.00421276,-0.00010786,0.00163301,-0.00224949,
 0.00102820,-0.00037535,-0.00165070,0.00122799,-0.00031520,0.00018787,-
 0.00112474,-0.00019538,0.00105559,0.00015322,-0.00000358,0.00003437,-0
 .00001816,-0.00005167,-0.00109873,0.00002152,-0.00004242,-0.00004456,0
 .00005645,0.00003351,-0.00001875,-0.00004577,0.00005498,0.00161615,-0.
 00099170,-0.00018981,0.03966729,0.09388728,-0.18976456,0.00070863,-0.0
 0139193,0.00066247,-0.04240599,-0.10918011,0.20939834,0.00313001,0.010
 52478,0.01151243,0.00273452,0.00053173,0.00019885,0.00139655,-0.001304
 10,0.00048786,-0.00138301,0.00037278,-0.00078797,-0.00104974,-0.000037
 24,0.00129171,0.00166456,0.00136795,-0.00018818,-0.00001009,0.00003396
 ,0.00009293,0.00016006,-0.00214967,0.00005429,0.00002334,0.00001169,0.
 00009964,0.00001125,-0.00002125,0.00019711,-0.00167092,0.00084841,-0.0
 0121501,-0.05828960,-0.02460731,-0.03587947,-0.00654437,-0.01720654,-0
 .02757410,0.00202357,0.00329671,0.00754148,0.05779891,0.00473927,-0.02
 377692,-0.01528436,-0.00916725,0.00090340,0.00079452,0.00278554,0.0007
 9667,0.00017201,0.00305336,-0.00267015,0.00068813,0.00001780,0.0009879
 3,-0.00025221,-0.00217453,-0.00050451,0.00019312,-0.00006637,-0.000027
 56,-0.00020933,0.00189981,0.00039381,-0.00004969,0.00006973,-0.0001600
 1,-0.00006248,0.00010078,0.00003777,0.00004700,-0.00153301,0.00101288,
 -0.00011829,-0.03037813,-0.11062859,-0.09937020,-0.00201073,-0.0037170
 4,-0.00488249,0.00330637,0.00978547,0.01298877,0.02756234,0.13051443,0
 .00720204,-0.00414800,0.00991961,-0.00420157,0.00010921,0.00163459,0.0
 0224961,-0.00103345,-0.00037551,0.00164782,-0.00122564,-0.00031491,-0.
 00018651,0.00112619,-0.00019633,-0.00105350,-0.00015224,-0.00000368,-0
 .00003431,0.00001838,-0.00005167,0.00109775,-0.00002299,-0.00004220,0.
 00004441,-0.00005613,0.00003349,0.00001836,0.00004587,0.00005466,-0.00
 161804,0.00099266,-0.00018921,-0.03982045,-0.09398329,-0.18951784,-0.0
 0069378,0.00142310,0.00070908,-0.00758578,-0.01303227,-0.02877499,0.04
 259538,0.10925178,0.20911100,-0.10947196,-0.05599636,0.00000002,-0.030
 26981,-0.03093802,-0.00000020,-0.00056559,0.00677059,-0.00000201,0.002
 20307,-0.00324885,0.00000092,0.00011352,-0.00018470,-0.00000014,-0.002
 27075,-0.00157148,0.00000005,-0.00184133,-0.00112622,0.00000006,0.0028
 8070,-0.00036562,0.00000058,0.00010708,-0.00013478,-0.00000004,-0.0000
 1070,-0.00001894,-0.00000011,-0.00420374,-0.00089852,0.00000055,0.0071
 4103,0.00909220,0.00000073,-0.00060495,0.00269177,0.00000125,-0.001211
 68,0.00216566,-0.00048930,-0.00121299,0.00216928,0.00048843,0.54518142
 ,-0.03917037,-0.17485432,0.00001182,-0.02161617,-0.00204654,-0.0000028
 3,0.00584217,0.00502029,-0.00000100,0.01057665,0.00041978,0.00000059,-
 0.00009024,0.00030209,-0.00000069,-0.00505416,-0.00286017,0.00000021,0
 .00064307,-0.00124263,0.00000011,0.00372428,0.00302199,0.00000015,0.00
 027036,-0.00042827,0.00000010,0.00022579,-0.00010455,-0.00000023,-0.00
 064470,-0.00069990,0.00000087,-0.00916926,-0.02744998,-0.00000343,-0.0
 0296339,0.00061793,0.00000050,0.00034936,-0.00092373,-0.00103173,0.000
 35498,-0.00093186,0.00103237,-0.03453076,0.47650873,-0.00000256,0.0000
 0823,-0.05558233,0.00000506,-0.00000021,0.00001965,0.00000092,-0.00000
 065,0.00501372,-0.00000057,-0.00000091,-0.00441532,-0.00000007,-0.0000
 0023,-0.00014832,0.00000047,0.00000093,0.00104925,-0.00000005,0.000000
 29,0.00011536,-0.00000030,-0.00000014,0.00084715,-0.00000004,0.0000000
 9,0.00026304,0.00000010,-0.00000017,-0.00086428,0.00000039,0.00000042,
 0.00059676,0.00000698,0.00000372,0.00059058,-0.00000461,-0.00000015,0.
 00009702,-0.00158932,0.00330901,-0.00172813,0.00158531,-0.00331505,-0.
 00172710,0.00000263,-0.00000077,0.47942640,0.00325684,-0.01036252,0.01
 166907,0.00239571,-0.00111339,0.00037950,-0.00132848,-0.00021036,-0.00
 073882,0.00144961,0.00180337,0.00020345,0.00000077,-0.00004908,0.00009
 000,-0.00143307,-0.00092981,-0.00108619,-0.00095060,0.00000534,0.00130
 466,-0.00016981,0.00232228,-0.00012298,-0.00002903,-0.00001658,-0.0000
 4423,0.00001045,0.00002050,0.00035907,0.00213302,-0.00148918,-0.000152
 45,-0.00118668,-0.00038910,0.00148909,0.00055106,-0.00008820,-0.000169
 18,0.00084170,-0.00045152,0.00009096,-0.00017957,0.00017683,0.00005353
 ,-0.05834238,0.02408259,-0.03534056,0.05745841,-0.00531409,-0.02415088
 ,0.01534138,0.00964038,0.00025865,-0.00103594,-0.00311532,-0.00244972,
 -0.00057156,-0.00266332,0.00171743,-0.00020794,0.00009681,-0.00004083,
 0.00017675,0.00126197,0.00053851,0.00016324,-0.00013529,0.00086269,0.0
 0032097,-0.00200053,0.00061296,-0.00003837,-0.00012876,0.00019463,0.00
 000289,-0.00010766,0.00005868,-0.00002843,0.00240395,-0.00086150,-0.00
 007841,-0.00216757,-0.00093024,0.00344034,0.00010170,-0.00002287,-0.00
 004436,0.00050159,-0.00220956,0.00047497,-0.00016991,0.00020728,0.0001
 1511,0.03026007,-0.10939055,0.09809531,-0.02718913,0.12959063,0.007412
 31,0.00441329,0.01004427,-0.00438476,0.00018732,0.00173257,0.00166465,
 0.00113601,-0.00032393,0.00170367,0.00034982,-0.00039077,-0.00004809,-
 0.00000779,-0.00005589,-0.00095851,-0.00078375,-0.00028587,-0.00002248
 ,-0.00097581,-0.00030394,0.00101337,0.00001499,-0.00007903,0.00007047,
 -0.00009081,-0.00001499,0.00002383,-0.00007354,0.00011836,-0.00106885,
 0.00030058,0.00004411,0.00048961,-0.00099015,-0.00182158,-0.00011341,-
 0.00000900,-0.00004176,-0.00011301,0.00049981,-0.00014237,0.00003907,-
 0.00012496,-0.00008839,-0.03953550,0.09274541,-0.18778458,0.04202155,-
 0.10811578,0.20774279,0.00325338,-0.01036231,-0.01166789,0.00239871,-0
 .00111407,-0.00038047,-0.00132899,-0.00021048,0.00073864,0.00144990,0.
 00180367,-0.00020299,0.00000077,-0.00004938,-0.00009009,-0.00143315,-0
 .00092945,0.00108613,-0.00094960,0.00000512,-0.00130444,-0.00017021,0.
 00232271,0.00012198,-0.00002906,-0.00001652,0.00004422,0.00001051,0.00
 002036,-0.00035900,0.00213379,-0.00148954,0.00015346,-0.00118431,-0.00
 039069,-0.00148802,0.00054950,-0.00009010,0.00016850,-0.00017989,0.000
 17682,-0.00005295,0.00084213,-0.00045154,-0.00009135,-0.05834588,0.024
 09418,0.03534769,0.00199222,-0.00327086,-0.00749846,0.05746411,-0.0053
 1442,-0.02415066,-0.01534014,0.00964243,0.00025889,0.00103511,-0.00311
 514,-0.00245025,0.00057285,-0.00266413,0.00171786,0.00020735,0.0000969
 5,-0.00004095,-0.00017637,0.00126240,0.00053866,-0.00016326,-0.0001353
 8,0.00086237,-0.00032117,-0.00200072,0.00061268,0.00003737,-0.00012877
 ,0.00019465,-0.00000294,-0.00010768,0.00005867,0.00002859,0.00240394,-
 0.00086132,0.00007872,-0.00216761,-0.00093003,-0.00344403,0.00010101,-
 0.00002202,0.00004386,-0.00016937,0.00020672,-0.00011320,0.00049962,-0
 .00221156,-0.00047204,0.03027181,-0.10941051,-0.09810137,-0.00327093,0
 .00975220,0.01291269,-0.02720091,0.12961275,-0.00741334,-0.00441136,0.
 01004456,0.00438449,-0.00018699,0.00173237,-0.00166481,-0.00113620,-0.
 00032344,-0.00170328,-0.00034892,-0.00039060,0.00004815,0.00000774,-0.
 00005564,0.00095820,0.00078319,-0.00028589,0.00002246,0.00097537,-0.00
 030447,-0.00101333,-0.00001463,-0.00007939,-0.00007046,0.00009080,-0.0
 0001501,-0.00002387,0.00007356,0.00011840,0.00106904,-0.00030075,0.000
 04417,-0.00049060,0.00098944,-0.00182242,0.00011427,0.00000934,-0.0000
 4163,-0.00003847,0.00012434,-0.00008816,0.00011269,-0.00049927,-0.0001
 4146,0.03954339,-0.09275285,-0.18776239,0.00750048,-0.01291668,-0.0289
 9864,-0.04202964,0.10812374,0.20771738,-0.01778978,0.00442862,-0.00000
 086,-0.00036092,-0.00441546,0.00000126,-0.00058821,0.00122858,-0.00000
 045,0.00022542,-0.00012392,-0.00000004,0.00002504,-0.00029805,0.000000
 14,0.00040591,0.00010515,0.00000008,0.00017128,-0.00034147,0.00000006,
 0.00000345,-0.00033714,0.00000005,-0.00009890,0.00009668,-0.00000002,-
 0.00012171,-0.00001806,0.,-0.00065053,-0.00069521,0.00000002,-0.000639
 65,0.00293590,0.00000130,0.00205282,-0.00058390,-0.00000102,0.00055486
 ,-0.00010115,0.00011161,0.00055539,-0.00009954,-0.00011204,-0.28927506
 ,0.04307563,-0.00001147,-0.00647016,0.00199596,-0.00069546,-0.00647393
 ,0.00199690,0.00069465,0.31847467,-0.02696719,0.00483257,-0.00000216,-
 0.00162121,-0.00530186,-0.00000016,-0.00158182,0.00088110,-0.00000023,
 0.00076837,-0.00115596,0.00000042,0.00006039,-0.00007313,0.00000001,-0
 .00037219,0.00026061,-0.00000017,0.00031537,0.00071376,-0.00000009,0.0
 0018697,0.00034399,-0.00000004,-0.00004073,-0.00000172,0.,0.00001209,0
 .00006155,0.00000001,0.00004249,-0.00076680,0.00000025,-0.00264012,0.0
 0060639,0.00000120,0.00060985,-0.00067632,-0.00000079,0.00009145,-0.00
 001250,-0.00001106,0.00009107,-0.00001143,0.00001138,0.04559286,-0.055
 54780,0.00000166,0.01714886,-0.00373752,-0.00138834,0.01715298,-0.0037
 3816,0.00139016,-0.04884950,0.06332323,0.00000145,0.00000023,-0.001198
 15,0.00000007,0.00000027,0.00063597,0.,0.00000007,0.00049519,-0.000000
 14,0.00000028,0.00038018,0.,-0.00000003,-0.00000648,0.00000003,-0.0000
 0005,0.00021165,0.00000003,-0.00000025,-0.00045237,-0.00000003,-0.0000
 0004,-0.00001426,0.,0.,0.00000529,0.,-0.00000002,-0.00003147,0.0000000
 2,-0.00000002,-0.00014247,-0.00000066,-0.00000027,0.00003290,0.0000004
 5,-0.00000045,0.00031001,0.00016423,-0.00003284,-0.00003928,-0.0001640
 3,0.00003299,-0.00003912,-0.00001132,0.00000141,-0.04800649,-0.0275069
 5,0.00490652,0.00064965,0.02750467,-0.00490576,0.00065226,0.00001220,-
 0.00000205,0.04655698\\-0.00011470,0.00006962,0.00000009,0.00021432,-0
 .00031173,-0.00000014,0.00056542,0.00020135,0.00000002,-0.00029672,0.0
 0004106,0.00000053,-0.00006028,-0.00002922,-0.00000005,0.00020939,0.00
 018303,0.00000012,0.00001092,0.00003058,-0.00000038,0.00014148,-0.0003
 6808,-0.00000005,-0.00003207,-0.00001187,-0.00000006,-0.00003938,0.000
 06835,0.00000012,-0.00053679,0.00014402,-0.00000017,-0.00007856,0.0000
 9937,-0.00000102,0.00004669,-0.00001856,-0.00000027,0.00000239,-0.0000
 4115,0.00001082,0.00000107,-0.00004015,-0.00000948,-0.00009267,-0.0001
 1629,0.00000116,0.00001303,0.00004622,-0.00001261,0.00001147,0.0000451
 0,0.00001116,0.00003496,0.00000835,0.00000023\\\@
 The archive entry for this job was punched.


 IF THE FACTS DO NOT CONFORM TO THE THEORY, THEY MUST BE DISPOSED OF.
 Job cpu time:       0 days  0 hours 10 minutes  8.5 seconds.
 Elapsed time:       0 days  0 hours  0 minutes 19.4 seconds.
 File lengths (MBytes):  RWF=     54 Int=      0 D2E=      0 Chk=      3 Scr=      1
 Normal termination of Gaussian 16 at Mon Nov 11 15:40:39 2024.
