 Entering Gaussian System, Link 0=g16
 Initial command:
 /public/software/apps/Gaussian/g16/l1.exe "/tmp/Gau-79101.inp" -scrdir="/tmp/"
 Entering Link 1 = /public/software/apps/Gaussian/g16/l1.exe PID=     79102.
  
 Copyright (c) 1988-2019, Gaussian, Inc.  All Rights Reserved.
  
 This is part of the Gaussian(R) 16 program.  It is based on
 the Gaussian(R) 09 system (copyright 2009, Gaussian, Inc.),
 the Gaussian(R) 03 system (copyright 2003, Gaussian, Inc.),
 the Gaussian(R) 98 system (copyright 1998, Gaussian, Inc.),
 the Gaussian(R) 94 system (copyright 1995, Gaussian, Inc.),
 the Gaussian 92(TM) system (copyright 1992, Gaussian, Inc.),
 the Gaussian 90(TM) system (copyright 1990, Gaussian, Inc.),
 the Gaussian 88(TM) system (copyright 1988, Gaussian, Inc.),
 the Gaussian 86(TM) system (copyright 1986, Carnegie Mellon
 University), and the Gaussian 82(TM) system (copyright 1983,
 Carnegie Mellon University). Gaussian is a federally registered
 trademark of Gaussian, Inc.
  
 This software contains proprietary and confidential information,
 including trade secrets, belonging to Gaussian, Inc.
  
 This software is provided under written license and may be
 used, copied, transmitted, or stored only in accord with that
 written license.
  
 The following legend is applicable only to US Government
 contracts under FAR:
  
                    RESTRICTED RIGHTS LEGEND
  
 Use, reproduction and disclosure by the US Government is
 subject to restrictions as set forth in subparagraphs (a)
 and (c) of the Commercial Computer Software - Restricted
 Rights clause in FAR 52.227-19.
  
 Gaussian, Inc.
 340 Quinnipiac St., Bldg. 40, Wallingford CT 06492
  
  
 ---------------------------------------------------------------
 Warning -- This program may not be used in any manner that
 competes with the business of Gaussian, Inc. or will provide
 assistance to any competitor of Gaussian, Inc.  The licensee
 of this program is prohibited from giving any competitor of
 Gaussian, Inc. access to this program.  By using this program,
 the user acknowledges that Gaussian, Inc. is engaged in the
 business of creating and licensing software in the field of
 computational chemistry and represents and warrants to the
 licensee that it is not a competitor of Gaussian, Inc. and that
 it will not use this program in any manner prohibited above.
 ---------------------------------------------------------------
  

 Cite this work as:
 Gaussian 16, Revision C.01,
 M. J. Frisch, G. W. Trucks, H. B. Schlegel, G. E. Scuseria, 
 M. A. Robb, J. R. Cheeseman, G. Scalmani, V. Barone, 
 G. A. Petersson, H. Nakatsuji, X. Li, M. Caricato, A. V. Marenich, 
 J. Bloino, B. G. Janesko, R. Gomperts, B. Mennucci, H. P. Hratchian, 
 J. V. Ortiz, A. F. Izmaylov, J. L. Sonnenberg, D. Williams-Young, 
 F. Ding, F. Lipparini, F. Egidi, J. Goings, B. Peng, A. Petrone, 
 T. Henderson, D. Ranasinghe, V. G. Zakrzewski, J. Gao, N. Rega, 
 G. Zheng, W. Liang, M. Hada, M. Ehara, K. Toyota, R. Fukuda, 
 J. Hasegawa, M. Ishida, T. Nakajima, Y. Honda, O. Kitao, H. Nakai, 
 T. Vreven, K. Throssell, J. A. Montgomery, Jr., J. E. Peralta, 
 F. Ogliaro, M. J. Bearpark, J. J. Heyd, E. N. Brothers, K. N. Kudin, 
 V. N. Staroverov, T. A. Keith, R. Kobayashi, J. Normand, 
 K. Raghavachari, A. P. Rendell, J. C. Burant, S. S. Iyengar, 
 J. Tomasi, M. Cossi, J. M. Millam, M. Klene, C. Adamo, R. Cammi, 
 J. W. Ochterski, R. L. Martin, K. Morokuma, O. Farkas, 
 J. B. Foresman, and D. J. Fox, Gaussian, Inc., Wallingford CT, 2019.
 
 ******************************************
 Gaussian 16:  ES64L-G16RevC.01  3-Jul-2019
                11-Nov-2024 
 ******************************************
 %nprocshared=32
 Will use up to   32 processors via shared memory.
 %mem=80GB
 --------------------------------------------------------------
 # opt=maxcycle=150 freq b3lyp/genecp empiricaldispersion=gd3bj
 --------------------------------------------------------------
 1/6=150,18=20,19=15,26=3,38=1/1,3;
 2/9=110,12=2,17=6,18=5,40=1/2;
 3/5=7,11=2,16=1,17=8,25=1,30=1,71=1,74=-5,124=41/1,2,3;
 4//1;
 5/5=2,38=5/2;
 6/7=2,8=2,9=2,10=2,28=1/1;
 7//1,2,3,16;
 1/6=150,18=20,19=15,26=3/3(2);
 2/9=110/2;
 99//99;
 2/9=110/2;
 3/5=7,6=1,11=2,16=1,17=8,25=1,30=1,71=1,74=-5,82=7,124=41/1,2,3;
 4/5=5,16=3,69=1/1;
 5/5=2,38=5/2;
 7//1,2,3,16;
 1/6=150,18=20,19=15,26=3/3(-5);
 2/9=110/2;
 6/7=2,8=2,9=2,10=2,19=2,28=1/1;
 99/9=1/99;
 ------------------
 B3D3_Pople_Opt_Gas
 ------------------
 Symbolic Z-matrix:
 Charge = -1 Multiplicity = 1
 C                     1.58028  -0.01032   0.00027 
 C                     0.15417   0.00103  -0.00014 
 C                    -0.58691   1.21694  -0.00021 
 C                    -1.97207   1.17656  -0.00001 
 H                    -0.06999   2.16987  -0.00055 
 C                    -1.81831  -1.21422  -0.00001 
 C                    -2.61822  -0.06312   0.00014 
 H                    -2.54573   2.09957  -0.00002 
 H                    -2.28587  -2.19884   0.00004 
 H                    -3.70045  -0.1422    0.00042 
 C                     2.34432  -1.29545  -0.00002 
 H                     1.672    -2.15354   0.00141 
 H                     3.00211  -1.35741  -0.88045 
 H                     3.00508  -1.356     0.87819 
 N                    -0.49221  -1.20527  -0.00002 
 C                     2.35989   1.27402   0.0001 
 H                     2.13646   1.89293  -0.8809 
 H                     2.13709   1.89245   0.88164 
 H                     3.43597   1.07729  -0.00035 
 

 GradGradGradGradGradGradGradGradGradGradGradGradGradGradGradGradGradGrad
 Berny optimization.
 Initialization pass.
                           ----------------------------
                           !    Initial Parameters    !
                           ! (Angstroms and Degrees)  !
 --------------------------                            --------------------------
 ! Name  Definition              Value          Derivative Info.                !
 --------------------------------------------------------------------------------
 ! R1    R(1,2)                  1.4262         estimate D2E/DX2                !
 ! R2    R(1,11)                 1.4951         estimate D2E/DX2                !
 ! R3    R(1,16)                 1.5024         estimate D2E/DX2                !
 ! R4    R(2,3)                  1.424          estimate D2E/DX2                !
 ! R5    R(2,15)                 1.3686         estimate D2E/DX2                !
 ! R6    R(3,4)                  1.3857         estimate D2E/DX2                !
 ! R7    R(3,5)                  1.0841         estimate D2E/DX2                !
 ! R8    R(4,7)                  1.398          estimate D2E/DX2                !
 ! R9    R(4,8)                  1.0868         estimate D2E/DX2                !
 ! R10   R(6,7)                  1.4017         estimate D2E/DX2                !
 ! R11   R(6,9)                  1.09           estimate D2E/DX2                !
 ! R12   R(6,15)                 1.3261         estimate D2E/DX2                !
 ! R13   R(7,10)                 1.0851         estimate D2E/DX2                !
 ! R14   R(11,12)                1.0901         estimate D2E/DX2                !
 ! R15   R(11,13)                1.1008         estimate D2E/DX2                !
 ! R16   R(11,14)                1.1007         estimate D2E/DX2                !
 ! R17   R(16,17)                1.0996         estimate D2E/DX2                !
 ! R18   R(16,18)                1.0996         estimate D2E/DX2                !
 ! R19   R(16,19)                1.0939         estimate D2E/DX2                !
 ! A1    A(2,1,11)             121.1884         estimate D2E/DX2                !
 ! A2    A(2,1,16)             120.8027         estimate D2E/DX2                !
 ! A3    A(11,1,16)            118.0089         estimate D2E/DX2                !
 ! A4    A(1,2,3)              121.8177         estimate D2E/DX2                !
 ! A5    A(1,2,15)             117.7283         estimate D2E/DX2                !
 ! A6    A(3,2,15)             120.4541         estimate D2E/DX2                !
 ! A7    A(2,3,4)              119.6916         estimate D2E/DX2                !
 ! A8    A(2,3,5)              120.1605         estimate D2E/DX2                !
 ! A9    A(4,3,5)              120.1478         estimate D2E/DX2                !
 ! A10   A(3,4,7)              119.1999         estimate D2E/DX2                !
 ! A11   A(3,4,8)              120.1915         estimate D2E/DX2                !
 ! A12   A(7,4,8)              120.6086         estimate D2E/DX2                !
 ! A13   A(7,6,9)              119.8032         estimate D2E/DX2                !
 ! A14   A(7,6,15)             124.4089         estimate D2E/DX2                !
 ! A15   A(9,6,15)             115.7879         estimate D2E/DX2                !
 ! A16   A(4,7,6)              117.6745         estimate D2E/DX2                !
 ! A17   A(4,7,10)             121.709          estimate D2E/DX2                !
 ! A18   A(6,7,10)             120.6166         estimate D2E/DX2                !
 ! A19   A(1,11,12)            111.1888         estimate D2E/DX2                !
 ! A20   A(1,11,13)            110.727          estimate D2E/DX2                !
 ! A21   A(1,11,14)            110.7271         estimate D2E/DX2                !
 ! A22   A(12,11,13)           108.9828         estimate D2E/DX2                !
 ! A23   A(12,11,14)           109.0198         estimate D2E/DX2                !
 ! A24   A(13,11,14)           106.0412         estimate D2E/DX2                !
 ! A25   A(2,15,6)             118.571          estimate D2E/DX2                !
 ! A26   A(1,16,17)            112.0733         estimate D2E/DX2                !
 ! A27   A(1,16,18)            112.0568         estimate D2E/DX2                !
 ! A28   A(1,16,19)            110.8984         estimate D2E/DX2                !
 ! A29   A(17,16,18)           106.5335         estimate D2E/DX2                !
 ! A30   A(17,16,19)           107.5042         estimate D2E/DX2                !
 ! A31   A(18,16,19)           107.5043         estimate D2E/DX2                !
 ! D1    D(11,1,2,3)          -179.9845         estimate D2E/DX2                !
 ! D2    D(11,1,2,15)            0.037          estimate D2E/DX2                !
 ! D3    D(16,1,2,3)            -0.0247         estimate D2E/DX2                !
 ! D4    D(16,1,2,15)          179.9968         estimate D2E/DX2                !
 ! D5    D(2,1,11,12)           -0.1103         estimate D2E/DX2                !
 ! D6    D(2,1,11,13)          121.202          estimate D2E/DX2                !
 ! D7    D(2,1,11,14)         -121.4696         estimate D2E/DX2                !
 ! D8    D(16,1,11,12)         179.9288         estimate D2E/DX2                !
 ! D9    D(16,1,11,13)         -58.7589         estimate D2E/DX2                !
 ! D10   D(16,1,11,14)          58.5695         estimate D2E/DX2                !
 ! D11   D(2,1,16,17)          -59.8047         estimate D2E/DX2                !
 ! D12   D(2,1,16,18)           59.9073         estimate D2E/DX2                !
 ! D13   D(2,1,16,19)         -179.9543         estimate D2E/DX2                !
 ! D14   D(11,1,16,17)         120.1563         estimate D2E/DX2                !
 ! D15   D(11,1,16,18)        -120.1317         estimate D2E/DX2                !
 ! D16   D(11,1,16,19)           0.0068         estimate D2E/DX2                !
 ! D17   D(1,2,3,4)           -179.9714         estimate D2E/DX2                !
 ! D18   D(1,2,3,5)              0.0374         estimate D2E/DX2                !
 ! D19   D(15,2,3,4)             0.0066         estimate D2E/DX2                !
 ! D20   D(15,2,3,5)          -179.9846         estimate D2E/DX2                !
 ! D21   D(1,2,15,6)           179.9809         estimate D2E/DX2                !
 ! D22   D(3,2,15,6)             0.0021         estimate D2E/DX2                !
 ! D23   D(2,3,4,7)             -0.0049         estimate D2E/DX2                !
 ! D24   D(2,3,4,8)            179.9979         estimate D2E/DX2                !
 ! D25   D(5,3,4,7)            179.9863         estimate D2E/DX2                !
 ! D26   D(5,3,4,8)             -0.0109         estimate D2E/DX2                !
 ! D27   D(3,4,7,6)             -0.0048         estimate D2E/DX2                !
 ! D28   D(3,4,7,10)           179.9927         estimate D2E/DX2                !
 ! D29   D(8,4,7,6)            179.9924         estimate D2E/DX2                !
 ! D30   D(8,4,7,10)            -0.0101         estimate D2E/DX2                !
 ! D31   D(9,6,7,4)           -179.9962         estimate D2E/DX2                !
 ! D32   D(9,6,7,10)             0.0063         estimate D2E/DX2                !
 ! D33   D(15,6,7,4)             0.0143         estimate D2E/DX2                !
 ! D34   D(15,6,7,10)         -179.9832         estimate D2E/DX2                !
 ! D35   D(7,6,15,2)            -0.0128         estimate D2E/DX2                !
 ! D36   D(9,6,15,2)           179.9973         estimate D2E/DX2                !
 --------------------------------------------------------------------------------
 Trust Radius=3.00D-01 FncErr=1.00D-07 GrdErr=1.00D-06 EigMax=2.50D+02 EigMin=1.00D-04
 Number of steps in this run=    114 maximum allowed number of steps=    114.
 GradGradGradGradGradGradGradGradGradGradGradGradGradGradGradGradGradGrad

                          Input orientation:                          
 ---------------------------------------------------------------------
 Center     Atomic      Atomic             Coordinates (Angstroms)
 Number     Number       Type             X           Y           Z
 ---------------------------------------------------------------------
      1          6           0        1.580275   -0.010316    0.000269
      2          6           0        0.154170    0.001032   -0.000142
      3          6           0       -0.586912    1.216944   -0.000206
      4          6           0       -1.972069    1.176557   -0.000010
      5          1           0       -0.069994    2.169872   -0.000551
      6          6           0       -1.818313   -1.214218   -0.000013
      7          6           0       -2.618222   -0.063117    0.000144
      8          1           0       -2.545734    2.099568   -0.000023
      9          1           0       -2.285867   -2.198836    0.000036
     10          1           0       -3.700449   -0.142195    0.000417
     11          6           0        2.344315   -1.295447   -0.000016
     12          1           0        1.671998   -2.153542    0.001406
     13          1           0        3.002107   -1.357409   -0.880447
     14          1           0        3.005082   -1.356001    0.878193
     15          7           0       -0.492212   -1.205265   -0.000024
     16          6           0        2.359893    1.274017    0.000098
     17          1           0        2.136457    1.892929   -0.880904
     18          1           0        2.137090    1.892452    0.881644
     19          1           0        3.435973    1.077291   -0.000350
 ---------------------------------------------------------------------
                    Distance matrix (angstroms):
                    1          2          3          4          5
     1  C    0.000000
     2  C    1.426150   0.000000
     3  C    2.490556   1.423954   0.000000
     4  C    3.745373   2.429558   1.385746   0.000000
     5  H    2.734339   2.180394   1.084102   2.145825   0.000000
     6  C    3.605521   2.316791   2.725233   2.395714   3.809027
     7  C    4.198829   2.773134   2.400995   1.397965   3.388172
     8  H    4.634173   3.419552   2.148490   1.086757   2.476738
     9  H    4.442598   3.285301   3.814971   3.389948   4.898541
    10  H    5.282370   3.857279   3.397259   2.174030   4.304168
    11  C    1.495098   2.545112   3.860596   4.974131   4.223426
    12  H    2.145188   2.635525   4.057444   4.936475   4.661164
    13  H    2.147540   3.275827   4.503685   5.651423   4.759594
    14  H    2.147485   3.277302   4.504892   5.653063   4.760259
    15  N    2.392301   1.368562   2.424060   2.804114   3.401444
    16  C    1.502437   2.546705   2.947358   4.333058   2.589770
    17  H    2.169826   2.878277   2.940973   4.262528   2.391682
    18  H    2.169652   2.878713   2.941795   4.263216   2.393000
    19  H    2.150931   3.453775   4.025308   5.408953   3.672266
                    6          7          8          9         10
     6  C    0.000000
     7  C    1.401745   0.000000
     8  H    3.392686   2.163899   0.000000
     9  H    1.089991   2.161424   4.306252   0.000000
    10  H    2.166026   1.085112   2.521680   2.496160   0.000000
    11  C    4.163420   5.113258   5.953042   4.717488   6.153793
    12  H    3.614499   4.772407   5.989842   3.958124   5.736611
    13  H    4.902256   5.834272   6.595785   5.426409   6.868546
    14  H    4.904741   5.836443   6.597255   5.429150   6.870805
    15  N    1.326131   2.413384   3.890871   2.050459   3.379778
    16  C    4.862995   5.154567   4.974607   5.800327   6.223616
    17  H    5.105932   5.216257   4.768812   6.088969   6.244031
    18  H    5.106264   5.216731   4.769599   6.089205   6.244454
    19  H    5.732236   6.160666   6.068432   6.593365   7.239866
                   11         12         13         14         15
    11  C    0.000000
    12  H    1.090110   0.000000
    13  H    1.100767   1.783447   0.000000
    14  H    1.100696   1.783799   1.758643   0.000000
    15  N    2.837960   2.362845   3.606738   3.609024   0.000000
    16  C    2.569511   3.495906   2.848193   2.846808   3.779066
    17  H    3.314349   4.167508   3.363636   3.795323   4.157482
    18  H    3.314056   4.166677   3.796685   3.362420   4.157694
    19  H    2.611820   3.681018   2.624990   2.622673   4.543204
                   16         17         18         19
    16  C    0.000000
    17  H    1.099609   0.000000
    18  H    1.099648   1.762548   0.000000
    19  H    1.093915   1.769006   1.769039   0.000000
 Stoichiometry    C8H10N(1-)
 Framework group  C1[X(C8H10N)]
 Deg. of freedom    51
 Full point group                 C1      NOp   1
 Largest Abelian subgroup         C1      NOp   1
 Largest concise Abelian subgroup C1      NOp   1
                         Standard orientation:                         
 ---------------------------------------------------------------------
 Center     Atomic      Atomic             Coordinates (Angstroms)
 Number     Number       Type             X           Y           Z
 ---------------------------------------------------------------------
      1          6           0       -1.580275   -0.010316   -0.000269
      2          6           0       -0.154170    0.001032    0.000142
      3          6           0        0.586912    1.216944    0.000206
      4          6           0        1.972069    1.176557    0.000010
      5          1           0        0.069994    2.169872    0.000551
      6          6           0        1.818313   -1.214218    0.000013
      7          6           0        2.618222   -0.063116   -0.000144
      8          1           0        2.545734    2.099569    0.000023
      9          1           0        2.285867   -2.198835   -0.000036
     10          1           0        3.700449   -0.142194   -0.000417
     11          6           0       -2.344315   -1.295447    0.000016
     12          1           0       -1.671998   -2.153542   -0.001406
     13          1           0       -3.002107   -1.357409    0.880447
     14          1           0       -3.005082   -1.356001   -0.878193
     15          7           0        0.492212   -1.205265    0.000024
     16          6           0       -2.359893    1.274017   -0.000098
     17          1           0       -2.136457    1.892929    0.880904
     18          1           0       -2.137090    1.892452   -0.881644
     19          1           0       -3.435973    1.077291    0.000350
 ---------------------------------------------------------------------
 Rotational constants (GHZ):           3.4607904           1.2337908           0.9198797
 General basis read from cards:  (5D, 7F)
 ======================================================================================================
                                       Pseudopotential Parameters
 ======================================================================================================
  Center     Atomic      Valence      Angular      Power
  Number     Number     Electrons     Momentum     of R      Exponent        Coefficient   SO-Coeffient
 ======================================================================================================
    1          6
                                   No pseudopotential on this center.
    2          6
                                   No pseudopotential on this center.
    3          6
                                   No pseudopotential on this center.
    4          6
                                   No pseudopotential on this center.
    5          1
                                   No pseudopotential on this center.
    6          6
                                   No pseudopotential on this center.
    7          6
                                   No pseudopotential on this center.
    8          1
                                   No pseudopotential on this center.
    9          1
                                   No pseudopotential on this center.
   10          1
                                   No pseudopotential on this center.
   11          6
                                   No pseudopotential on this center.
   12          1
                                   No pseudopotential on this center.
   13          1
                                   No pseudopotential on this center.
   14          1
                                   No pseudopotential on this center.
   15          7
                                   No pseudopotential on this center.
   16          6
                                   No pseudopotential on this center.
   17          1
                                   No pseudopotential on this center.
   18          1
                                   No pseudopotential on this center.
   19          1
                                   No pseudopotential on this center.
 ======================================================================================================
 There are   155 symmetry adapted cartesian basis functions of A   symmetry.
 There are   146 symmetry adapted basis functions of A   symmetry.
   146 basis functions,   292 primitive gaussians,   155 cartesian basis functions
    33 alpha electrons       33 beta electrons
       nuclear repulsion energy       413.4340509538 Hartrees.
 NAtoms=   19 NActive=   19 NUniq=   19 SFac= 1.00D+00 NAtFMM=   60 NAOKFM=F Big=F
 Integral buffers will be    131072 words long.
 Raffenetti 2 integral format.
 Two-electron integral symmetry is turned on.
 Nuclear repulsion after empirical dispersion term =      413.4016192935 Hartrees.
 One-electron integrals computed using PRISM.
   1 Symmetry operations used in ECPInt.
 ECPInt:  NShTT=    1596 NPrTT=    9922 LenC2=    1568 LenP2D=    6607.
 LDataN:  DoStor=T MaxTD1= 4 Len=   56
 NBasis=   146 RedAO= T EigKep=  8.66D-04  NBF=   146
 NBsUse=   146 1.00D-06 EigRej= -1.00D+00 NBFU=   146
 ExpMin= 1.61D-01 ExpMax= 4.17D+03 ExpMxC= 6.27D+02 IAcc=3 IRadAn=         5 AccDes= 0.00D+00
 Harris functional with IExCor=  402 and IRadAn=       5 diagonalized for initial guess.
 HarFok:  IExCor=  402 AccDes= 0.00D+00 IRadAn=         5 IDoV= 1 UseB2=F ITyADJ=14
 ICtDFT=  3500011 ScaDFX=  1.000000  1.000000  1.000000  1.000000
 FoFCou: FMM=F IPFlag=           0 FMFlag=      100000 FMFlg1=           0
         NFxFlg=           0 DoJE=T BraDBF=F KetDBF=T FulRan=T
         wScrn=  0.000000 ICntrl=       500 IOpCl=  0 I1Cent=   200000004 NGrid=           0
         NMat0=    1 NMatS0=      1 NMatT0=    0 NMatD0=    1 NMtDS0=    0 NMtDT0=    0
 Petite list used in FoFCou.
 Requested convergence on RMS density matrix=1.00D-08 within 128 cycles.
 Requested convergence on MAX density matrix=1.00D-06.
 Requested convergence on             energy=1.00D-06.
 No special actions if energy rises.
 Integral accuracy reduced to 1.0D-05 until final iterations.
 Initial convergence to 1.0D-05 achieved.  Increase integral accuracy.
 SCF Done:  E(RB3LYP) =  -365.623511733     A.U. after   14 cycles
            NFock= 14  Conv=0.84D-08     -V/T= 2.0060

 **********************************************************************

            Population analysis using the SCF Density.

 **********************************************************************

 Orbital symmetries:
       Occupied  (A) (A) (A) (A) (A) (A) (A) (A) (A) (A) (A) (A)
                 (A) (A) (A) (A) (A) (A) (A) (A) (A) (A) (A) (A)
                 (A) (A) (A) (A) (A) (A) (A) (A) (A)
       Virtual   (A) (A) (A) (A) (A) (A) (A) (A) (A) (A) (A) (A)
                 (A) (A) (A) (A) (A) (A) (A) (A) (A) (A) (A) (A)
                 (A) (A) (A) (A) (A) (A) (A) (A) (A) (A) (A) (A)
                 (A) (A) (A) (A) (A) (A) (A) (A) (A) (A) (A) (A)
                 (A) (A) (A) (A) (A) (A) (A) (A) (A) (A) (A) (A)
                 (A) (A) (A) (A) (A) (A) (A) (A) (A) (A) (A) (A)
                 (A) (A) (A) (A) (A) (A) (A) (A) (A) (A) (A) (A)
                 (A) (A) (A) (A) (A) (A) (A) (A) (A) (A) (A) (A)
                 (A) (A) (A) (A) (A) (A) (A) (A) (A) (A) (A) (A)
                 (A) (A) (A) (A) (A)
 The electronic state is 1-A.
 Alpha  occ. eigenvalues --  -14.10695 -10.02399 -10.00838 -10.00438 -10.00145
 Alpha  occ. eigenvalues --   -9.98702  -9.98208  -9.97887  -9.94681  -0.72792
 Alpha  occ. eigenvalues --   -0.60126  -0.59928  -0.54356  -0.51141  -0.44128
 Alpha  occ. eigenvalues --   -0.42664  -0.36268  -0.31410  -0.28203  -0.26771
 Alpha  occ. eigenvalues --   -0.25532  -0.24804  -0.22662  -0.21288  -0.20723
 Alpha  occ. eigenvalues --   -0.19127  -0.18676  -0.15913  -0.15236  -0.09050
 Alpha  occ. eigenvalues --   -0.07158  -0.04911   0.05967
 Alpha virt. eigenvalues --    0.17788   0.22220   0.25200   0.27039   0.29557
 Alpha virt. eigenvalues --    0.30456   0.31721   0.31964   0.33022   0.34439
 Alpha virt. eigenvalues --    0.35576   0.35723   0.37931   0.41821   0.44415
 Alpha virt. eigenvalues --    0.45082   0.48230   0.52171   0.52785   0.59617
 Alpha virt. eigenvalues --    0.65145   0.66242   0.69690   0.70556   0.71910
 Alpha virt. eigenvalues --    0.74331   0.76462   0.76781   0.77971   0.78253
 Alpha virt. eigenvalues --    0.78634   0.79611   0.80700   0.83046   0.83512
 Alpha virt. eigenvalues --    0.85879   0.90587   0.91315   0.91365   0.95654
 Alpha virt. eigenvalues --    0.96526   0.99424   1.00206   1.01420   1.02668
 Alpha virt. eigenvalues --    1.02785   1.05742   1.06871   1.07433   1.09132
 Alpha virt. eigenvalues --    1.10372   1.10928   1.12898   1.14709   1.17560
 Alpha virt. eigenvalues --    1.20933   1.23496   1.24807   1.28110   1.32119
 Alpha virt. eigenvalues --    1.44241   1.45005   1.45592   1.48281   1.53713
 Alpha virt. eigenvalues --    1.58129   1.62196   1.62760   1.63658   1.68092
 Alpha virt. eigenvalues --    1.68777   1.70004   1.72155   1.76738   1.92757
 Alpha virt. eigenvalues --    1.97228   1.98990   2.02229   2.02264   2.04830
 Alpha virt. eigenvalues --    2.09860   2.12475   2.13774   2.18361   2.19214
 Alpha virt. eigenvalues --    2.27093   2.29189   2.30879   2.35000   2.36797
 Alpha virt. eigenvalues --    2.38782   2.39630   2.44300   2.46045   2.48843
 Alpha virt. eigenvalues --    2.49109   2.53472   2.53793   2.60856   2.64273
 Alpha virt. eigenvalues --    2.72256   2.74515   2.79295   2.81055   2.84227
 Alpha virt. eigenvalues --    2.89421   2.91252   2.95758   3.01493   3.10814
 Alpha virt. eigenvalues --    3.11947   3.40040   3.60770
          Condensed to atoms (all electrons):
               1          2          3          4          5          6
     1  C    5.059364   0.592660  -0.096113   0.005566  -0.017883   0.003364
     2  C    0.592660   4.507001   0.413283  -0.005888  -0.029931  -0.057140
     3  C   -0.096113   0.413283   5.213869   0.556991   0.331797  -0.036210
     4  C    0.005566  -0.005888   0.556991   4.865139  -0.064126  -0.022877
     5  H   -0.017883  -0.029931   0.331797  -0.064126   0.710162   0.000612
     6  C    0.003364  -0.057140  -0.036210  -0.022877   0.000612   4.761872
     7  C    0.002327  -0.022802  -0.048633   0.520972   0.006088   0.500769
     8  H   -0.000178   0.004094  -0.050418   0.343224  -0.008220   0.005972
     9  H   -0.000413   0.002761   0.001441   0.003648   0.000045   0.349981
    10  H    0.000009   0.000329   0.006597  -0.054645  -0.000153  -0.043706
    11  C    0.355205   0.006780   0.011957  -0.000291   0.000104   0.000424
    12  H   -0.027221  -0.010483   0.000450   0.000056  -0.000048  -0.000286
    13  H   -0.050157  -0.002106  -0.000054   0.000006  -0.000016   0.000016
    14  H   -0.050035  -0.002070  -0.000055   0.000006  -0.000016   0.000016
    15  N   -0.070845   0.419035  -0.076232  -0.040548   0.006462   0.538911
    16  C    0.375036  -0.028414  -0.026066   0.000567   0.005592  -0.000208
    17  H   -0.041453  -0.008326   0.005980   0.000101   0.002221   0.000007
    18  H   -0.041542  -0.008298   0.005981   0.000101   0.002209   0.000007
    19  H   -0.030199   0.002171   0.000240  -0.000005  -0.000056   0.000002
               7          8          9         10         11         12
     1  C    0.002327  -0.000178  -0.000413   0.000009   0.355205  -0.027221
     2  C   -0.022802   0.004094   0.002761   0.000329   0.006780  -0.010483
     3  C   -0.048633  -0.050418   0.001441   0.006597   0.011957   0.000450
     4  C    0.520972   0.343224   0.003648  -0.054645  -0.000291   0.000056
     5  H    0.006088  -0.008220   0.000045  -0.000153   0.000104  -0.000048
     6  C    0.500769   0.005972   0.349981  -0.043706   0.000424  -0.000286
     7  C    5.116419  -0.057189  -0.082527   0.327183  -0.000026   0.000062
     8  H   -0.057189   0.724185  -0.000251  -0.007998   0.000003   0.000000
     9  H   -0.082527  -0.000251   0.740502  -0.002325   0.000051  -0.000167
    10  H    0.327183  -0.007998  -0.002325   0.742641  -0.000000  -0.000002
    11  C   -0.000026   0.000003   0.000051  -0.000000   5.218393   0.351049
    12  H    0.000062   0.000000  -0.000167  -0.000002   0.351049   0.563032
    13  H   -0.000001  -0.000000  -0.000002  -0.000000   0.343693  -0.029968
    14  H   -0.000001  -0.000000  -0.000002  -0.000000   0.343678  -0.029841
    15  N   -0.054951  -0.000125  -0.057113   0.005965  -0.033954   0.030967
    16  C   -0.000035   0.000001   0.000005  -0.000000  -0.103356   0.006287
    17  H   -0.000018  -0.000000  -0.000000   0.000000   0.004177  -0.000200
    18  H   -0.000018  -0.000000  -0.000000   0.000000   0.004172  -0.000199
    19  H    0.000001  -0.000000  -0.000000  -0.000000  -0.008678   0.000056
              13         14         15         16         17         18
     1  C   -0.050157  -0.050035  -0.070845   0.375036  -0.041453  -0.041542
     2  C   -0.002106  -0.002070   0.419035  -0.028414  -0.008326  -0.008298
     3  C   -0.000054  -0.000055  -0.076232  -0.026066   0.005980   0.005981
     4  C    0.000006   0.000006  -0.040548   0.000567   0.000101   0.000101
     5  H   -0.000016  -0.000016   0.006462   0.005592   0.002221   0.002209
     6  C    0.000016   0.000016   0.538911  -0.000208   0.000007   0.000007
     7  C   -0.000001  -0.000001  -0.054951  -0.000035  -0.000018  -0.000018
     8  H   -0.000000  -0.000000  -0.000125   0.000001  -0.000000  -0.000000
     9  H   -0.000002  -0.000002  -0.057113   0.000005  -0.000000  -0.000000
    10  H   -0.000000  -0.000000   0.005965  -0.000000   0.000000   0.000000
    11  C    0.343693   0.343678  -0.033954  -0.103356   0.004177   0.004172
    12  H   -0.029968  -0.029841   0.030967   0.006287  -0.000200  -0.000199
    13  H    0.736429  -0.069237   0.001420  -0.002163   0.002323  -0.000881
    14  H   -0.069237   0.736186   0.001412  -0.002189  -0.000881   0.002326
    15  N    0.001420   0.001412   6.791072   0.005889   0.000019   0.000020
    16  C   -0.002163  -0.002189   0.005889   5.225773   0.340645   0.340712
    17  H    0.002323  -0.000881   0.000019   0.340645   0.706869  -0.068398
    18  H   -0.000881   0.002326   0.000020   0.340712  -0.068398   0.706916
    19  H    0.002688   0.002697  -0.000055   0.359085  -0.036584  -0.036605
              19
     1  C   -0.030199
     2  C    0.002171
     3  C    0.000240
     4  C   -0.000005
     5  H   -0.000056
     6  C    0.000002
     7  C    0.000001
     8  H   -0.000000
     9  H   -0.000000
    10  H   -0.000000
    11  C   -0.008678
    12  H    0.000056
    13  H    0.002688
    14  H    0.002697
    15  N   -0.000055
    16  C    0.359085
    17  H   -0.036584
    18  H   -0.036605
    19  H    0.657276
 Mulliken charges:
               1
     1  C    0.032507
     2  C    0.227346
     3  C   -0.214803
     4  C   -0.107998
     5  H    0.055156
     6  C   -0.001525
     7  C   -0.207618
     8  H    0.046903
     9  H    0.044368
    10  H    0.026105
    11  C   -0.493380
    12  H    0.146454
    13  H    0.068009
    14  H    0.068007
    15  N   -0.467350
    16  C   -0.497159
    17  H    0.093517
    18  H    0.093497
    19  H    0.087964
 Sum of Mulliken charges =  -1.00000
 Mulliken charges with hydrogens summed into heavy atoms:
               1
     1  C    0.032507
     2  C    0.227346
     3  C   -0.159646
     4  C   -0.061095
     6  C    0.042844
     7  C   -0.181513
    11  C   -0.210911
    15  N   -0.467350
    16  C   -0.222181
 Electronic spatial extent (au):  <R**2>=           1313.7522
 Charge=             -1.0000 electrons
 Dipole moment (field-independent basis, Debye):
    X=              0.4503    Y=              1.3723    Z=              0.0003  Tot=              1.4442
 Quadrupole moment (field-independent basis, Debye-Ang):
   XX=            -73.8326   YY=            -64.2541   ZZ=            -60.6361
   XY=             -0.6907   XZ=             -0.0002   YZ=              0.0017
 Traceless Quadrupole moment (field-independent basis, Debye-Ang):
   XX=             -7.5916   YY=              1.9868   ZZ=              5.6048
   XY=             -0.6907   XZ=             -0.0002   YZ=              0.0017
 Octapole moment (field-independent basis, Debye-Ang**2):
  XXX=              8.5716  YYY=              2.2194  ZZZ=              0.0007  XYY=              8.2432
  XXY=              0.0772  XXZ=             -0.0046  XZZ=             -1.8990  YZZ=             -1.2364
  YYZ=             -0.0012  XYZ=             -0.0035
 Hexadecapole moment (field-independent basis, Debye-Ang**3):
 XXXX=          -1429.0654 YYYY=           -528.9780 ZZZZ=            -78.9006 XXXY=             -7.4463
 XXXZ=              0.0077 YYYX=             -0.4346 YYYZ=              0.0124 ZZZX=              0.0009
 ZZZY=              0.0010 XXYY=           -328.7310 XXZZ=           -247.3292 YYZZ=           -102.7005
 XXYZ=              0.0103 YYXZ=              0.0028 ZZXY=             -1.7720
 N-N= 4.134016192935D+02 E-N=-1.687619598113D+03  KE= 3.634366774479D+02
   1 Symmetry operations used in ECPInt.
 ECPInt:  NShTT=    1596 NPrTT=    9922 LenC2=    1568 LenP2D=    6607.
 LDataN:  DoStor=T MaxTD1= 5 Len=  102
 Calling FoFJK, ICntrl=      2127 FMM=F ISym2X=0 I1Cent= 0 IOpClX= 0 NMat=1 NMatS=1 NMatT=0.
 ***** Axes restored to original set *****
 -------------------------------------------------------------------
 Center     Atomic                   Forces (Hartrees/Bohr)
 Number     Number              X              Y              Z
 -------------------------------------------------------------------
      1        6          -0.034616305    0.000043717   -0.000026878
      2        6           0.065029359   -0.000137681    0.000061137
      3        6          -0.023842757    0.014936495   -0.000015731
      4        6           0.018350933    0.004114901   -0.000006318
      5        1           0.001049625    0.001191276    0.000008393
      6        6           0.010063788    0.009926325    0.000022585
      7        6          -0.015610994   -0.010339913    0.000000386
      8        1          -0.001697524    0.002722722    0.000000312
      9        1          -0.002262597   -0.003570226   -0.000000681
     10        1          -0.002652187   -0.000239913   -0.000005643
     11        6          -0.000129052    0.008950662   -0.000060804
     12        1          -0.001348828   -0.000603907    0.000026561
     13        1           0.004966372   -0.005366663   -0.003380147
     14        1           0.004957611   -0.005368644    0.003393248
     15        7          -0.021780290   -0.021575690   -0.000030577
     16        6          -0.007813235   -0.007769797    0.000036123
     17        1           0.001897403    0.006325724   -0.002903598
     18        1           0.001911523    0.006335087    0.002882021
     19        1           0.003527155    0.000425524   -0.000000389
 -------------------------------------------------------------------
 Cartesian Forces:  Max     0.065029359 RMS     0.012248018

 GradGradGradGradGradGradGradGradGradGradGradGradGradGradGradGradGradGrad
 Berny optimization.
 FormGI is forming the generalized inverse of G from B-inverse, IUseBI=4.
 Internal  Forces:  Max     0.026670207 RMS     0.005972341
 Search for a local minimum.
 Step number   1 out of a maximum of  114
 All quantities printed in internal units (Hartrees-Bohrs-Radians)
 Mixed Optimization -- RFO/linear search
 Second derivative matrix not updated -- first step.
 ITU=  0
     Eigenvalues ---    0.00734   0.00831   0.01033   0.01743   0.01835
     Eigenvalues ---    0.01928   0.02034   0.02091   0.02149   0.02199
     Eigenvalues ---    0.02244   0.02375   0.07039   0.07129   0.07187
     Eigenvalues ---    0.07401   0.16000   0.16000   0.16000   0.16000
     Eigenvalues ---    0.16000   0.16000   0.16000   0.16000   0.16000
     Eigenvalues ---    0.16000   0.22000   0.22420   0.24406   0.25000
     Eigenvalues ---    0.25000   0.25000   0.32123   0.32897   0.33597
     Eigenvalues ---    0.33605   0.33721   0.33725   0.34364   0.34800
     Eigenvalues ---    0.34814   0.35190   0.35384   0.35503   0.39831
     Eigenvalues ---    0.41547   0.43989   0.44362   0.47021   0.50229
     Eigenvalues ---    0.58765
 RFO step:  Lambda=-8.94680524D-03 EMin= 7.33716978D-03
 Linear search not attempted -- first point.
 Iteration  1 RMS(Cart)=  0.02883750 RMS(Int)=  0.00045844
 Iteration  2 RMS(Cart)=  0.00049177 RMS(Int)=  0.00029400
 Iteration  3 RMS(Cart)=  0.00000022 RMS(Int)=  0.00029400
 Variable       Old X    -DE/DX   Delta X   Delta X   Delta X     New X
                                 (Linear)    (Quad)   (Total)
    R1        2.69503  -0.02667   0.00000  -0.06284  -0.06284   2.63219
    R2        2.82533   0.00637   0.00000   0.01885   0.01885   2.84418
    R3        2.83919   0.00430   0.00000   0.01301   0.01301   2.85221
    R4        2.69088   0.02180   0.00000   0.05240   0.05246   2.74334
    R5        2.58621   0.02572   0.00000   0.05071   0.05080   2.63700
    R6        2.61868  -0.00552   0.00000  -0.01150  -0.01153   2.60715
    R7        2.04865   0.00155   0.00000   0.00425   0.00425   2.05291
    R8        2.64177   0.01218   0.00000   0.02444   0.02435   2.66612
    R9        2.05367   0.00321   0.00000   0.00889   0.00889   2.06257
   R10        2.64891   0.00192   0.00000   0.00291   0.00285   2.65176
   R11        2.05978   0.00420   0.00000   0.01175   0.01175   2.07153
   R12        2.50602  -0.00066   0.00000  -0.00092  -0.00090   2.50512
   R13        2.05057   0.00266   0.00000   0.00734   0.00734   2.05790
   R14        2.06001   0.00131   0.00000   0.00366   0.00366   2.06367
   R15        2.08015   0.00597   0.00000   0.01732   0.01732   2.09747
   R16        2.08001   0.00598   0.00000   0.01733   0.01733   2.09734
   R17        2.07796   0.00550   0.00000   0.01589   0.01589   2.09385
   R18        2.07803   0.00549   0.00000   0.01585   0.01585   2.09388
   R19        2.06720   0.00339   0.00000   0.00962   0.00962   2.07682
    A1        2.11514   0.00273   0.00000   0.01056   0.01056   2.12570
    A2        2.10841  -0.00205   0.00000  -0.00793  -0.00793   2.10047
    A3        2.05964  -0.00068   0.00000  -0.00263  -0.00263   2.05702
    A4        2.12612   0.00020   0.00000  -0.00134  -0.00141   2.12471
    A5        2.05475   0.01243   0.00000   0.04587   0.04579   2.10054
    A6        2.10232  -0.01263   0.00000  -0.04453  -0.04438   2.05794
    A7        2.08901   0.00359   0.00000   0.01672   0.01675   2.10576
    A8        2.09720  -0.00216   0.00000  -0.01051  -0.01052   2.08667
    A9        2.09698  -0.00143   0.00000  -0.00621  -0.00622   2.09075
   A10        2.08043   0.00556   0.00000   0.01949   0.01937   2.09980
   A11        2.09774  -0.00278   0.00000  -0.00972  -0.00966   2.08808
   A12        2.10502  -0.00278   0.00000  -0.00977  -0.00971   2.09531
   A13        2.09096  -0.00425   0.00000  -0.01792  -0.01790   2.07306
   A14        2.17135   0.00744   0.00000   0.02959   0.02954   2.20089
   A15        2.02088  -0.00319   0.00000  -0.01167  -0.01165   2.00923
   A16        2.05381  -0.00528   0.00000  -0.02995  -0.03011   2.02370
   A17        2.12422   0.00269   0.00000   0.01525   0.01533   2.13955
   A18        2.10516   0.00259   0.00000   0.01470   0.01478   2.11993
   A19        1.94061  -0.00431   0.00000  -0.03114  -0.03075   1.90986
   A20        1.93255   0.00725   0.00000   0.04570   0.04501   1.97756
   A21        1.93255   0.00722   0.00000   0.04544   0.04474   1.97729
   A22        1.90211  -0.00269   0.00000  -0.02108  -0.02073   1.88138
   A23        1.90275  -0.00271   0.00000  -0.02141  -0.02107   1.88169
   A24        1.85077  -0.00500   0.00000  -0.01841  -0.01998   1.83079
   A25        2.06945   0.00132   0.00000   0.00868   0.00883   2.07828
   A26        1.95605   0.00550   0.00000   0.03416   0.03377   1.98982
   A27        1.95576   0.00554   0.00000   0.03446   0.03406   1.98982
   A28        1.93554  -0.00103   0.00000  -0.00935  -0.00924   1.92630
   A29        1.85936  -0.00484   0.00000  -0.02271  -0.02348   1.83588
   A30        1.87630  -0.00295   0.00000  -0.02051  -0.02042   1.85588
   A31        1.87630  -0.00296   0.00000  -0.02050  -0.02041   1.85590
    D1       -3.14132  -0.00000   0.00000   0.00001   0.00002  -3.14130
    D2        0.00065  -0.00001   0.00000  -0.00040  -0.00040   0.00024
    D3       -0.00043   0.00000   0.00000   0.00012   0.00012  -0.00031
    D4        3.14154  -0.00001   0.00000  -0.00030  -0.00030   3.14123
    D5       -0.00193  -0.00001   0.00000  -0.00005  -0.00005  -0.00198
    D6        2.11537  -0.00139   0.00000  -0.01669  -0.01742   2.09795
    D7       -2.12004   0.00142   0.00000   0.01719   0.01792  -2.10213
    D8        3.14035  -0.00001   0.00000  -0.00015  -0.00015   3.14020
    D9       -1.02554  -0.00140   0.00000  -0.01679  -0.01752  -1.04306
   D10        1.02223   0.00141   0.00000   0.01709   0.01782   1.04005
   D11       -1.04379  -0.00075   0.00000  -0.00960  -0.00992  -1.05371
   D12        1.04558   0.00074   0.00000   0.00911   0.00943   1.05501
   D13       -3.14079   0.00000   0.00000  -0.00014  -0.00014  -3.14093
   D14        2.09712  -0.00075   0.00000  -0.00950  -0.00982   2.08731
   D15       -2.09669   0.00074   0.00000   0.00921   0.00953  -2.08716
   D16        0.00012   0.00000   0.00000  -0.00004  -0.00004   0.00008
   D17       -3.14109  -0.00001   0.00000  -0.00037  -0.00036  -3.14146
   D18        0.00065  -0.00001   0.00000  -0.00043  -0.00042   0.00023
   D19        0.00011   0.00000   0.00000   0.00007   0.00007   0.00018
   D20       -3.14132   0.00000   0.00000   0.00002   0.00001  -3.14131
   D21        3.14126   0.00000   0.00000   0.00018   0.00018   3.14144
   D22        0.00004  -0.00001   0.00000  -0.00024  -0.00024  -0.00020
   D23       -0.00009   0.00000   0.00000   0.00004   0.00004  -0.00005
   D24        3.14156   0.00000   0.00000   0.00002   0.00002   3.14158
   D25        3.14135   0.00000   0.00000   0.00009   0.00009   3.14144
   D26       -0.00019   0.00000   0.00000   0.00007   0.00007  -0.00012
   D27       -0.00008   0.00000   0.00000   0.00002   0.00002  -0.00006
   D28        3.14147   0.00000   0.00000   0.00007   0.00007   3.14153
   D29        3.14146   0.00000   0.00000   0.00004   0.00004   3.14150
   D30       -0.00018   0.00000   0.00000   0.00008   0.00008  -0.00009
   D31       -3.14153   0.00000   0.00000   0.00008   0.00008  -3.14145
   D32        0.00011   0.00000   0.00000   0.00003   0.00003   0.00014
   D33        0.00025  -0.00001   0.00000  -0.00021  -0.00021   0.00004
   D34       -3.14130  -0.00001   0.00000  -0.00025  -0.00025  -3.14155
   D35       -0.00022   0.00001   0.00000   0.00031   0.00032   0.00009
   D36        3.14154   0.00000   0.00000   0.00004   0.00004   3.14159
         Item               Value     Threshold  Converged?
 Maximum Force            0.026670     0.000450     NO 
 RMS     Force            0.005972     0.000300     NO 
 Maximum Displacement     0.078750     0.001800     NO 
 RMS     Displacement     0.028815     0.001200     NO 
 Predicted change in Energy=-4.623272D-03
 GradGradGradGradGradGradGradGradGradGradGradGradGradGradGradGradGradGrad

                          Input orientation:                          
 ---------------------------------------------------------------------
 Center     Atomic      Atomic             Coordinates (Angstroms)
 Number     Number       Type             X           Y           Z
 ---------------------------------------------------------------------
      1          6           0        1.577791   -0.018875    0.000261
      2          6           0        0.184906   -0.024628    0.000109
      3          6           0       -0.583815    1.206853    0.000074
      4          6           0       -1.963093    1.175017    0.000083
      5          1           0       -0.065968    2.161838   -0.000054
      6          6           0       -1.840683   -1.207679   -0.000039
      7          6           0       -2.646820   -0.059090    0.000066
      8          1           0       -2.524589    2.110973    0.000072
      9          1           0       -2.323964   -2.191606   -0.000197
     10          1           0       -3.733668   -0.127466    0.000127
     11          6           0        2.376030   -1.294830   -0.000074
     12          1           0        1.695575   -2.148965    0.001606
     13          1           0        3.043780   -1.394841   -0.881015
     14          1           0        3.046569   -1.393203    0.878848
     15          7           0       -0.515248   -1.231708   -0.000074
     16          6           0        2.334995    1.286766   -0.000008
     17          1           0        2.128423    1.927531   -0.880037
     18          1           0        2.129215    1.927445    0.880291
     19          1           0        3.418152    1.100786   -0.000516
 ---------------------------------------------------------------------
                    Distance matrix (angstroms):
                    1          2          3          4          5
     1  C    0.000000
     2  C    1.392897   0.000000
     3  C    2.484945   1.451715   0.000000
     4  C    3.736742   2.460295   1.379646   0.000000
     5  H    2.730834   2.200811   1.086352   2.138433   0.000000
     6  C    3.619285   2.345766   2.722074   2.385839   3.808314
     7  C    4.224803   2.831936   2.420455   1.410852   3.404896
     8  H    4.622313   3.449950   2.141036   1.091462   2.459146
     9  H    4.465921   3.315150   3.818068   3.385909   4.904183
    10  H    5.312569   3.919923   3.420816   2.198044   4.323532
    11  C    1.505073   2.532674   3.875448   4.992808   4.232246
    12  H    2.133344   2.606709   4.056739   4.943148   4.656829
    13  H    2.195234   3.290444   4.550227   5.696427   4.805891
    14  H    2.194994   3.291548   4.551067   5.697779   4.806107
    15  N    2.419045   1.395442   2.439525   2.808662   3.423157
    16  C    1.509323   2.518460   2.919904   4.299541   2.555461
    17  H    2.206041   2.891857   2.941123   4.252222   2.375842
    18  H    2.206056   2.892343   2.941864   4.252987   2.376715
    19  H    2.154198   3.423513   4.003372   5.381757   3.642105
                    6          7          8          9         10
     6  C    0.000000
     7  C    1.403252   0.000000
     8  H    3.388389   2.173502   0.000000
     9  H    1.096208   2.156817   4.307254   0.000000
    10  H    2.179507   1.088996   2.544107   2.499588   0.000000
    11  C    4.217613   5.172628   5.967877   4.784783   6.220220
    12  H    3.659391   4.819126   5.996403   4.019766   5.793370
    13  H    4.966802   5.911300   6.638808   5.497577   6.951003
    14  H    4.969113   5.913272   6.639976   5.500253   6.953117
    15  N    1.325653   2.432824   3.900124   2.047646   3.402584
    16  C    4.864005   5.160408   4.928983   5.814204   6.231270
    17  H    5.133979   5.246350   4.739067   6.129042   6.273899
    18  H    5.134595   5.247059   4.739869   6.129652   6.274610
    19  H    5.743201   6.174885   6.027989   6.619044   7.256523
                   11         12         13         14         15
    11  C    0.000000
    12  H    1.092048   0.000000
    13  H    1.109932   1.779151   0.000000
    14  H    1.109866   1.779301   1.759865   0.000000
    15  N    2.891967   2.393554   3.670061   3.672209   0.000000
    16  C    2.581921   3.494725   2.910251   2.908772   3.803498
    17  H    3.349515   4.193145   3.446162   3.868325   4.212377
    18  H    3.349479   4.192522   3.869911   3.445031   4.212894
    19  H    2.612468   3.678064   2.672748   2.670455   4.572982
                   16         17         18         19
    16  C    0.000000
    17  H    1.108018   0.000000
    18  H    1.108035   1.760328   0.000000
    19  H    1.099007   1.766484   1.766507   0.000000
 Stoichiometry    C8H10N(1-)
 Framework group  C1[X(C8H10N)]
 Deg. of freedom    51
 Full point group                 C1      NOp   1
 Largest Abelian subgroup         C1      NOp   1
 Largest concise Abelian subgroup C1      NOp   1
                         Standard orientation:                         
 ---------------------------------------------------------------------
 Center     Atomic      Atomic             Coordinates (Angstroms)
 Number     Number       Type             X           Y           Z
 ---------------------------------------------------------------------
      1          6           0       -1.580217   -0.014177   -0.000239
      2          6           0       -0.187334   -0.020433   -0.000087
      3          6           0        0.581832    1.210770   -0.000052
      4          6           0        1.961099    1.178435   -0.000061
      5          1           0        0.064331    2.165942    0.000076
      6          6           0        1.837827   -1.204217    0.000061
      7          6           0        2.644380   -0.055919   -0.000044
      8          1           0        2.522933    2.114188   -0.000050
      9          1           0        2.320752   -2.188318    0.000219
     10          1           0        3.731202   -0.124688   -0.000105
     11          6           0       -2.378917   -1.289843    0.000096
     12          1           0       -1.698771   -2.144224   -0.001584
     13          1           0       -3.046703   -1.389612    0.881037
     14          1           0       -3.049491   -1.387973   -0.878826
     15          7           0        0.512384   -1.227767    0.000096
     16          6           0       -2.336949    1.291738    0.000030
     17          1           0       -2.130145    1.932428    0.880059
     18          1           0       -2.130937    1.932342   -0.880269
     19          1           0       -3.420173    1.106149    0.000538
 ---------------------------------------------------------------------
 Rotational constants (GHZ):           3.4322799           1.2226185           0.9116499
 Basis read from rwf:  (5D, 7F)
 Pseudo-potential data read from rwf file.
 There are   155 symmetry adapted cartesian basis functions of A   symmetry.
 There are   146 symmetry adapted basis functions of A   symmetry.
   146 basis functions,   292 primitive gaussians,   155 cartesian basis functions
    33 alpha electrons       33 beta electrons
       nuclear repulsion energy       411.5929164481 Hartrees.
 NAtoms=   19 NActive=   19 NUniq=   19 SFac= 1.00D+00 NAtFMM=   60 NAOKFM=F Big=F
 Integral buffers will be    131072 words long.
 Raffenetti 2 integral format.
 Two-electron integral symmetry is turned on.
 Nuclear repulsion after empirical dispersion term =      411.5606349363 Hartrees.
 One-electron integrals computed using PRISM.
   1 Symmetry operations used in ECPInt.
 ECPInt:  NShTT=    1596 NPrTT=    9922 LenC2=    1567 LenP2D=    6594.
 LDataN:  DoStor=T MaxTD1= 4 Len=   56
 NBasis=   146 RedAO= T EigKep=  9.29D-04  NBF=   146
 NBsUse=   146 1.00D-06 EigRej= -1.00D+00 NBFU=   146
 Initial guess from the checkpoint file:  "/tmp/Gau-79102.chk"
 B after Tr=    -0.000000    0.000000    0.000000
         Rot=    1.000000    0.000014   -0.000004    0.000276 Ang=   0.03 deg.
 ExpMin= 1.61D-01 ExpMax= 4.17D+03 ExpMxC= 6.27D+02 IAcc=3 IRadAn=         5 AccDes= 0.00D+00
 Harris functional with IExCor=  402 and IRadAn=       5 diagonalized for initial guess.
 HarFok:  IExCor=  402 AccDes= 0.00D+00 IRadAn=         5 IDoV= 1 UseB2=F ITyADJ=14
 ICtDFT=  3500011 ScaDFX=  1.000000  1.000000  1.000000  1.000000
 FoFCou: FMM=F IPFlag=           0 FMFlag=      100000 FMFlg1=           0
         NFxFlg=           0 DoJE=T BraDBF=F KetDBF=T FulRan=T
         wScrn=  0.000000 ICntrl=       500 IOpCl=  0 I1Cent=   200000004 NGrid=           0
         NMat0=    1 NMatS0=      1 NMatT0=    0 NMatD0=    1 NMtDS0=    0 NMtDT0=    0
 Petite list used in FoFCou.
 Requested convergence on RMS density matrix=1.00D-08 within 128 cycles.
 Requested convergence on MAX density matrix=1.00D-06.
 Requested convergence on             energy=1.00D-06.
 No special actions if energy rises.
 Integral accuracy reduced to 1.0D-05 until final iterations.
 Initial convergence to 1.0D-05 achieved.  Increase integral accuracy.
 SCF Done:  E(RB3LYP) =  -365.628562340     A.U. after   13 cycles
            NFock= 13  Conv=0.71D-08     -V/T= 2.0065
   1 Symmetry operations used in ECPInt.
 ECPInt:  NShTT=    1596 NPrTT=    9922 LenC2=    1567 LenP2D=    6594.
 LDataN:  DoStor=T MaxTD1= 5 Len=  102
 Calling FoFJK, ICntrl=      2127 FMM=F ISym2X=0 I1Cent= 0 IOpClX= 0 NMat=1 NMatS=1 NMatT=0.
 ***** Axes restored to original set *****
 -------------------------------------------------------------------
 Center     Atomic                   Forces (Hartrees/Bohr)
 Number     Number              X              Y              Z
 -------------------------------------------------------------------
      1        6          -0.005502430   -0.000455317   -0.000016139
      2        6           0.012601169    0.001347285    0.000000692
      3        6          -0.008474207    0.002967798   -0.000001596
      4        6           0.006171715    0.000255901   -0.000000587
      5        1           0.000068416    0.000080178    0.000005866
      6        6           0.003798537    0.004506465   -0.000001516
      7        6          -0.003449416   -0.003162861    0.000004443
      8        1          -0.000066552    0.000623354   -0.000000807
      9        1          -0.000414373   -0.001033625    0.000002512
     10        1           0.001033319    0.000162469   -0.000002684
     11        6          -0.000024748    0.003620278   -0.000012651
     12        1          -0.000758537   -0.000899801    0.000004785
     13        1          -0.000231964   -0.000360978   -0.000118481
     14        1          -0.000229077   -0.000372705    0.000131861
     15        7          -0.004806158   -0.005747807    0.000001923
     16        6          -0.000784367   -0.002471937    0.000006996
     17        1           0.000205491    0.000348208   -0.000067097
     18        1           0.000205318    0.000347335    0.000060230
     19        1           0.000657865    0.000245761    0.000002249
 -------------------------------------------------------------------
 Cartesian Forces:  Max     0.012601169 RMS     0.002802978

 GradGradGradGradGradGradGradGradGradGradGradGradGradGradGradGradGradGrad
 Berny optimization.
 Using GEDIIS/GDIIS optimizer.
 FormGI is forming the generalized inverse of G from B-inverse, IUseBI=4.
 Internal  Forces:  Max     0.006462330 RMS     0.001354753
 Search for a local minimum.
 Step number   2 out of a maximum of  114
 All quantities printed in internal units (Hartrees-Bohrs-Radians)
 Mixed Optimization -- RFO/linear search
 Update second derivatives using D2CorX and points    1    2
 DE= -5.05D-03 DEPred=-4.62D-03 R= 1.09D+00
 TightC=F SS=  1.41D+00  RLast= 1.78D-01 DXNew= 5.0454D-01 5.3406D-01
 Trust test= 1.09D+00 RLast= 1.78D-01 DXMaxT set to 5.05D-01
 ITU=  1  0
 Use linear search instead of GDIIS.
     Eigenvalues ---    0.00734   0.00831   0.01035   0.01743   0.01836
     Eigenvalues ---    0.01929   0.02035   0.02091   0.02151   0.02200
     Eigenvalues ---    0.02245   0.02379   0.06673   0.06923   0.07055
     Eigenvalues ---    0.07226   0.15900   0.16000   0.16000   0.16000
     Eigenvalues ---    0.16000   0.16000   0.16000   0.16000   0.16000
     Eigenvalues ---    0.16225   0.21140   0.22202   0.24216   0.24974
     Eigenvalues ---    0.25000   0.26321   0.32211   0.32859   0.33601
     Eigenvalues ---    0.33662   0.33723   0.34167   0.34259   0.34594
     Eigenvalues ---    0.34839   0.35148   0.35478   0.35606   0.36722
     Eigenvalues ---    0.40571   0.44072   0.44296   0.46313   0.49977
     Eigenvalues ---    0.58918
 RFO step:  Lambda=-3.50265188D-04 EMin= 7.33716915D-03
 Quartic linear search produced a step of  0.15710.
 Iteration  1 RMS(Cart)=  0.01447746 RMS(Int)=  0.00007952
 Iteration  2 RMS(Cart)=  0.00008748 RMS(Int)=  0.00005097
 Iteration  3 RMS(Cart)=  0.00000000 RMS(Int)=  0.00005097
 Variable       Old X    -DE/DX   Delta X   Delta X   Delta X     New X
                                 (Linear)    (Quad)   (Total)
    R1        2.63219  -0.00646  -0.00987  -0.01052  -0.02040   2.61180
    R2        2.84418  -0.00234   0.00296  -0.01048  -0.00752   2.83665
    R3        2.85221  -0.00118   0.00204  -0.00580  -0.00376   2.84845
    R4        2.74334   0.00439   0.00824   0.00638   0.01463   2.75798
    R5        2.63700   0.00464   0.00798   0.00483   0.01283   2.64983
    R6        2.60715  -0.00447  -0.00181  -0.00938  -0.01120   2.59595
    R7        2.05291   0.00010   0.00067  -0.00017   0.00050   2.05340
    R8        2.66612   0.00184   0.00383   0.00130   0.00511   2.67124
    R9        2.06257   0.00057   0.00140   0.00081   0.00221   2.06477
   R10        2.65176  -0.00102   0.00045  -0.00337  -0.00293   2.64883
   R11        2.07153   0.00111   0.00185   0.00229   0.00413   2.07567
   R12        2.50512  -0.00256  -0.00014  -0.00482  -0.00495   2.50017
   R13        2.05790  -0.00104   0.00115  -0.00428  -0.00312   2.05478
   R14        2.06367   0.00118   0.00058   0.00347   0.00405   2.06772
   R15        2.09747  -0.00001   0.00272  -0.00211   0.00061   2.09808
   R16        2.09734  -0.00000   0.00272  -0.00207   0.00066   2.09800
   R17        2.09385   0.00022   0.00250  -0.00115   0.00135   2.09520
   R18        2.09388   0.00021   0.00249  -0.00117   0.00132   2.09521
   R19        2.07682   0.00061   0.00151   0.00090   0.00241   2.07923
    A1        2.12570  -0.00170   0.00166  -0.00910  -0.00745   2.11825
    A2        2.10047   0.00231  -0.00125   0.01163   0.01038   2.11085
    A3        2.05702  -0.00061  -0.00041  -0.00252  -0.00293   2.05408
    A4        2.12471   0.00283  -0.00022   0.01257   0.01233   2.13704
    A5        2.10054  -0.00110   0.00719  -0.01125  -0.00407   2.09647
    A6        2.05794  -0.00173  -0.00697  -0.00131  -0.00826   2.04968
    A7        2.10576   0.00039   0.00263   0.00071   0.00333   2.10909
    A8        2.08667  -0.00022  -0.00165  -0.00025  -0.00190   2.08477
    A9        2.09075  -0.00017  -0.00098  -0.00045  -0.00143   2.08932
   A10        2.09980   0.00094   0.00304   0.00143   0.00444   2.10424
   A11        2.08808  -0.00074  -0.00152  -0.00268  -0.00418   2.08390
   A12        2.09531  -0.00020  -0.00153   0.00125  -0.00026   2.09504
   A13        2.07306  -0.00100  -0.00281  -0.00233  -0.00514   2.06792
   A14        2.20089   0.00217   0.00464   0.00667   0.01131   2.21220
   A15        2.00923  -0.00117  -0.00183  -0.00434  -0.00617   2.00306
   A16        2.02370  -0.00080  -0.00473  -0.00271  -0.00747   2.01623
   A17        2.13955   0.00030   0.00241   0.00060   0.00302   2.14258
   A18        2.11993   0.00050   0.00232   0.00211   0.00444   2.12438
   A19        1.90986  -0.00032  -0.00483   0.00001  -0.00475   1.90511
   A20        1.97756   0.00034   0.00707  -0.00227   0.00468   1.98224
   A21        1.97729   0.00035   0.00703  -0.00217   0.00473   1.98202
   A22        1.88138  -0.00022  -0.00326  -0.00039  -0.00359   1.87779
   A23        1.88169  -0.00023  -0.00331  -0.00044  -0.00369   1.87800
   A24        1.83079   0.00004  -0.00314   0.00550   0.00209   1.83288
   A25        2.07828  -0.00097   0.00139  -0.00478  -0.00335   2.07493
   A26        1.98982   0.00033   0.00531  -0.00173   0.00351   1.99333
   A27        1.98982   0.00033   0.00535  -0.00175   0.00354   1.99336
   A28        1.92630   0.00032  -0.00145   0.00346   0.00202   1.92832
   A29        1.83588  -0.00035  -0.00369   0.00041  -0.00341   1.83248
   A30        1.85588  -0.00037  -0.00321  -0.00017  -0.00337   1.85252
   A31        1.85590  -0.00037  -0.00321  -0.00019  -0.00338   1.85252
    D1       -3.14130  -0.00000   0.00000  -0.00034  -0.00033   3.14155
    D2        0.00024  -0.00000  -0.00006  -0.00004  -0.00011   0.00013
    D3       -0.00031  -0.00000   0.00002  -0.00004  -0.00002  -0.00033
    D4        3.14123   0.00000  -0.00005   0.00025   0.00020   3.14144
    D5       -0.00198   0.00000  -0.00001   0.00042   0.00041  -0.00157
    D6        2.09795  -0.00028  -0.00274  -0.00157  -0.00443   2.09352
    D7       -2.10213   0.00029   0.00282   0.00240   0.00534  -2.09679
    D8        3.14020  -0.00000  -0.00002   0.00013   0.00010   3.14030
    D9       -1.04306  -0.00028  -0.00275  -0.00186  -0.00474  -1.04779
   D10        1.04005   0.00028   0.00280   0.00211   0.00503   1.04509
   D11       -1.05371  -0.00002  -0.00156   0.00071  -0.00090  -1.05461
   D12        1.05501   0.00002   0.00148  -0.00146   0.00007   1.05507
   D13       -3.14093  -0.00000  -0.00002  -0.00039  -0.00041  -3.14135
   D14        2.08731  -0.00002  -0.00154   0.00099  -0.00060   2.08671
   D15       -2.08716   0.00002   0.00150  -0.00118   0.00036  -2.08680
   D16        0.00008  -0.00000  -0.00001  -0.00011  -0.00012  -0.00003
   D17       -3.14146   0.00000  -0.00006   0.00014   0.00008  -3.14138
   D18        0.00023  -0.00000  -0.00007   0.00004  -0.00002   0.00021
   D19        0.00018  -0.00000   0.00001  -0.00015  -0.00014   0.00005
   D20       -3.14131  -0.00000   0.00000  -0.00024  -0.00024  -3.14155
   D21        3.14144  -0.00000   0.00003  -0.00014  -0.00011   3.14133
   D22       -0.00020   0.00000  -0.00004   0.00014   0.00010  -0.00010
   D23       -0.00005   0.00000   0.00001   0.00008   0.00008   0.00003
   D24        3.14158   0.00000   0.00000   0.00004   0.00004  -3.14157
   D25        3.14144   0.00000   0.00001   0.00017   0.00018  -3.14156
   D26       -0.00012   0.00000   0.00001   0.00013   0.00014   0.00003
   D27       -0.00006  -0.00000   0.00000   0.00001   0.00001  -0.00005
   D28        3.14153   0.00000   0.00001   0.00001   0.00002   3.14155
   D29        3.14150   0.00000   0.00001   0.00005   0.00005   3.14155
   D30       -0.00009   0.00000   0.00001   0.00005   0.00006  -0.00003
   D31       -3.14145  -0.00000   0.00001  -0.00012  -0.00010  -3.14155
   D32        0.00014  -0.00000   0.00001  -0.00012  -0.00011   0.00003
   D33        0.00004  -0.00000  -0.00003  -0.00002  -0.00005  -0.00000
   D34       -3.14155  -0.00000  -0.00004  -0.00002  -0.00006   3.14157
   D35        0.00009  -0.00000   0.00005  -0.00006  -0.00001   0.00008
   D36        3.14159   0.00000   0.00001   0.00004   0.00004  -3.14156
         Item               Value     Threshold  Converged?
 Maximum Force            0.006462     0.000450     NO 
 RMS     Force            0.001355     0.000300     NO 
 Maximum Displacement     0.050172     0.001800     NO 
 RMS     Displacement     0.014488     0.001200     NO 
 Predicted change in Energy=-2.673703D-04
 GradGradGradGradGradGradGradGradGradGradGradGradGradGradGradGradGradGrad

                          Input orientation:                          
 ---------------------------------------------------------------------
 Center     Atomic      Atomic             Coordinates (Angstroms)
 Number     Number       Type             X           Y           Z
 ---------------------------------------------------------------------
      1          6           0        1.575946   -0.010199    0.000015
      2          6           0        0.193850   -0.015014   -0.000124
      3          6           0       -0.593386    1.213920    0.000035
      4          6           0       -1.966426    1.170749    0.000146
      5          1           0       -0.084783    2.174157    0.000068
      6          6           0       -1.828370   -1.206479   -0.000037
      7          6           0       -2.646621   -0.068395    0.000148
      8          1           0       -2.532429    2.105351    0.000244
      9          1           0       -2.306454   -2.195372   -0.000087
     10          1           0       -3.731319   -0.144193    0.000271
     11          6           0        2.361749   -1.289179   -0.000099
     12          1           0        1.669025   -2.136163    0.001324
     13          1           0        3.027139   -1.401425   -0.881761
     14          1           0        3.029311   -1.399966    0.880048
     15          7           0       -0.505552   -1.230368   -0.000215
     16          6           0        2.346484    1.285304   -0.000087
     17          1           0        2.150026    1.931088   -0.879660
     18          1           0        2.150222    1.931148    0.879493
     19          1           0        3.429176    1.089352   -0.000202
 ---------------------------------------------------------------------
                    Distance matrix (angstroms):
                    1          2          3          4          5
     1  C    0.000000
     2  C    1.382105   0.000000
     3  C    2.490878   1.459459   0.000000
     4  C    3.734037   2.464310   1.373718   0.000000
     5  H    2.743981   2.206832   1.086615   2.132465   0.000000
     6  C    3.608386   2.347118   2.717263   2.381233   3.803787
     7  C    4.222968   2.840972   2.420765   1.413557   3.404710
     8  H    4.621071   3.453772   2.134135   1.092630   2.448612
     9  H    4.455110   3.317451   3.815478   3.383251   4.901898
    10  H    5.308956   3.927294   3.419224   2.200891   4.321108
    11  C    1.501092   2.514615   3.872768   4.978388   4.240309
    12  H    2.128001   2.583684   4.042471   4.914486   4.653462
    13  H    2.195221   3.275202   4.552559   5.685906   4.821459
    14  H    2.195036   3.276071   4.553105   5.686844   4.821443
    15  N    2.412767   1.402230   2.445866   2.810607   3.430428
    16  C    1.507335   2.514888   2.940737   4.314432   2.588653
    17  H    2.207258   2.896121   2.968923   4.277540   2.413996
    18  H    2.207285   2.896319   2.969048   4.277645   2.414061
    19  H    2.154872   3.418620   4.024491   5.396216   3.677596
                    6          7          8          9         10
     6  C    0.000000
     7  C    1.401702   0.000000
     8  H    3.385840   2.176744   0.000000
     9  H    1.098396   2.154006   4.306656   0.000000
    10  H    2.179373   1.087344   2.549076   2.497514   0.000000
    11  C    4.190936   5.155006   5.956158   4.755345   6.199716
    12  H    3.618852   4.785443   5.970148   3.975920   5.756012
    13  H    4.938766   5.894597   6.632058   5.463965   6.930755
    14  H    4.940552   5.896059   6.632817   5.466050   6.932323
    15  N    1.323034   2.436053   3.903236   2.043154   3.403726
    16  C    4.861933   5.173355   4.947350   5.810761   6.243650
    17  H    5.142537   5.270656   4.767596   6.136899   6.298514
    18  H    5.142710   5.270780   4.767666   6.137083   6.298618
    19  H    5.736953   6.185118   6.047560   6.609604   7.265970
                   11         12         13         14         15
    11  C    0.000000
    12  H    1.094189   0.000000
    13  H    1.110256   1.778806   0.000000
    14  H    1.110213   1.778910   1.761811   0.000000
    15  N    2.867905   2.355686   3.645036   3.646764   0.000000
    16  C    2.574529   3.487893   2.908462   2.907158   3.802988
    17  H    3.344933   4.189275   3.446008   3.868545   4.221412
    18  H    3.344987   4.188765   3.870018   3.445159   4.221635
    19  H    2.607070   3.674518   2.672592   2.670475   4.567624
                   16         17         18         19
    16  C    0.000000
    17  H    1.108730   0.000000
    18  H    1.108735   1.759154   0.000000
    19  H    1.100281   1.765840   1.765845   0.000000
 Stoichiometry    C8H10N(1-)
 Framework group  C1[X(C8H10N)]
 Deg. of freedom    51
 Full point group                 C1      NOp   1
 Largest Abelian subgroup         C1      NOp   1
 Largest concise Abelian subgroup C1      NOp   1
                         Standard orientation:                         
 ---------------------------------------------------------------------
 Center     Atomic      Atomic             Coordinates (Angstroms)
 Number     Number       Type             X           Y           Z
 ---------------------------------------------------------------------
      1          6           0       -1.577150   -0.010966   -0.000042
      2          6           0       -0.195047   -0.012758    0.000096
      3          6           0        0.589500    1.217895   -0.000062
      4          6           0        1.962631    1.177726   -0.000174
      5          1           0        0.078798    2.177017   -0.000096
      6          6           0        1.829774   -1.199798    0.000010
      7          6           0        2.645534   -0.059928   -0.000175
      8          1           0        2.526588    2.113564   -0.000271
      9          1           0        2.310019   -2.187643    0.000059
     10          1           0        3.730395   -0.133353   -0.000298
     11          6           0       -2.360155   -1.291661    0.000072
     12          1           0       -1.665580   -2.137128   -0.001352
     13          1           0       -3.025297   -1.405362    0.881733
     14          1           0       -3.027473   -1.403908   -0.880076
     15          7           0        0.507011   -1.226580    0.000188
     16          6           0       -2.350520    1.282850    0.000059
     17          1           0       -2.155474    1.929061    0.879633
     18          1           0       -2.155670    1.929121   -0.879521
     19          1           0       -3.432781    1.084530    0.000175
 ---------------------------------------------------------------------
 Rotational constants (GHZ):           3.4361094           1.2246011           0.9130269
 Basis read from rwf:  (5D, 7F)
 Pseudo-potential data read from rwf file.
 There are   155 symmetry adapted cartesian basis functions of A   symmetry.
 There are   146 symmetry adapted basis functions of A   symmetry.
   146 basis functions,   292 primitive gaussians,   155 cartesian basis functions
    33 alpha electrons       33 beta electrons
       nuclear repulsion energy       411.8133214243 Hartrees.
 NAtoms=   19 NActive=   19 NUniq=   19 SFac= 1.00D+00 NAtFMM=   60 NAOKFM=F Big=F
 Integral buffers will be    131072 words long.
 Raffenetti 2 integral format.
 Two-electron integral symmetry is turned on.
 Nuclear repulsion after empirical dispersion term =      411.7810260734 Hartrees.
 One-electron integrals computed using PRISM.
   1 Symmetry operations used in ECPInt.
 ECPInt:  NShTT=    1596 NPrTT=    9922 LenC2=    1568 LenP2D=    6596.
 LDataN:  DoStor=T MaxTD1= 4 Len=   56
 NBasis=   146 RedAO= T EigKep=  9.34D-04  NBF=   146
 NBsUse=   146 1.00D-06 EigRej= -1.00D+00 NBFU=   146
 Initial guess from the checkpoint file:  "/tmp/Gau-79102.chk"
 B after Tr=     0.000000   -0.000000   -0.000000
         Rot=    1.000000    0.000005   -0.000009   -0.000792 Ang=   0.09 deg.
 ExpMin= 1.61D-01 ExpMax= 4.17D+03 ExpMxC= 6.27D+02 IAcc=3 IRadAn=         5 AccDes= 0.00D+00
 Harris functional with IExCor=  402 and IRadAn=       5 diagonalized for initial guess.
 HarFok:  IExCor=  402 AccDes= 0.00D+00 IRadAn=         5 IDoV= 1 UseB2=F ITyADJ=14
 ICtDFT=  3500011 ScaDFX=  1.000000  1.000000  1.000000  1.000000
 FoFCou: FMM=F IPFlag=           0 FMFlag=      100000 FMFlg1=           0
         NFxFlg=           0 DoJE=T BraDBF=F KetDBF=T FulRan=T
         wScrn=  0.000000 ICntrl=       500 IOpCl=  0 I1Cent=   200000004 NGrid=           0
         NMat0=    1 NMatS0=      1 NMatT0=    0 NMatD0=    1 NMtDS0=    0 NMtDT0=    0
 Petite list used in FoFCou.
 Requested convergence on RMS density matrix=1.00D-08 within 128 cycles.
 Requested convergence on MAX density matrix=1.00D-06.
 Requested convergence on             energy=1.00D-06.
 No special actions if energy rises.
 Integral accuracy reduced to 1.0D-05 until final iterations.
 Initial convergence to 1.0D-05 achieved.  Increase integral accuracy.
 SCF Done:  E(RB3LYP) =  -365.628800286     A.U. after   11 cycles
            NFock= 11  Conv=0.75D-08     -V/T= 2.0065
   1 Symmetry operations used in ECPInt.
 ECPInt:  NShTT=    1596 NPrTT=    9922 LenC2=    1568 LenP2D=    6596.
 LDataN:  DoStor=T MaxTD1= 5 Len=  102
 Calling FoFJK, ICntrl=      2127 FMM=F ISym2X=0 I1Cent= 0 IOpClX= 0 NMat=1 NMatS=1 NMatT=0.
 ***** Axes restored to original set *****
 -------------------------------------------------------------------
 Center     Atomic                   Forces (Hartrees/Bohr)
 Number     Number              X              Y              Z
 -------------------------------------------------------------------
      1        6           0.001505611    0.000540648   -0.000010481
      2        6          -0.000813288    0.001336755    0.000023069
      3        6          -0.000126581   -0.000126020   -0.000007632
      4        6          -0.000037588    0.000023657    0.000000798
      5        1           0.000548801    0.000094954   -0.000000127
      6        6           0.000190912    0.000178591   -0.000002066
      7        6          -0.000454084   -0.000361308    0.000000656
      8        1           0.000010040    0.000015179    0.000001103
      9        1          -0.000213629   -0.000161233    0.000000597
     10        1           0.000233202    0.000041638   -0.000001737
     11        6           0.000541192   -0.000870067   -0.000004795
     12        1           0.000311216    0.000094180   -0.000000947
     13        1          -0.000181985    0.000214030    0.000161631
     14        1          -0.000182255    0.000209299   -0.000155472
     15        7          -0.001195625   -0.001065575   -0.000002379
     16        6           0.000218844    0.000181310   -0.000002055
     17        1          -0.000069501   -0.000205969    0.000109160
     18        1          -0.000072949   -0.000208518   -0.000110095
     19        1          -0.000212333    0.000068449    0.000000773
 -------------------------------------------------------------------
 Cartesian Forces:  Max     0.001505611 RMS     0.000420171

 GradGradGradGradGradGradGradGradGradGradGradGradGradGradGradGradGradGrad
 Berny optimization.
 Using GEDIIS/GDIIS optimizer.
 FormGI is forming the generalized inverse of G from B-inverse, IUseBI=4.
 Internal  Forces:  Max     0.001857993 RMS     0.000379435
 Search for a local minimum.
 Step number   3 out of a maximum of  114
 All quantities printed in internal units (Hartrees-Bohrs-Radians)
 Mixed Optimization -- En-DIIS/RFO-DIIS
 Update second derivatives using D2CorX and points    1    2    3
 DE= -2.38D-04 DEPred=-2.67D-04 R= 8.90D-01
 TightC=F SS=  1.41D+00  RLast= 4.60D-02 DXNew= 8.4853D-01 1.3808D-01
 Trust test= 8.90D-01 RLast= 4.60D-02 DXMaxT set to 5.05D-01
 ITU=  1  1  0
 Use linear search instead of GDIIS.
     Eigenvalues ---    0.00734   0.00831   0.01035   0.01743   0.01834
     Eigenvalues ---    0.01930   0.02035   0.02091   0.02152   0.02200
     Eigenvalues ---    0.02246   0.02379   0.06634   0.06930   0.07026
     Eigenvalues ---    0.07250   0.15638   0.16000   0.16000   0.16000
     Eigenvalues ---    0.16000   0.16000   0.16000   0.16000   0.16042
     Eigenvalues ---    0.16679   0.20278   0.22178   0.24214   0.24936
     Eigenvalues ---    0.25048   0.27504   0.32094   0.33548   0.33602
     Eigenvalues ---    0.33682   0.33723   0.33850   0.34299   0.34422
     Eigenvalues ---    0.34957   0.35117   0.35361   0.35677   0.37173
     Eigenvalues ---    0.41931   0.44022   0.44278   0.45804   0.50793
     Eigenvalues ---    0.58984
 RFO step:  Lambda=-2.70551566D-05 EMin= 7.33713238D-03
 Quartic linear search produced a step of -0.10531.
 Iteration  1 RMS(Cart)=  0.00604445 RMS(Int)=  0.00001012
 Iteration  2 RMS(Cart)=  0.00001444 RMS(Int)=  0.00000036
 Iteration  3 RMS(Cart)=  0.00000000 RMS(Int)=  0.00000036
 Variable       Old X    -DE/DX   Delta X   Delta X   Delta X     New X
                                 (Linear)    (Quad)   (Total)
    R1        2.61180   0.00186   0.00215   0.00119   0.00334   2.61514
    R2        2.83665   0.00056   0.00079   0.00037   0.00116   2.83781
    R3        2.84845  -0.00021   0.00040  -0.00118  -0.00078   2.84767
    R4        2.75798  -0.00031  -0.00154   0.00138  -0.00016   2.75781
    R5        2.64983   0.00158  -0.00135   0.00460   0.00325   2.65308
    R6        2.59595   0.00024   0.00118  -0.00121  -0.00003   2.59593
    R7        2.05340   0.00034  -0.00005   0.00093   0.00088   2.05428
    R8        2.67124   0.00033  -0.00054   0.00127   0.00074   2.67197
    R9        2.06477   0.00001  -0.00023   0.00032   0.00009   2.06486
   R10        2.64883  -0.00004   0.00031  -0.00054  -0.00023   2.64860
   R11        2.07567   0.00024  -0.00044   0.00120   0.00076   2.07643
   R12        2.50017   0.00004   0.00052  -0.00065  -0.00013   2.50004
   R13        2.05478  -0.00024   0.00033  -0.00108  -0.00075   2.05403
   R14        2.06772  -0.00027  -0.00043  -0.00011  -0.00054   2.06718
   R15        2.09808  -0.00026  -0.00006  -0.00065  -0.00071   2.09737
   R16        2.09800  -0.00025  -0.00007  -0.00063  -0.00070   2.09730
   R17        2.09520  -0.00019  -0.00014  -0.00036  -0.00050   2.09469
   R18        2.09521  -0.00020  -0.00014  -0.00037  -0.00051   2.09470
   R19        2.07923  -0.00022  -0.00025  -0.00025  -0.00050   2.07873
    A1        2.11825   0.00116   0.00078   0.00305   0.00383   2.12208
    A2        2.11085  -0.00082  -0.00109  -0.00141  -0.00250   2.10835
    A3        2.05408  -0.00034   0.00031  -0.00164  -0.00133   2.05275
    A4        2.13704  -0.00089  -0.00130  -0.00146  -0.00276   2.13428
    A5        2.09647   0.00114   0.00043   0.00330   0.00373   2.10020
[...]
 1348371,-0.02439883,0.00002899,0.72913854,0.00052414,-0.01241228,0.000
 00101,0.03762969,0.03001615,-0.00000067,0.01594435,-0.11511775,-0.0000
 0578,-0.02653130,0.67752879,-0.00000169,0.00000018,0.00149268,0.000002
 68,-0.00000345,0.00129595,0.00003281,0.00000039,-0.04836263,-0.0000522
 1,0.00000983,0.12510878,0.00006986,-0.00042721,-0.00000011,0.01175592,
 0.01167142,-0.00000044,-0.11728019,-0.11185559,0.00000610,-0.01262055,
 -0.03166449,0.00000016,0.12818898,0.00027849,-0.00064987,0.00000069,-0
 .01885895,-0.01628199,0.00000106,-0.11158745,-0.27095484,0.00000406,0.
 00084958,0.00021664,-0.00000014,0.12503849,0.28638234,-0.00000020,0.00
 000021,-0.00047571,-0.00000059,-0.00000247,0.00191765,0.00000521,0.000
 00442,-0.02442774,0.00000134,0.00000317,-0.00066214,-0.00000622,-0.000
 00428,0.01909181,0.00622304,0.00840966,0.00000413,-0.04393934,-0.05652
 900,0.00000341,-0.03343355,0.00420303,0.00000443,0.05077600,0.02983400
 ,-0.00000276,-0.00181258,0.00337219,0.00000028,0.71665117,0.00573413,-
 0.01122294,-0.00000055,-0.04972974,0.01084988,0.00000455,0.02077727,-0
 .00615640,-0.00000239,-0.01758649,-0.06520481,-0.00000056,0.00087415,-
 0.00006382,-0.00000007,0.01232870,0.70090317,-0.00000156,0.00000026,0.
 00332464,0.00000101,0.00000482,-0.00420830,0.00000351,0.00000067,-0.00
 498071,-0.00000480,-0.00000577,0.00492118,0.00000027,-0.00000032,0.000
 68527,-0.00005307,0.00002227,0.14874104,-0.00793833,-0.00206117,-0.000
 00421,0.00586963,0.00962788,-0.00000075,-0.02661643,-0.03314103,0.0000
 0347,-0.16145695,-0.10924024,0.00000819,-0.00454956,0.00009285,0.00000
 121,-0.17976394,0.11916747,0.00001501,0.72970610,-0.00485875,0.0103675
 7,-0.00000130,-0.00209512,-0.04543101,-0.00000144,-0.06125974,0.005300
 53,0.00000829,-0.05288804,-0.25953426,0.00000256,0.00228222,0.00390222
 ,-0.00000051,0.05918131,-0.25501944,-0.00001291,0.00387574,0.61672581,
 0.00000149,0.00000029,-0.00093012,-0.00000165,-0.00000309,-0.01020692,
 0.00000195,0.00000338,0.01102058,0.00000859,0.00000599,-0.04610879,0.0
 0000100,-0.00000010,0.00812339,0.00001029,-0.00001711,-0.05272918,-0.0
 0005608,0.00001490,0.06806857,0.00013716,0.00190063,0.00000023,-0.0051
 7491,-0.00373695,0.00000095,-0.01273025,0.03180786,0.00000190,-0.12758
 378,0.11121848,0.00000919,0.00120003,-0.00071945,-0.00000054,-0.000870
 66,-0.00307474,0.00000065,0.01178305,-0.01194216,-0.00000103,0.1327938
 1,0.00067771,-0.00034462,0.00000032,-0.00124986,0.00232373,0.00000005,
 -0.00077322,0.00165061,0.00000008,0.11232460,-0.24971922,-0.00001160,0
 .00047465,0.00161841,0.,-0.00614374,-0.00353342,0.00000045,0.01978304,
 -0.01886076,-0.00000193,-0.12543353,0.26651589,0.00000005,-0.00000029,
 0.00020652,0.00000116,0.00000006,0.01042345,0.00000132,-0.00000290,0.0
 0319530,0.00000867,-0.00001105,-0.03539862,-0.00000060,0.00000015,-0.0
 0556271,0.00000114,-0.00000029,0.00627668,-0.00000071,0.00000115,0.002
 24311,-0.00001067,0.00001303,0.02466797,0.00010849,-0.00138755,-0.0000
 0007,-0.00301179,0.00013924,0.00000133,-0.00116246,-0.00004309,0.00000
 008,-0.00128599,0.00285678,0.00000090,0.00027314,-0.00041752,-0.000000
 28,-0.08900617,-0.08348607,0.00000053,0.01142657,0.01400056,0.00000007
 ,0.00045395,0.00097687,-0.00000007,0.11406464,-0.00073217,-0.00027590,
 -0.00000040,0.00277279,0.00280789,-0.00000089,-0.00012199,0.00104839,0
 .,0.00620260,-0.00285042,-0.00000089,-0.00013701,-0.00016565,0.0000000
 9,-0.08028988,-0.26264491,-0.00000444,-0.01603056,-0.02199232,-0.00000
 016,-0.00078948,-0.00177424,0.00000016,0.10030157,0.27891017,-0.000000
 17,0.00000062,0.00043160,0.00000163,0.00000033,0.01133494,0.00000068,-
 0.00000066,0.00000801,0.00000051,-0.00000079,0.00661614,-0.00000015,0.
 00000008,-0.00193490,0.00000035,-0.00000505,-0.03982172,-0.00000135,-0
 .00000193,0.00549167,-0.00000014,-0.00000019,-0.00016068,-0.00000362,0
 .00000391,0.02598470,-0.00040056,0.00005475,-0.00000014,0.00205721,0.0
 0056877,-0.00000027,0.00104244,-0.00295318,-0.00000008,-0.01082730,0.0
 0373170,0.00000021,-0.00071546,0.00014572,0.00000032,-0.01488197,-0.00
 846723,0.00000006,-0.32990577,-0.01787167,0.00002300,0.00097659,-0.000
 86188,-0.00000019,0.00066898,0.00096572,-0.00000017,0.35307788,0.00004
 621,0.00035106,-0.00000007,-0.00032465,-0.00173945,0.00000008,-0.00033
 175,-0.00500626,-0.00000017,-0.02989708,0.00372234,0.00000231,-0.00158
 506,-0.00003884,0.00000018,0.02816014,0.00818872,-0.00000129,-0.018109
 23,-0.05877588,-0.00000007,0.00090827,0.00120640,-0.00000005,-0.000964
 00,0.00080850,0.00000017,0.02025804,0.05544246,0.00000028,-0.00000069,
 -0.00021823,-0.00000038,0.00000020,-0.00054249,0.,0.00000009,0.0037603
 5,0.00000050,0.00000030,-0.00574717,0.00000038,-0.00000001,0.00217194,
 0.00000222,0.00000047,-0.00739072,0.00002094,0.00000003,-0.00914359,-0
 .00000026,0.00000008,-0.00236997,-0.00000025,0.00000009,-0.00248418,-0
 .00002378,-0.00000033,0.01433080,-0.11885900,0.05347263,0.00001015,-0.
 02451336,0.03020845,0.00000544,-0.00215341,-0.00475745,0.00000148,-0.0
 0141549,0.00150857,0.00000041,0.00010312,0.00030827,-0.00000027,-0.001
 57866,0.00142816,-0.00000087,0.00107839,-0.00023968,0.00000028,-0.0004
 3215,-0.00006562,-0.00000003,0.00012127,0.00012511,-0.00000019,0.00002
 316,0.00006077,0.00000011,0.53559628,0.05082681,-0.17429818,-0.0000226
 9,0.02044629,0.00251931,-0.00000334,-0.00579548,0.00389356,0.00000145,
 0.00351115,0.00182710,-0.00000007,-0.00003825,0.00046443,-0.00000034,0
 .00050509,0.00016474,-0.00000310,-0.00205460,-0.00207433,-0.00000013,-
 0.00023194,0.00031241,-0.00000011,-0.00011154,-0.00021577,-0.00000013,
 -0.00009030,-0.00011074,0.00000091,0.05485016,0.50765339,0.00000814,0.
 00000096,-0.05845712,-0.00000624,-0.00000322,0.00062057,0.00000134,-0.
 00000020,0.00732656,-0.00000308,-0.00000312,0.00194048,0.,-0.00000054,
 -0.00094211,0.00000200,0.00000206,-0.00042965,-0.00000007,0.00000309,0
 .00027501,-0.00000024,0.00000005,-0.00093223,-0.00000015,-0.00000043,0
 .00021165,-0.00000036,0.00000026,-0.00015178,0.00001653,-0.00003715,0.
 48814234,0.01236754,0.01128214,-0.00001891,0.00126752,-0.00018791,-0.0
 0000139,-0.00083668,0.00016523,0.00000110,0.00106390,0.00062988,0.0000
 0010,0.00000084,-0.00028017,0.00000021,-0.00116569,-0.00071361,0.00000
 325,0.00024422,-0.00110607,-0.00000016,0.00008292,-0.00007277,-0.00000
 004,0.00011762,0.00018079,0.00000052,0.00017092,-0.00014168,-0.0000010
 9,-0.15260518,-0.13483490,0.00016646,0.16615364,-0.01677027,-0.0233223
 2,0.00001992,-0.00333005,-0.00095164,-0.00000303,0.00103924,-0.0008069
 4,0.,-0.00137281,-0.00073597,0.,-0.00002388,0.00017394,0.00000028,0.00
 083928,0.00078030,0.00000022,-0.00003037,0.00119733,0.00000040,-0.0000
 2574,0.00000661,0.00000002,-0.00003142,-0.00010306,-0.00000021,-0.0001
 3301,0.00014966,-0.00000007,-0.12943791,-0.20913713,0.00020382,0.14312
 278,0.23057210,-0.00000408,-0.00000661,0.00004148,0.00000296,0.0000011
 0,0.00045783,-0.00000115,0.00000012,0.00006226,0.00000069,0.00000014,-
 0.00001146,0.00000003,-0.00000019,-0.00004853,0.00000134,-0.00000259,-
 0.00027665,-0.00000064,0.00000052,0.00003819,-0.00000002,-0.00000003,-
 0.00003259,0.00000010,0.00000024,-0.00009127,0.00000027,-0.00000025,0.
 00013070,0.00016065,0.00020939,-0.05135998,-0.00019138,-0.00021734,0.0
 5057915,-0.01709148,0.00778949,0.00998929,0.00484083,0.00258488,0.0028
 5502,-0.00210197,0.00082777,-0.00089295,0.00116500,0.00082300,-0.00031
 915,0.00005571,0.00018627,0.00017724,0.00065641,0.00049726,0.00046552,
 -0.00092202,-0.00065708,0.00004619,-0.00014560,0.00015290,0.00012676,-
 0.00017293,-0.00023621,0.00002176,-0.00015515,0.00000532,-0.00015890,-
 0.12110336,0.00192271,0.10445978,-0.01136014,0.00258054,0.01778853,0.1
 3621985,0.02418284,-0.00574732,-0.01920247,-0.00497869,-0.00372591,-0.
 00225688,0.00269335,-0.00094935,0.00165517,-0.00165022,-0.00118381,0.0
 0052576,-0.00002823,-0.00017427,-0.00024891,-0.00025162,-0.00002281,0.
 00030810,0.00085689,0.00111310,0.00010323,0.00011434,-0.00012731,-0.00
 019951,0.00008101,0.00011643,0.00003515,0.00003996,0.00005161,-0.00013
 895,0.00652589,-0.04700620,-0.01336855,-0.01215966,0.00308870,0.022556
 27,-0.01360891,0.04964285,0.00312805,-0.00460406,0.00861855,-0.0035563
 4,-0.00047581,-0.00091199,0.00093173,-0.00062888,-0.00021409,-0.000755
 24,-0.00037973,0.00006072,-0.00001037,-0.00012446,-0.00001792,-0.00063
 177,-0.00008944,-0.00010362,0.00060344,0.00029998,0.00000009,0.0000428
 6,-0.00008233,0.00000179,0.00007898,0.00012150,-0.00000984,0.00007500,
 0.00000414,0.00003628,0.10257325,-0.00780025,-0.19061816,-0.00059832,0
 .00106494,0.00018483,-0.11760087,0.01198889,0.21074088,-0.01711249,0.0
 0776387,-0.00996639,0.00483241,0.00258661,-0.00286024,-0.00209973,0.00
 082503,0.00089160,0.00116105,0.00082041,0.00031890,0.00005577,0.000186
 57,-0.00017724,0.00066099,0.00049669,-0.00046626,-0.00092260,-0.000652
 24,-0.00004555,-0.00014589,0.00015294,-0.00012657,-0.00017297,-0.00023
 635,-0.00002192,-0.00015528,0.00000549,0.00015906,-0.12153490,0.001832
 31,-0.10462885,-0.01138280,0.00256922,-0.01775766,0.01097488,-0.001324
 70,0.01501421,0.13670378,0.02420378,-0.00571134,0.01918071,-0.00495875
 ,-0.00373530,0.00225705,0.00269055,-0.00094331,-0.00165498,-0.00164670
 ,-0.00118404,-0.00052558,-0.00002814,-0.00017382,0.00024889,-0.0002471
 3,-0.00002190,-0.00030813,0.00085269,0.00111279,-0.00010333,0.00011447
 ,-0.00012696,0.00019937,0.00008070,0.00011579,-0.00003520,0.00003967,0
 .00005166,0.00013907,0.00643607,-0.04699206,0.01318836,-0.01219482,0.0
 0307022,-0.02253510,-0.00134146,0.00038602,0.00051778,-0.01349992,0.04
 961592,-0.00310010,0.00458333,0.00859953,0.00354373,0.00047718,-0.0009
 1213,-0.00092751,0.00062494,-0.00021241,0.00075285,0.00037982,0.000060
 66,0.00001029,0.00012440,-0.00001783,0.00062926,0.00008801,-0.00010211
 ,-0.00060058,-0.00029957,0.00000044,-0.00004271,0.00008202,0.00000167,
 -0.00007866,-0.00012091,-0.00000972,-0.00007465,-0.00000418,0.00003572
 ,-0.10276002,0.00764898,-0.19029007,0.00064027,-0.00107312,0.00024919,
 -0.01508871,-0.00054654,-0.02810807,0.11779270,-0.01177823,0.21036458,
 -0.03476694,-0.04814958,-0.00000494,-0.13787465,-0.05015413,-0.0000012
 0,0.04371211,-0.00766935,-0.00000562,-0.03684200,-0.03426818,0.0000017
 4,-0.00003048,0.00317735,0.00000004,-0.41030945,0.00609741,0.00003758,
 -0.04930985,0.06936081,0.00001173,-0.00028441,0.00014894,-0.00000026,-
 0.03186258,-0.01193927,0.00000213,-0.00090926,0.00187454,0.00000119,-0
 .00064681,-0.00216112,-0.00000884,-0.00303760,-0.00198156,-0.00000054,
 -0.00136693,-0.00009102,0.00085892,-0.00137377,-0.00010224,-0.00085119
 ,0.67158008,-0.03274392,-0.00058411,-0.00000628,-0.03610867,-0.2106729
 3,-0.00000735,-0.00409584,-0.04220986,-0.00000321,-0.00799572,-0.00396
 449,0.00000064,0.00440066,-0.00563295,-0.00000058,-0.00779418,-0.11428
 106,0.00000023,0.02661895,0.01769481,-0.00000243,-0.00004206,0.0008959
 7,0.00000029,-0.03202630,0.00618965,0.00000390,0.00454547,-0.00443789,
 -0.00000114,0.00305613,-0.00679084,0.00000458,0.00218239,0.00151664,-0
 .00000083,-0.00151792,0.00237364,0.00098691,-0.00151274,0.00236887,-0.
 00098347,0.07963754,0.35738642,-0.00000338,0.00000060,0.00898841,0.000
 00422,-0.00000178,-0.06187552,-0.00000392,-0.00000249,0.01088718,0.000
 00414,0.00000679,-0.00524790,-0.00000010,-0.00000034,0.00216515,0.0000
 3032,0.00000039,-0.05592934,0.00001184,-0.00001235,0.02412156,-0.00000
 022,0.00000004,-0.00290929,0.00000116,0.00000202,-0.00514702,0.0000007
 9,-0.00000075,0.00788232,-0.00000155,0.00000558,-0.00297403,-0.0000017
 7,-0.00000286,-0.00122817,-0.00080649,-0.00155762,0.00006712,0.0008045
 9,0.00155575,0.00006488,-0.00004112,0.00000677,0.07492313,-0.11223419,
 -0.05457138,0.00000486,-0.02421915,-0.03038124,0.00000384,0.00127341,-
 0.00193309,-0.00000082,-0.00261396,-0.00226430,0.00000028,-0.00250955,
 -0.00142798,-0.00000022,-0.00258826,-0.00166303,-0.00000055,0.00204343
 ,0.00118956,-0.00000032,0.00010187,-0.00016371,0.00000004,-0.00038527,
 0.00012095,0.00000005,0.00001456,-0.00000108,0.00000013,0.00906140,0.0
 0916556,-0.00000277,-0.00152060,0.00300864,-0.00000062,-0.00064759,0.0
 0089831,0.00092191,-0.00064805,0.00090080,-0.00092283,-0.00182262,0.00
 513865,0.00000081,0.53911149,-0.03908061,-0.17216083,-0.00000103,-0.01
 908575,-0.00215712,0.00000259,0.01010137,-0.00080298,-0.00000139,-0.00
 546928,-0.00333802,0.00000056,0.00078155,-0.00115448,0.00000015,-0.000
 45940,-0.00209268,-0.00000083,0.00320478,0.00413481,-0.00000050,0.0001
 7956,-0.00040269,-0.00000001,0.00036167,0.00044568,-0.00000008,0.00018
 917,-0.00001322,0.00000018,-0.01382661,-0.02915319,0.00000724,0.003368
 54,-0.00419291,-0.00000220,-0.00155970,0.00190183,0.00035803,-0.001563
 17,0.00190187,-0.00035810,0.00474241,0.00601642,0.00000106,-0.03702162
 ,0.48187949,0.00000311,-0.00000240,-0.06250965,-0.00000311,-0.00000047
 ,-0.00312064,-0.00000103,0.00000036,-0.00425920,0.00000001,-0.00000068
 ,0.00030729,-0.00000010,-0.00000054,0.00101835,-0.00000103,0.00000030,
 0.00215895,-0.00000005,-0.00000027,-0.00017236,0.00000003,0.00000002,0
 .00037442,-0.00000007,0.00000003,-0.00042417,-0.00000010,-0.00000001,-
 0.00046450,-0.00000897,-0.00000031,-0.00149165,0.00000135,0.00000625,0
 .00170390,-0.00153646,0.00036239,0.00125227,0.00154584,-0.00036082,0.0
 0125354,-0.00000042,0.00000111,0.00628169,0.00000305,0.00000182,0.4919
 3878,0.00295877,-0.01010461,0.01257687,0.00277231,-0.00064306,0.000894
 54,0.00121804,0.00117858,0.00011506,-0.00128203,-0.00080934,-0.0008938
 2,-0.00106387,0.00006975,0.00115802,0.00219896,-0.00120154,-0.00035287
 ,-0.00025517,0.00199689,0.00000982,-0.00003809,-0.00000954,-0.00007194
 ,0.00001221,-0.00001461,0.00006597,0.00001173,0.00003577,0.00029771,-0
 .00093184,-0.00033339,0.00113922,0.00023060,-0.00020458,0.00003095,0.0
 0034502,0.00028480,-0.00023089,0.00003628,-0.00063344,0.00022019,-0.00
 190362,-0.00082575,-0.00076833,-0.05699253,0.02463879,-0.03571546,0.05
 739235,-0.00392889,-0.02326280,0.01720981,0.00866307,0.00034182,-0.000
 51679,-0.00240438,0.00129459,-0.00013632,0.00135705,0.00085930,0.00009
 966,-0.00000708,0.00091213,0.00023148,0.00224465,-0.00000718,-0.000235
 87,-0.00169148,-0.00015045,0.00007777,-0.00010186,0.00017903,-0.000000
 25,-0.00009984,-0.00020025,0.00006385,-0.00008779,0.00004374,-0.000058
 61,-0.00415184,-0.00099196,0.00250028,0.00037954,-0.00083707,-0.000287
 21,0.00072940,0.00006719,-0.00052409,0.00062986,0.00032417,0.00026313,
 -0.00321894,-0.00286738,-0.00068198,0.03045499,-0.11197168,0.10203087,
 -0.02725283,0.13052177,0.00661763,0.00372276,0.00905078,-0.00418466,0.
 00027057,0.00169485,0.00167333,0.00038720,-0.00022317,-0.00106306,-0.0
 0095016,-0.00021477,-0.00002558,-0.00098513,-0.00037185,-0.00098184,-0
 .00007551,-0.00007678,0.00086657,0.00036419,-0.00001822,0.00005611,-0.
 00008426,-0.00001844,0.00005628,0.00008879,0.00002773,0.00001901,-0.00
 005797,0.00008834,0.00090479,-0.00065214,-0.00109524,-0.00001851,-0.00
 008986,-0.00013166,-0.00005084,-0.00002467,-0.00027094,-0.00042826,0.0
 0001327,-0.00039470,0.00170118,0.00129068,-0.00030390,-0.03932442,0.09
 663022,-0.19285506,0.04221861,-0.11194759,0.21219495,0.00296830,-0.010
 10601,-0.01257569,0.00276780,-0.00064259,-0.00089438,0.00121803,0.0011
 7812,-0.00011566,-0.00128276,-0.00080999,0.00089435,-0.00106540,0.0000
 6925,-0.00115848,0.00219799,-0.00120146,0.00035235,-0.00025444,0.00199
 714,-0.00000967,-0.00003803,-0.00000964,0.00007196,0.00001226,-0.00001
 449,-0.00006593,0.00001169,0.00003577,-0.00029786,-0.00093423,-0.00033
 251,-0.00114064,0.00022997,-0.00020391,-0.00003045,0.00003616,-0.00063
 311,-0.00021957,0.00034656,0.00028544,0.00023120,-0.00190239,-0.000824
 15,0.00076878,-0.05700661,0.02465757,0.03573271,0.00168825,-0.00350943
 ,-0.00735030,0.05740572,-0.00392464,-0.02326850,-0.01720415,0.00866189
 ,0.00034180,0.00051842,-0.00240364,0.00129392,0.00013713,0.00135669,0.
 00085927,-0.00009988,-0.00000677,0.00091271,-0.00023160,0.00224478,-0.
 00000733,0.00023571,-0.00169145,-0.00015007,-0.00007715,-0.00010186,0.
 00017900,0.00000022,-0.00009984,-0.00020021,-0.00006380,-0.00008774,0.
 00004378,0.00005846,-0.00415281,-0.00099283,-0.00249518,0.00037987,-0.
 00083344,0.00028467,0.00063181,0.00032193,-0.00026480,0.00072959,0.000
 06728,0.00052301,-0.00321932,-0.00286673,0.00068098,0.03047498,-0.1120
 0297,-0.10204135,-0.00351046,0.00981024,0.01344061,-0.02727659,0.13055
 735,-0.00661382,-0.00371739,0.00905055,0.00418228,-0.00027070,0.001694
 97,-0.00167313,-0.00038852,-0.00022302,0.00106312,0.00095060,-0.000214
 83,0.00002539,0.00098543,-0.00037172,0.00098107,0.00007563,-0.00007674
 ,-0.00086620,-0.00036457,-0.00001791,-0.00005607,0.00008420,-0.0000184
 2,-0.00005623,-0.00008871,0.00002777,-0.00001892,0.00005799,0.00008818
 ,-0.00090294,0.00065303,-0.00109378,0.00001803,0.00009082,-0.00013224,
 0.00042756,-0.00001455,-0.00039516,0.00005023,0.00002468,-0.00027107,-
 0.00170024,-0.00128974,-0.00030430,0.03933785,-0.09664168,-0.19281636,
 0.00735570,-0.01344697,-0.02766558,-0.04223812,0.11195597,0.21215080,-
 0.01783124,0.00419430,-0.00000102,0.00059103,-0.00362179,-0.00000168,0
 .00002789,0.00019975,0.00000006,0.00044687,0.00006684,-0.00000029,-0.0
 0005571,-0.00048328,0.00000017,-0.00001427,-0.00027734,0.00000024,-0.0
 0025633,-0.00031369,0.00000004,-0.00008563,0.00009187,-0.00000001,-0.0
 0019896,-0.00012755,0.00000004,-0.00010443,-0.00003580,0.00000001,0.00
 072477,0.00292394,-0.00000223,-0.00002102,0.00038580,0.00000101,0.0007
 7331,-0.00095125,-0.00062498,0.00077675,-0.00095157,0.00062647,-0.0010
 4882,-0.00009254,0.00000024,-0.28841779,0.04584075,-0.00001930,-0.0063
 9738,0.00199583,-0.00068605,-0.00639887,0.00199551,0.00068446,0.317489
 84,-0.02931548,0.00503413,-0.00000077,-0.00024827,-0.00478920,0.000000
 47,0.00054137,-0.00103636,-0.00000020,-0.00031955,0.00021547,0.0000002
 8,0.00027859,0.00070773,-0.00000012,0.00039211,-0.00060809,-0.00000010
 ,-0.00003018,0.00043954,0.00000003,-0.00004385,0.00000116,0.00000003,-
 0.00013123,-0.00001976,0.00000003,0.00001382,0.00006235,-0.00000010,-0
 .00134829,0.00092829,-0.00000232,0.00000043,0.00036498,-0.00000012,0.0
 0018992,-0.00012633,-0.00036831,0.00019052,-0.00012588,0.00036931,-0.0
 0208428,-0.00013418,0.00000021,0.04807500,-0.05683733,0.00000372,0.017
 33856,-0.00406523,-0.00134100,0.01734059,-0.00406518,0.00134448,-0.050
 83977,0.06405388,-0.00000003,-0.00000052,-0.00114261,0.00000054,0.0000
 0005,-0.00003881,0.00000031,-0.00000010,0.00038880,-0.00000005,0.00000
 008,0.00016444,0.00000005,0.00000019,-0.00034040,0.00000023,-0.0000001
 2,0.00001778,-0.00000004,0.00000015,-0.00005551,-0.00000002,0.,0.00001
 205,-0.00000002,0.,-0.00005073,0.,0.00000001,-0.00001202,0.00000175,0.
 00000041,0.00131921,0.00000027,-0.00000018,-0.00013497,0.00009673,0.00
 002369,-0.00031273,-0.00009820,-0.00002357,-0.00031210,-0.00000014,-0.
 00000010,0.00053804,-0.00002027,0.00000398,-0.04817561,-0.02804935,0.0
 0535883,0.00058367,0.02804542,-0.00535725,0.00058885,0.00002282,-0.000
 00553,0.04696265\\0.00009496,0.00004981,0.00000337,-0.00002458,-0.0002
 5742,-0.00001009,-0.00003381,0.00006883,0.00000188,0.00004214,0.000009
 12,0.00000027,-0.00000443,0.00002870,0.00000053,-0.00002503,-0.0000034
 7,0.00000248,-0.00003982,-0.00003650,-0.00000057,0.00000141,0.00001191
 ,-0.00000049,0.00000725,-0.00000995,-0.00000067,0.00000961,-0.00000211
 ,0.00000020,-0.00004937,0.00005332,0.00000387,0.00000179,-0.00002609,-
 0.00000053,0.00001505,-0.00001775,-0.00000461,0.00001607,-0.00001338,0
 .00000129,0.00002741,0.00015199,0.00000088,-0.00004575,-0.00004980,0.0
 0000094,0.00000338,0.00001677,-0.00000187,0.00000542,0.00001810,0.0000
 0356,-0.00000169,0.00000793,-0.00000044\\\@
 The archive entry for this job was punched.


 HAPPINESS IS NOT HAVING WHAT YOU WANT --
 HAPPINESS IS WANTING WHAT YOU HAVE!

              -- FROM MRS. SEVERN'S DESK
 Job cpu time:       0 days  0 hours  9 minutes 43.7 seconds.
 Elapsed time:       0 days  0 hours  0 minutes 18.6 seconds.
 File lengths (MBytes):  RWF=     54 Int=      0 D2E=      0 Chk=      3 Scr=      1
 Normal termination of Gaussian 16 at Mon Nov 11 15:43:19 2024.
