 Entering Gaussian System, Link 0=g16
 Initial command:
 /public/software/apps/Gaussian/g16/l1.exe "/tmp/Gau-58493.inp" -scrdir="/tmp/"
 Entering Link 1 = /public/software/apps/Gaussian/g16/l1.exe PID=     58494.
  
 Copyright (c) 1988-2019, Gaussian, Inc.  All Rights Reserved.
  
 This is part of the Gaussian(R) 16 program.  It is based on
 the Gaussian(R) 09 system (copyright 2009, Gaussian, Inc.),
 the Gaussian(R) 03 system (copyright 2003, Gaussian, Inc.),
 the Gaussian(R) 98 system (copyright 1998, Gaussian, Inc.),
 the Gaussian(R) 94 system (copyright 1995, Gaussian, Inc.),
 the Gaussian 92(TM) system (copyright 1992, Gaussian, Inc.),
 the Gaussian 90(TM) system (copyright 1990, Gaussian, Inc.),
 the Gaussian 88(TM) system (copyright 1988, Gaussian, Inc.),
 the Gaussian 86(TM) system (copyright 1986, Carnegie Mellon
 University), and the Gaussian 82(TM) system (copyright 1983,
 Carnegie Mellon University). Gaussian is a federally registered
 trademark of Gaussian, Inc.
  
 This software contains proprietary and confidential information,
 including trade secrets, belonging to Gaussian, Inc.
  
 This software is provided under written license and may be
 used, copied, transmitted, or stored only in accord with that
 written license.
  
 The following legend is applicable only to US Government
 contracts under FAR:
  
                    RESTRICTED RIGHTS LEGEND
  
 Use, reproduction and disclosure by the US Government is
 subject to restrictions as set forth in subparagraphs (a)
 and (c) of the Commercial Computer Software - Restricted
 Rights clause in FAR 52.227-19.
  
 Gaussian, Inc.
 340 Quinnipiac St., Bldg. 40, Wallingford CT 06492
  
  
 ---------------------------------------------------------------
 Warning -- This program may not be used in any manner that
 competes with the business of Gaussian, Inc. or will provide
 assistance to any competitor of Gaussian, Inc.  The licensee
 of this program is prohibited from giving any competitor of
 Gaussian, Inc. access to this program.  By using this program,
 the user acknowledges that Gaussian, Inc. is engaged in the
 business of creating and licensing software in the field of
 computational chemistry and represents and warrants to the
 licensee that it is not a competitor of Gaussian, Inc. and that
 it will not use this program in any manner prohibited above.
 ---------------------------------------------------------------
  

 Cite this work as:
 Gaussian 16, Revision C.01,
 M. J. Frisch, G. W. Trucks, H. B. Schlegel, G. E. Scuseria, 
 M. A. Robb, J. R. Cheeseman, G. Scalmani, V. Barone, 
 G. A. Petersson, H. Nakatsuji, X. Li, M. Caricato, A. V. Marenich, 
 J. Bloino, B. G. Janesko, R. Gomperts, B. Mennucci, H. P. Hratchian, 
 J. V. Ortiz, A. F. Izmaylov, J. L. Sonnenberg, D. Williams-Young, 
 F. Ding, F. Lipparini, F. Egidi, J. Goings, B. Peng, A. Petrone, 
 T. Henderson, D. Ranasinghe, V. G. Zakrzewski, J. Gao, N. Rega, 
 G. Zheng, W. Liang, M. Hada, M. Ehara, K. Toyota, R. Fukuda, 
 J. Hasegawa, M. Ishida, T. Nakajima, Y. Honda, O. Kitao, H. Nakai, 
 T. Vreven, K. Throssell, J. A. Montgomery, Jr., J. E. Peralta, 
 F. Ogliaro, M. J. Bearpark, J. J. Heyd, E. N. Brothers, K. N. Kudin, 
 V. N. Staroverov, T. A. Keith, R. Kobayashi, J. Normand, 
 K. Raghavachari, A. P. Rendell, J. C. Burant, S. S. Iyengar, 
 J. Tomasi, M. Cossi, J. M. Millam, M. Klene, C. Adamo, R. Cammi, 
 J. W. Ochterski, R. L. Martin, K. Morokuma, O. Farkas, 
 J. B. Foresman, and D. J. Fox, Gaussian, Inc., Wallingford CT, 2019.
 
 ******************************************
 Gaussian 16:  ES64L-G16RevC.01  3-Jul-2019
                11-Nov-2024 
 ******************************************
 %nprocshared=32
 Will use up to   32 processors via shared memory.
 %mem=80GB
 --------------------------------------------------------------
 # opt=maxcycle=150 freq b3lyp/genecp empiricaldispersion=gd3bj
 --------------------------------------------------------------
 1/6=150,18=20,19=15,26=3,38=1/1,3;
 2/9=110,12=2,17=6,18=5,40=1/2;
 3/5=7,11=2,16=1,17=8,25=1,30=1,71=1,74=-5,124=41/1,2,3;
 4//1;
 5/5=2,38=5/2;
 6/7=2,8=2,9=2,10=2,28=1/1;
 7//1,2,3,16;
 1/6=150,18=20,19=15,26=3/3(2);
 2/9=110/2;
 99//99;
 2/9=110/2;
 3/5=7,6=1,11=2,16=1,17=8,25=1,30=1,71=1,74=-5,82=7,124=41/1,2,3;
 4/5=5,16=3,69=1/1;
 5/5=2,38=5/2;
 7//1,2,3,16;
 1/6=150,18=20,19=15,26=3/3(-5);
 2/9=110/2;
 6/7=2,8=2,9=2,10=2,19=2,28=1/1;
 99/9=1/99;
 ------------------
 B3D3_Pople_Opt_Gas
 ------------------
 Symbolic Z-matrix:
 Charge = -1 Multiplicity = 1
 C                     1.60918   0.       -0.00004 
 C                     0.1814   -0.00001  -0.00006 
 C                    -0.57944  -1.19965   0.00021 
 C                    -0.57944   1.19965  -0.00031 
 C                    -1.96562  -1.13959   0.00019 
 H                    -0.08913  -2.16681   0.00048 
 C                    -1.96562   1.13959  -0.00031 
 H                    -0.08911   2.1668   -0.00052 
 H                    -2.54639  -2.06082   0.00041 
 H                    -2.54639   2.06082  -0.00052 
 N                    -2.67694   0.       -0.00007 
 C                     2.36704   1.29671   0.00016 
 H                     2.12691   1.91149   0.87991 
 H                     3.44679   1.12676   0.00046 
 H                     2.12742   1.91145  -0.87977 
 C                     2.36705  -1.29671   0.00009 
 H                     2.12803  -1.91087   0.8806 
 H                     2.12633  -1.91207  -0.87908 
 H                     3.4468   -1.12675  -0.00104 
 

 GradGradGradGradGradGradGradGradGradGradGradGradGradGradGradGradGradGrad
 Berny optimization.
 Initialization pass.
                           ----------------------------
                           !    Initial Parameters    !
                           ! (Angstroms and Degrees)  !
 --------------------------                            --------------------------
 ! Name  Definition              Value          Derivative Info.                !
 --------------------------------------------------------------------------------
 ! R1    R(1,2)                  1.4278         estimate D2E/DX2                !
 ! R2    R(1,12)                 1.5019         estimate D2E/DX2                !
 ! R3    R(1,16)                 1.5019         estimate D2E/DX2                !
 ! R4    R(2,3)                  1.4206         estimate D2E/DX2                !
 ! R5    R(2,4)                  1.4206         estimate D2E/DX2                !
 ! R6    R(3,5)                  1.3875         estimate D2E/DX2                !
 ! R7    R(3,6)                  1.0843         estimate D2E/DX2                !
 ! R8    R(4,7)                  1.3875         estimate D2E/DX2                !
 ! R9    R(4,8)                  1.0843         estimate D2E/DX2                !
 ! R10   R(5,9)                  1.089          estimate D2E/DX2                !
 ! R11   R(5,11)                 1.3434         estimate D2E/DX2                !
 ! R12   R(7,10)                 1.089          estimate D2E/DX2                !
 ! R13   R(7,11)                 1.3434         estimate D2E/DX2                !
 ! R14   R(12,13)                1.0998         estimate D2E/DX2                !
 ! R15   R(12,14)                1.093          estimate D2E/DX2                !
 ! R16   R(12,15)                1.0998         estimate D2E/DX2                !
 ! R17   R(16,17)                1.0998         estimate D2E/DX2                !
 ! R18   R(16,18)                1.0998         estimate D2E/DX2                !
 ! R19   R(16,19)                1.093          estimate D2E/DX2                !
 ! A1    A(2,1,12)             120.3044         estimate D2E/DX2                !
 ! A2    A(2,1,16)             120.3044         estimate D2E/DX2                !
 ! A3    A(12,1,16)            119.3912         estimate D2E/DX2                !
 ! A4    A(1,2,3)              122.3839         estimate D2E/DX2                !
 ! A5    A(1,2,4)              122.3832         estimate D2E/DX2                !
 ! A6    A(3,2,4)              115.233          estimate D2E/DX2                !
 ! A7    A(2,3,5)              119.9025         estimate D2E/DX2                !
 ! A8    A(2,3,6)              120.7333         estimate D2E/DX2                !
 ! A9    A(5,3,6)              119.3642         estimate D2E/DX2                !
 ! A10   A(2,4,7)              119.9027         estimate D2E/DX2                !
 ! A11   A(2,4,8)              120.7325         estimate D2E/DX2                !
 ! A12   A(7,4,8)              119.3647         estimate D2E/DX2                !
 ! A13   A(3,5,9)              119.7472         estimate D2E/DX2                !
 ! A14   A(3,5,11)             124.4529         estimate D2E/DX2                !
 ! A15   A(9,5,11)             115.7999         estimate D2E/DX2                !
 ! A16   A(4,7,10)             119.7479         estimate D2E/DX2                !
 ! A17   A(4,7,11)             124.4527         estimate D2E/DX2                !
 ! A18   A(10,7,11)            115.7994         estimate D2E/DX2                !
 ! A19   A(5,11,7)             116.0562         estimate D2E/DX2                !
 ! A20   A(1,12,13)            111.8723         estimate D2E/DX2                !
 ! A21   A(1,12,14)            111.3592         estimate D2E/DX2                !
 ! A22   A(1,12,15)            111.8719         estimate D2E/DX2                !
 ! A23   A(13,12,14)           107.5999         estimate D2E/DX2                !
 ! A24   A(13,12,15)           106.2586         estimate D2E/DX2                !
 ! A25   A(14,12,15)           107.5991         estimate D2E/DX2                !
 ! A26   A(1,16,17)            111.8709         estimate D2E/DX2                !
 ! A27   A(1,16,18)            111.8732         estimate D2E/DX2                !
 ! A28   A(1,16,19)            111.3592         estimate D2E/DX2                !
 ! A29   A(17,16,18)           106.2588         estimate D2E/DX2                !
 ! A30   A(17,16,19)           107.5978         estimate D2E/DX2                !
 ! A31   A(18,16,19)           107.6013         estimate D2E/DX2                !
 ! D1    D(12,1,2,3)          -179.9783         estimate D2E/DX2                !
 ! D2    D(12,1,2,4)             0.0191         estimate D2E/DX2                !
 ! D3    D(16,1,2,3)             0.0086         estimate D2E/DX2                !
 ! D4    D(16,1,2,4)          -179.994          estimate D2E/DX2                !
 ! D5    D(2,1,12,13)           59.5287         estimate D2E/DX2                !
 ! D6    D(2,1,12,14)          179.9826         estimate D2E/DX2                !
 ! D7    D(2,1,12,15)          -59.565          estimate D2E/DX2                !
 ! D8    D(16,1,12,13)        -120.4583         estimate D2E/DX2                !
 ! D9    D(16,1,12,14)          -0.0044         estimate D2E/DX2                !
 ! D10   D(16,1,12,15)         120.448          estimate D2E/DX2                !
 ! D11   D(2,1,16,17)          -59.6134         estimate D2E/DX2                !
 ! D12   D(2,1,16,18)           59.4803         estimate D2E/DX2                !
 ! D13   D(2,1,16,19)          179.9365         estimate D2E/DX2                !
 ! D14   D(12,1,16,17)         120.3736         estimate D2E/DX2                !
 ! D15   D(12,1,16,18)        -120.5327         estimate D2E/DX2                !
 ! D16   D(12,1,16,19)          -0.0765         estimate D2E/DX2                !
 ! D17   D(1,2,3,5)            179.999          estimate D2E/DX2                !
 ! D18   D(1,2,3,6)              0.0021         estimate D2E/DX2                !
 ! D19   D(4,2,3,5)              0.0014         estimate D2E/DX2                !
 ! D20   D(4,2,3,6)           -179.9956         estimate D2E/DX2                !
 ! D21   D(1,2,4,7)           -179.9996         estimate D2E/DX2                !
 ! D22   D(1,2,4,8)              0.002          estimate D2E/DX2                !
 ! D23   D(3,2,4,7)             -0.002          estimate D2E/DX2                !
 ! D24   D(3,2,4,8)            179.9996         estimate D2E/DX2                !
 ! D25   D(2,3,5,9)           -179.9994         estimate D2E/DX2                !
 ! D26   D(2,3,5,11)             0.0002         estimate D2E/DX2                !
 ! D27   D(6,3,5,9)             -0.0024         estimate D2E/DX2                !
 ! D28   D(6,3,5,11)           179.9972         estimate D2E/DX2                !
 ! D29   D(2,4,7,10)          -179.9989         estimate D2E/DX2                !
 ! D30   D(2,4,7,11)             0.0012         estimate D2E/DX2                !
 ! D31   D(8,4,7,10)            -0.0004         estimate D2E/DX2                !
 ! D32   D(8,4,7,11)           179.9996         estimate D2E/DX2                !
 ! D33   D(3,5,11,7)            -0.0011         estimate D2E/DX2                !
 ! D34   D(9,5,11,7)           179.9985         estimate D2E/DX2                !
 ! D35   D(4,7,11,5)             0.0004         estimate D2E/DX2                !
 ! D36   D(10,7,11,5)         -179.9995         estimate D2E/DX2                !
 --------------------------------------------------------------------------------
 Trust Radius=3.00D-01 FncErr=1.00D-07 GrdErr=1.00D-06 EigMax=2.50D+02 EigMin=1.00D-04
 Number of steps in this run=    114 maximum allowed number of steps=    114.
 GradGradGradGradGradGradGradGradGradGradGradGradGradGradGradGradGradGrad

                          Input orientation:                          
 ---------------------------------------------------------------------
 Center     Atomic      Atomic             Coordinates (Angstroms)
 Number     Number       Type             X           Y           Z
 ---------------------------------------------------------------------
      1          6           0        1.609176    0.000000   -0.000039
      2          6           0        0.181400   -0.000006   -0.000063
      3          6           0       -0.579438   -1.199653    0.000210
      4          6           0       -0.579437    1.199648   -0.000308
      5          6           0       -1.965624   -1.139589    0.000194
      6          1           0       -0.089131   -2.166807    0.000482
      7          6           0       -1.965616    1.139594   -0.000312
      8          1           0       -0.089114    2.166795   -0.000519
      9          1           0       -2.546391   -2.060821    0.000414
     10          1           0       -2.546387    2.060822   -0.000519
     11          7           0       -2.676939    0.000000   -0.000072
     12          6           0        2.367039    1.296710    0.000155
     13          1           0        2.126914    1.911490    0.879914
     14          1           0        3.446790    1.126757    0.000459
     15          1           0        2.127418    1.911452   -0.879773
     16          6           0        2.367051   -1.296706    0.000089
     17          1           0        2.128033   -1.910866    0.880603
     18          1           0        2.126333   -1.912068   -0.879083
     19          1           0        3.446800   -1.126745   -0.001036
 ---------------------------------------------------------------------
                    Distance matrix (angstroms):
                    1          2          3          4          5
     1  C    0.000000
     2  C    1.427776   0.000000
     3  C    2.495836   1.420573   0.000000
     4  C    2.495833   1.420578   2.399301   0.000000
     5  C    3.752047   2.430712   1.387487   2.719107   0.000000
     6  H    2.753053   2.183624   1.084338   3.401973   2.139253
     7  C    3.752041   2.430713   2.719111   1.387479   2.279183
     8  H    2.753033   2.183622   3.401969   1.084339   3.801771
     9  H    4.638504   3.418743   2.147211   3.807830   1.089017
    10  H    4.638501   3.418747   3.807832   2.147211   3.252678
    11  N    4.286115   2.858339   2.416336   2.416334   1.343366
    12  C    1.501936   2.541356   3.861807   2.948074   4.970666
    13  H    2.167063   2.865868   4.216329   2.933572   5.179948
    14  H    2.155553   3.454326   4.650021   4.026887   5.867755
    15  H    2.167061   2.866103   4.216683   2.933801   5.180365
    16  C    1.501939   2.541358   2.948087   3.861810   4.335523
    17  H    2.167061   2.866416   2.934504   4.216835   4.257701
    18  H    2.167066   2.865558   2.932898   4.216185   4.256050
    19  H    2.155555   3.454328   4.026898   4.650020   5.412439
                    6          7          8          9         10
     6  H    0.000000
     7  C    3.801774   0.000000
     8  H    4.333602   2.139253   0.000000
     9  H    2.459545   3.252684   4.889882   0.000000
    10  H    4.889883   1.089016   2.459557   4.121643   0.000000
    11  N    3.375175   1.343374   3.375180   2.064952   2.064953
    12  C    4.246024   4.335503   2.605712   5.951034   4.972487
    13  H    4.724062   4.256692   2.398150   6.196173   4.757857
    14  H    4.832215   5.412421   3.685688   6.788142   6.065530
    15  H    4.724419   4.257011   2.398187   6.196626   4.758135
    16  C    2.605745   4.970670   4.246008   4.972503   5.951039
    17  H    2.399153   5.180664   4.724345   4.758935   6.196845
    18  H    2.397250   5.179665   4.724109   4.757099   6.195970
    19  H    3.685721   5.867754   4.832193   6.065545   6.788142
                   11         12         13         14         15
    11  N    0.000000
    12  C    5.207991   0.000000
    13  H    5.244537   1.099814   0.000000
    14  H    6.226527   1.093045   1.769554   0.000000
    15  H    5.244937   1.099818   1.759687   1.769547   0.000000
    16  C    5.208002   2.593416   3.335308   2.653113   3.335245
    17  H    5.245451   3.334795   3.822356   3.426504   4.208211
    18  H    5.244052   3.335754   4.208761   3.428069   3.823520
    19  H    6.226535   2.653115   3.427688   2.253502   3.426892
                   16         17         18         19
    16  C    0.000000
    17  H    1.099830   0.000000
    18  H    1.099800   1.759687   0.000000
    19  H    1.093044   1.769542   1.769557   0.000000
 Stoichiometry    C8H10N(1-)
 Framework group  C1[X(C8H10N)]
 Deg. of freedom    51
 Full point group                 C1      NOp   1
 Largest Abelian subgroup         C1      NOp   1
 Largest concise Abelian subgroup C1      NOp   1
                         Standard orientation:                         
 ---------------------------------------------------------------------
 Center     Atomic      Atomic             Coordinates (Angstroms)
 Number     Number       Type             X           Y           Z
 ---------------------------------------------------------------------
      1          6           0        1.609176    0.000000   -0.000039
      2          6           0        0.181400   -0.000006   -0.000063
      3          6           0       -0.579438   -1.199653    0.000210
      4          6           0       -0.579437    1.199648   -0.000308
      5          6           0       -1.965624   -1.139589    0.000194
      6          1           0       -0.089131   -2.166807    0.000482
      7          6           0       -1.965616    1.139594   -0.000312
      8          1           0       -0.089114    2.166795   -0.000519
      9          1           0       -2.546391   -2.060821    0.000414
     10          1           0       -2.546387    2.060822   -0.000519
     11          7           0       -2.676939    0.000000   -0.000072
     12          6           0        2.367039    1.296710    0.000155
     13          1           0        2.126914    1.911490    0.879914
     14          1           0        3.446790    1.126757    0.000459
     15          1           0        2.127418    1.911452   -0.879773
     16          6           0        2.367051   -1.296706    0.000089
     17          1           0        2.128033   -1.910866    0.880603
     18          1           0        2.126333   -1.912068   -0.879083
     19          1           0        3.446800   -1.126745   -0.001036
 ---------------------------------------------------------------------
 Rotational constants (GHZ):           3.4975371           1.1901879           0.8978523
 General basis read from cards:  (5D, 7F)
 ======================================================================================================
                                       Pseudopotential Parameters
 ======================================================================================================
  Center     Atomic      Valence      Angular      Power
  Number     Number     Electrons     Momentum     of R      Exponent        Coefficient   SO-Coeffient
 ======================================================================================================
    1          6
                                   No pseudopotential on this center.
    2          6
                                   No pseudopotential on this center.
    3          6
                                   No pseudopotential on this center.
    4          6
                                   No pseudopotential on this center.
    5          6
                                   No pseudopotential on this center.
    6          1
                                   No pseudopotential on this center.
    7          6
                                   No pseudopotential on this center.
    8          1
                                   No pseudopotential on this center.
    9          1
                                   No pseudopotential on this center.
   10          1
                                   No pseudopotential on this center.
   11          7
                                   No pseudopotential on this center.
   12          6
                                   No pseudopotential on this center.
   13          1
                                   No pseudopotential on this center.
   14          1
                                   No pseudopotential on this center.
   15          1
                                   No pseudopotential on this center.
   16          6
                                   No pseudopotential on this center.
   17          1
                                   No pseudopotential on this center.
   18          1
                                   No pseudopotential on this center.
   19          1
                                   No pseudopotential on this center.
 ======================================================================================================
 There are   155 symmetry adapted cartesian basis functions of A   symmetry.
 There are   146 symmetry adapted basis functions of A   symmetry.
   146 basis functions,   292 primitive gaussians,   155 cartesian basis functions
    33 alpha electrons       33 beta electrons
       nuclear repulsion energy       411.8832547766 Hartrees.
 NAtoms=   19 NActive=   19 NUniq=   19 SFac= 1.00D+00 NAtFMM=   60 NAOKFM=F Big=F
 Integral buffers will be    131072 words long.
 Raffenetti 2 integral format.
 Two-electron integral symmetry is turned on.
 Nuclear repulsion after empirical dispersion term =      411.8503089579 Hartrees.
 One-electron integrals computed using PRISM.
   1 Symmetry operations used in ECPInt.
 ECPInt:  NShTT=    1596 NPrTT=    9922 LenC2=    1564 LenP2D=    6647.
 LDataN:  DoStor=T MaxTD1= 4 Len=   56
 NBasis=   146 RedAO= T EigKep=  9.10D-04  NBF=   146
 NBsUse=   146 1.00D-06 EigRej= -1.00D+00 NBFU=   146
 ExpMin= 1.61D-01 ExpMax= 4.17D+03 ExpMxC= 6.27D+02 IAcc=3 IRadAn=         5 AccDes= 0.00D+00
 Harris functional with IExCor=  402 and IRadAn=       5 diagonalized for initial guess.
 HarFok:  IExCor=  402 AccDes= 0.00D+00 IRadAn=         5 IDoV= 1 UseB2=F ITyADJ=14
 ICtDFT=  3500011 ScaDFX=  1.000000  1.000000  1.000000  1.000000
 FoFCou: FMM=F IPFlag=           0 FMFlag=      100000 FMFlg1=           0
         NFxFlg=           0 DoJE=T BraDBF=F KetDBF=T FulRan=T
         wScrn=  0.000000 ICntrl=       500 IOpCl=  0 I1Cent=   200000004 NGrid=           0
         NMat0=    1 NMatS0=      1 NMatT0=    0 NMatD0=    1 NMtDS0=    0 NMtDT0=    0
 Petite list used in FoFCou.
 Requested convergence on RMS density matrix=1.00D-08 within 128 cycles.
 Requested convergence on MAX density matrix=1.00D-06.
 Requested convergence on             energy=1.00D-06.
 No special actions if energy rises.
 Integral accuracy reduced to 1.0D-05 until final iterations.
 Initial convergence to 1.0D-05 achieved.  Increase integral accuracy.
 SCF Done:  E(RB3LYP) =  -365.630684635     A.U. after   15 cycles
            NFock= 15  Conv=0.41D-08     -V/T= 2.0061

 **********************************************************************

            Population analysis using the SCF Density.

 **********************************************************************

 Orbital symmetries:
       Occupied  (A) (A) (A) (A) (A) (A) (A) (A) (A) (A) (A) (A)
                 (A) (A) (A) (A) (A) (A) (A) (A) (A) (A) (A) (A)
                 (A) (A) (A) (A) (A) (A) (A) (A) (A)
       Virtual   (A) (A) (A) (A) (A) (A) (A) (A) (A) (A) (A) (A)
                 (A) (A) (A) (A) (A) (A) (A) (A) (A) (A) (A) (A)
                 (A) (A) (A) (A) (A) (A) (A) (A) (A) (A) (A) (A)
                 (A) (A) (A) (A) (A) (A) (A) (A) (A) (A) (A) (A)
                 (A) (A) (A) (A) (A) (A) (A) (A) (A) (A) (A) (A)
                 (A) (A) (A) (A) (A) (A) (A) (A) (A) (A) (A) (A)
                 (A) (A) (A) (A) (A) (A) (A) (A) (A) (A) (A) (A)
                 (A) (A) (A) (A) (A) (A) (A) (A) (A) (A) (A) (A)
                 (A) (A) (A) (A) (A) (A) (A) (A) (A) (A) (A) (A)
                 (A) (A) (A) (A) (A)
 The electronic state is 1-A.
 Alpha  occ. eigenvalues --  -14.10890 -10.02111 -10.02110 -10.00615 -10.00613
 Alpha  occ. eigenvalues --   -9.99148  -9.98195  -9.98194  -9.95716  -0.73130
 Alpha  occ. eigenvalues --   -0.62429  -0.56651  -0.56166  -0.52274  -0.44489
 Alpha  occ. eigenvalues --   -0.42705  -0.36815  -0.30858  -0.28238  -0.27543
 Alpha  occ. eigenvalues --   -0.25349  -0.25335  -0.23850  -0.22472  -0.21721
 Alpha  occ. eigenvalues --   -0.19375  -0.18843  -0.16775  -0.14648  -0.09217
 Alpha  occ. eigenvalues --   -0.06773  -0.05764   0.04964
 Alpha virt. eigenvalues --    0.18693   0.20857   0.24576   0.28126   0.28242
 Alpha virt. eigenvalues --    0.28918   0.30804   0.33366   0.33516   0.33995
 Alpha virt. eigenvalues --    0.34355   0.36624   0.37280   0.41057   0.41683
 Alpha virt. eigenvalues --    0.45637   0.51674   0.52659   0.52710   0.57495
 Alpha virt. eigenvalues --    0.64777   0.64779   0.69695   0.69872   0.70956
 Alpha virt. eigenvalues --    0.71318   0.76002   0.76657   0.77473   0.79421
 Alpha virt. eigenvalues --    0.79504   0.79964   0.79975   0.83133   0.83564
 Alpha virt. eigenvalues --    0.86966   0.90608   0.90645   0.91520   0.96078
 Alpha virt. eigenvalues --    0.96554   0.98778   1.00194   1.00634   1.03500
 Alpha virt. eigenvalues --    1.03940   1.04491   1.05179   1.06952   1.07906
 Alpha virt. eigenvalues --    1.08956   1.11026   1.13116   1.14376   1.17061
 Alpha virt. eigenvalues --    1.21294   1.25089   1.27174   1.31961   1.32675
 Alpha virt. eigenvalues --    1.40058   1.45416   1.47435   1.53740   1.54509
 Alpha virt. eigenvalues --    1.59358   1.59569   1.63024   1.64052   1.65594
 Alpha virt. eigenvalues --    1.68449   1.69103   1.70360   1.72575   1.90569
 Alpha virt. eigenvalues --    1.95713   2.00345   2.00496   2.01617   2.05053
 Alpha virt. eigenvalues --    2.05258   2.14397   2.16211   2.17716   2.19333
 Alpha virt. eigenvalues --    2.21535   2.30642   2.34263   2.36923   2.38210
 Alpha virt. eigenvalues --    2.39202   2.39475   2.41033   2.44421   2.49098
 Alpha virt. eigenvalues --    2.49190   2.49889   2.56807   2.57631   2.61326
 Alpha virt. eigenvalues --    2.72460   2.76838   2.77085   2.79433   2.81406
 Alpha virt. eigenvalues --    2.89155   2.90795   2.98076   2.98388   3.09893
 Alpha virt. eigenvalues --    3.16347   3.36157   3.59509
          Condensed to atoms (all electrons):
               1          2          3          4          5          6
     1  C    5.075308   0.600972  -0.085971  -0.085968   0.008213  -0.022896
     2  C    0.600972   4.518774   0.432626   0.432626   0.001326  -0.038169
     3  C   -0.085971   0.432626   5.254931  -0.057684   0.517608   0.323468
     4  C   -0.085968   0.432626  -0.057684   5.254920  -0.040128   0.009837
     5  C    0.008213   0.001326   0.517608  -0.040128   4.811542  -0.056389
     6  H   -0.022896  -0.038169   0.323468   0.009837  -0.056389   0.715298
     7  C    0.008213   0.001324  -0.040128   0.517612  -0.073461  -0.000257
     8  H   -0.022897  -0.038168   0.009837   0.323468  -0.000257  -0.000103
     9  H   -0.000218   0.001159  -0.068239   0.001541   0.349992  -0.002261
    10  H   -0.000218   0.001159   0.001541  -0.068238   0.004578   0.000039
    11  N    0.000133  -0.047456  -0.047380  -0.047380   0.496781   0.006433
    12  C    0.374978  -0.009920   0.010673  -0.030761  -0.000273   0.000147
    13  H   -0.044851  -0.010303  -0.000006   0.006500   0.000010  -0.000004
    14  H   -0.022109   0.001886  -0.000140   0.000528   0.000003  -0.000010
    15  H   -0.044868  -0.010290  -0.000007   0.006489   0.000010  -0.000004
    16  C    0.374979  -0.009920  -0.030761   0.010673   0.000005   0.008621
    17  H   -0.044902  -0.010287   0.006491  -0.000006   0.000103   0.002136
    18  H   -0.044817  -0.010306   0.006499  -0.000006   0.000103   0.002141
    19  H   -0.022109   0.001886   0.000528  -0.000140  -0.000000  -0.000187
               7          8          9         10         11         12
     1  C    0.008213  -0.022897  -0.000218  -0.000218   0.000133   0.374978
     2  C    0.001324  -0.038168   0.001159   0.001159  -0.047456  -0.009920
     3  C   -0.040128   0.009837  -0.068239   0.001541  -0.047380   0.010673
     4  C    0.517612   0.323468   0.001541  -0.068238  -0.047380  -0.030761
     5  C   -0.073461  -0.000257   0.349992   0.004578   0.496781  -0.000273
     6  H   -0.000257  -0.000103  -0.002261   0.000039   0.006433   0.000147
     7  C    4.811547  -0.056390   0.004578   0.349993   0.496775   0.000005
     8  H   -0.056390   0.715296   0.000039  -0.002262   0.006433   0.008622
     9  H    0.004578   0.000039   0.722190  -0.000337  -0.053854   0.000002
    10  H    0.349993  -0.002262  -0.000337   0.722187  -0.053855  -0.000007
    11  N    0.496775   0.006433  -0.053854  -0.053855   6.688168   0.000002
    12  C    0.000005   0.008622   0.000002  -0.000007   0.000002   5.203719
    13  H    0.000103   0.002138   0.000000  -0.000000  -0.000006   0.343429
    14  H   -0.000000  -0.000187  -0.000000  -0.000000   0.000000   0.350345
    15  H    0.000103   0.002139   0.000000  -0.000000  -0.000006   0.343427
    16  C   -0.000273   0.000147  -0.000007   0.000002   0.000002  -0.102507
    17  H    0.000010  -0.000004  -0.000000   0.000000  -0.000006   0.004143
    18  H    0.000010  -0.000004  -0.000000   0.000000  -0.000006   0.004151
    19  H    0.000003  -0.000010  -0.000000  -0.000000   0.000000  -0.010055
              13         14         15         16         17         18
     1  C   -0.044851  -0.022109  -0.044868   0.374979  -0.044902  -0.044817
     2  C   -0.010303   0.001886  -0.010290  -0.009920  -0.010287  -0.010306
     3  C   -0.000006  -0.000140  -0.000007  -0.030761   0.006491   0.006499
     4  C    0.006500   0.000528   0.006489   0.010673  -0.000006  -0.000006
     5  C    0.000010   0.000003   0.000010   0.000005   0.000103   0.000103
     6  H   -0.000004  -0.000010  -0.000004   0.008621   0.002136   0.002141
     7  C    0.000103  -0.000000   0.000103  -0.000273   0.000010   0.000010
     8  H    0.002138  -0.000187   0.002139   0.000147  -0.000004  -0.000004
     9  H    0.000000  -0.000000   0.000000  -0.000007  -0.000000  -0.000000
    10  H   -0.000000  -0.000000  -0.000000   0.000002   0.000000   0.000000
    11  N   -0.000006   0.000000  -0.000006   0.000002  -0.000006  -0.000006
    12  C    0.343429   0.350345   0.343427  -0.102507   0.004143   0.004151
    13  H    0.711649  -0.036723  -0.071872   0.004147   0.000720  -0.000513
    14  H   -0.036723   0.661614  -0.036728  -0.010055   0.000239   0.000238
    15  H   -0.071872  -0.036728   0.711682   0.004146  -0.000514   0.000716
    16  C    0.004147  -0.010055   0.004146   5.203717   0.343421   0.343436
    17  H    0.000720   0.000239  -0.000514   0.343421   0.711805  -0.071871
    18  H   -0.000513   0.000238   0.000716   0.343436  -0.071871   0.711522
    19  H    0.000235   0.008264   0.000242   0.350345  -0.036776  -0.036676
              19
     1  C   -0.022109
     2  C    0.001886
     3  C    0.000528
     4  C   -0.000140
     5  C   -0.000000
     6  H   -0.000187
     7  C    0.000003
     8  H   -0.000010
     9  H   -0.000000
    10  H   -0.000000
    11  N    0.000000
    12  C   -0.010055
    13  H    0.000235
    14  H    0.008264
    15  H    0.000242
    16  C    0.350345
    17  H   -0.036776
    18  H   -0.036676
    19  H    0.661614
 Mulliken charges:
               1
     1  C   -0.000972
     2  C    0.191080
     3  C   -0.233887
     4  C   -0.233881
     5  C   -0.019763
     6  H    0.052162
     7  C   -0.019765
     8  H    0.052164
     9  H    0.045417
    10  H    0.045418
    11  N   -0.444777
    12  C   -0.490118
    13  H    0.095348
    14  H    0.082837
    15  H    0.095335
    16  C   -0.490118
    17  H    0.095299
    18  H    0.095385
    19  H    0.082837
 Sum of Mulliken charges =  -1.00000
 Mulliken charges with hydrogens summed into heavy atoms:
               1
     1  C   -0.000972
     2  C    0.191080
     3  C   -0.181725
     4  C   -0.181718
     5  C    0.025654
     7  C    0.025653
    11  N   -0.444777
    12  C   -0.216598
    16  C   -0.216597
 Electronic spatial extent (au):  <R**2>=           1329.1019
 Charge=             -1.0000 electrons
 Dipole moment (field-independent basis, Debye):
    X=              2.3014    Y=              0.0000    Z=              0.0000  Tot=              2.3014
 Quadrupole moment (field-independent basis, Debye-Ang):
   XX=            -83.2438   YY=            -61.1331   ZZ=            -60.4909
   XY=             -0.0000   XZ=             -0.0011   YZ=              0.0005
 Traceless Quadrupole moment (field-independent basis, Debye-Ang):
   XX=            -14.9545   YY=              7.1561   ZZ=              7.7984
   XY=             -0.0000   XZ=             -0.0011   YZ=              0.0005
 Octapole moment (field-independent basis, Debye-Ang**2):
  XXX=             30.8081  YYY=              0.0000  ZZZ=              0.0005  XYY=            -10.4693
  XXY=              0.0001  XXZ=             -0.0014  XZZ=             -0.8614  YZZ=              0.0000
  YYZ=             -0.0026  XYZ=              0.0026
 Hexadecapole moment (field-independent basis, Debye-Ang**3):
 XXXX=          -1531.2207 YYYY=           -536.0905 ZZZZ=            -78.4191 XXXY=              0.0000
 XXXZ=             -0.0379 YYYX=             -0.0002 YYYZ=              0.0301 ZZZX=             -0.0241
 ZZZY=              0.0313 XXYY=           -324.6031 XXZZ=           -240.0864 YYZZ=           -104.9237
 XXYZ=              0.0120 YYXZ=             -0.0137 ZZXY=             -0.0001
 N-N= 4.118503089579D+02 E-N=-1.684259005894D+03  KE= 3.634278706903D+02
   1 Symmetry operations used in ECPInt.
 ECPInt:  NShTT=    1596 NPrTT=    9922 LenC2=    1564 LenP2D=    6647.
 LDataN:  DoStor=T MaxTD1= 5 Len=  102
 Calling FoFJK, ICntrl=      2127 FMM=F ISym2X=0 I1Cent= 0 IOpClX= 0 NMat=1 NMatS=1 NMatT=0.
 ***** Axes restored to original set *****
 -------------------------------------------------------------------
 Center     Atomic                   Forces (Hartrees/Bohr)
 Number     Number              X              Y              Z
 -------------------------------------------------------------------
      1        6          -0.028042781   -0.000001484   -0.000017134
      2        6           0.064226954    0.000002490    0.000002778
      3        6          -0.022817585   -0.012013558    0.000000325
      4        6          -0.022811071    0.012012270    0.000000097
      5        6           0.017929532    0.002223178   -0.000004178
      6        1           0.001293555   -0.001327500    0.000002186
      7        6           0.017922341   -0.002228547    0.000000600
      8        1           0.001292273    0.001327261   -0.000000237
      9        1          -0.002022602   -0.003367374    0.000001113
     10        1          -0.002022200    0.003368180   -0.000000786
     11        7          -0.023252579    0.000004052    0.000001116
     12        6          -0.008317608   -0.007023247   -0.000008381
     13        1           0.001920757    0.006716131    0.002849598
     14        1           0.003627375    0.000268007    0.000000999
     15        1           0.001922070    0.006720517   -0.002848377
     16        6          -0.008318426    0.007024666    0.000023363
     17        1           0.001927564   -0.006726052    0.002849933
     18        1           0.001914932   -0.006711107   -0.002848513
     19        1           0.003627499   -0.000267883   -0.000004505
 -------------------------------------------------------------------
 Cartesian Forces:  Max     0.064226954 RMS     0.011819851

 GradGradGradGradGradGradGradGradGradGradGradGradGradGradGradGradGradGrad
 Berny optimization.
 FormGI is forming the generalized inverse of G from B-inverse, IUseBI=4.
 Internal  Forces:  Max     0.029738617 RMS     0.005669001
 Search for a local minimum.
 Step number   1 out of a maximum of  114
 All quantities printed in internal units (Hartrees-Bohrs-Radians)
 Mixed Optimization -- RFO/linear search
 Second derivative matrix not updated -- first step.
 ITU=  0
     Eigenvalues ---    0.00740   0.00740   0.00989   0.01721   0.01793
     Eigenvalues ---    0.01899   0.02009   0.02052   0.02192   0.02304
     Eigenvalues ---    0.02316   0.02388   0.07077   0.07077   0.07089
     Eigenvalues ---    0.07089   0.16000   0.16000   0.16000   0.16000
     Eigenvalues ---    0.16000   0.16000   0.16000   0.16000   0.16000
     Eigenvalues ---    0.16000   0.22000   0.22806   0.23877   0.25000
     Eigenvalues ---    0.25000   0.25000   0.32175   0.32175   0.33701
     Eigenvalues ---    0.33702   0.33703   0.33704   0.34463   0.34463
     Eigenvalues ---    0.34926   0.34927   0.35475   0.35475   0.40797
     Eigenvalues ---    0.40820   0.41311   0.45034   0.47755   0.54303
     Eigenvalues ---    0.55637
 RFO step:  Lambda=-8.31208513D-03 EMin= 7.40297292D-03
 Linear search not attempted -- first point.
 Iteration  1 RMS(Cart)=  0.02194276 RMS(Int)=  0.00042028
 Iteration  2 RMS(Cart)=  0.00041757 RMS(Int)=  0.00021485
 Iteration  3 RMS(Cart)=  0.00000015 RMS(Int)=  0.00021485
 Variable       Old X    -DE/DX   Delta X   Delta X   Delta X     New X
                                 (Linear)    (Quad)   (Total)
    R1        2.69811  -0.02974   0.00000  -0.07057  -0.07057   2.62754
    R2        2.83825   0.00534   0.00000   0.01618   0.01618   2.85443
    R3        2.83825   0.00534   0.00000   0.01618   0.01618   2.85443
    R4        2.68449   0.01859   0.00000   0.04358   0.04361   2.72810
    R5        2.68450   0.01859   0.00000   0.04357   0.04360   2.72811
    R6        2.62197  -0.00418   0.00000  -0.00862  -0.00862   2.61335
    R7        2.04910   0.00177   0.00000   0.00487   0.00487   2.05397
    R8        2.62196  -0.00417   0.00000  -0.00861  -0.00862   2.61334
    R9        2.04910   0.00177   0.00000   0.00487   0.00487   2.05397
   R10        2.05794   0.00393   0.00000   0.01098   0.01098   2.06893
   R11        2.53859   0.00905   0.00000   0.01538   0.01535   2.55394
   R12        2.05794   0.00393   0.00000   0.01098   0.01098   2.06893
   R13        2.53861   0.00904   0.00000   0.01537   0.01534   2.55395
   R14        2.07835   0.00561   0.00000   0.01626   0.01626   2.09460
   R15        2.06555   0.00354   0.00000   0.01003   0.01003   2.07559
   R16        2.07835   0.00562   0.00000   0.01626   0.01626   2.09462
   R17        2.07838   0.00562   0.00000   0.01627   0.01627   2.09465
   R18        2.07832   0.00561   0.00000   0.01625   0.01625   2.09457
   R19        2.06555   0.00354   0.00000   0.01003   0.01003   2.07559
    A1        2.09971  -0.00093   0.00000  -0.00361  -0.00361   2.09609
    A2        2.09971  -0.00093   0.00000  -0.00362  -0.00362   2.09609
    A3        2.08377   0.00187   0.00000   0.00723   0.00723   2.09100
    A4        2.13600   0.00583   0.00000   0.02227   0.02224   2.15824
    A5        2.13599   0.00583   0.00000   0.02228   0.02225   2.15824
    A6        2.01119  -0.01165   0.00000  -0.04456  -0.04448   1.96671
    A7        2.09269   0.00341   0.00000   0.01441   0.01444   2.10714
    A8        2.10719  -0.00227   0.00000  -0.01057  -0.01059   2.09660
    A9        2.08330  -0.00114   0.00000  -0.00383  -0.00385   2.07945
   A10        2.09270   0.00341   0.00000   0.01441   0.01444   2.10714
   A11        2.10718  -0.00227   0.00000  -0.01057  -0.01058   2.09660
   A12        2.08331  -0.00114   0.00000  -0.00384  -0.00386   2.07945
   A13        2.08998  -0.00371   0.00000  -0.01506  -0.01505   2.07493
   A14        2.17211   0.00725   0.00000   0.02909   0.02906   2.20117
   A15        2.02109  -0.00354   0.00000  -0.01403  -0.01401   2.00708
   A16        2.09000  -0.00371   0.00000  -0.01507  -0.01505   2.07494
   A17        2.17211   0.00725   0.00000   0.02909   0.02906   2.20117
   A18        2.02108  -0.00354   0.00000  -0.01402  -0.01401   2.00707
   A19        2.02556  -0.00967   0.00000  -0.04244  -0.04253   1.98304
   A20        1.95254   0.00605   0.00000   0.03771   0.03725   1.98979
   A21        1.94358  -0.00159   0.00000  -0.01297  -0.01281   1.93077
   A22        1.95253   0.00606   0.00000   0.03775   0.03729   1.98983
   A23        1.87797  -0.00303   0.00000  -0.02129  -0.02115   1.85683
   A24        1.85456  -0.00521   0.00000  -0.02436  -0.02528   1.82928
   A25        1.87796  -0.00303   0.00000  -0.02128  -0.02114   1.85682
   A26        1.95252   0.00607   0.00000   0.03786   0.03740   1.98991
   A27        1.95256   0.00603   0.00000   0.03761   0.03715   1.98970
   A28        1.94359  -0.00159   0.00000  -0.01297  -0.01281   1.93077
   A29        1.85457  -0.00521   0.00000  -0.02436  -0.02529   1.82928
   A30        1.87794  -0.00304   0.00000  -0.02127  -0.02113   1.85681
   A31        1.87800  -0.00303   0.00000  -0.02129  -0.02115   1.85684
    D1       -3.14121  -0.00000   0.00000  -0.00011  -0.00012  -3.14133
    D2        0.00033  -0.00000   0.00000  -0.00009  -0.00009   0.00024
    D3        0.00015  -0.00000   0.00000  -0.00011  -0.00011   0.00004
    D4       -3.14149  -0.00000   0.00000  -0.00009  -0.00009  -3.14158
    D5        1.03897   0.00081   0.00000   0.01028   0.01068   1.04965
    D6        3.14129  -0.00000   0.00000   0.00004   0.00004   3.14133
    D7       -1.03960  -0.00081   0.00000  -0.01017  -0.01056  -1.05017
    D8       -2.10239   0.00081   0.00000   0.01028   0.01068  -2.09172
    D9       -0.00008  -0.00000   0.00000   0.00003   0.00003  -0.00004
   D10        2.10221  -0.00081   0.00000  -0.01017  -0.01057   2.09165
   D11       -1.04045  -0.00081   0.00000  -0.01012  -0.01051  -1.05097
   D12        1.03813   0.00081   0.00000   0.01033   0.01073   1.04886
   D13        3.14048  -0.00000   0.00000   0.00001   0.00001   3.14049
   D14        2.10092  -0.00081   0.00000  -0.01011  -0.01051   2.09040
   D15       -2.10369   0.00081   0.00000   0.01033   0.01073  -2.09296
   D16       -0.00133  -0.00000   0.00000   0.00001   0.00001  -0.00133
   D17        3.14157   0.00000   0.00000   0.00005   0.00005  -3.14156
   D18        0.00004   0.00000   0.00000   0.00005   0.00005   0.00008
   D19        0.00002   0.00000   0.00000   0.00003   0.00003   0.00005
   D20       -3.14152   0.00000   0.00000   0.00003   0.00003  -3.14149
   D21       -3.14159  -0.00000   0.00000  -0.00003  -0.00003   3.14157
   D22        0.00003  -0.00000   0.00000  -0.00002  -0.00002   0.00001
   D23       -0.00004  -0.00000   0.00000  -0.00001  -0.00001  -0.00004
   D24        3.14159   0.00000   0.00000  -0.00000  -0.00000   3.14158
   D25       -3.14158   0.00000   0.00000   0.00000   0.00000  -3.14158
   D26        0.00000  -0.00000   0.00000  -0.00004  -0.00004  -0.00003
   D27       -0.00004   0.00000   0.00000   0.00000   0.00000  -0.00004
   D28        3.14154  -0.00000   0.00000  -0.00004  -0.00004   3.14150
   D29       -3.14157  -0.00000   0.00000  -0.00000  -0.00000  -3.14157
   D30        0.00002  -0.00000   0.00000  -0.00001  -0.00001   0.00001
   D31       -0.00001  -0.00000   0.00000  -0.00000  -0.00000  -0.00001
   D32        3.14159  -0.00000   0.00000  -0.00001  -0.00001   3.14157
   D33       -0.00002   0.00000   0.00000   0.00002   0.00002   0.00000
   D34        3.14157  -0.00000   0.00000  -0.00001  -0.00002   3.14155
   D35        0.00001  -0.00000   0.00000  -0.00000  -0.00000   0.00001
   D36       -3.14158  -0.00000   0.00000  -0.00001  -0.00001  -3.14159
         Item               Value     Threshold  Converged?
 Maximum Force            0.029739     0.000450     NO 
 RMS     Force            0.005669     0.000300     NO 
 Maximum Displacement     0.072412     0.001800     NO 
 RMS     Displacement     0.021897     0.001200     NO 
 Predicted change in Energy=-4.282905D-03
 GradGradGradGradGradGradGradGradGradGradGradGradGradGradGradGradGradGrad

                          Input orientation:                          
 ---------------------------------------------------------------------
 Center     Atomic      Atomic             Coordinates (Angstroms)
 Number     Number       Type             X           Y           Z
 ---------------------------------------------------------------------
      1          6           0        1.602440    0.000003   -0.000018
      2          6           0        0.212007   -0.000001   -0.000034
      3          6           0       -0.588109   -1.201640    0.000193
      4          6           0       -0.588113    1.201638   -0.000252
      5          6           0       -1.969227   -1.131006    0.000128
      6          1           0       -0.107961   -2.176752    0.000468
      7          6           0       -1.969228    1.131004   -0.000280
      8          1           0       -0.107961    2.176749   -0.000427
      9          1           0       -2.546359   -2.061366    0.000317
     10          1           0       -2.546366    2.061360   -0.000466
     11          7           0       -2.709060   -0.000004   -0.000102
     12          6           0        2.359908    1.306850    0.000078
     13          1           0        2.149888    1.949742    0.878241
     14          1           0        3.443287    1.126096    0.000353
     15          1           0        2.150326    1.949663   -0.878256
     16          6           0        2.359908   -1.306846    0.000197
     17          1           0        2.150967   -1.949185    0.879051
     18          1           0        2.149244   -1.950208   -0.877445
     19          1           0        3.443287   -1.126092   -0.000951
 ---------------------------------------------------------------------
                    Distance matrix (angstroms):
                    1          2          3          4          5
     1  C    0.000000
     2  C    1.390433   0.000000
     3  C    2.498489   1.443648   0.000000
     4  C    2.498490   1.443651   2.403278   0.000000
     5  C    3.746463   2.457021   1.382923   2.710850   0.000000
     6  H    2.768344   2.200142   1.086916   3.412340   2.134923
     7  C    3.746462   2.457023   2.710852   1.382920   2.262010
     8  H    2.768339   2.200141   3.412338   1.086916   3.795464
     9  H    4.632686   3.443517   2.138662   3.805512   1.094829
    10  H    4.632687   3.443520   3.805514   2.138663   3.244116
    11  N    4.311500   2.921067   2.437697   2.437696   1.351488
    12  C    1.510499   2.514227   3.870830   2.949897   4.968355
    13  H    2.207379   2.885870   4.266005   2.971205   5.218160
    14  H    2.157963   3.421880   4.655159   4.032107   5.864283
    15  H    2.207410   2.886095   4.266310   2.971444   5.218505
    16  C    1.510500   2.514223   2.949893   3.870829   4.332704
    17  H    2.207482   2.886464   2.972163   4.266546   4.291610
    18  H    2.207305   2.885489   2.970472   4.265762   4.289875
    19  H    2.157963   3.421878   4.032103   4.655160   5.412516
                    6          7          8          9         10
     6  H    0.000000
     7  C    3.795467   0.000000
     8  H    4.353501   2.134923   0.000000
     9  H    2.441127   3.244119   4.889519   0.000000
    10  H    4.889521   1.094829   2.441134   4.122725   0.000000
    11  N    3.391748   1.351492   3.391750   2.067773   2.067774
    12  C    4.269175   4.332706   2.616697   5.951162   4.963951
    13  H    4.785010   4.290600   2.433408   6.238147   4.779058
    14  H    4.849759   5.412517   3.703409   6.784967   6.062233
    15  H    4.785323   4.290894   2.433519   6.238517   4.779321
    16  C    2.616699   4.968353   4.269170   4.963946   5.951162
    17  H    2.434430   5.218888   4.785349   4.780129   6.238827
    18  H    2.432494   5.217768   4.784967   4.778233   6.237830
    19  H    3.703410   5.864282   4.849755   6.062227   6.784968
                   11         12         13         14         15
    11  N    0.000000
    12  C    5.234721   0.000000
    13  H    5.308707   1.108417   0.000000
    14  H    6.254556   1.098355   1.766907   0.000000
    15  H    5.309048   1.108424   1.756497   1.766909   0.000000
    16  C    5.234718   2.613696   3.379413   2.663252   3.379416
    17  H    5.309622   3.379056   3.898927   3.449573   4.276581
    18  H    5.308121   3.379771   4.276920   3.450901   3.899871
    19  H    6.254554   2.663254   3.450596   2.252188   3.449882
                   16         17         18         19
    16  C    0.000000
    17  H    1.108441   0.000000
    18  H    1.108400   1.756498   0.000000
    19  H    1.098355   1.766912   1.766905   0.000000
 Stoichiometry    C8H10N(1-)
 Framework group  C1[X(C8H10N)]
 Deg. of freedom    51
 Full point group                 C1      NOp   1
 Largest Abelian subgroup         C1      NOp   1
 Largest concise Abelian subgroup C1      NOp   1
                         Standard orientation:                         
 ---------------------------------------------------------------------
 Center     Atomic      Atomic             Coordinates (Angstroms)
 Number     Number       Type             X           Y           Z
 ---------------------------------------------------------------------
      1          6           0        1.606556    0.000001   -0.000022
      2          6           0        0.216123   -0.000001   -0.000038
      3          6           0       -0.583994   -1.201639    0.000189
      4          6           0       -0.583995    1.201639   -0.000255
      5          6           0       -1.965112   -1.131003    0.000124
      6          1           0       -0.103847   -2.176752    0.000464
      7          6           0       -1.965110    1.131007   -0.000284
      8          1           0       -0.103843    2.176749   -0.000430
      9          1           0       -2.542246   -2.061362    0.000313
     10          1           0       -2.542248    2.061363   -0.000470
     11          7           0       -2.704944   -0.000000   -0.000106
     12          6           0        2.364026    1.306847    0.000074
     13          1           0        2.154007    1.949739    0.878237
     14          1           0        3.447405    1.126091    0.000349
     15          1           0        2.154444    1.949661   -0.878260
     16          6           0        2.364022   -1.306849    0.000194
     17          1           0        2.155081   -1.949188    0.879047
     18          1           0        2.153358   -1.950211   -0.877449
     19          1           0        3.447401   -1.126097   -0.000955
 ---------------------------------------------------------------------
 Rotational constants (GHZ):           3.4746284           1.1837099           0.8926206
 Basis read from rwf:  (5D, 7F)
 Pseudo-potential data read from rwf file.
 There are   155 symmetry adapted cartesian basis functions of A   symmetry.
 There are   146 symmetry adapted basis functions of A   symmetry.
   146 basis functions,   292 primitive gaussians,   155 cartesian basis functions
    33 alpha electrons       33 beta electrons
       nuclear repulsion energy       410.5574876040 Hartrees.
 NAtoms=   19 NActive=   19 NUniq=   19 SFac= 1.00D+00 NAtFMM=   60 NAOKFM=F Big=F
 Integral buffers will be    131072 words long.
 Raffenetti 2 integral format.
 Two-electron integral symmetry is turned on.
 Nuclear repulsion after empirical dispersion term =      410.5246975855 Hartrees.
 One-electron integrals computed using PRISM.
   1 Symmetry operations used in ECPInt.
 ECPInt:  NShTT=    1596 NPrTT=    9922 LenC2=    1563 LenP2D=    6622.
 LDataN:  DoStor=T MaxTD1= 4 Len=   56
 NBasis=   146 RedAO= T EigKep=  9.46D-04  NBF=   146
 NBsUse=   146 1.00D-06 EigRej= -1.00D+00 NBFU=   146
 Initial guess from the checkpoint file:  "/tmp/Gau-58494.chk"
 B after Tr=    -0.000000   -0.000000   -0.000000
         Rot=    1.000000    0.000001    0.000003    0.000000 Ang=   0.00 deg.
 ExpMin= 1.61D-01 ExpMax= 4.17D+03 ExpMxC= 6.27D+02 IAcc=3 IRadAn=         5 AccDes= 0.00D+00
 Harris functional with IExCor=  402 and IRadAn=       5 diagonalized for initial guess.
 HarFok:  IExCor=  402 AccDes= 0.00D+00 IRadAn=         5 IDoV= 1 UseB2=F ITyADJ=14
 ICtDFT=  3500011 ScaDFX=  1.000000  1.000000  1.000000  1.000000
 FoFCou: FMM=F IPFlag=           0 FMFlag=      100000 FMFlg1=           0
         NFxFlg=           0 DoJE=T BraDBF=F KetDBF=T FulRan=T
         wScrn=  0.000000 ICntrl=       500 IOpCl=  0 I1Cent=   200000004 NGrid=           0
         NMat0=    1 NMatS0=      1 NMatT0=    0 NMatD0=    1 NMtDS0=    0 NMtDT0=    0
 Petite list used in FoFCou.
 Requested convergence on RMS density matrix=1.00D-08 within 128 cycles.
 Requested convergence on MAX density matrix=1.00D-06.
 Requested convergence on             energy=1.00D-06.
 No special actions if energy rises.
 Integral accuracy reduced to 1.0D-05 until final iterations.
 Initial convergence to 1.0D-05 achieved.  Increase integral accuracy.
 SCF Done:  E(RB3LYP) =  -365.635473371     A.U. after   13 cycles
            NFock= 13  Conv=0.44D-08     -V/T= 2.0065
   1 Symmetry operations used in ECPInt.
 ECPInt:  NShTT=    1596 NPrTT=    9922 LenC2=    1563 LenP2D=    6622.
 LDataN:  DoStor=T MaxTD1= 5 Len=  102
 Calling FoFJK, ICntrl=      2127 FMM=F ISym2X=0 I1Cent= 0 IOpClX= 0 NMat=1 NMatS=1 NMatT=0.
 ***** Axes restored to original set *****
 -------------------------------------------------------------------
 Center     Atomic                   Forces (Hartrees/Bohr)
 Number     Number              X              Y              Z
 -------------------------------------------------------------------
      1        6          -0.005239386   -0.000000436    0.000001172
      2        6           0.013627698    0.000001360    0.000000603
      3        6          -0.008468192   -0.001510266   -0.000000413
      4        6          -0.008465630    0.001509377   -0.000000630
      5        6           0.006401166   -0.001420427    0.000001773
      6        1           0.000235336   -0.000155412    0.000000616
      7        6           0.006398201    0.001417707   -0.000001168
      8        1           0.000235115    0.000155712    0.000000457
      9        1           0.000083446   -0.000709356   -0.000000497
     10        1           0.000083736    0.000709737    0.000000360
     11        7          -0.006247358    0.000001929   -0.000000678
     12        6          -0.000416002   -0.003462289   -0.000001528
     13        1           0.000059919   -0.000008004    0.000140966
     14        1           0.000976172    0.000440951   -0.000000289
     15        1           0.000057704   -0.000009581   -0.000139393
     16        6          -0.000415870    0.003462725    0.000001387
     17        1           0.000058125    0.000009611    0.000138833
     18        1           0.000059620    0.000007677   -0.000141581
     19        1           0.000976198   -0.000441015    0.000000011
 -------------------------------------------------------------------
 Cartesian Forces:  Max     0.013627698 RMS     0.003002811

 GradGradGradGradGradGradGradGradGradGradGradGradGradGradGradGradGradGrad
 Berny optimization.
 Using GEDIIS/GDIIS optimizer.
 FormGI is forming the generalized inverse of G from B-inverse, IUseBI=4.
 Internal  Forces:  Max     0.004274509 RMS     0.001399422
 Search for a local minimum.
 Step number   2 out of a maximum of  114
 All quantities printed in internal units (Hartrees-Bohrs-Radians)
 Mixed Optimization -- RFO/linear search
 Update second derivatives using D2CorX and points    1    2
 DE= -4.79D-03 DEPred=-4.28D-03 R= 1.12D+00
 TightC=F SS=  1.41D+00  RLast= 1.71D-01 DXNew= 5.0454D-01 5.1430D-01
 Trust test= 1.12D+00 RLast= 1.71D-01 DXMaxT set to 5.05D-01
 ITU=  1  0
 Use linear search instead of GDIIS.
     Eigenvalues ---    0.00740   0.00740   0.00987   0.01721   0.01792
     Eigenvalues ---    0.01904   0.02009   0.02052   0.02195   0.02305
     Eigenvalues ---    0.02316   0.02386   0.06677   0.06742   0.07013
     Eigenvalues ---    0.07013   0.15740   0.16000   0.16000   0.16000
     Eigenvalues ---    0.16000   0.16000   0.16000   0.16000   0.16000
     Eigenvalues ---    0.16729   0.20799   0.22000   0.22882   0.25000
     Eigenvalues ---    0.25000   0.25537   0.32175   0.32488   0.33701
     Eigenvalues ---    0.33702   0.33704   0.34237   0.34407   0.34463
     Eigenvalues ---    0.34927   0.34951   0.35474   0.35475   0.38071
     Eigenvalues ---    0.40719   0.41440   0.45058   0.48000   0.53480
     Eigenvalues ---    0.55585
 RFO step:  Lambda=-4.29254482D-04 EMin= 7.40297278D-03
 Quartic linear search produced a step of  0.17514.
 Iteration  1 RMS(Cart)=  0.00939738 RMS(Int)=  0.00005032
 Iteration  2 RMS(Cart)=  0.00005308 RMS(Int)=  0.00003743
 Iteration  3 RMS(Cart)=  0.00000000 RMS(Int)=  0.00003743
 Variable       Old X    -DE/DX   Delta X   Delta X   Delta X     New X
                                 (Linear)    (Quad)   (Total)
    R1        2.62754  -0.00388  -0.01236  -0.00214  -0.01450   2.61304
    R2        2.85443  -0.00229   0.00283  -0.01041  -0.00757   2.84686
    R3        2.85443  -0.00229   0.00283  -0.01041  -0.00757   2.84686
    R4        2.72810   0.00427   0.00764   0.00631   0.01396   2.74206
    R5        2.72811   0.00427   0.00764   0.00630   0.01395   2.74206
    R6        2.61335  -0.00337  -0.00151  -0.00719  -0.00870   2.60464
    R7        2.05397   0.00024   0.00085   0.00019   0.00104   2.05501
    R8        2.61334  -0.00337  -0.00151  -0.00719  -0.00870   2.60464
    R9        2.05397   0.00024   0.00085   0.00019   0.00104   2.05501
   R10        2.06893   0.00056   0.00192   0.00048   0.00241   2.07134
   R11        2.55394   0.00330   0.00269   0.00498   0.00766   2.56160
   R12        2.06893   0.00056   0.00192   0.00048   0.00241   2.07133
   R13        2.55395   0.00330   0.00269   0.00498   0.00765   2.56160
   R14        2.09460   0.00010   0.00285  -0.00173   0.00111   2.09572
   R15        2.07559   0.00089   0.00176   0.00176   0.00352   2.07910
   R16        2.09462   0.00009   0.00285  -0.00174   0.00111   2.09573
   R17        2.09465   0.00009   0.00285  -0.00174   0.00111   2.09576
   R18        2.09457   0.00010   0.00285  -0.00173   0.00112   2.09569
   R19        2.07559   0.00089   0.00176   0.00176   0.00352   2.07910
    A1        2.09609   0.00164  -0.00063   0.00816   0.00753   2.10363
    A2        2.09609   0.00164  -0.00063   0.00817   0.00754   2.10362
    A3        2.09100  -0.00328   0.00127  -0.01633  -0.01507   2.07594
    A4        2.15824   0.00179   0.00389   0.00592   0.00980   2.16804
    A5        2.15824   0.00179   0.00390   0.00592   0.00980   2.16804
    A6        1.96671  -0.00359  -0.00779  -0.01184  -0.01960   1.94711
    A7        2.10714   0.00178   0.00253   0.00691   0.00945   2.11659
    A8        2.09660  -0.00104  -0.00186  -0.00408  -0.00594   2.09066
    A9        2.07945  -0.00075  -0.00067  -0.00283  -0.00351   2.07593
   A10        2.10714   0.00178   0.00253   0.00691   0.00945   2.11659
   A11        2.09660  -0.00104  -0.00185  -0.00408  -0.00594   2.09066
   A12        2.07945  -0.00075  -0.00068  -0.00283  -0.00352   2.07593
   A13        2.07493  -0.00110  -0.00264  -0.00457  -0.00720   2.06774
   A14        2.20117   0.00129   0.00509   0.00254   0.00761   2.20879
   A15        2.00708  -0.00018  -0.00245   0.00203  -0.00041   2.00666
   A16        2.07494  -0.00110  -0.00264  -0.00457  -0.00720   2.06774
   A17        2.20117   0.00129   0.00509   0.00254   0.00762   2.20879
   A18        2.00707  -0.00018  -0.00245   0.00204  -0.00041   2.00666
   A19        1.98304  -0.00255  -0.00745  -0.00705  -0.01454   1.96850
   A20        1.98979  -0.00016   0.00652  -0.00643   0.00001   1.98980
   A21        1.93077   0.00085  -0.00224   0.00856   0.00634   1.93711
   A22        1.98983  -0.00017   0.00653  -0.00647  -0.00001   1.98981
   A23        1.85683  -0.00035  -0.00370   0.00084  -0.00285   1.85398
   A24        1.82928   0.00010  -0.00443   0.00317  -0.00142   1.82786
   A25        1.85682  -0.00034  -0.00370   0.00084  -0.00284   1.85398
   A26        1.98991  -0.00016   0.00655  -0.00648  -0.00001   1.98991
   A27        1.98970  -0.00016   0.00651  -0.00642   0.00000   1.98971
   A28        1.93077   0.00085  -0.00224   0.00856   0.00634   1.93711
   A29        1.82928   0.00010  -0.00443   0.00317  -0.00142   1.82786
   A30        1.85681  -0.00034  -0.00370   0.00084  -0.00284   1.85396
   A31        1.85684  -0.00035  -0.00370   0.00084  -0.00285   1.85400
    D1       -3.14133  -0.00000  -0.00002  -0.00000  -0.00002  -3.14135
    D2        0.00024   0.00000  -0.00002   0.00002   0.00000   0.00024
    D3        0.00004  -0.00000  -0.00002   0.00005   0.00003   0.00007
    D4       -3.14158   0.00000  -0.00002   0.00006   0.00005  -3.14153
    D5        1.04965  -0.00006   0.00187  -0.00276  -0.00083   1.04883
    D6        3.14133   0.00000   0.00001   0.00012   0.00013   3.14146
    D7       -1.05017   0.00006  -0.00185   0.00299   0.00108  -1.04909
    D8       -2.09172  -0.00006   0.00187  -0.00281  -0.00088  -2.09259
    D9       -0.00004   0.00000   0.00001   0.00007   0.00008   0.00004
   D10        2.09165   0.00006  -0.00185   0.00294   0.00103   2.09267
   D11       -1.05097   0.00006  -0.00184   0.00294   0.00103  -1.04993
   D12        1.04886  -0.00006   0.00188  -0.00282  -0.00087   1.04799
   D13        3.14049   0.00000   0.00000   0.00008   0.00008   3.14057
   D14        2.09040   0.00006  -0.00184   0.00299   0.00108   2.09149
   D15       -2.09296  -0.00006   0.00188  -0.00277  -0.00082  -2.09378
   D16       -0.00133   0.00000   0.00000   0.00013   0.00013  -0.00119
   D17       -3.14156   0.00000   0.00001   0.00002   0.00003  -3.14153
   D18        0.00008   0.00000   0.00001   0.00002   0.00003   0.00011
   D19        0.00005   0.00000   0.00000   0.00001   0.00001   0.00006
   D20       -3.14149   0.00000   0.00000   0.00001   0.00001  -3.14148
   D21        3.14157  -0.00000  -0.00000  -0.00003  -0.00004   3.14153
   D22        0.00001  -0.00000  -0.00000  -0.00003  -0.00004  -0.00002
   D23       -0.00004  -0.00000  -0.00000  -0.00002  -0.00002  -0.00006
   D24        3.14158  -0.00000  -0.00000  -0.00002  -0.00002   3.14157
   D25       -3.14158  -0.00000   0.00000  -0.00002  -0.00002   3.14158
   D26       -0.00003   0.00000  -0.00001   0.00001   0.00001  -0.00003
   D27       -0.00004  -0.00000   0.00000  -0.00002  -0.00002  -0.00006
   D28        3.14150   0.00000  -0.00001   0.00001   0.00001   3.14151
   D29       -3.14157  -0.00000  -0.00000  -0.00001  -0.00001  -3.14158
   D30        0.00001   0.00000  -0.00000   0.00001   0.00001   0.00003
   D31       -0.00001  -0.00000  -0.00000  -0.00001  -0.00001  -0.00002
   D32        3.14157   0.00000  -0.00000   0.00001   0.00001   3.14158
   D33        0.00000  -0.00000   0.00000  -0.00002  -0.00002  -0.00001
   D34        3.14155   0.00000  -0.00000   0.00002   0.00001   3.14156
   D35        0.00001   0.00000  -0.00000   0.00001   0.00001   0.00001
   D36       -3.14159   0.00000  -0.00000   0.00003   0.00003  -3.14157
         Item               Value     Threshold  Converged?
 Maximum Force            0.004275     0.000450     NO 
 RMS     Force            0.001399     0.000300     NO 
 Maximum Displacement     0.029751     0.001800     NO 
 RMS     Displacement     0.009397     0.001200     NO 
 Predicted change in Energy=-3.252058D-04
 GradGradGradGradGradGradGradGradGradGradGradGradGradGradGradGradGradGrad

                          Input orientation:                          
 ---------------------------------------------------------------------
 Center     Atomic      Atomic             Coordinates (Angstroms)
 Number     Number       Type             X           Y           Z
 ---------------------------------------------------------------------
      1          6           0        1.600736    0.000001    0.000014
      2          6           0        0.217974   -0.000001    0.000001
      3          6           0       -0.598033   -1.199848    0.000232
      4          6           0       -0.598034    1.199846   -0.000244
      5          6           0       -1.974528   -1.128973    0.000134
      6          1           0       -0.121411   -2.177301    0.000538
      7          6           0       -1.974528    1.128971   -0.000312
      8          1           0       -0.121411    2.177299   -0.000409
      9          1           0       -2.545935   -2.064353    0.000307
     10          1           0       -2.545938    2.064349   -0.000511
     11          7           0       -2.724804   -0.000002   -0.000142
     12          6           0        2.365989    1.297654    0.000077
     13          1           0        2.160094    1.942850    0.878271
     14          1           0        3.450986    1.115297    0.000220
     15          1           0        2.160319    1.942817   -0.878201
     16          6           0        2.365992   -1.297650    0.000195
     17          1           0        2.161007   -1.942364    0.878982
     18          1           0        2.159414   -1.943295   -0.877489
     19          1           0        3.450988   -1.115291   -0.000867
 ---------------------------------------------------------------------
                    Distance matrix (angstroms):
                    1          2          3          4          5
     1  C    0.000000
     2  C    1.382762   0.000000
     3  C    2.504840   1.451034   0.000000
     4  C    2.504839   1.451035   2.399694   0.000000
     5  C    3.749279   2.466098   1.378318   2.705204   0.000000
     6  H    2.776046   2.203592   1.087467   3.410615   2.129093
     7  C    3.749278   2.466099   2.705205   1.378317   2.257943
     8  H    2.776042   2.203591   3.410614   1.087467   3.790181
     9  H    4.632110   3.449745   2.131124   3.801225   1.096103
    10  H    4.632109   3.449746   3.801226   2.131125   3.244043
    11  N    4.325540   2.942778   2.441881   2.441881   1.355540
    12  C    1.506491   2.509557   3.875944   2.965637   4.972786
    13  H    2.204286   2.884070   4.272560   2.988497   5.225162
    14  H    2.160395   3.419979   4.664166   4.049903   5.871366
    15  H    2.204297   2.884178   4.272762   2.988533   5.225354
    16  C    1.506491   2.509557   2.965638   3.875944   4.343796
    17  H    2.204375   2.884572   2.989286   4.273035   4.305418
    18  H    2.204208   2.883673   2.987746   4.272285   4.303814
    19  H    2.160396   3.419979   4.049904   4.664166   5.425533
                    6          7          8          9         10
     6  H    0.000000
     7  C    3.790182   0.000000
     8  H    4.354600   2.129093   0.000000
     9  H    2.427154   3.244044   4.885686   0.000000
    10  H    4.885686   1.096103   2.427157   4.128702   0.000000
    11  N    3.393860   1.355542   3.393861   2.072085   2.072086
    12  C    4.273461   4.343794   2.638358   5.952318   4.971403
    13  H    4.790754   4.304580   2.456075   6.243012   4.788920
    14  H    4.858314   5.425531   3.726911   6.787727   6.071556
    15  H    4.791017   4.304648   2.455970   6.243237   4.788942
    16  C    2.638363   4.972786   4.273458   4.971405   5.952318
    17  H    2.456886   5.225792   4.791072   4.789807   6.243603
    18  H    2.455168   5.224723   4.790691   4.788057   6.242647
    19  H    3.726916   5.871366   4.858310   6.071557   6.787727
                   11         12         13         14         15
    11  N    0.000000
    12  C    5.253578   0.000000
    13  H    5.329963   1.109007   0.000000
    14  H    6.275689   1.100215   1.766981   0.000000
    15  H    5.330099   1.109011   1.756472   1.766984   0.000000
    16  C    5.253579   2.595304   3.363667   2.645661   3.363704
    17  H    5.330738   3.363362   3.885214   3.433010   4.264073
    18  H    5.329325   3.364008   4.264366   3.434169   3.886112
    19  H    6.275689   2.645662   3.433879   2.230588   3.433302
                   16         17         18         19
    16  C    0.000000
    17  H    1.109027   0.000000
    18  H    1.108991   1.756472   0.000000
    19  H    1.100215   1.766985   1.766981   0.000000
 Stoichiometry    C8H10N(1-)
 Framework group  C1[X(C8H10N)]
 Deg. of freedom    51
 Full point group                 C1      NOp   1
 Largest Abelian subgroup         C1      NOp   1
 Largest concise Abelian subgroup C1      NOp   1
                         Standard orientation:                         
 ---------------------------------------------------------------------
 Center     Atomic      Atomic             Coordinates (Angstroms)
 Number     Number       Type             X           Y           Z
 ---------------------------------------------------------------------
      1          6           0        1.607384    0.000000    0.000008
      2          6           0        0.224622   -0.000001   -0.000005
      3          6           0       -0.591386   -1.199847    0.000226
      4          6           0       -0.591386    1.199847   -0.000250
      5          6           0       -1.967881   -1.128971    0.000128
      6          1           0       -0.114765   -2.177301    0.000531
      7          6           0       -1.967879    1.128972   -0.000319
      8          1           0       -0.114761    2.177299   -0.000416
      9          1           0       -2.539289   -2.064350    0.000300
     10          1           0       -2.539288    2.064351   -0.000518
     11          7           0       -2.718156    0.000000   -0.000149
     12          6           0        2.372638    1.297652    0.000070
     13          1           0        2.166743    1.942849    0.878264
     14          1           0        3.457635    1.115294    0.000213
     15          1           0        2.166969    1.942815   -0.878207
     16          6           0        2.372639   -1.297652    0.000188
     17          1           0        2.167653   -1.942365    0.878975
     18          1           0        2.166060   -1.943297   -0.877495
     19          1           0        3.457635   -1.115294   -0.000874
 ---------------------------------------------------------------------
 Rotational constants (GHZ):           3.4966343           1.1758416           0.8895697
 Basis read from rwf:  (5D, 7F)
 Pseudo-potential data read from rwf file.
 There are   155 symmetry adapted cartesian basis functions of A   symmetry.
 There are   146 symmetry adapted basis functions of A   symmetry.
   146 basis functions,   292 primitive gaussians,   155 cartesian basis functions
    33 alpha electrons       33 beta electrons
       nuclear repulsion energy       410.2678871252 Hartrees.
 NAtoms=   19 NActive=   19 NUniq=   19 SFac= 1.00D+00 NAtFMM=   60 NAOKFM=F Big=F
 Integral buffers will be    131072 words long.
 Raffenetti 2 integral format.
 Two-electron integral symmetry is turned on.
 Nuclear repulsion after empirical dispersion term =      410.2351340223 Hartrees.
 One-electron integrals computed using PRISM.
   1 Symmetry operations used in ECPInt.
 ECPInt:  NShTT=    1596 NPrTT=    9922 LenC2=    1563 LenP2D=    6618.
 LDataN:  DoStor=T MaxTD1= 4 Len=   56
 NBasis=   146 RedAO= T EigKep=  9.45D-04  NBF=   146
 NBsUse=   146 1.00D-06 EigRej= -1.00D+00 NBFU=   146
 Initial guess from the checkpoint file:  "/tmp/Gau-58494.chk"
 B after Tr=     0.000000    0.000000    0.000000
         Rot=    1.000000    0.000002    0.000002   -0.000000 Ang=   0.00 deg.
 ExpMin= 1.61D-01 ExpMax= 4.17D+03 ExpMxC= 6.27D+02 IAcc=3 IRadAn=         5 AccDes= 0.00D+00
 Harris functional with IExCor=  402 and IRadAn=       5 diagonalized for initial guess.
 HarFok:  IExCor=  402 AccDes= 0.00D+00 IRadAn=         5 IDoV= 1 UseB2=F ITyADJ=14
 ICtDFT=  3500011 ScaDFX=  1.000000  1.000000  1.000000  1.000000
 FoFCou: FMM=F IPFlag=           0 FMFlag=      100000 FMFlg1=           0
         NFxFlg=           0 DoJE=T BraDBF=F KetDBF=T FulRan=T
         wScrn=  0.000000 ICntrl=       500 IOpCl=  0 I1Cent=   200000004 NGrid=           0
         NMat0=    1 NMatS0=      1 NMatT0=    0 NMatD0=    1 NMtDS0=    0 NMtDT0=    0
 Petite list used in FoFCou.
 Requested convergence on RMS density matrix=1.00D-08 within 128 cycles.
 Requested convergence on MAX density matrix=1.00D-06.
 Requested convergence on             energy=1.00D-06.
 No special actions if energy rises.
 Integral accuracy reduced to 1.0D-05 until final iterations.
 Initial convergence to 1.0D-05 achieved.  Increase integral accuracy.
 SCF Done:  E(RB3LYP) =  -365.635788397     A.U. after   12 cycles
            NFock= 12  Conv=0.23D-08     -V/T= 2.0065
   1 Symmetry operations used in ECPInt.
 ECPInt:  NShTT=    1596 NPrTT=    9922 LenC2=    1563 LenP2D=    6618.
 LDataN:  DoStor=T MaxTD1= 5 Len=  102
 Calling FoFJK, ICntrl=      2127 FMM=F ISym2X=0 I1Cent= 0 IOpClX= 0 NMat=1 NMatS=1 NMatT=0.
 ***** Axes restored to original set *****
 -------------------------------------------------------------------
 Center     Atomic                   Forces (Hartrees/Bohr)
 Number     Number              X              Y              Z
 -------------------------------------------------------------------
      1        6          -0.000318069   -0.000000302    0.000001504
      2        6          -0.000291265    0.000000478   -0.000001346
      3        6          -0.000146022    0.000224320   -0.000000444
      4        6          -0.000145480   -0.000224508    0.000000675
      5        6           0.000371715   -0.000637950   -0.000000937
      6        1           0.000177560   -0.000209460    0.000000068
      7        6           0.000370916    0.000636941    0.000000640
      8        1           0.000177386    0.000209468    0.000000472
      9        1           0.000104389    0.000138445    0.000000420
     10        1           0.000104456   -0.000138305   -0.000000364
     11        7          -0.000696664    0.000000762    0.000000033
     12        6           0.000521581    0.000708416   -0.000001828
     13        1           0.000030666   -0.000146124   -0.000152509
     14        1          -0.000435830    0.000145547   -0.000000413
     15        1           0.000029160   -0.000147176    0.000153899
     16        6           0.000521486   -0.000708265    0.000000982
     17        1           0.000029350    0.000147827   -0.000154027
     18        1           0.000030519    0.000145419    0.000152367
     19        1          -0.000435855   -0.000145534    0.000000808
 -------------------------------------------------------------------
 Cartesian Forces:  Max     0.000708416 RMS     0.000273608

 GradGradGradGradGradGradGradGradGradGradGradGradGradGradGradGradGradGrad
 Berny optimization.
 Using GEDIIS/GDIIS optimizer.
 FormGI is forming the generalized inverse of G from B-inverse, IUseBI=4.
 Internal  Forces:  Max     0.000611825 RMS     0.000176542
 Search for a local minimum.
 Step number   3 out of a maximum of  114
 All quantities printed in internal units (Hartrees-Bohrs-Radians)
 Mixed Optimization -- En-DIIS/RFO-DIIS
 Update second derivatives using D2CorX and points    1    2    3
 DE= -3.15D-04 DEPred=-3.25D-04 R= 9.69D-01
 TightC=F SS=  1.41D+00  RLast= 5.27D-02 DXNew= 8.4853D-01 1.5796D-01
 Trust test= 9.69D-01 RLast= 5.27D-02 DXMaxT set to 5.05D-01
 ITU=  1  1  0
 Use linear search instead of GDIIS.
     Eigenvalues ---    0.00740   0.00740   0.00991   0.01721   0.01792
     Eigenvalues ---    0.01906   0.02009   0.02052   0.02196   0.02305
     Eigenvalues ---    0.02316   0.02384   0.06675   0.06737   0.06970
     Eigenvalues ---    0.06970   0.15598   0.16000   0.16000   0.16000
     Eigenvalues ---    0.16000   0.16000   0.16000   0.16000   0.16006
     Eigenvalues ---    0.16798   0.21148   0.22000   0.22874   0.25000
     Eigenvalues ---    0.25000   0.25778   0.32175   0.33402   0.33701
     Eigenvalues ---    0.33702   0.33704   0.34274   0.34463   0.34727
     Eigenvalues ---    0.34927   0.34973   0.35455   0.35475   0.37539
     Eigenvalues ---    0.40673   0.41424   0.45068   0.47809   0.52804
     Eigenvalues ---    0.55566
 RFO step:  Lambda=-6.79319822D-06 EMin= 7.40297099D-03
 Quartic linear search produced a step of -0.02746.
 Iteration  1 RMS(Cart)=  0.00137395 RMS(Int)=  0.00000062
 Iteration  2 RMS(Cart)=  0.00000076 RMS(Int)=  0.00000013
 Variable       Old X    -DE/DX   Delta X   Delta X   Delta X     New X
                                 (Linear)    (Quad)   (Total)
    R1        2.61304  -0.00003   0.00040  -0.00051  -0.00011   2.61293
    R2        2.84686   0.00056   0.00021   0.00141   0.00161   2.84847
    R3        2.84686   0.00056   0.00021   0.00141   0.00161   2.84847
    R4        2.74206  -0.00010  -0.00038   0.00014  -0.00024   2.74182
    R5        2.74206  -0.00010  -0.00038   0.00014  -0.00024   2.74182
    R6        2.60464  -0.00013   0.00024  -0.00055  -0.00031   2.60433
    R7        2.05501   0.00027  -0.00003   0.00076   0.00073   2.05575
    R8        2.60464  -0.00013   0.00024  -0.00055  -0.00031   2.60433
    R9        2.05501   0.00027  -0.00003   0.00076   0.00073   2.05575
   R10        2.07134  -0.00017  -0.00007  -0.00041  -0.00047   2.07086
   R11        2.56160   0.00061  -0.00021   0.00136   0.00115   2.56275
   R12        2.07133  -0.00017  -0.00007  -0.00041  -0.00047   2.07086
   R13        2.56160   0.00061  -0.00021   0.00136   0.00115   2.56275
   R14        2.09572  -0.00021  -0.00003  -0.00059  -0.00062   2.09510
   R15        2.07910  -0.00045  -0.00010  -0.00117  -0.00127   2.07784
   R16        2.09573  -0.00021  -0.00003  -0.00059  -0.00062   2.09511
   R17        2.09576  -0.00021  -0.00003  -0.00059  -0.00062   2.09513
   R18        2.09569  -0.00021  -0.00003  -0.00059  -0.00062   2.09507
   R19        2.07910  -0.00045  -0.00010  -0.00117  -0.00127   2.07784
    A1        2.10363  -0.00021  -0.00021  -0.00057  -0.00077   2.10285
    A2        2.10362  -0.00021  -0.00021  -0.00057  -0.00077   2.10285
    A3        2.07594   0.00043   0.00041   0.00114   0.00155   2.07749
    A4        2.16804  -0.00013  -0.00027  -0.00005  -0.00032   2.16772
    A5        2.16804  -0.00013  -0.00027  -0.00005  -0.00032   2.16772
    A6        1.94711   0.00026   0.00054   0.00010   0.00063   1.94775
[...]
 00000958,0.03794289,-0.00358006,0.00000200,0.73214459,0.02341141,0.005
 18501,-0.00000373,0.07033202,-0.21611681,0.00002409,0.00358018,-0.0355
 7357,0.00000794,0.04926486,0.64549813,-0.00000274,0.00000176,0.0117250
 6,-0.00001617,0.00002136,-0.06206882,0.00000253,0.00000877,0.00286980,
 0.00002456,-0.00007547,0.10222007,0.01298775,0.00412994,-0.00000472,-0
 .02817020,-0.04786181,0.00000728,-0.39145524,0.02461414,-0.00002666,-0
 .03081137,-0.00525218,-0.00000190,0.72983957,0.00180592,-0.01054997,0.
 00000284,-0.03675845,0.02767112,-0.00000708,-0.01621991,-0.12044267,0.
 00001271,0.02735488,-0.00124111,0.00000102,0.02829378,0.68487665,0.000
 00099,0.00000019,0.00246469,0.00000392,-0.00000741,0.00072533,-0.00001
 789,0.00001649,-0.05126889,-0.00000621,-0.00000166,-0.00552717,0.00002
 899,-0.00009808,0.14751113,0.00063576,0.00052957,-0.00000049,0.0114501
 1,-0.01464291,0.00000461,-0.10973372,0.10565932,-0.00003715,-0.0014346
 1,-0.00277336,0.00000120,-0.00957070,0.03364516,-0.00000743,0.11743033
 ,0.00037010,0.00018314,0.00000036,0.01615154,-0.01924997,0.00000568,0.
 10580302,-0.27652856,0.00007174,-0.00511787,-0.00256929,0.00000109,-0.
 00200119,-0.00123543,-0.00000171,-0.11766659,0.29518791,0.00000146,0.0
 0000069,-0.00114780,-0.00000421,0.00000110,0.00295356,-0.00003806,0.00
 007297,-0.02537859,0.00000133,0.00000088,0.00404629,0.00000292,0.00000
 145,-0.00385325,0.00003633,-0.00007642,0.02010590,0.01298771,-0.004129
 89,-0.00000313,-0.02817022,0.04786170,-0.00001068,-0.03081136,0.005252
 10,-0.00000113,-0.39145644,-0.02461444,-0.00001600,0.03632864,-0.01703
 847,0.00000457,-0.00126658,-0.00133633,-0.00000121,0.72984044,-0.00180
 590,-0.01054998,0.00000154,0.03675840,0.02767125,-0.00000420,-0.027354
 95,-0.00124114,-0.00000274,0.01621956,-0.12044262,0.00001344,0.0170386
 9,-0.10176743,0.00001934,-0.00228326,-0.00001189,-0.00000180,-0.028294
 87,0.68487529,0.00000185,0.00000122,0.00246468,-0.00000676,-0.00000075
 ,0.00072533,0.00000338,-0.00000077,-0.00552717,-0.00002423,0.00000893,
 -0.05126880,-0.00000156,0.00001637,0.00447839,0.00000005,-0.00000003,0
 .00008500,0.00004028,-0.00008293,0.14751107,0.00063577,-0.00052956,0.0
 0000004,0.01145010,0.01464295,-0.00000162,-0.00143462,0.00277336,-0.00
 000065,-0.10973364,-0.10565929,0.00001098,-0.00126659,0.00228326,-0.00
 000047,0.00066007,0.00105779,0.,-0.00957066,-0.03364515,0.00000493,0.1
 1743023,-0.00037010,0.00018314,-0.00000076,-0.01615151,-0.01925000,0.0
 0000279,0.00511787,-0.00256928,0.00000106,-0.10580296,-0.27652867,0.00
 003115,0.00133633,-0.00001188,0.00000021,-0.00105779,-0.00133564,-0.00
 000004,0.00200118,-0.00123545,-0.00000016,0.11766652,0.29518805,0.0000
 0003,0.,-0.00114779,0.00000202,0.00000410,0.00295358,-0.00000123,0.000
 00153,0.00404628,0.00001170,0.00003146,-0.02537863,0.00000023,0.000000
 15,0.00008500,0.00000054,-0.00000014,-0.00095468,-0.00000067,-0.000002
 74,-0.00385323,-0.00001219,-0.00003432,0.02010591,0.00001879,-0.001784
 48,0.00000028,-0.00519054,0.00324612,-0.00000163,-0.01358310,-0.030620
 51,0.00000544,-0.00021834,0.00082835,-0.00000012,-0.13640992,-0.114289
 37,0.00001614,0.00072696,0.00081479,0.00000017,0.00020591,0.00429521,-
 0.00000108,0.00011909,-0.00020766,0.00000011,0.14039136,-0.00116305,-0
 .00019651,0.00000049,0.00122877,0.00190445,0.00000111,0.00037494,0.000
 64912,0.00000086,-0.00021306,0.00036293,-0.00000009,-0.11583170,-0.224
 83456,0.00002980,-0.00058571,0.00118663,-0.00000116,0.00423782,-0.0023
 0089,0.00000247,-0.00037685,-0.00003106,-0.00000031,0.12021902,0.25956
 933,0.00000028,0.00000003,0.00012633,-0.00000117,0.00000115,0.00897258
 ,-0.00000062,-0.00000074,0.00424638,-0.00000026,-0.00000011,-0.0002675
 8,0.00001577,0.00003102,-0.03877466,0.00000071,-0.00000132,-0.00415098
 ,-0.00000098,0.00000242,0.00796338,0.00000013,-0.00000018,-0.00141101,
 -0.00001687,-0.00003826,0.02579490,0.00001878,0.00178448,-0.00000024,-
 0.00519052,-0.00324614,-0.00000044,-0.00021834,-0.00082835,0.00000015,
 -0.01358312,0.03062048,-0.00000549,0.00020592,-0.00429521,0.00000016,0
 .00011909,0.00020766,0.00000008,-0.13641043,0.11428973,-0.00002330,0.0
 0072696,-0.00081479,0.00000042,0.00032923,-0.00060738,0.00000013,0.140
 39187,0.00116305,-0.00019650,-0.00000037,-0.00122879,0.00190444,0.0000
 0114,0.00021306,0.00036294,-0.00000006,-0.00037497,0.00064918,0.000000
 52,-0.00423783,-0.00230092,0.00000111,0.00037684,-0.00003106,-0.000000
 10,0.11583203,-0.22483435,0.00003471,0.00058571,0.00118663,-0.00000080
 ,0.00060738,-0.00142437,0.00000039,-0.12021941,0.25956905,-0.00000020,
 0.00000020,0.00012633,-0.00000034,0.00000108,0.00897259,-0.00000023,-0
 .00000029,-0.00026758,-0.00000052,0.00000247,0.00424637,-0.00000008,0.
 00000161,0.00796336,-0.00000005,-0.00000027,-0.00141101,-0.00002349,0.
 00003427,-0.03877462,0.00000019,-0.00000080,-0.00415099,-0.00000005,0.
 00000022,0.00051816,0.00002502,-0.00004217,0.02579487,-0.01210491,-0.0
 0000002,0.00000411,0.01225500,0.00000007,0.00000071,-0.03252517,0.0337
 9606,-0.00001135,-0.03252499,-0.03379610,0.00000223,-0.17757161,0.0963
 8158,-0.00002296,-0.00569676,0.00072360,-0.00000187,-0.17757079,-0.096
 38062,0.00000794,-0.00569676,-0.00072361,-0.00000142,0.01430876,-0.007
 45752,0.00000303,0.01430876,0.00745763,-0.00000020,0.39893599,0.,0.008
 64465,-0.00000172,0.,-0.04641419,0.00000836,0.06933209,-0.00178210,0.0
 0000765,-0.06933207,-0.00178228,-0.00000289,0.09378254,-0.24574531,0.0
 0003767,-0.00077054,0.00296501,0.00000394,-0.09378153,-0.24574429,0.00
 002029,0.00077053,0.00296501,0.00000158,0.01686367,-0.03488337,0.00000
 568,-0.01686360,-0.03488334,0.00000363,-0.00000107,0.58804752,-0.00000
 171,-0.00000023,-0.00084048,0.00000228,0.00000648,-0.00906399,-0.00001
 739,0.00000415,0.01816128,0.00000778,0.00000103,0.01816125,-0.00002022
 ,0.00003680,-0.06601199,-0.00000116,0.00000265,0.01095754,0.00000746,0
 .00002041,-0.06601210,-0.00000121,0.00000100,0.01095755,-0.00000231,0.
 00000529,-0.00250447,0.00000352,0.00000537,-0.00250445,0.00002230,-0.0
 0008035,0.08975843,-0.10907142,-0.05513199,-0.00000255,-0.02895400,-0.
 03118594,-0.00000175,-0.00111083,0.00556827,-0.00000109,0.00210866,-0.
 00264156,0.00000086,-0.00282238,-0.00118501,0.00000076,0.00013346,-0.0
 0006037,-0.00000026,-0.00209767,-0.00147435,-0.00000012,-0.00174701,-0
 .00116128,0.00000010,-0.00047200,0.00015456,-0.00000012,0.00008769,-0.
 00022621,-0.00000005,0.00243633,0.00007591,0.00000020,0.54393340,-0.03
 956274,-0.17438426,0.00000816,-0.02031630,-0.00166365,-0.00000366,0.00
 582763,0.00427357,0.,0.01002684,0.00019961,0.00000093,-0.00175204,-0.0
 0131377,0.00000082,-0.00008690,0.00029979,-0.00000077,-0.00511073,-0.0
 0220754,0.00000010,0.00044860,-0.00113650,0.00000011,0.00030890,0.0004
 5377,-0.00000009,0.00025039,-0.00057523,0.00000007,0.00384585,0.002452
 58,-0.00000025,-0.03588409,0.48054358,-0.00000358,0.00000551,-0.055784
 61,0.00000403,-0.00000029,-0.00020266,0.00000132,-0.00000021,0.0062745
 5,-0.00000022,-0.00000107,-0.00461174,-0.00000013,0.00000061,0.0019330
 7,0.00000007,-0.00000026,-0.00040548,0.00000035,0.00000083,0.00079226,
 -0.00000011,0.00000023,0.00020981,0.00000011,-0.00000009,-0.00081927,-
 0.00000004,0.00000007,0.00028660,0.00000014,-0.00000063,-0.00077939,0.
 00000240,0.00000006,0.48839997,0.00294581,-0.01038187,-0.01179663,0.00
 253417,-0.00091934,-0.00040384,-0.00112609,-0.00033317,0.00090194,0.00
 120569,0.00123786,-0.00000369,0.00160894,-0.00135885,0.00035858,-0.000
 00438,-0.00002785,-0.00010580,-0.00142008,-0.00082229,0.00100705,-0.00
 093425,0.00006888,-0.00118819,0.00001606,-0.00000068,-0.00012760,-0.00
 002564,-0.00000232,0.00003299,-0.00003484,0.00215484,-0.00050356,-0.05
 832170,0.02529017,0.03649159,0.05807038,-0.00454787,-0.02318468,-0.015
 78354,0.00913534,0.00017309,0.00090239,-0.00290801,-0.00210114,0.00072
 311,-0.00257581,0.00139337,0.00003445,0.00228184,-0.00048931,0.0001605
 6,0.00007658,-0.00004945,-0.00018210,0.00129050,0.00031582,-0.00014179
 ,-0.00010745,0.00084200,-0.00027487,-0.00007457,-0.00020187,-0.0000769
 4,-0.00011619,0.00025862,0.00000328,-0.00197877,0.00065988,0.00010203,
 0.03070928,-0.11153547,-0.10101760,-0.02796265,0.13081960,-0.00683996,
 -0.00366895,0.00935594,0.00410263,-0.00030773,0.00174042,-0.00155285,-
 0.00091939,-0.00033751,-0.00163303,-0.00046960,-0.00028402,0.00105926,
 -0.00020248,-0.00006239,0.00003849,0.00000363,-0.00004013,0.00089646,0
 .00062034,-0.00029739,0.00005189,0.00095593,-0.00027840,-0.00004546,-0
 .00008102,0.00004063,-0.00005964,0.00013882,-0.00000565,-0.00091947,0.
 00017367,0.00016280,0.04029804,-0.09586505,-0.19224080,-0.04335110,0.1
 1080252,0.21163143,-0.01771811,0.00453719,-0.00000099,-0.00018571,-0.0
 0414107,0.00000116,-0.00081162,0.00076587,-0.00000044,0.00014459,-0.00
 010763,-0.00000004,-0.00013946,-0.00029955,-0.00000009,0.00003830,-0.0
 0026037,0.00000015,0.00057614,0.00008033,0.00000008,0.00013340,-0.0003
 4632,0.00000007,-0.00019215,-0.00011210,0.00000003,-0.00010261,0.00009
 738,-0.00000001,-0.00042571,-0.00041167,0.00000005,-0.28978311,0.04301
 273,-0.00001681,-0.00652414,0.00196327,0.00065544,0.31899832,-0.027213
 86,0.00486289,-0.00000297,-0.00148849,-0.00537867,-0.00000052,-0.00159
 644,0.00067891,-0.00000002,0.00070920,-0.00117750,0.00000035,0.0002338
 7,-0.00078205,0.00000030,0.00005200,-0.00002403,-0.00000002,-0.0004134
 3,0.00023233,-0.00000022,0.00031504,0.00071439,-0.00000006,-0.00014665
 ,-0.00000426,-0.00000004,-0.00003241,0.00001051,-0.00000001,0.00017483
 ,0.00053357,0.,0.04563992,-0.05557624,0.00000275,0.01722803,-0.0037195
 6,0.00141853,-0.04884291,0.06349106,0.00000093,0.00000049,-0.00121743,
 0.00000002,0.00000005,0.00046183,-0.00000003,0.00000006,0.00043422,-0.
 00000006,0.00000028,0.00038852,0.,0.,-0.00000707,-0.00000001,-0.000000
 03,0.00000714,0.00000003,-0.00000006,0.00020948,0.00000004,-0.00000024
 ,-0.00042673,0.,-0.00000001,-0.00005269,0.,0.,0.00000238,-0.00000005,-
 0.00000007,-0.00007574,-0.00001657,0.00000238,-0.04827295,0.02774398,-
 0.00491504,0.00071889,0.00001793,-0.00000290,0.04672489,0.00294914,-0.
 01038310,0.01179714,0.00253079,-0.00091886,0.00040289,-0.00112563,-0.0
 0033292,-0.00090201,0.00120553,0.00123745,0.00000419,0.00160834,-0.001
 35864,-0.00035805,-0.00000440,-0.00002756,0.00010571,-0.00142006,-0.00
 082257,-0.00100711,-0.00093508,0.00006908,0.00118827,0.00001605,-0.000
 00060,0.00012768,-0.00002561,-0.00000238,-0.00003302,-0.00003454,0.002
 15471,0.00050299,-0.05831463,0.02527472,-0.03647660,0.00205325,-0.0034
 7821,0.00758982,-0.00651894,0.01722476,-0.02774611,0.05806006,-0.00454
 961,-0.02318625,0.01578349,0.00913382,0.00017281,-0.00090287,-0.002908
 53,-0.00210080,-0.00072249,-0.00257527,0.00139308,-0.00003499,0.002282
 08,-0.00048963,-0.00016062,0.00007641,-0.00004936,0.00018246,0.0012901
 0,0.00031564,0.00014186,-0.00010737,0.00084231,0.00027465,-0.00007460,
 -0.00020185,0.00007706,-0.00011619,0.00025861,-0.00000334,-0.00197867,
 0.00066033,-0.00010244,0.03069417,-0.11152110,0.10101543,-0.00347727,0
 .00979157,-0.01323446,0.00196214,-0.00371904,0.00491592,-0.02794651,0.
 13080403,0.00683850,0.00366912,0.00935710,-0.00410242,0.00030803,0.001
 74034,0.00155256,0.00091905,-0.00033768,0.00163323,0.00047051,-0.00028
 417,-0.00105897,0.00020230,-0.00006240,-0.00003844,-0.00000365,-0.0000
 4039,-0.00089664,-0.00062082,-0.00029748,-0.00005195,-0.00095627,-0.00
 027781,0.00004545,0.00008102,0.00004059,0.00005964,-0.00013882,-0.0000
 0563,0.00091933,-0.00017328,0.00016305,-0.04028215,0.09586062,-0.19225
 926,-0.00758655,0.01323171,-0.02818402,-0.00065659,-0.00141594,0.00071
 493,0.04333441,-0.11079796,0.21165275,-0.10907153,0.05513197,-0.000017
 39,-0.02895410,0.03118589,-0.00000685,0.00210868,0.00264157,0.00000039
 ,-0.00111084,-0.00556826,-0.00000116,-0.00209768,0.00147435,0.00000096
 ,-0.00174701,0.00116127,0.00000066,-0.00282237,0.00118502,-0.00000068,
 0.00013346,0.00006037,0.00000044,0.00008769,0.00022621,-0.00000007,-0.
 00047200,-0.00015456,0.00000003,0.00243633,-0.00007592,-0.00000038,0.0
 0705513,-0.00939188,0.00000805,-0.00120640,-0.00205995,-0.00043888,-0.
 00064449,-0.00259681,-0.00000098,-0.00120901,-0.00206002,0.00043758,0.
 54393332,0.03956277,-0.17438395,0.00003049,0.02031627,-0.00166355,0.00
 000204,-0.01002684,0.00019958,-0.00000282,-0.00582762,0.00427354,-0.00
 000178,0.00511074,-0.00220753,0.00000353,-0.00044860,-0.00113650,0.000
 00004,0.00175203,-0.00131376,0.00000070,0.00008690,0.00029980,0.000000
 07,-0.00025038,-0.00057523,0.00000021,-0.00030890,0.00045376,-0.000000
 06,-0.00384584,0.00245257,-0.00000214,0.00939192,-0.02665335,0.0000025
 9,-0.00032238,-0.00111991,0.00090414,0.00282396,0.00058399,-0.00000034
 ,-0.00032045,-0.00111989,-0.00090488,0.03588433,0.48054356,-0.00001073
 ,0.00000805,-0.05578463,0.00000279,0.00000262,-0.00020263,0.00000476,0
 .00000063,-0.00461173,-0.00000131,0.00000104,0.00627455,-0.00000093,-0
 .00000146,0.00079227,0.00000117,-0.00000353,0.00020981,0.00000276,0.00
 000285,0.00193306,-0.00000006,0.00000025,-0.00040548,0.00000010,0.0000
 0013,0.00028660,0.00000019,-0.00000022,-0.00081927,0.00000009,-0.00000
 311,-0.00077939,0.00000115,-0.00000545,0.00073024,-0.00148387,-0.00307
 246,-0.00170327,0.00000208,0.00000143,0.00015493,0.00148524,0.00306774
 ,-0.00170203,-0.00001696,0.00003664,0.48840009,0.00292906,0.01038254,-
 0.01180216,0.00253723,0.00092116,-0.00040362,0.00120713,-0.00123745,-0
 .00000286,-0.00112783,0.00033415,0.00090281,-0.00141908,0.00082182,0.0
 0100561,-0.00093077,-0.00007049,-0.00118652,0.00160969,0.00135930,0.00
 035821,-0.00000434,0.00002781,-0.00010590,-0.00002576,0.00000214,0.000
 03293,0.00001592,0.00000077,-0.00012768,-0.00003564,-0.00215500,-0.000
 50230,-0.00120683,0.00031832,-0.00148707,-0.00015362,-0.00017264,-0.00
 005153,0.00055866,0.00009113,0.00017114,0.00075823,0.00045309,-0.00010
 419,-0.05824996,-0.02517456,0.03637508,0.05798689,0.00457679,-0.023175
 90,0.01580005,-0.00913880,0.00017175,-0.00089863,0.00257805,0.00139515
 ,-0.00003331,0.00290989,-0.00210203,-0.00072391,-0.00129160,0.00031519
 ,0.00014135,0.00010819,0.00084074,0.00027447,-0.00228255,-0.00048940,-
 0.00016112,-0.00007651,-0.00004974,0.00018225,0.00011629,0.00025882,-0
 .00000346,0.00007469,-0.00020207,0.00007720,0.00198016,0.00065950,-0.0
 0010191,0.00205760,-0.00111520,0.00306626,0.00017291,0.00015307,0.0001
 3295,-0.00007593,-0.00000830,-0.00005351,-0.00045198,-0.00199584,0.000
 41877,-0.03059203,-0.11139283,0.10097746,0.02782515,0.13066368,-0.0068
 4730,0.00368484,0.00936300,0.00410849,0.00030852,0.00173961,-0.0016336
 0,0.00046736,-0.00028421,-0.00155439,0.00092044,-0.00033780,0.00089648
 ,-0.00061950,-0.00029781,0.00005279,-0.00095517,-0.00027768,0.00106052
 ,0.00020285,-0.00006244,0.00003849,-0.00000349,-0.00004026,-0.00005979
 ,-0.00013902,-0.00000569,-0.00004555,0.00008122,0.00004063,-0.00092053
 ,-0.00017430,0.00016328,-0.00043856,-0.00090378,-0.00170317,-0.0000515
 3,-0.00013211,-0.00007770,0.00009509,-0.00001601,-0.00004075,0.0001038
 6,0.00042011,-0.00009921,0.04018945,0.09580854,-0.19240405,-0.04321954
 ,-0.11076022,0.21182072,0.00296584,0.01038252,0.01179164,0.00252775,0.
 00091706,0.00040311,0.00120407,-0.00123786,0.00000501,-0.00112389,0.00
 033193,-0.00090113,-0.00142105,0.00082304,-0.00100855,-0.00093856,-0.0
 0006747,0.00118994,0.00160759,0.00135819,-0.00035841,-0.00000445,0.000
 02761,0.00010560,-0.00002548,0.00000255,-0.00003308,0.00001619,0.00000
 051,0.00012760,-0.00003374,-0.00215455,0.00050425,-0.00120860,0.000324
 51,0.00148204,0.00075869,0.00045086,0.00010398,0.00055930,0.00009078,-
 0.00017085,-0.00015329,-0.00017316,0.00005215,-0.05838645,-0.02539041,
 -0.03659269,0.00205322,0.00347098,0.00756048,0.05814369,0.00452075,-0.
 02319494,-0.01576693,-0.00913034,0.00017409,0.00090662,0.00257303,0.00
 139132,0.00003613,0.00290663,-0.00209988,0.00072169,-0.00128901,0.0003
 1626,-0.00014230,0.00010663,0.00084358,-0.00027505,-0.00228135,-0.0004
 8954,0.00016006,-0.00007648,-0.00004907,-0.00018232,0.00011609,0.00025
 842,0.00000315,0.00007449,-0.00020165,-0.00007680,0.00197726,0.0006606
 9,0.00010256,0.00206236,-0.00112460,-0.00307393,-0.00045195,-0.0019985
 2,-0.00041824,-0.00007389,-0.00000694,0.00005365,0.00017289,0.00015351
 ,-0.00013346,-0.03081144,-0.11166399,-0.10105548,0.00348445,0.00979156
 ,0.01320748,0.02808398,0.13096013,0.00683116,-0.00365319,0.00935000,-0
 .00409656,-0.00030727,0.00174115,0.00163267,-0.00047274,-0.00028399,0.
 00155102,-0.00091800,-0.00033739,-0.00089663,0.00062166,-0.00029707,-0
 .00005105,0.00095703,-0.00027852,-0.00105771,-0.00020193,-0.00006235,-
 0.00003844,0.00000379,-0.00004026,0.00005950,0.00013862,-0.00000560,0.
 00004537,-0.00008082,0.00004059,0.00091827,0.00017265,0.00016257,0.000
 43790,0.00090524,-0.00170211,-0.00010431,-0.00041690,-0.00009828,-0.00
 009576,0.00001643,-0.00004054,0.00005215,0.00013429,-0.00007793,-0.040
 39032,-0.09591704,-0.19209589,-0.00761586,-0.01325872,-0.02818396,0.04
 346548,0.11084014,0.21146329,-0.01771814,-0.00453721,0.00000869,-0.000
 18571,0.00414108,0.00000659,0.00014458,0.00010763,0.00000043,-0.000811
 62,-0.00076587,-0.00000091,0.00057614,-0.00008033,0.00000096,0.0001334
 0,0.00034631,-0.00000082,-0.00013946,0.00029955,-0.00000051,0.00003830
 ,0.00026037,0.00000008,-0.00010261,-0.00009738,0.00000006,-0.00019215,
 0.00011210,0.00000009,-0.00042571,0.00041167,-0.00000059,-0.00064449,-
 0.00282396,-0.00000555,0.00055816,0.00007444,0.00009592,0.00203734,0.0
 0057144,0.00000058,0.00055980,0.00007539,-0.00009494,-0.28978276,-0.04
 301294,0.00023115,-0.00650219,-0.00196132,0.00066514,-0.00654083,-0.00
 196408,-0.00064685,0.31899795,0.02721382,0.00486292,-0.00002439,0.0014
 8849,-0.00537866,-0.00000328,-0.00070920,-0.00117750,-0.00000018,0.001
 59645,0.00067891,0.00000260,0.00041344,0.00023233,0.00000039,-0.000315
 04,0.00071439,-0.00000056,-0.00023387,-0.00078205,0.00000108,-0.000052
 00,-0.00002403,-0.00000036,0.00003241,0.00001051,0.00000004,0.00014665
 ,-0.00000426,-0.00000029,-0.00017483,0.00053357,-0.00000046,0.00259681
 ,0.00058400,-0.00000025,-0.00009207,-0.00000711,0.00001641,-0.00057144
 ,-0.00071105,-0.00000064,-0.00008984,-0.00000812,-0.00001602,-0.045640
 10,-0.05557632,0.00004287,-0.01721171,-0.00371817,-0.00139775,-0.01724
 107,-0.00372045,0.00143674,0.04884311,0.06349112,-0.00000881,-0.000000
 35,-0.00121741,-0.00000108,-0.00000108,0.00046183,-0.00000279,0.000000
 34,0.00038852,-0.00000003,0.00000057,0.00043422,0.00000087,0.00000006,
 0.00020948,-0.00000017,0.00000037,-0.00042673,-0.00000077,-0.00000110,
 -0.00000707,0.00000002,-0.00000013,0.00000714,0.,-0.00000004,0.0000023
 8,0.,0.,-0.00005269,-0.00000029,0.00000124,-0.00007574,0.00000181,0.00
 000056,0.00015493,0.00017054,0.00005330,-0.00004055,-0.00000135,-0.000
 00106,0.00031668,-0.00017145,-0.00005386,-0.00004075,0.00023613,0.0000
 4008,-0.04827318,0.02776346,0.00492402,0.00068748,-0.02772656,-0.00490
 698,0.00074630,-0.00025952,-0.00005594,0.04672515\\-0.00003379,0.00000
 015,0.00000034,0.00010574,-0.00000026,0.00000028,0.00001263,-0.0000211
 6,-0.00000048,0.00001228,0.00002128,0.00000066,-0.00013339,0.00010933,
 -0.00000072,-0.00000766,-0.00001388,0.00000006,-0.00013295,-0.00010884
 ,0.00000058,-0.00000762,0.00001385,-0.00000035,0.00002057,-0.00004848,
 0.00000028,0.00002054,0.00004841,-0.00000022,0.00021358,-0.00000035,0.
 00000012,-0.00009371,-0.00017888,0.00000057,0.00001482,0.00006945,0.00
 001643,0.00002734,0.00003468,0.00000026,0.00001659,0.00007055,-0.00001
 790,-0.00009369,0.00017880,-0.00000080,0.00001620,-0.00007029,0.000017
 66,0.00001518,-0.00006968,-0.00001667,0.00002734,-0.00003468,-0.000000
 11\\\@
 The archive entry for this job was punched.


 YOU KNOW YOU'RE A TEACHER WHEN YOU SAY 2, WRITE 3, AND MEAN 4.
 -- RONALD ANSTROM, HIGH SCHOOL TEACHER, UNDERWOOD, N.D. 1974
 Job cpu time:       0 days  0 hours 10 minutes 25.0 seconds.
 Elapsed time:       0 days  0 hours  0 minutes 19.9 seconds.
 File lengths (MBytes):  RWF=     54 Int=      0 D2E=      0 Chk=      3 Scr=      1
 Normal termination of Gaussian 16 at Mon Nov 11 15:56:49 2024.
