 Entering Gaussian System, Link 0=g16
 Initial command:
 /public/software/apps/Gaussian/g16/l1.exe "/tmp/Gau-67770.inp" -scrdir="/tmp/"
 Entering Link 1 = /public/software/apps/Gaussian/g16/l1.exe PID=     67771.
  
 Copyright (c) 1988-2019, Gaussian, Inc.  All Rights Reserved.
  
 This is part of the Gaussian(R) 16 program.  It is based on
 the Gaussian(R) 09 system (copyright 2009, Gaussian, Inc.),
 the Gaussian(R) 03 system (copyright 2003, Gaussian, Inc.),
 the Gaussian(R) 98 system (copyright 1998, Gaussian, Inc.),
 the Gaussian(R) 94 system (copyright 1995, Gaussian, Inc.),
 the Gaussian 92(TM) system (copyright 1992, Gaussian, Inc.),
 the Gaussian 90(TM) system (copyright 1990, Gaussian, Inc.),
 the Gaussian 88(TM) system (copyright 1988, Gaussian, Inc.),
 the Gaussian 86(TM) system (copyright 1986, Carnegie Mellon
 University), and the Gaussian 82(TM) system (copyright 1983,
 Carnegie Mellon University). Gaussian is a federally registered
 trademark of Gaussian, Inc.
  
 This software contains proprietary and confidential information,
 including trade secrets, belonging to Gaussian, Inc.
  
 This software is provided under written license and may be
 used, copied, transmitted, or stored only in accord with that
 written license.
  
 The following legend is applicable only to US Government
 contracts under FAR:
  
                    RESTRICTED RIGHTS LEGEND
  
 Use, reproduction and disclosure by the US Government is
 subject to restrictions as set forth in subparagraphs (a)
 and (c) of the Commercial Computer Software - Restricted
 Rights clause in FAR 52.227-19.
  
 Gaussian, Inc.
 340 Quinnipiac St., Bldg. 40, Wallingford CT 06492
  
  
 ---------------------------------------------------------------
 Warning -- This program may not be used in any manner that
 competes with the business of Gaussian, Inc. or will provide
 assistance to any competitor of Gaussian, Inc.  The licensee
 of this program is prohibited from giving any competitor of
 Gaussian, Inc. access to this program.  By using this program,
 the user acknowledges that Gaussian, Inc. is engaged in the
 business of creating and licensing software in the field of
 computational chemistry and represents and warrants to the
 licensee that it is not a competitor of Gaussian, Inc. and that
 it will not use this program in any manner prohibited above.
 ---------------------------------------------------------------
  

 Cite this work as:
 Gaussian 16, Revision C.01,
 M. J. Frisch, G. W. Trucks, H. B. Schlegel, G. E. Scuseria, 
 M. A. Robb, J. R. Cheeseman, G. Scalmani, V. Barone, 
 G. A. Petersson, H. Nakatsuji, X. Li, M. Caricato, A. V. Marenich, 
 J. Bloino, B. G. Janesko, R. Gomperts, B. Mennucci, H. P. Hratchian, 
 J. V. Ortiz, A. F. Izmaylov, J. L. Sonnenberg, D. Williams-Young, 
 F. Ding, F. Lipparini, F. Egidi, J. Goings, B. Peng, A. Petrone, 
 T. Henderson, D. Ranasinghe, V. G. Zakrzewski, J. Gao, N. Rega, 
 G. Zheng, W. Liang, M. Hada, M. Ehara, K. Toyota, R. Fukuda, 
 J. Hasegawa, M. Ishida, T. Nakajima, Y. Honda, O. Kitao, H. Nakai, 
 T. Vreven, K. Throssell, J. A. Montgomery, Jr., J. E. Peralta, 
 F. Ogliaro, M. J. Bearpark, J. J. Heyd, E. N. Brothers, K. N. Kudin, 
 V. N. Staroverov, T. A. Keith, R. Kobayashi, J. Normand, 
 K. Raghavachari, A. P. Rendell, J. C. Burant, S. S. Iyengar, 
 J. Tomasi, M. Cossi, J. M. Millam, M. Klene, C. Adamo, R. Cammi, 
 J. W. Ochterski, R. L. Martin, K. Morokuma, O. Farkas, 
 J. B. Foresman, and D. J. Fox, Gaussian, Inc., Wallingford CT, 2019.
 
 ******************************************
 Gaussian 16:  ES64L-G16RevC.01  3-Jul-2019
                11-Nov-2024 
 ******************************************
 %nprocshared=32
 Will use up to   32 processors via shared memory.
 %mem=80GB
 --------------------------------------------------------------
 # opt=maxcycle=150 freq b3lyp/genecp empiricaldispersion=gd3bj
 --------------------------------------------------------------
 1/6=150,18=20,19=15,26=3,38=1/1,3;
 2/9=110,12=2,17=6,18=5,40=1/2;
 3/5=7,11=2,16=1,17=8,25=1,30=1,71=1,74=-5,124=41/1,2,3;
 4//1;
 5/5=2,38=5/2;
 6/7=2,8=2,9=2,10=2,28=1/1;
 7//1,2,3,16;
 1/6=150,18=20,19=15,26=3/3(2);
 2/9=110/2;
 99//99;
 2/9=110/2;
 3/5=7,6=1,11=2,16=1,17=8,25=1,30=1,71=1,74=-5,82=7,124=41/1,2,3;
 4/5=5,16=3,69=1/1;
 5/5=2,38=5/2;
 7//1,2,3,16;
 1/6=150,18=20,19=15,26=3/3(-5);
 2/9=110/2;
 6/7=2,8=2,9=2,10=2,19=2,28=1/1;
 99/9=1/99;
 ------------------
 B3D3_Pople_Opt_Gas
 ------------------
 Symbolic Z-matrix:
 Charge = -1 Multiplicity = 1
 C                    -2.71715  -0.26591  -0.00035 
 C                    -1.34667   0.12165  -0.0002 
 C                    -0.96757   1.51362   0.00014 
 C                     0.8975   -0.51218  -0.00014 
 C                     0.35237   1.8611    0.0003 
 H                    -1.73371   2.28042   0.00048 
 C                     1.86861  -1.55236  -0.00029 
 C                     1.35286   0.8482    0.0001 
 H                     0.65419   2.9059    0.00064 
 C                     3.21393  -1.25673  -0.00018 
 H                     1.50621  -2.57531  -0.00048 
 C                     2.73853   1.11988   0.00021 
 C                     3.65652   0.08785   0.00005 
 H                     3.94555  -2.05994  -0.0003 
 H                     3.07123   2.15527   0.0004 
 H                     4.7207    0.30478   0.00013 
 N                    -0.41165  -0.85277  -0.00025 
 C                    -3.8165    0.75925  -0.00061 
 H                    -3.76818   1.41788  -0.87943 
 H                    -4.79794   0.27631  -0.00554 
 H                    -3.77414   1.41154   0.88335 
 C                    -3.10859  -1.70881   0.00082 
 H                    -2.23035  -2.3544    0.00143 
 H                    -3.72758  -1.94246   0.88033 
 H                    -3.72751  -1.94394  -0.87834 
 

 GradGradGradGradGradGradGradGradGradGradGradGradGradGradGradGradGradGrad
 Berny optimization.
 Initialization pass.
                           ----------------------------
                           !    Initial Parameters    !
                           ! (Angstroms and Degrees)  !
 --------------------------                            --------------------------
 ! Name  Definition              Value          Derivative Info.                !
 --------------------------------------------------------------------------------
 ! R1    R(1,2)                  1.4242         estimate D2E/DX2                !
 ! R2    R(1,18)                 1.5032         estimate D2E/DX2                !
 ! R3    R(1,22)                 1.4951         estimate D2E/DX2                !
 ! R4    R(2,3)                  1.4427         estimate D2E/DX2                !
 ! R5    R(2,17)                 1.3505         estimate D2E/DX2                !
 ! R6    R(3,5)                  1.3649         estimate D2E/DX2                !
 ! R7    R(3,6)                  1.0839         estimate D2E/DX2                !
 ! R8    R(4,7)                  1.423          estimate D2E/DX2                !
 ! R9    R(4,8)                  1.4346         estimate D2E/DX2                !
 ! R10   R(4,17)                 1.3527         estimate D2E/DX2                !
 ! R11   R(5,8)                  1.4237         estimate D2E/DX2                !
 ! R12   R(5,9)                  1.0875         estimate D2E/DX2                !
 ! R13   R(7,10)                 1.3774         estimate D2E/DX2                !
 ! R14   R(7,11)                 1.0852         estimate D2E/DX2                !
 ! R15   R(8,12)                 1.4121         estimate D2E/DX2                !
 ! R16   R(10,13)                1.4156         estimate D2E/DX2                !
 ! R17   R(10,14)                1.0865         estimate D2E/DX2                !
 ! R18   R(12,13)                1.3812         estimate D2E/DX2                !
 ! R19   R(12,15)                1.0875         estimate D2E/DX2                !
 ! R20   R(13,16)                1.0861         estimate D2E/DX2                !
 ! R21   R(18,19)                1.0993         estimate D2E/DX2                !
 ! R22   R(18,20)                1.0938         estimate D2E/DX2                !
 ! R23   R(18,21)                1.0994         estimate D2E/DX2                !
 ! R24   R(22,23)                1.09           estimate D2E/DX2                !
 ! R25   R(22,24)                1.1006         estimate D2E/DX2                !
 ! R26   R(22,25)                1.1006         estimate D2E/DX2                !
 ! A1    A(2,1,18)             121.2098         estimate D2E/DX2                !
 ! A2    A(2,1,22)             120.9687         estimate D2E/DX2                !
 ! A3    A(18,1,22)            117.8215         estimate D2E/DX2                !
 ! A4    A(1,2,3)              121.0251         estimate D2E/DX2                !
 ! A5    A(1,2,17)             118.0279         estimate D2E/DX2                !
 ! A6    A(3,2,17)             120.9471         estimate D2E/DX2                !
 ! A7    A(2,3,5)              119.9835         estimate D2E/DX2                !
 ! A8    A(2,3,6)              119.79           estimate D2E/DX2                !
 ! A9    A(5,3,6)              120.2265         estimate D2E/DX2                !
 ! A10   A(7,4,8)              118.4603         estimate D2E/DX2                !
 ! A11   A(7,4,17)             118.4502         estimate D2E/DX2                !
 ! A12   A(8,4,17)             123.0895         estimate D2E/DX2                !
 ! A13   A(3,5,8)              119.8981         estimate D2E/DX2                !
 ! A14   A(3,5,9)              120.8618         estimate D2E/DX2                !
 ! A15   A(8,5,9)              119.2401         estimate D2E/DX2                !
 ! A16   A(4,7,10)             120.6395         estimate D2E/DX2                !
 ! A17   A(4,7,11)             117.4588         estimate D2E/DX2                !
 ! A18   A(10,7,11)            121.9017         estimate D2E/DX2                !
 ! A19   A(4,8,5)              116.8465         estimate D2E/DX2                !
 ! A20   A(4,8,12)             119.5993         estimate D2E/DX2                !
 ! A21   A(5,8,12)             123.5541         estimate D2E/DX2                !
 ! A22   A(7,10,13)            120.6132         estimate D2E/DX2                !
 ! A23   A(7,10,14)            119.9358         estimate D2E/DX2                !
 ! A24   A(13,10,14)           119.451          estimate D2E/DX2                !
 ! A25   A(8,12,13)            120.5602         estimate D2E/DX2                !
 ! A26   A(8,12,15)            118.9063         estimate D2E/DX2                !
 ! A27   A(13,12,15)           120.5335         estimate D2E/DX2                !
 ! A28   A(10,13,12)           120.1275         estimate D2E/DX2                !
 ! A29   A(10,13,16)           119.7414         estimate D2E/DX2                !
 ! A30   A(12,13,16)           120.1311         estimate D2E/DX2                !
 ! A31   A(2,17,4)             119.2353         estimate D2E/DX2                !
 ! A32   A(1,18,19)            112.1236         estimate D2E/DX2                !
 ! A33   A(1,18,20)            110.7994         estimate D2E/DX2                !
 ! A34   A(1,18,21)            112.1062         estimate D2E/DX2                !
 ! A35   A(19,18,20)           107.4793         estimate D2E/DX2                !
 ! A36   A(19,18,21)           106.5953         estimate D2E/DX2                !
 ! A37   A(20,18,21)           107.4663         estimate D2E/DX2                !
 ! A38   A(1,22,23)            111.1411         estimate D2E/DX2                !
 ! A39   A(1,22,24)            110.6573         estimate D2E/DX2                !
 ! A40   A(1,22,25)            110.6591         estimate D2E/DX2                !
 ! A41   A(23,22,24)           109.0846         estimate D2E/DX2                !
 ! A42   A(23,22,25)           109.0878         estimate D2E/DX2                !
 ! A43   A(24,22,25)           106.0645         estimate D2E/DX2                !
 ! D1    D(18,1,2,3)             0.0196         estimate D2E/DX2                !
 ! D2    D(18,1,2,17)         -179.9864         estimate D2E/DX2                !
 ! D3    D(22,1,2,3)          -179.9321         estimate D2E/DX2                !
 ! D4    D(22,1,2,17)            0.0619         estimate D2E/DX2                !
 ! D5    D(2,1,18,19)           59.6456         estimate D2E/DX2                !
 ! D6    D(2,1,18,20)          179.7291         estimate D2E/DX2                !
 ! D7    D(2,1,18,21)          -60.2156         estimate D2E/DX2                !
 ! D8    D(22,1,18,19)        -120.4012         estimate D2E/DX2                !
 ! D9    D(22,1,18,20)          -0.3177         estimate D2E/DX2                !
 ! D10   D(22,1,18,21)         119.7375         estimate D2E/DX2                !
 ! D11   D(2,1,22,23)           -0.017          estimate D2E/DX2                !
 ! D12   D(2,1,22,24)          121.3444         estimate D2E/DX2                !
 ! D13   D(2,1,22,25)         -121.3837         estimate D2E/DX2                !
 ! D14   D(18,1,22,23)        -179.9703         estimate D2E/DX2                !
 ! D15   D(18,1,22,24)         -58.6088         estimate D2E/DX2                !
 ! D16   D(18,1,22,25)          58.663          estimate D2E/DX2                !
 ! D17   D(1,2,3,5)            179.999          estimate D2E/DX2                !
 ! D18   D(1,2,3,6)              0.0126         estimate D2E/DX2                !
 ! D19   D(17,2,3,5)             0.0051         estimate D2E/DX2                !
 ! D20   D(17,2,3,6)          -179.9813         estimate D2E/DX2                !
 ! D21   D(1,2,17,4)           179.9983         estimate D2E/DX2                !
 ! D22   D(3,2,17,4)            -0.0077         estimate D2E/DX2                !
 ! D23   D(2,3,5,8)              0.0018         estimate D2E/DX2                !
 ! D24   D(2,3,5,9)           -179.9946         estimate D2E/DX2                !
 ! D25   D(6,3,5,8)            179.9881         estimate D2E/DX2                !
 ! D26   D(6,3,5,9)             -0.0082         estimate D2E/DX2                !
 ! D27   D(8,4,7,10)             0.0005         estimate D2E/DX2                !
 ! D28   D(8,4,7,11)          -179.9997         estimate D2E/DX2                !
 ! D29   D(17,4,7,10)          179.9999         estimate D2E/DX2                !
 ! D30   D(17,4,7,11)           -0.0003         estimate D2E/DX2                !
 ! D31   D(7,4,8,5)           -179.9973         estimate D2E/DX2                !
 ! D32   D(7,4,8,12)            -0.0007         estimate D2E/DX2                !
 ! D33   D(17,4,8,5)             0.0033         estimate D2E/DX2                !
 ! D34   D(17,4,8,12)          179.9998         estimate D2E/DX2                !
 ! D35   D(7,4,17,2)          -179.996          estimate D2E/DX2                !
 ! D36   D(8,4,17,2)             0.0035         estimate D2E/DX2                !
 ! D37   D(3,5,8,4)             -0.0057         estimate D2E/DX2                !
 ! D38   D(3,5,8,12)           179.9978         estimate D2E/DX2                !
 ! D39   D(9,5,8,4)            179.9907         estimate D2E/DX2                !
 ! D40   D(9,5,8,12)            -0.0057         estimate D2E/DX2                !
 ! D41   D(4,7,10,13)           -0.0007         estimate D2E/DX2                !
 ! D42   D(4,7,10,14)          179.9999         estimate D2E/DX2                !
 ! D43   D(11,7,10,13)         179.9995         estimate D2E/DX2                !
 ! D44   D(11,7,10,14)           0.0001         estimate D2E/DX2                !
 ! D45   D(4,8,12,13)            0.0012         estimate D2E/DX2                !
 ! D46   D(4,8,12,15)         -179.9995         estimate D2E/DX2                !
 ! D47   D(5,8,12,13)          179.9975         estimate D2E/DX2                !
 ! D48   D(5,8,12,15)           -0.0031         estimate D2E/DX2                !
 ! D49   D(7,10,13,12)           0.0011         estimate D2E/DX2                !
 ! D50   D(7,10,13,16)        -179.9997         estimate D2E/DX2                !
 ! D51   D(14,10,13,12)       -179.9994         estimate D2E/DX2                !
 ! D52   D(14,10,13,16)         -0.0003         estimate D2E/DX2                !
 ! D53   D(8,12,13,10)          -0.0014         estimate D2E/DX2                !
 ! D54   D(8,12,13,16)         179.9994         estimate D2E/DX2                !
 ! D55   D(15,12,13,10)        179.9993         estimate D2E/DX2                !
 ! D56   D(15,12,13,16)          0.0001         estimate D2E/DX2                !
 --------------------------------------------------------------------------------
 Trust Radius=3.00D-01 FncErr=1.00D-07 GrdErr=1.00D-06 EigMax=2.50D+02 EigMin=1.00D-04
 Number of steps in this run=    150 maximum allowed number of steps=    150.
 GradGradGradGradGradGradGradGradGradGradGradGradGradGradGradGradGradGrad

                          Input orientation:                          
 ---------------------------------------------------------------------
 Center     Atomic      Atomic             Coordinates (Angstroms)
 Number     Number       Type             X           Y           Z
 ---------------------------------------------------------------------
      1          6           0       -2.717147   -0.265909   -0.000354
      2          6           0       -1.346670    0.121646   -0.000199
      3          6           0       -0.967571    1.513622    0.000137
      4          6           0        0.897503   -0.512180   -0.000141
      5          6           0        0.352366    1.861101    0.000302
      6          1           0       -1.733707    2.280420    0.000481
      7          6           0        1.868612   -1.552363   -0.000286
      8          6           0        1.352855    0.848202    0.000103
      9          1           0        0.654189    2.905898    0.000644
     10          6           0        3.213931   -1.256734   -0.000184
     11          1           0        1.506205   -2.575309   -0.000475
     12          6           0        2.738534    1.119878    0.000208
     13          6           0        3.656517    0.087849    0.000053
     14          1           0        3.945547   -2.059941   -0.000295
     15          1           0        3.071234    2.155273    0.000402
     16          1           0        4.720700    0.304781    0.000126
     17          7           0       -0.411646   -0.852770   -0.000251
     18          6           0       -3.816498    0.759248   -0.000613
     19          1           0       -3.768184    1.417878   -0.879427
     20          1           0       -4.797942    0.276306   -0.005538
     21          1           0       -3.774140    1.411539    0.883351
     22          6           0       -3.108589   -1.708805    0.000817
     23          1           0       -2.230345   -2.354399    0.001430
     24          1           0       -3.727583   -1.942462    0.880332
     25          1           0       -3.727506   -1.943938   -0.878339
 ---------------------------------------------------------------------
                    Distance matrix (angstroms):
                    1          2          3          4          5
     1  C    0.000000
     2  C    1.424221   0.000000
     3  C    2.495545   1.442676   0.000000
     4  C    3.623030   2.331962   2.753611   0.000000
     5  C    3.734445   2.431548   1.364909   2.435085   0.000000
     6  H    2.729642   2.193195   1.083948   3.836910   2.127799
     7  C    4.762788   3.624961   4.176625   1.423037   3.735069
     8  C    4.219735   2.795589   2.413951   1.434568   1.423707
     9  H    4.628852   3.428629   2.137414   3.426727   1.087519
    10  C    6.013270   4.764348   5.015958   2.433146   4.231956
    11  H    4.813526   3.925871   4.779009   2.151051   4.584002
    12  C    5.628931   4.205396   3.726962   2.460286   2.498641
    13  C    6.383474   5.003301   4.838907   2.823507   3.749912
    14  H    6.900003   5.724236   6.075284   3.418499   5.318413
    15  H    6.274351   4.863488   4.089457   3.440990   2.734736
    16  H    7.459709   6.070133   5.815301   3.909509   4.637292
    17  N    2.379021   1.350465   2.430815   1.352728   2.819363
    18  C    1.503170   2.550801   2.947111   4.882452   4.312019
    19  H    2.170849   2.883919   2.937045   5.125125   4.236662
    20  H    2.150286   3.454740   4.025261   5.749768   5.388625
    21  H    2.170714   2.887403   2.944031   5.128889   4.243811
    22  C    1.495051   2.540652   3.868849   4.180991   4.972166
    23  H    2.144474   2.629008   4.068929   3.630042   4.943768
    24  H    2.146490   3.271792   4.509648   4.920606   5.646904
    25  H    2.146500   3.272025   4.510397   4.920556   5.647627
                    6          7          8          9         10
     6  H    0.000000
     7  C    5.259936   0.000000
     8  C    3.402663   2.455345   0.000000
     9  H    2.468455   4.620705   2.173073   0.000000
    10  C    6.081988   1.377418   2.809690   4.886695   0.000000
    11  H    5.837391   1.085245   3.426944   5.547032   2.157538
    12  C    4.620368   2.810273   1.412060   2.744879   2.423693
    13  C    5.819096   2.426293   2.425901   4.117690   1.415551
    14  H    7.147913   2.138059   3.896068   5.957566   1.086464
    15  H    4.806570   3.897803   2.158995   2.530918   3.414990
    16  H    6.750001   3.403438   3.411405   4.827248   2.169950
    17  N    3.400695   2.385164   2.450871   3.906864   3.648013
    18  C    2.579144   6.137102   5.170118   4.959350   7.313762
    19  H    2.378511   6.431850   5.227155   4.748275   7.528383
    20  H    3.661427   6.912814   6.177330   6.053142   8.157227
    21  H    2.387002   6.434763   5.232930   4.756299   7.532161
    22  C    4.219504   4.979659   5.142253   5.954325   6.338661
    23  H    4.661351   4.176687   4.805827   5.999272   5.553829
    24  H    4.752096   5.678474   5.862888   6.593965   7.030658
    25  H    4.753184   5.678102   5.863256   6.594905   7.030431
                   11         12         13         14         15
    11  H    0.000000
    12  C    3.895259   0.000000
    13  C    3.422901   1.381223   0.000000
    14  H    2.493189   3.401195   2.167150   0.000000
    15  H    4.982742   1.087535   2.148674   4.304934   0.000000
    16  H    4.316005   2.143214   1.086069   2.488528   2.478923
    17  N    2.577847   3.716850   4.175490   4.521326   4.602040
    18  C    6.280958   6.564945   7.503115   8.258158   7.027783
    19  H    6.673626   6.572666   7.593988   8.507041   6.935091
    20  H    6.919104   7.583543   8.456561   9.050231   8.090395
    21  H    6.675189   6.578748   7.599147   8.510321   6.942037
    22  C    4.695440   6.495406   6.999616   7.062870   7.288437
    23  H    3.743075   6.063032   6.373360   6.182908   6.960164
    24  H    5.344984   7.208551   7.708566   7.724392   7.986841
    25  H    5.344250   7.208917   7.708666   7.723999   7.987401
                   16         17         18         19         20
    16  H    0.000000
    17  N    5.261264   0.000000
    18  C    8.549286   3.767177   0.000000
    19  H    8.606611   4.146702   1.099291   0.000000
    20  H    9.518686   4.529286   1.093842   1.768409   0.000000
    21  H    8.612044   4.149002   1.099395   1.762799   1.768346
    22  C    8.084077   2.829540   2.567571   3.314520   2.606649
    23  H    7.442329   2.358508   3.494379   4.167845   3.676032
    24  H    8.786259   3.599763   2.843098   3.793453   2.617893
    25  H    8.786388   3.599530   2.843508   3.362062   2.614785
                   21         22         23         24         25
    21  H    0.000000
    22  C    3.310343   0.000000
    23  H    4.164538   1.090002   0.000000
    24  H    3.354325   1.100589   1.784344   0.000000
    25  H    3.790112   1.100573   1.784366   1.758672   0.000000
 Stoichiometry    C12H12N(1-)
 Framework group  C1[X(C12H12N)]
 Deg. of freedom    69
 Full point group                 C1      NOp   1
 Largest Abelian subgroup         C1      NOp   1
 Largest concise Abelian subgroup C1      NOp   1
                         Standard orientation:                         
 ---------------------------------------------------------------------
 Center     Atomic      Atomic             Coordinates (Angstroms)
 Number     Number       Type             X           Y           Z
 ---------------------------------------------------------------------
      1          6           0       -2.717147   -0.265909   -0.000354
      2          6           0       -1.346670    0.121646   -0.000199
      3          6           0       -0.967571    1.513622    0.000137
      4          6           0        0.897503   -0.512180   -0.000141
      5          6           0        0.352366    1.861101    0.000302
      6          1           0       -1.733707    2.280420    0.000481
      7          6           0        1.868612   -1.552363   -0.000286
      8          6           0        1.352855    0.848202    0.000103
      9          1           0        0.654189    2.905898    0.000644
     10          6           0        3.213931   -1.256734   -0.000184
     11          1           0        1.506205   -2.575309   -0.000475
     12          6           0        2.738534    1.119878    0.000208
     13          6           0        3.656517    0.087849    0.000053
     14          1           0        3.945547   -2.059941   -0.000295
     15          1           0        3.071234    2.155273    0.000402
     16          1           0        4.720700    0.304781    0.000126
     17          7           0       -0.411646   -0.852770   -0.000251
     18          6           0       -3.816498    0.759248   -0.000613
     19          1           0       -3.768184    1.417878   -0.879427
     20          1           0       -4.797942    0.276306   -0.005538
     21          1           0       -3.774140    1.411539    0.883351
     22          6           0       -3.108589   -1.708805    0.000817
     23          1           0       -2.230345   -2.354399    0.001430
     24          1           0       -3.727583   -1.942462    0.880332
     25          1           0       -3.727506   -1.943938   -0.878339
 ---------------------------------------------------------------------
 Rotational constants (GHZ):           2.0466128           0.5028780           0.4057122
 General basis read from cards:  (5D, 7F)
 ======================================================================================================
                                       Pseudopotential Parameters
 ======================================================================================================
  Center     Atomic      Valence      Angular      Power
  Number     Number     Electrons     Momentum     of R      Exponent        Coefficient   SO-Coeffient
 ======================================================================================================
    1          6
                                   No pseudopotential on this center.
    2          6
                                   No pseudopotential on this center.
    3          6
                                   No pseudopotential on this center.
    4          6
                                   No pseudopotential on this center.
    5          6
                                   No pseudopotential on this center.
    6          1
                                   No pseudopotential on this center.
    7          6
                                   No pseudopotential on this center.
    8          6
                                   No pseudopotential on this center.
    9          1
                                   No pseudopotential on this center.
   10          6
                                   No pseudopotential on this center.
   11          1
                                   No pseudopotential on this center.
   12          6
                                   No pseudopotential on this center.
   13          6
                                   No pseudopotential on this center.
   14          1
                                   No pseudopotential on this center.
   15          1
                                   No pseudopotential on this center.
   16          1
                                   No pseudopotential on this center.
   17          7
                                   No pseudopotential on this center.
   18          6
                                   No pseudopotential on this center.
   19          1
                                   No pseudopotential on this center.
   20          1
                                   No pseudopotential on this center.
   21          1
                                   No pseudopotential on this center.
   22          6
                                   No pseudopotential on this center.
   23          1
                                   No pseudopotential on this center.
   24          1
                                   No pseudopotential on this center.
   25          1
                                   No pseudopotential on this center.
 ======================================================================================================
 There are   219 symmetry adapted cartesian basis functions of A   symmetry.
 There are   206 symmetry adapted basis functions of A   symmetry.
   206 basis functions,   412 primitive gaussians,   219 cartesian basis functions
    46 alpha electrons       46 beta electrons
       nuclear repulsion energy       717.9932816865 Hartrees.
 NAtoms=   25 NActive=   25 NUniq=   25 SFac= 1.00D+00 NAtFMM=   60 NAOKFM=F Big=F
 Integral buffers will be    131072 words long.
 Raffenetti 2 integral format.
 Two-electron integral symmetry is turned on.
 Nuclear repulsion after empirical dispersion term =      717.9433643594 Hartrees.
 One-electron integrals computed using PRISM.
   1 Symmetry operations used in ECPInt.
 ECPInt:  NShTT=    2926 NPrTT=   18606 LenC2=    2731 LenP2D=   10939.
 LDataN:  DoStor=T MaxTD1= 4 Len=   56
 NBasis=   206 RedAO= T EigKep=  4.12D-04  NBF=   206
 NBsUse=   206 1.00D-06 EigRej= -1.00D+00 NBFU=   206
 ExpMin= 1.61D-01 ExpMax= 4.17D+03 ExpMxC= 6.27D+02 IAcc=3 IRadAn=         5 AccDes= 0.00D+00
 Harris functional with IExCor=  402 and IRadAn=       5 diagonalized for initial guess.
 HarFok:  IExCor=  402 AccDes= 0.00D+00 IRadAn=         5 IDoV= 1 UseB2=F ITyADJ=14
 ICtDFT=  3500011 ScaDFX=  1.000000  1.000000  1.000000  1.000000
 FoFCou: FMM=F IPFlag=           0 FMFlag=      100000 FMFlg1=           0
         NFxFlg=           0 DoJE=T BraDBF=F KetDBF=T FulRan=T
         wScrn=  0.000000 ICntrl=       500 IOpCl=  0 I1Cent=   200000004 NGrid=           0
         NMat0=    1 NMatS0=      1 NMatT0=    0 NMatD0=    1 NMtDS0=    0 NMtDT0=    0
 Petite list used in FoFCou.
 Requested convergence on RMS density matrix=1.00D-08 within 128 cycles.
 Requested convergence on MAX density matrix=1.00D-06.
 Requested convergence on             energy=1.00D-06.
 No special actions if energy rises.
 Integral accuracy reduced to 1.0D-05 until final iterations.
 Initial convergence to 1.0D-05 achieved.  Increase integral accuracy.
 SCF Done:  E(RB3LYP) =  -519.299805454     A.U. after   16 cycles
            NFock= 16  Conv=0.75D-08     -V/T= 2.0061

 **********************************************************************

            Population analysis using the SCF Density.

 **********************************************************************

 Orbital symmetries:
       Occupied  (A) (A) (A) (A) (A) (A) (A) (A) (A) (A) (A) (A)
                 (A) (A) (A) (A) (A) (A) (A) (A) (A) (A) (A) (A)
                 (A) (A) (A) (A) (A) (A) (A) (A) (A) (A) (A) (A)
                 (A) (A) (A) (A) (A) (A) (A) (A) (A) (A)
       Virtual   (A) (A) (A) (A) (A) (A) (A) (A) (A) (A) (A) (A)
                 (A) (A) (A) (A) (A) (A) (A) (A) (A) (A) (A) (A)
                 (A) (A) (A) (A) (A) (A) (A) (A) (A) (A) (A) (A)
                 (A) (A) (A) (A) (A) (A) (A) (A) (A) (A) (A) (A)
                 (A) (A) (A) (A) (A) (A) (A) (A) (A) (A) (A) (A)
                 (A) (A) (A) (A) (A) (A) (A) (A) (A) (A) (A) (A)
                 (A) (A) (A) (A) (A) (A) (A) (A) (A) (A) (A) (A)
                 (A) (A) (A) (A) (A) (A) (A) (A) (A) (A) (A) (A)
                 (A) (A) (A) (A) (A) (A) (A) (A) (A) (A) (A) (A)
                 (A) (A) (A) (A) (A) (A) (A) (A) (A) (A) (A) (A)
                 (A) (A) (A) (A) (A) (A) (A) (A) (A) (A) (A) (A)
                 (A) (A) (A) (A) (A) (A) (A) (A) (A) (A) (A) (A)
                 (A) (A) (A) (A) (A) (A) (A) (A) (A) (A) (A) (A)
                 (A) (A) (A) (A)
 The electronic state is 1-A.
 Alpha  occ. eigenvalues --  -14.10940 -10.04195 -10.03160 -10.02985 -10.02977
 Alpha  occ. eigenvalues --  -10.02536 -10.02145 -10.02029 -10.01965 -10.01825
 Alpha  occ. eigenvalues --  -10.01208 -10.00383  -9.97642  -0.74667  -0.67687
 Alpha  occ. eigenvalues --   -0.63295  -0.61743  -0.57369  -0.56637  -0.52980
 Alpha  occ. eigenvalues --   -0.47726  -0.45819  -0.43422  -0.38988  -0.35324
 Alpha  occ. eigenvalues --   -0.34738  -0.31489  -0.28855  -0.27906  -0.27079
 Alpha  occ. eigenvalues --   -0.26847  -0.25754  -0.24658  -0.23236  -0.23006
 Alpha  occ. eigenvalues --   -0.22862  -0.20054  -0.19176  -0.17949  -0.17105
 Alpha  occ. eigenvalues --   -0.17053  -0.13352  -0.08734  -0.06717  -0.06035
 Alpha  occ. eigenvalues --    0.03544
 Alpha virt. eigenvalues --    0.12632   0.17547   0.19485   0.23204   0.24025
 Alpha virt. eigenvalues --    0.25846   0.27541   0.28126   0.29022   0.29758
 Alpha virt. eigenvalues --    0.30290   0.30696   0.31570   0.33863   0.34702
 Alpha virt. eigenvalues --    0.34887   0.37588   0.39387   0.40611   0.42980
 Alpha virt. eigenvalues --    0.43726   0.45801   0.47478   0.48955   0.51395
 Alpha virt. eigenvalues --    0.52344   0.57057   0.61438   0.63648   0.65898
 Alpha virt. eigenvalues --    0.66888   0.68401   0.68651   0.70085   0.70293
 Alpha virt. eigenvalues --    0.71245   0.72207   0.73698   0.74466   0.75300
 Alpha virt. eigenvalues --    0.75504   0.76071   0.76753   0.77409   0.78096
 Alpha virt. eigenvalues --    0.78661   0.79995   0.80123   0.83032   0.84169
 Alpha virt. eigenvalues --    0.85212   0.87831   0.89129   0.90266   0.93480
 Alpha virt. eigenvalues --    0.94206   0.96911   0.97621   0.98146   0.98378
 Alpha virt. eigenvalues --    0.99140   1.00358   1.00852   1.01155   1.03220
 Alpha virt. eigenvalues --    1.05117   1.05388   1.07259   1.08843   1.10130
 Alpha virt. eigenvalues --    1.10591   1.11562   1.11905   1.13510   1.16869
 Alpha virt. eigenvalues --    1.18348   1.18687   1.20234   1.22817   1.24681
 Alpha virt. eigenvalues --    1.28055   1.32703   1.37602   1.40553   1.40739
 Alpha virt. eigenvalues --    1.43246   1.43314   1.47981   1.51948   1.52875
 Alpha virt. eigenvalues --    1.56381   1.56462   1.58448   1.59836   1.60584
 Alpha virt. eigenvalues --    1.63272   1.63303   1.65181   1.65380   1.66212
 Alpha virt. eigenvalues --    1.69607   1.77971   1.80704   1.89531   1.93098
 Alpha virt. eigenvalues --    1.94357   1.98215   1.99027   1.99943   2.02412
 Alpha virt. eigenvalues --    2.03513   2.04603   2.06885   2.08460   2.09608
 Alpha virt. eigenvalues --    2.13586   2.14421   2.16226   2.16703   2.19583
 Alpha virt. eigenvalues --    2.20629   2.24648   2.28063   2.28409   2.31173
 Alpha virt. eigenvalues --    2.32814   2.36341   2.37588   2.38434   2.40564
 Alpha virt. eigenvalues --    2.42629   2.45536   2.47402   2.49220   2.50950
 Alpha virt. eigenvalues --    2.50983   2.53223   2.53392   2.58687   2.59729
 Alpha virt. eigenvalues --    2.66330   2.69248   2.76518   2.77683   2.80045
 Alpha virt. eigenvalues --    2.81282   2.83033   2.86142   2.88104   2.91669
 Alpha virt. eigenvalues --    2.92995   2.96993   3.02250   3.04315   3.09761
 Alpha virt. eigenvalues --    3.14612   3.21520   3.37046   3.57991   3.64760
          Condensed to atoms (all electrons):
               1          2          3          4          5          6
     1  C    5.091671   0.566343  -0.093373   0.000895   0.004876  -0.016256
     2  C    0.566343   4.506214   0.395812  -0.042822  -0.019195  -0.026997
     3  C   -0.093373   0.395812   5.202451  -0.027201   0.527491   0.330753
     4  C    0.000895  -0.042822  -0.027201   4.692778  -0.047126   0.000759
     5  C    0.004876  -0.019195   0.527491  -0.047126   5.137732  -0.057462
     6  H   -0.016256  -0.026997   0.330753   0.000759  -0.057462   0.680337
     7  C   -0.000716   0.002139   0.001927   0.427357   0.010914   0.000017
     8  C    0.002895  -0.016986  -0.018812   0.404040   0.423110   0.004578
     9  H   -0.000157   0.003633  -0.055221   0.006045   0.345374  -0.007721
    10  C    0.000007  -0.000073  -0.000038  -0.006879   0.000075  -0.000000
    11  H   -0.000045   0.000482   0.000033  -0.030752  -0.000117  -0.000001
    12  C    0.000020   0.000459   0.009373  -0.007810  -0.097562  -0.000109
    13  C   -0.000001   0.000007  -0.000324  -0.043119   0.008812   0.000002
    14  H   -0.000000   0.000000   0.000000   0.004169   0.000003   0.000000
    15  H   -0.000000   0.000005  -0.000016   0.004507  -0.010544  -0.000019
    16  H   -0.000000  -0.000000   0.000003   0.000923  -0.000221  -0.000000
    17  N   -0.073475   0.440102  -0.076903   0.467233  -0.049802   0.005986
    18  C    0.360911  -0.029118  -0.022133  -0.000124   0.000670   0.005786
    19  H   -0.037473  -0.007590   0.003392   0.000010   0.000133   0.002304
    20  H   -0.030721   0.001942   0.000192   0.000001  -0.000005  -0.000082
    21  H   -0.037767  -0.007556   0.003381   0.000010   0.000130   0.002272
    22  C    0.350962   0.008175   0.011354   0.000368  -0.000287   0.000091
    23  H   -0.027639  -0.010513   0.000491   0.000148   0.000067  -0.000050
    24  H   -0.046741  -0.002050  -0.000101   0.000019   0.000007  -0.000017
    25  H   -0.046556  -0.002023  -0.000102   0.000019   0.000007  -0.000017
               7          8          9         10         11         12
     1  C   -0.000716   0.002895  -0.000157   0.000007  -0.000045   0.000020
     2  C    0.002139  -0.016986   0.003633  -0.000073   0.000482   0.000459
     3  C    0.001927  -0.018812  -0.055221  -0.000038   0.000033   0.009373
     4  C    0.427357   0.404040   0.006045  -0.006879  -0.030752  -0.007810
     5  C    0.010914   0.423110   0.345374   0.000075  -0.000117  -0.097562
     6  H    0.000017   0.004578  -0.007721  -0.000000  -0.000001  -0.000109
     7  C    5.126165  -0.048397  -0.000158   0.537021   0.323118  -0.054639
     8  C   -0.048397   4.872608  -0.048963  -0.037745   0.008990   0.430974
     9  H   -0.000158  -0.048963   0.696246  -0.000003   0.000005  -0.012744
    10  C    0.537021  -0.037745  -0.000003   4.901989  -0.057209  -0.019648
    11  H    0.323118   0.008990   0.000005  -0.057209   0.675828  -0.000009
    12  C   -0.054639   0.430974  -0.012744  -0.019648  -0.000009   5.156863
    13  C   -0.028688  -0.000480   0.000136   0.513352   0.005514   0.496705
    14  H   -0.044509   0.000462  -0.000000   0.344540  -0.007998   0.005499
    15  H    0.000618  -0.040532   0.008048   0.004866   0.000027   0.334558
    16  H    0.004561   0.003815  -0.000008  -0.049208  -0.000192  -0.044701
    17  N   -0.079873  -0.061442  -0.000415   0.004777   0.005000   0.010389
    18  C    0.000005  -0.000076  -0.000000  -0.000000   0.000000  -0.000000
    19  H   -0.000000  -0.000008  -0.000000   0.000000   0.000000  -0.000000
    20  H   -0.000000   0.000001  -0.000000   0.000000  -0.000000   0.000000
    21  H   -0.000000  -0.000008  -0.000000   0.000000   0.000000  -0.000000
    22  C    0.000081  -0.000044   0.000003  -0.000000  -0.000084   0.000000
    23  H   -0.000178   0.000050   0.000001   0.000002   0.000530  -0.000002
    24  H   -0.000004  -0.000000  -0.000000   0.000000   0.000001  -0.000000
    25  H   -0.000003  -0.000000  -0.000000   0.000000   0.000001  -0.000000
              13         14         15         16         17         18
     1  C   -0.000001  -0.000000  -0.000000  -0.000000  -0.073475   0.360911
     2  C    0.000007   0.000000   0.000005  -0.000000   0.440102  -0.029118
     3  C   -0.000324   0.000000  -0.000016   0.000003  -0.076903  -0.022133
     4  C   -0.043119   0.004169   0.004507   0.000923   0.467233  -0.000124
     5  C    0.008812   0.000003  -0.010544  -0.000221  -0.049802   0.000670
     6  H    0.000002   0.000000  -0.000019  -0.000000   0.005986   0.005786
     7  C   -0.028688  -0.044509   0.000618   0.004561  -0.079873   0.000005
     8  C   -0.000480   0.000462  -0.040532   0.003815  -0.061442  -0.000076
     9  H    0.000136  -0.000000   0.008048  -0.000008  -0.000415  -0.000000
    10  C    0.513352   0.344540   0.004866  -0.049208   0.004777  -0.000000
    11  H    0.005514  -0.007998   0.000027  -0.000192   0.005000   0.000000
    12  C    0.496705   0.005499   0.334558  -0.044701   0.010389  -0.000000
    13  C    4.977035  -0.050891  -0.054776   0.345620  -0.000011   0.000000
    14  H   -0.050891   0.693700  -0.000243  -0.006783  -0.000133   0.000000
    15  H   -0.054776  -0.000243   0.696174  -0.006844  -0.000145  -0.000000
    16  H    0.345620  -0.006783  -0.006844   0.701316   0.000004  -0.000000
    17  N   -0.000011  -0.000133  -0.000145   0.000004   6.962396   0.005727
    18  C    0.000000   0.000000  -0.000000  -0.000000   0.005727   5.219867
    19  H    0.000000  -0.000000   0.000000   0.000000   0.000011   0.347262
    20  H   -0.000000  -0.000000  -0.000000  -0.000000  -0.000045   0.363415
    21  H    0.000000  -0.000000   0.000000   0.000000   0.000012   0.347167
    22  C   -0.000000   0.000000   0.000000   0.000000  -0.033903  -0.100541
    23  H    0.000000  -0.000000   0.000000   0.000000   0.032120   0.006077
    24  H    0.000000  -0.000000   0.000000   0.000000   0.001481  -0.001552
    25  H    0.000000  -0.000000   0.000000   0.000000   0.001479  -0.001607
              19         20         21         22         23         24
     1  C   -0.037473  -0.030721  -0.037767   0.350962  -0.027639  -0.046741
     2  C   -0.007590   0.001942  -0.007556   0.008175  -0.010513  -0.002050
     3  C    0.003392   0.000192   0.003381   0.011354   0.000491  -0.000101
     4  C    0.000010   0.000001   0.000010   0.000368   0.000148   0.000019
     5  C    0.000133  -0.000005   0.000130  -0.000287   0.000067   0.000007
     6  H    0.002304  -0.000082   0.002272   0.000091  -0.000050  -0.000017
     7  C   -0.000000  -0.000000  -0.000000   0.000081  -0.000178  -0.000004
     8  C   -0.000008   0.000001  -0.000008  -0.000044   0.000050  -0.000000
     9  H   -0.000000  -0.000000  -0.000000   0.000003   0.000001  -0.000000
    10  C    0.000000   0.000000   0.000000  -0.000000   0.000002   0.000000
    11  H    0.000000  -0.000000   0.000000  -0.000084   0.000530   0.000001
    12  C   -0.000000   0.000000  -0.000000   0.000000  -0.000002  -0.000000
    13  C    0.000000  -0.000000   0.000000  -0.000000   0.000000   0.000000
    14  H   -0.000000  -0.000000  -0.000000   0.000000  -0.000000  -0.000000
    15  H    0.000000  -0.000000   0.000000   0.000000   0.000000   0.000000
    16  H    0.000000  -0.000000   0.000000   0.000000   0.000000   0.000000
    17  N    0.000011  -0.000045   0.000012  -0.033903   0.032120   0.001481
    18  C    0.347262   0.363415   0.347167  -0.100541   0.006077  -0.001552
    19  H    0.677073  -0.034939  -0.059863   0.004186  -0.000192  -0.000629
    20  H   -0.034939   0.638971  -0.035335  -0.008070   0.000064   0.002500
    21  H   -0.059863  -0.035335   0.678119   0.004164  -0.000192   0.001753
    22  C    0.004186  -0.008070   0.004164   5.209265   0.351544   0.349148
    23  H   -0.000192   0.000064  -0.000192   0.351544   0.544184  -0.028202
    24  H   -0.000629   0.002500   0.001753   0.349148  -0.028202   0.705247
    25  H    0.001704   0.002652  -0.000639   0.348994  -0.028198  -0.061208
              25
     1  C   -0.046556
     2  C   -0.002023
     3  C   -0.000102
     4  C    0.000019
     5  C    0.000007
     6  H   -0.000017
     7  C   -0.000003
     8  C   -0.000000
     9  H   -0.000000
    10  C    0.000000
    11  H    0.000001
    12  C   -0.000000
    13  C    0.000000
    14  H   -0.000000
    15  H    0.000000
    16  H    0.000000
    17  N    0.001479
    18  C   -0.001607
    19  H    0.001704
    20  H    0.002652
    21  H   -0.000639
    22  C    0.348994
    23  H   -0.028198
    24  H   -0.061208
    25  H    0.705164
 Mulliken charges:
               1
     1  C    0.032339
     2  C    0.239610
     3  C   -0.192430
     4  C    0.196552
     5  C   -0.177080
     6  H    0.075847
     7  C   -0.176759
     8  C    0.121974
     9  H    0.065901
    10  C   -0.135823
    11  H    0.076879
    12  C   -0.207615
    13  C   -0.168894
    14  H    0.062182
    15  H    0.064316
    16  H    0.051714
    17  N   -0.560571
    18  C   -0.501736
    19  H    0.104619
    20  H    0.099460
    21  H    0.104352
    22  C   -0.495408
    23  H    0.159888
    24  H    0.080348
    25  H    0.080335
 Sum of Mulliken charges =  -1.00000
 Mulliken charges with hydrogens summed into heavy atoms:
               1
     1  C    0.032339
     2  C    0.239610
     3  C   -0.116583
     4  C    0.196552
     5  C   -0.111180
     7  C   -0.099880
     8  C    0.121974
    10  C   -0.073641
    12  C   -0.143299
    13  C   -0.117180
    17  N   -0.560571
    18  C   -0.193305
    22  C   -0.174836
 Electronic spatial extent (au):  <R**2>=           2768.2998
 Charge=             -1.0000 electrons
 Dipole moment (field-independent basis, Debye):
    X=              1.2093    Y=              1.8917    Z=              0.0004  Tot=              2.2452
 Quadrupole moment (field-independent basis, Debye-Ang):
   XX=           -109.0582   YY=            -84.9486   ZZ=            -84.0425
   XY=             -2.0596   XZ=              0.0024   YZ=             -0.0013
 Traceless Quadrupole moment (field-independent basis, Debye-Ang):
   XX=            -16.3751   YY=              7.7345   ZZ=              8.6406
   XY=             -2.0596   XZ=              0.0024   YZ=             -0.0013
 Octapole moment (field-independent basis, Debye-Ang**2):
  XXX=             20.7742  YYY=              5.8058  ZZZ=              0.0018  XYY=             10.9741
  XXY=              6.5020  XXZ=             -0.0177  XZZ=             -4.4622  YZZ=             -0.5921
  YYZ=             -0.0050  XYZ=              0.0049
 Hexadecapole moment (field-independent basis, Debye-Ang**3):
 XXXX=          -3405.3023 YYYY=           -832.7218 ZZZZ=           -102.7444 XXXY=             -7.8756
 XXXZ=              0.1101 YYYX=            -16.0538 YYYZ=              0.0008 ZZZX=             -0.0055
 ZZZY=             -0.0030 XXYY=           -687.0327 XXZZ=           -560.8500 YYZZ=           -164.7292
 XXYZ=             -0.0008 YYXZ=              0.0277 ZZXY=              0.3333
 N-N= 7.179433643594D+02 E-N=-2.655908245685D+03  KE= 5.161361584242D+02
   1 Symmetry operations used in ECPInt.
 ECPInt:  NShTT=    2926 NPrTT=   18606 LenC2=    2731 LenP2D=   10939.
 LDataN:  DoStor=T MaxTD1= 5 Len=  102
 Calling FoFJK, ICntrl=      2127 FMM=F ISym2X=0 I1Cent= 0 IOpClX= 0 NMat=1 NMatS=1 NMatT=0.
 ***** Axes restored to original set *****
 -------------------------------------------------------------------
 Center     Atomic                   Forces (Hartrees/Bohr)
 Number     Number              X              Y              Z
 -------------------------------------------------------------------
      1        6           0.033146858    0.013529068   -0.000064588
      2        6          -0.060574616   -0.011173060   -0.000014518
      3        6           0.012841796    0.008586070   -0.000002334
      4        6          -0.026716886   -0.006004172   -0.000000557
      5        6          -0.013348334    0.001959922   -0.000006663
      6        1          -0.001256776    0.001089908    0.000003572
      7        6           0.006827710   -0.000510614    0.000001904
      8        6           0.019495639    0.002332591    0.000001840
      9        1           0.001053108    0.002061259    0.000001042
     10        6          -0.000178832    0.004841388   -0.000000725
     11        1          -0.000966461   -0.000674032    0.000000302
     12        6          -0.013985520   -0.001537462   -0.000000008
     13        6           0.011539264   -0.006258221    0.000000264
     14        1           0.001816329   -0.001560014   -0.000000499
     15        1           0.000581415    0.002197220    0.000000654
     16        1           0.001991240    0.000157919   -0.000000282
     17        7           0.036931572   -0.011131091    0.000009747
     18        6           0.007092667   -0.002486152    0.000075462
     19        1          -0.003746106    0.004194984   -0.002200289
     20        1          -0.002973779   -0.000267434   -0.000024144
     21        1          -0.003813234    0.004225391    0.002212110
     22        6          -0.002055614    0.006352476    0.000003137
     23        1           0.001442763    0.000217901   -0.000002769
     24        1          -0.002569875   -0.005071438    0.002737208
     25        1          -0.002574328   -0.005072405   -0.002729864
 -------------------------------------------------------------------
 Cartesian Forces:  Max     0.060574616 RMS     0.010862943

 GradGradGradGradGradGradGradGradGradGradGradGradGradGradGradGradGradGrad
 Berny optimization.
 FormGI is forming the generalized inverse of G from B-inverse, IUseBI=4.
 Internal  Forces:  Max     0.030294460 RMS     0.005098399
 Search for a local minimum.
 Step number   1 out of a maximum of  150
 All quantities printed in internal units (Hartrees-Bohrs-Radians)
 Mixed Optimization -- RFO/linear search
 Second derivative matrix not updated -- first step.
 ITU=  0
     Eigenvalues ---    0.00724   0.00831   0.01037   0.01717   0.01762
     Eigenvalues ---    0.01768   0.01787   0.01864   0.01969   0.02003
     Eigenvalues ---    0.02021   0.02032   0.02112   0.02129   0.02169
     Eigenvalues ---    0.02214   0.02238   0.02304   0.07021   0.07135
     Eigenvalues ---    0.07197   0.07416   0.16000   0.16000   0.16000
     Eigenvalues ---    0.16000   0.16000   0.16000   0.16000   0.16000
     Eigenvalues ---    0.16000   0.16000   0.16000   0.16000   0.22000
     Eigenvalues ---    0.22370   0.22694   0.24364   0.24638   0.25000
     Eigenvalues ---    0.25000   0.25000   0.25000   0.32047   0.32902
     Eigenvalues ---    0.33617   0.33619   0.33749   0.33761   0.34372
     Eigenvalues ---    0.34812   0.35099   0.35101   0.35225   0.35271
     Eigenvalues ---    0.35368   0.35521   0.36057   0.38935   0.40137
     Eigenvalues ---    0.40885   0.41831   0.41908   0.43072   0.47470
     Eigenvalues ---    0.48764   0.49626   0.53300   0.53940
 RFO step:  Lambda=-9.08094067D-03 EMin= 7.24016641D-03
 Linear search not attempted -- first point.
 Iteration  1 RMS(Cart)=  0.04042130 RMS(Int)=  0.00042486
 Iteration  2 RMS(Cart)=  0.00077356 RMS(Int)=  0.00019113
 Iteration  3 RMS(Cart)=  0.00000031 RMS(Int)=  0.00019113
 Variable       Old X    -DE/DX   Delta X   Delta X   Delta X     New X
                                 (Linear)    (Quad)   (Total)
    R1        2.69139  -0.02730   0.00000  -0.06387  -0.06387   2.62752
    R2        2.84058   0.00638   0.00000   0.01936   0.01936   2.85994
    R3        2.82524   0.00496   0.00000   0.01466   0.01466   2.83989
    R4        2.72626   0.01107   0.00000   0.02904   0.02912   2.75538
    R5        2.55201   0.03029   0.00000   0.05573   0.05578   2.60779
    R6        2.57930  -0.00413   0.00000  -0.00825  -0.00822   2.57108
    R7        2.04837   0.00166   0.00000   0.00455   0.00455   2.05292
    R8        2.68915   0.00823   0.00000   0.01925   0.01927   2.70842
    R9        2.71094   0.00684   0.00000   0.01490   0.01482   2.72576
   R10        2.55629  -0.00813   0.00000  -0.01427  -0.01429   2.54199
   R11        2.69042   0.00869   0.00000   0.01839   0.01834   2.70875
   R12        2.05511   0.00227   0.00000   0.00631   0.00631   2.06142
   R13        2.60294   0.00476   0.00000   0.00979   0.00981   2.61275
   R14        2.05082   0.00096   0.00000   0.00264   0.00264   2.05346
   R15        2.66841  -0.00347   0.00000  -0.00819  -0.00820   2.66021
   R16        2.67500  -0.00214   0.00000  -0.00451  -0.00451   2.67049
   R17        2.05312   0.00238   0.00000   0.00658   0.00658   2.05970
   R18        2.61013   0.00891   0.00000   0.01784   0.01783   2.62796
   R19        2.05514   0.00227   0.00000   0.00630   0.00630   2.06145
   R20        2.05237   0.00198   0.00000   0.00548   0.00548   2.05785
   R21        2.07736   0.00411   0.00000   0.01185   0.01185   2.08921
   R22        2.06706   0.00279   0.00000   0.00790   0.00790   2.07496
   R23        2.07756   0.00414   0.00000   0.01194   0.01194   2.08950
   R24        2.05981   0.00103   0.00000   0.00289   0.00289   2.06270
   R25        2.07981   0.00471   0.00000   0.01364   0.01364   2.09345
   R26        2.07978   0.00471   0.00000   0.01365   0.01365   2.09343
    A1        2.11551   0.00139   0.00000   0.00536   0.00536   2.12087
    A2        2.11130  -0.00002   0.00000  -0.00008  -0.00008   2.11122
    A3        2.05637  -0.00137   0.00000  -0.00528  -0.00528   2.05109
    A4        2.11229  -0.00523   0.00000  -0.02235  -0.02242   2.08987
    A5        2.05997   0.01628   0.00000   0.06068   0.06062   2.12059
    A6        2.11092  -0.01105   0.00000  -0.03833  -0.03820   2.07273
    A7        2.09411   0.00445   0.00000   0.01950   0.01960   2.11371
    A8        2.09073  -0.00235   0.00000  -0.01047  -0.01052   2.08021
    A9        2.09835  -0.00211   0.00000  -0.00903  -0.00908   2.08927
   A10        2.06752  -0.00805   0.00000  -0.03159  -0.03154   2.03599
   A11        2.06735   0.00403   0.00000   0.01746   0.01752   2.08486
   A12        2.14832   0.00403   0.00000   0.01413   0.01402   2.16234
   A13        2.09262   0.00318   0.00000   0.00788   0.00785   2.10046
   A14        2.10944  -0.00114   0.00000  -0.00127  -0.00125   2.10818
   A15        2.08113  -0.00204   0.00000  -0.00661  -0.00660   2.07454
   A16        2.10556   0.00406   0.00000   0.01740   0.01741   2.12296
   A17        2.05004  -0.00273   0.00000  -0.01286  -0.01286   2.03718
   A18        2.12759  -0.00133   0.00000  -0.00454  -0.00454   2.12304
   A19        2.03936  -0.00256   0.00000  -0.01531  -0.01544   2.02391
   A20        2.08740   0.00286   0.00000   0.01191   0.01195   2.09935
   A21        2.15643  -0.00030   0.00000   0.00340   0.00349   2.15992
   A22        2.10510   0.00190   0.00000   0.00852   0.00851   2.11360
   A23        2.09328  -0.00065   0.00000  -0.00248  -0.00248   2.09080
   A24        2.08481  -0.00125   0.00000  -0.00603  -0.00603   2.07879
   A25        2.10417   0.00466   0.00000   0.01813   0.01808   2.12225
   A26        2.07531  -0.00245   0.00000  -0.00979  -0.00976   2.06555
   A27        2.10371  -0.00221   0.00000  -0.00835  -0.00832   2.09539
   A28        2.09662  -0.00542   0.00000  -0.02437  -0.02441   2.07221
   A29        2.08988   0.00246   0.00000   0.01071   0.01073   2.10061
   A30        2.09668   0.00296   0.00000   0.01366   0.01368   2.11036
   A31        2.08105   0.00195   0.00000   0.01213   0.01217   2.09322
   A32        1.95693   0.00523   0.00000   0.03322   0.03278   1.98970
   A33        1.93381  -0.00108   0.00000  -0.01103  -0.01089   1.92293
   A34        1.95662   0.00535   0.00000   0.03403   0.03359   1.99021
   A35        1.87587  -0.00303   0.00000  -0.02231  -0.02219   1.85368
   A36        1.86044  -0.00413   0.00000  -0.01601  -0.01687   1.84356
   A37        1.87564  -0.00306   0.00000  -0.02226  -0.02213   1.85351
   A38        1.93978  -0.00412   0.00000  -0.02926  -0.02899   1.91079
   A39        1.93133   0.00578   0.00000   0.03656   0.03611   1.96744
   A40        1.93137   0.00577   0.00000   0.03651   0.03607   1.96743
   A41        1.90389  -0.00187   0.00000  -0.01565  -0.01540   1.88849
   A42        1.90394  -0.00187   0.00000  -0.01565  -0.01540   1.88854
   A43        1.85118  -0.00380   0.00000  -0.01277  -0.01382   1.83736
    D1        0.00034  -0.00001   0.00000  -0.00037  -0.00037  -0.00003
    D2       -3.14136  -0.00001   0.00000  -0.00042  -0.00042   3.14141
    D3       -3.14041  -0.00001   0.00000  -0.00028  -0.00028  -3.14069
    D4        0.00108  -0.00001   0.00000  -0.00033  -0.00033   0.00075
    D5        1.04101   0.00106   0.00000   0.01306   0.01343   1.05444
    D6        3.13686  -0.00002   0.00000  -0.00054  -0.00054   3.13633
    D7       -1.05096  -0.00105   0.00000  -0.01352  -0.01389  -1.06485
    D8       -2.10140   0.00106   0.00000   0.01298   0.01335  -2.08805
    D9       -0.00555  -0.00002   0.00000  -0.00062  -0.00062  -0.00617
   D10        2.08981  -0.00105   0.00000  -0.01361  -0.01398   2.07584
   D11       -0.00030  -0.00000   0.00000  -0.00018  -0.00018  -0.00048
   D12        2.11786  -0.00123   0.00000  -0.01488  -0.01538   2.10248
   D13       -2.11855   0.00122   0.00000   0.01455   0.01506  -2.10349
   D14       -3.14107  -0.00000   0.00000  -0.00010  -0.00010  -3.14117
   D15       -1.02292  -0.00123   0.00000  -0.01480  -0.01530  -1.03822
   D16        1.02386   0.00122   0.00000   0.01464   0.01514   1.03900
   D17        3.14157   0.00000   0.00000   0.00003   0.00003  -3.14158
   D18        0.00022   0.00000   0.00000   0.00002   0.00002   0.00024
   D19        0.00009   0.00000   0.00000   0.00007   0.00007   0.00016
   D20       -3.14127   0.00000   0.00000   0.00007   0.00006  -3.14120
   D21        3.14156   0.00000   0.00000   0.00004   0.00004  -3.14158
   D22       -0.00013   0.00000   0.00000  -0.00001  -0.00001  -0.00014
   D23        0.00003  -0.00000   0.00000  -0.00009  -0.00009  -0.00005
   D24       -3.14150  -0.00000   0.00000  -0.00001  -0.00001  -3.14151
   D25        3.14139  -0.00000   0.00000  -0.00008  -0.00008   3.14131
   D26       -0.00014  -0.00000   0.00000  -0.00001  -0.00001  -0.00015
   D27        0.00001  -0.00000   0.00000  -0.00002  -0.00002  -0.00001
   D28       -3.14159  -0.00000   0.00000  -0.00000  -0.00000  -3.14159
   D29        3.14159  -0.00000   0.00000  -0.00003  -0.00003   3.14156
   D30       -0.00000  -0.00000   0.00000  -0.00001  -0.00001  -0.00002
   D31       -3.14155   0.00000   0.00000   0.00001   0.00001  -3.14154
   D32       -0.00001  -0.00000   0.00000  -0.00000  -0.00000  -0.00002
   D33        0.00006   0.00000   0.00000   0.00002   0.00002   0.00008
   D34        3.14159   0.00000   0.00000   0.00001   0.00001  -3.14159
   D35       -3.14152  -0.00000   0.00000  -0.00002  -0.00002  -3.14154
   D36        0.00006  -0.00000   0.00000  -0.00003  -0.00003   0.00003
   D37       -0.00010   0.00000   0.00000   0.00004   0.00004  -0.00006
   D38        3.14155   0.00000   0.00000   0.00006   0.00005  -3.14158
   D39        3.14143  -0.00000   0.00000  -0.00003  -0.00003   3.14140
   D40       -0.00010  -0.00000   0.00000  -0.00002  -0.00002  -0.00012
   D41       -0.00001   0.00000   0.00000   0.00003   0.00003   0.00001
   D42        3.14159   0.00000   0.00000   0.00002   0.00002  -3.14158
   D43        3.14158   0.00000   0.00000   0.00001   0.00001  -3.14159
   D44        0.00000   0.00000   0.00000   0.00000   0.00000   0.00000
   D45        0.00002   0.00000   0.00000   0.00002   0.00002   0.00004
   D46       -3.14158   0.00000   0.00000   0.00001   0.00001  -3.14157
   D47        3.14155   0.00000   0.00000   0.00000   0.00000   3.14155
   D48       -0.00005  -0.00000   0.00000  -0.00001  -0.00001  -0.00006
   D49        0.00002  -0.00000   0.00000  -0.00001  -0.00001   0.00001
   D50       -3.14159  -0.00000   0.00000  -0.00001  -0.00001   3.14159
   D51       -3.14158  -0.00000   0.00000  -0.00000  -0.00000  -3.14159
   D52       -0.00000   0.00000   0.00000   0.00000   0.00000  -0.00000
   D53       -0.00002  -0.00000   0.00000  -0.00001  -0.00001  -0.00003
   D54        3.14158  -0.00000   0.00000  -0.00001  -0.00001   3.14157
   D55        3.14158  -0.00000   0.00000  -0.00000  -0.00000   3.14158
   D56        0.00000  -0.00000   0.00000  -0.00001  -0.00001  -0.00001
         Item               Value     Threshold  Converged?
 Maximum Force            0.030294     0.000450     NO 
 RMS     Force            0.005098     0.000300     NO 
 Maximum Displacement     0.129829     0.001800     NO 
 RMS     Displacement     0.040258     0.001200     NO 
 Predicted change in Energy=-4.687848D-03
 GradGradGradGradGradGradGradGradGradGradGradGradGradGradGradGradGradGrad

                          Input orientation:                          
 ---------------------------------------------------------------------
 Center     Atomic      Atomic             Coordinates (Angstroms)
 Number     Number       Type             X           Y           Z
 ---------------------------------------------------------------------
      1          6           0       -2.723774   -0.264054   -0.000332
      2          6           0       -1.374078    0.070009   -0.000244
      3          6           0       -0.976123    1.472736   -0.000015
      4          6           0        0.904983   -0.540102   -0.000088
      5          6           0        0.336415    1.831014    0.000065
      6          1           0       -1.743946    2.241256    0.000311
      7          6           0        1.917083   -1.554895   -0.000087
      8          6           0        1.360821    0.828388   -0.000006
      9          1           0        0.628343    2.882086    0.000313
     10          6           0        3.262680   -1.237132   -0.000022
     11          1           0        1.574907   -2.586257   -0.000150
     12          6           0        2.738483    1.117738    0.000089
     13          6           0        3.694997    0.108279    0.000063
     14          1           0        4.007142   -2.033219   -0.000036
     15          1           0        3.048047    2.163763    0.000168
     16          1           0        4.757978    0.344763    0.000115
     17          7           0       -0.391446   -0.898903   -0.000184
     18          6           0       -3.801716    0.798241   -0.000163
     19          1           0       -3.771999    1.469207   -0.878335
     20          1           0       -4.794871    0.329986   -0.005696
     21          1           0       -3.778910    1.462730    0.883319
     22          6           0       -3.164712   -1.700718    0.000602
     23          1           0       -2.287757   -2.350635    0.000796
     24          1           0       -3.785733   -1.957225    0.881382
     25          1           0       -3.786147   -1.958223   -0.879580
 ---------------------------------------------------------------------
                    Distance matrix (angstroms):
                    1          2          3          4          5
     1  C    0.000000
     2  C    1.390423   0.000000
     3  C    2.463884   1.458085   0.000000
     4  C    3.639242   2.359312   2.755009   0.000000
     5  C    3.708648   2.454980   1.360558   2.438331   0.000000
     6  H    2.690101   2.202525   1.086358   3.840934   2.120425
     7  C    4.817035   3.670430   4.187743   1.433232   3.736695
     8  C    4.228161   2.838100   2.424148   1.442412   1.433411
     9  H    4.597269   3.452168   2.135550   3.433351   1.090859
    10  C    6.065023   4.817483   5.030988   2.458574   4.239876
    11  H    4.885825   3.968913   4.794078   2.153033   4.587608
    12  C    5.634324   4.243925   3.731531   2.471873   2.505733
    13  C    6.429561   5.069220   4.866324   2.864364   3.774638
    14  H    6.959538   5.777638   6.093000   3.442788   5.329778
    15  H    6.261646   4.892749   4.083070   3.450160   2.731972
    16  H    7.506482   6.138209   5.843992   3.953297   4.664672
    17  N    2.417185   1.379984   2.442646   1.345164   2.825284
    18  C    1.513416   2.534511   2.904982   4.893278   4.265062
    19  H    2.207682   2.911842   2.930594   5.165540   4.216819
    20  H    2.154613   3.430662   3.986069   5.765884   5.346327
    21  H    2.208152   2.916088   2.938706   5.170164   4.225124
    22  C    1.502807   2.518302   3.854963   4.231956   4.973030
    23  H    2.131650   2.587340   4.042098   3.670370   4.936848
    24  H    2.184492   3.271548   4.520554   4.978759   5.667414
    25  H    2.184473   3.271855   4.521211   4.979083   5.668122
                    6          7          8          9         10
     6  H    0.000000
     7  C    5.273888   0.000000
     8  C    3.411125   2.447338   0.000000
     9  H    2.457319   4.620352   2.180413   0.000000
    10  C    6.096350   1.382607   2.807746   4.889549   0.000000
    11  H    5.858299   1.086643   3.421350   5.549663   2.160721
    12  C    4.621089   2.796008   1.407721   2.750567   2.412508
    13  C    5.842234   2.434569   2.442731   4.135018   1.413164
    14  H    7.165623   2.144094   3.897667   5.964605   1.089944
    15  H    4.792619   3.886836   2.151734   2.524075   3.407661
    16  H    6.772865   3.417511   3.431409   4.846844   2.176766
    17  N    3.419043   2.399924   2.460483   3.916101   3.669746
    18  C    2.513307   6.184005   5.162625   4.895695   7.351764
    19  H    2.341170   6.502474   5.246709   4.704387   7.588307
    20  H    3.600157   6.971595   6.175839   5.993705   8.208533
    21  H    2.350933   6.506213   5.253522   4.713613   7.592992
    22  C    4.190195   5.083888   5.184287   5.948895   6.444089
    23  H    4.623980   4.279472   4.839246   5.990409   5.661027
    24  H    4.751045   5.784546   5.918066   6.609030   7.139715
    25  H    4.751886   5.784723   5.918625   6.609880   7.139996
                   11         12         13         14         15
    11  H    0.000000
    12  C    3.882459   0.000000
    13  C    3.428602   1.390656   0.000000
    14  H    2.494317   3.396766   2.164128   0.000000
    15  H    4.973211   1.090870   2.154892   4.305174   0.000000
    16  H    4.326987   2.162371   1.088969   2.493703   2.496523
    17  N    2.591083   3.723345   4.208734   4.542494   4.605436
    18  C    6.353181   6.547999   7.528397   8.306349   6.984547
    19  H    6.768117   6.578871   7.640664   8.576330   6.911382
    20  H    7.005611   7.574432   8.492765   9.113737   8.054448
    21  H    6.770390   6.586011   7.646828   8.580477   6.919447
    22  C    4.821636   6.541515   7.094229   7.179558   7.316597
    23  H    3.869844   6.106775   6.468354   6.302896   6.989319
    24  H    5.468935   7.266187   7.810529   7.842931   8.028676
    25  H    5.468887   7.266784   7.811000   7.843122   8.029379
                   16         17         18         19         20
    16  H    0.000000
    17  N    5.297479   0.000000
    18  C    8.571698   3.809230   0.000000
    19  H    8.648501   4.219862   1.105562   0.000000
    20  H    9.552863   4.571690   1.098021   1.762269   0.000000
    21  H    8.654962   4.222890   1.105715   1.761680   1.762280
    22  C    8.182482   2.886852   2.578870   3.345109   2.604077
    23  H    7.543709   2.388204   3.493922   4.191305   3.670340
    24  H    8.892175   3.663112   2.893090   3.851913   2.652660
    25  H    8.892676   3.663262   2.893391   3.427460   2.648982
                   21         22         23         24         25
    21  H    0.000000
    22  C    3.341232   0.000000
    23  H    4.188572   1.091533   0.000000
    24  H    3.419962   1.107807   1.781611   0.000000
    25  H    3.848478   1.107795   1.781635   1.760963   0.000000
 Stoichiometry    C12H12N(1-)
 Framework group  C1[X(C12H12N)]
 Deg. of freedom    69
 Full point group                 C1      NOp   1
 Largest Abelian subgroup         C1      NOp   1
 Largest concise Abelian subgroup C1      NOp   1
                         Standard orientation:                         
 ---------------------------------------------------------------------
 Center     Atomic      Atomic             Coordinates (Angstroms)
 Number     Number       Type             X           Y           Z
 ---------------------------------------------------------------------
      1          6           0       -2.727516   -0.260550   -0.000337
      2          6           0       -1.378344    0.075624   -0.000249
      3          6           0       -0.982583    1.478972   -0.000021
      4          6           0        0.901668   -0.530922   -0.000093
      5          6           0        0.329393    1.839302    0.000060
      6          1           0       -1.751607    2.246290    0.000305
      7          6           0        1.915354   -1.544132   -0.000092
      8          6           0        1.355366    0.838278   -0.000012
      9          1           0        0.619677    2.890828    0.000307
     10          6           0        3.260452   -1.224265   -0.000028
     11          1           0        1.574792   -2.576028   -0.000155
     12          6           0        2.732574    1.129782    0.000084
     13          6           0        3.690666    0.121821    0.000058
     14          1           0        4.006158   -2.019187   -0.000042
     15          1           0        3.040501    2.176290    0.000162
     16          1           0        4.753275    0.359966    0.000110
     17          7           0       -0.394198   -0.891751   -0.000189
     18          6           0       -3.807118    0.800058   -0.000168
     19          1           0       -3.778450    1.471070   -0.878341
     20          1           0       -4.799540    0.330252   -0.005701
     21          1           0       -3.785351    1.464582    0.883313
     22          6           0       -3.166207   -1.697901    0.000596
     23          1           0       -2.288236   -2.346446    0.000790
     24          1           0       -3.786826   -1.955380    0.881377
     25          1           0       -3.787238   -1.956378   -0.879586
 ---------------------------------------------------------------------
 Rotational constants (GHZ):           2.0620035           0.4950663           0.4011998
 Basis read from rwf:  (5D, 7F)
 Pseudo-potential data read from rwf file.
 There are   219 symmetry adapted cartesian basis functions of A   symmetry.
 There are   206 symmetry adapted basis functions of A   symmetry.
   206 basis functions,   412 primitive gaussians,   219 cartesian basis functions
    46 alpha electrons       46 beta electrons
       nuclear repulsion energy       715.3072890107 Hartrees.
 NAtoms=   25 NActive=   25 NUniq=   25 SFac= 1.00D+00 NAtFMM=   60 NAOKFM=F Big=F
 Integral buffers will be    131072 words long.
 Raffenetti 2 integral format.
 Two-electron integral symmetry is turned on.
 Nuclear repulsion after empirical dispersion term =      715.2575395095 Hartrees.
 One-electron integrals computed using PRISM.
   1 Symmetry operations used in ECPInt.
 ECPInt:  NShTT=    2926 NPrTT=   18606 LenC2=    2727 LenP2D=   10902.
 LDataN:  DoStor=T MaxTD1= 4 Len=   56
 NBasis=   206 RedAO= T EigKep=  4.23D-04  NBF=   206
 NBsUse=   206 1.00D-06 EigRej= -1.00D+00 NBFU=   206
 Initial guess from the checkpoint file:  "/tmp/Gau-67771.chk"
 B after Tr=     0.000000   -0.000000    0.000000
         Rot=    0.999999    0.000014   -0.000002   -0.001149 Ang=   0.13 deg.
 ExpMin= 1.61D-01 ExpMax= 4.17D+03 ExpMxC= 6.27D+02 IAcc=3 IRadAn=         5 AccDes= 0.00D+00
 Harris functional with IExCor=  402 and IRadAn=       5 diagonalized for initial guess.
 HarFok:  IExCor=  402 AccDes= 0.00D+00 IRadAn=         5 IDoV= 1 UseB2=F ITyADJ=14
 ICtDFT=  3500011 ScaDFX=  1.000000  1.000000  1.000000  1.000000
 FoFCou: FMM=F IPFlag=           0 FMFlag=      100000 FMFlg1=           0
         NFxFlg=           0 DoJE=T BraDBF=F KetDBF=T FulRan=T
         wScrn=  0.000000 ICntrl=       500 IOpCl=  0 I1Cent=   200000004 NGrid=           0
         NMat0=    1 NMatS0=      1 NMatT0=    0 NMatD0=    1 NMtDS0=    0 NMtDT0=    0
 Petite list used in FoFCou.
 Requested convergence on RMS density matrix=1.00D-08 within 128 cycles.
 Requested convergence on MAX density matrix=1.00D-06.
 Requested convergence on             energy=1.00D-06.
 No special actions if energy rises.
 Integral accuracy reduced to 1.0D-05 until final iterations.
 Initial convergence to 1.0D-05 achieved.  Increase integral accuracy.
 SCF Done:  E(RB3LYP) =  -519.304876665     A.U. after   13 cycles
            NFock= 13  Conv=0.37D-08     -V/T= 2.0065
   1 Symmetry operations used in ECPInt.
 ECPInt:  NShTT=    2926 NPrTT=   18606 LenC2=    2727 LenP2D=   10902.
 LDataN:  DoStor=T MaxTD1= 5 Len=  102
 Calling FoFJK, ICntrl=      2127 FMM=F ISym2X=0 I1Cent= 0 IOpClX= 0 NMat=1 NMatS=1 NMatT=0.
 ***** Axes restored to original set *****
 -------------------------------------------------------------------
 Center     Atomic                   Forces (Hartrees/Bohr)
 Number     Number              X              Y              Z
 -------------------------------------------------------------------
      1        6           0.006220693    0.002054062   -0.000001952
      2        6          -0.012394353   -0.000548287    0.000004057
      3        6           0.006502281    0.003616796    0.000001619
      4        6          -0.011376555   -0.002003028   -0.000006562
      5        6          -0.003905550    0.000018582   -0.000000557
      6        1           0.000191445    0.000116743    0.000004086
      7        6           0.001899198    0.000559351    0.000001236
      8        6           0.007957057    0.001433096    0.000000653
      9        1           0.000121323    0.000247332   -0.000000787
     10        6          -0.001607373    0.001494436    0.000000374
     11        1           0.000090104   -0.000509585   -0.000000116
     12        6          -0.004844724   -0.000489539    0.000000039
     13        6           0.002428953   -0.001150036    0.000000502
     14        1          -0.000329977   -0.000635294   -0.000000158
     15        1           0.000057735    0.000527826   -0.000000032
     16        1          -0.000742412    0.000208330   -0.000000265
     17        7           0.009631938   -0.003650585    0.000000774
     18        6           0.001203242   -0.001788926   -0.000002533
     19        1          -0.000281894    0.000016778   -0.000004405
     20        1          -0.000479367   -0.000259043   -0.000008561
     21        1          -0.000275576    0.000011712    0.000004885
     22        6          -0.001719285    0.001919156    0.000007596
     23        1           0.000917699   -0.000569109   -0.000000204
     24        1           0.000371055   -0.000313176   -0.000031953
     25        1           0.000364344   -0.000307590    0.000032264
 -------------------------------------------------------------------
 Cartesian Forces:  Max     0.012394353 RMS     0.002891790

 GradGradGradGradGradGradGradGradGradGradGradGradGradGradGradGradGradGrad
 Berny optimization.
 Using GEDIIS/GDIIS optimizer.
 FormGI is forming the generalized inverse of G from B-inverse, IUseBI=4.
 Internal  Forces:  Max     0.006863399 RMS     0.001368554
 Search for a local minimum.
 Step number   2 out of a maximum of  150
 All quantities printed in internal units (Hartrees-Bohrs-Radians)
 Mixed Optimization -- RFO/linear search
 Update second derivatives using D2CorX and points    1    2
 DE= -5.07D-03 DEPred=-4.69D-03 R= 1.08D+00
 TightC=F SS=  1.41D+00  RLast= 1.76D-01 DXNew= 5.0454D-01 5.2836D-01
 Trust test= 1.08D+00 RLast= 1.76D-01 DXMaxT set to 5.05D-01
 ITU=  1  0
 Use linear search instead of GDIIS.
     Eigenvalues ---    0.00724   0.00831   0.01039   0.01719   0.01767
     Eigenvalues ---    0.01768   0.01792   0.01869   0.01970   0.02005
     Eigenvalues ---    0.02023   0.02033   0.02113   0.02129   0.02171
     Eigenvalues ---    0.02215   0.02238   0.02303   0.06639   0.07016
     Eigenvalues ---    0.07090   0.07260   0.15724   0.16000   0.16000
     Eigenvalues ---    0.16000   0.16000   0.16000   0.16000   0.16000
     Eigenvalues ---    0.16000   0.16000   0.16000   0.16169   0.21270
     Eigenvalues ---    0.22169   0.22707   0.23223   0.24637   0.24915
     Eigenvalues ---    0.25000   0.25000   0.27798   0.32339   0.33067
     Eigenvalues ---    0.33618   0.33694   0.33755   0.33929   0.34284
     Eigenvalues ---    0.34722   0.35008   0.35103   0.35201   0.35341
     Eigenvalues ---    0.35376   0.35536   0.35784   0.36622   0.39938
     Eigenvalues ---    0.40324   0.40956   0.42057   0.43320   0.47255
     Eigenvalues ---    0.49072   0.49562   0.51574   0.55035
 RFO step:  Lambda=-6.59612102D-04 EMin= 7.24017228D-03
 Quartic linear search produced a step of  0.13812.
 Iteration  1 RMS(Cart)=  0.01981991 RMS(Int)=  0.00012542
 Iteration  2 RMS(Cart)=  0.00018566 RMS(Int)=  0.00003339
 Iteration  3 RMS(Cart)=  0.00000001 RMS(Int)=  0.00003339
 Variable       Old X    -DE/DX   Delta X   Delta X   Delta X     New X
                                 (Linear)    (Quad)   (Total)
    R1        2.62752  -0.00632  -0.00882  -0.01290  -0.02173   2.60579
    R2        2.85994  -0.00154   0.00267  -0.00675  -0.00407   2.85587
    R3        2.83989  -0.00068   0.00202  -0.00333  -0.00130   2.83859
    R4        2.75538   0.00438   0.00402   0.01122   0.01525   2.77063
    R5        2.60779   0.00446   0.00770   0.00572   0.01343   2.62122
    R6        2.57108  -0.00310  -0.00114  -0.00607  -0.00721   2.56387
    R7        2.05292  -0.00005   0.00063  -0.00047   0.00016   2.05308
    R8        2.70842   0.00042   0.00266  -0.00011   0.00256   2.71097
    R9        2.72576   0.00268   0.00205   0.00610   0.00815   2.73391
   R10        2.54199  -0.00686  -0.00197  -0.01353  -0.01551   2.52648
   R11        2.70875   0.00076   0.00253   0.00058   0.00311   2.71186
   R12        2.06142   0.00027   0.00087   0.00045   0.00132   2.06275
   R13        2.61275  -0.00111   0.00135  -0.00316  -0.00180   2.61095
   R14        2.05346   0.00046   0.00036   0.00129   0.00165   2.05511
   R15        2.66021  -0.00382  -0.00113  -0.00943  -0.01057   2.64964
   R16        2.67049  -0.00043  -0.00062  -0.00082  -0.00145   2.66904
   R17        2.05970   0.00024   0.00091   0.00033   0.00124   2.06093
   R18        2.62796   0.00082   0.00246   0.00069   0.00314   2.63110
   R19        2.06145   0.00052   0.00087   0.00127   0.00214   2.06359
   R20        2.05785  -0.00068   0.00076  -0.00256  -0.00180   2.05605
   R21        2.08921   0.00001   0.00164  -0.00078   0.00086   2.09007
   R22        2.07496   0.00054   0.00109   0.00127   0.00236   2.07732
   R23        2.08950   0.00001   0.00165  -0.00078   0.00086   2.09036
   R24        2.06270   0.00108   0.00040   0.00332   0.00372   2.06641
   R25        2.09345  -0.00016   0.00188  -0.00146   0.00042   2.09388
   R26        2.09343  -0.00016   0.00189  -0.00145   0.00043   2.09386
    A1        2.12087   0.00319   0.00074   0.01413   0.01487   2.13574
    A2        2.11122  -0.00184  -0.00001  -0.00833  -0.00834   2.10288
    A3        2.05109  -0.00135  -0.00073  -0.00579  -0.00652   2.04457
    A4        2.08987   0.00427  -0.00310   0.02038   0.01728   2.10715
    A5        2.12059  -0.00280   0.00837  -0.01736  -0.00899   2.11160
    A6        2.07273  -0.00147  -0.00528  -0.00303  -0.00829   2.06444
    A7        2.11371   0.00079   0.00271   0.00377   0.00648   2.12019
    A8        2.08021  -0.00017  -0.00145  -0.00025  -0.00170   2.07851
    A9        2.08927  -0.00062  -0.00125  -0.00352  -0.00477   2.08449
   A10        2.03599  -0.00219  -0.00436  -0.00740  -0.01174   2.02425
   A11        2.08486  -0.00066   0.00242  -0.00354  -0.00112   2.08374
   A12        2.16234   0.00285   0.00194   0.01093   0.01286   2.17520
[...]
 1,0.00002137,-0.05610379,0.00000454,-0.00001993,0.01066984,0.00000401,
 0.00000438,-0.05632666,-0.00000309,0.00000088,-0.00319562,-0.00001007,
 -0.00000093,0.00244343,0.00000240,-0.00000334,0.00354004,0.00000719,-0
 .00000132,0.02032046,0.00000014,0.00000081,-0.00254199,-0.00000126,0.0
 0000052,0.00269489,-0.00000007,-0.00000029,-0.00278379,-0.00000346,0.0
 0000227,0.00464279,0.00000258,-0.00000135,-0.00081774,0.00000001,-0.00
 000006,0.00046098,0.,0.00000024,-0.00010206,-0.00000011,0.,-0.00016396
 ,0.00001587,-0.00001384,0.06591629,-0.14188858,0.06305508,0.00008647,-
 0.03149767,0.02340122,0.00001816,0.00080096,0.00039511,-0.00000593,-0.
 00378377,-0.00006940,0.00000239,-0.00344842,0.00216619,0.00000047,-0.0
 0264094,0.00093009,-0.00001086,0.00004758,-0.00052752,0.00000033,0.003
 59117,-0.00051000,0.00000065,0.00006753,0.00013257,-0.00000079,0.00040
 052,0.00128038,0.00000008,-0.00003643,-0.00004966,0.00000022,-0.002905
 62,0.00035928,-0.00000016,0.00181423,-0.00172880,-0.00000005,0.0000905
 8,-0.00012104,-0.00000007,0.00000879,0.00017066,0.00000021,0.00011103,
 0.00000120,-0.00000018,0.00162520,-0.00554840,-0.00000091,0.51458060,0
 .04912812,-0.14308606,-0.00004714,0.00695761,0.00810092,-0.00000061,-0
 .00617844,-0.00139111,0.00000377,0.00083055,0.00103735,0.00000321,0.00
 342973,-0.00115079,-0.00000819,-0.00129831,-0.00072395,-0.00000875,0.0
 0010500,-0.00035254,-0.00000062,-0.00338888,0.00103942,0.00000227,-0.0
 0004592,-0.00017440,-0.00000199,-0.00079174,-0.00114050,0.00000010,0.0
 0007759,0.00009561,0.00000031,0.00243307,-0.00017746,0.00000437,-0.001
 36547,0.00163232,-0.00000033,-0.00017440,0.00010716,0.00000004,-0.0000
 5493,-0.00019902,0.00000032,-0.00013718,-0.00000670,-0.00000131,-0.005
 64836,0.00147607,0.00000882,0.04694422,0.51215459,-0.00003669,0.000078
 05,-0.06138663,-0.00003378,0.00000102,-0.00377492,-0.00002493,-0.00004
 019,-0.00450629,-0.00002782,-0.00000980,0.00300158,-0.00000597,0.00002
 201,0.00000801,-0.00001557,0.00002549,0.00130287,0.00001117,-0.0000072
 4,-0.00029558,0.00000290,0.00000378,-0.00030300,-0.00000014,-0.0000011
 6,0.00053415,-0.00000658,-0.00000152,-0.00048081,0.00000016,0.00000002
 ,0.00013332,-0.00000827,0.00000403,-0.00041188,0.00000721,-0.00000029,
 0.00006793,-0.00000011,-0.00000020,-0.00001246,-0.00000007,0.,-0.00000
 331,-0.00000042,0.00000012,0.00012019,0.00002766,-0.00000738,0.0058963
 5,0.00013293,-0.00017551,0.50281988,-0.00231321,0.01565114,-0.01683248
 ,0.00437410,0.00070802,-0.00063266,0.00023267,-0.00026248,-0.00016022,
 0.00252604,0.00070117,0.00048393,-0.00039626,-0.00011637,0.00047488,-0
 .00108111,-0.00066073,-0.00086260,-0.00099581,0.00047601,-0.00005124,-
 0.00025277,-0.00083475,-0.00018551,-0.00003959,-0.00004663,0.00010099,
 0.00063373,0.00031250,-0.00007128,0.00000346,0.00001164,0.00001370,0.0
 0022429,-0.00001281,-0.00019354,-0.00042947,-0.00034754,0.00002883,-0.
 00002099,0.00003368,0.00000056,-0.00001730,-0.00004542,-0.00000789,-0.
 00001433,-0.00000991,0.00004981,-0.00323715,0.00094862,0.00089068,-0.0
 4638881,-0.00644516,0.00669892,0.04925127,0.00752658,-0.01661202,0.013
 12591,-0.00597933,-0.00033390,-0.00054256,0.00125797,0.00037645,0.0001
 4851,-0.00195631,-0.00058731,-0.00021813,-0.00136100,0.00073361,0.0001
 0938,-0.00052244,0.00071112,-0.00001517,0.00038131,-0.00021400,0.00002
 209,0.00176633,-0.00002221,0.00002599,0.00003589,0.00010112,0.00001082
 ,0.00006018,0.00044268,-0.00000186,-0.00003700,-0.00003256,0.00000522,
 -0.00135202,0.00015937,-0.00011085,0.00091585,-0.00068706,0.00000128,0
 .00007847,-0.00006847,0.00000473,0.00002672,0.00011628,-0.00000103,0.0
 0007200,0.00000701,0.00002872,0.00311413,-0.00125868,-0.00039850,-0.01
 147203,-0.12629761,0.11215992,0.00482295,0.14224288,-0.00587813,0.0008
 8313,0.00814830,0.00300747,0.00062530,0.00154744,-0.00108506,0.0007501
 8,0.00002253,0.00113425,0.00037746,-0.00008611,0.00099572,-0.00077735,
 -0.00010693,0.00018722,-0.00088544,-0.00040726,-0.00026455,0.00013388,
 0.00002565,-0.00095439,0.00010690,0.00000309,-0.00002812,-0.00003758,-
 0.00002758,0.00001886,-0.00023353,0.00002191,0.00001878,0.00000975,-0.
 00000983,0.00078032,-0.00013145,0.00008210,-0.00052614,0.00035806,0.00
 000620,-0.00003868,0.00003379,-0.00000155,-0.00002008,-0.00006245,-0.0
 0000135,-0.00002913,-0.00000742,-0.00002483,-0.00188098,0.00048248,-0.
 00029225,0.01120786,0.10821217,-0.19778039,-0.01075460,-0.12336734,0.2
 1629560,-0.02310634,-0.01171100,-0.00011673,-0.00061619,0.00435116,-0.
 00005348,0.00030624,0.00029853,-0.00000364,0.00025901,0.00056446,0.000
 00904,0.00022510,-0.00003166,-0.00000409,-0.00008845,0.00027807,0.0000
 0409,-0.00023110,-0.00006319,0.00000007,-0.00038981,-0.00011370,0.0000
 0058,-0.00006524,-0.00006995,-0.00000079,-0.00006655,-0.00002876,-0.00
 000100,0.00002058,0.00004970,0.00000032,0.00038949,-0.00002094,0.00000
 100,-0.00026088,0.00023016,0.00000026,-0.00006175,0.00003858,-0.000000
 10,-0.00000551,-0.00004951,0.00000008,-0.00005243,-0.00000109,-0.00000
 035,-0.00165542,-0.00030181,0.00000645,-0.24850267,-0.10153778,-0.0014
 7875,-0.00108614,-0.00108346,0.00094659,0.27362604,0.02191916,0.009717
 71,0.00014745,0.00140996,-0.00341717,0.00001325,-0.00003450,-0.0012403
 7,0.00000029,-0.00013472,-0.00020752,-0.00000642,0.00014817,0.00041508
 ,-0.00000289,-0.00044913,0.00070064,0.00000178,0.00024567,-0.00002192,
 0.00000050,-0.00019568,0.00004901,0.00000145,0.00002254,-0.00000875,-0
 .00000073,-0.00017293,-0.00015415,0.00000077,0.00000072,0.00000781,-0.
 00000037,0.00011955,0.00004995,0.00000165,-0.00003151,0.00018693,-0.00
 000020,-0.00000243,0.00000986,-0.00000004,0.00001317,-0.00000510,-0.00
 000012,-0.00002071,0.00000590,-0.00000027,0.00154801,0.00031936,-0.000
 00835,-0.10406449,-0.09995233,-0.00075856,-0.01666694,-0.00940834,-0.0
 0119144,0.11126047,0.11140604,0.00000467,0.00000024,-0.00112240,0.0000
 1884,0.00000680,-0.00011033,0.00001441,0.00001045,0.00029210,0.0000121
 9,0.00000483,0.00006192,-0.00000147,-0.00000450,0.00015243,0.00000354,
 -0.00000541,-0.00032898,-0.00000552,0.00000254,-0.00003314,0.00000063,
 -0.00000401,-0.00006276,-0.00000026,0.00000003,0.00000795,0.00000319,0
 .00000189,-0.00001201,0.00000003,0.00000017,0.00000590,0.00000153,-0.0
 0000069,-0.00000001,-0.00000224,-0.00000124,0.00000297,-0.00000018,0.0
 0000023,0.00000335,0.00000002,-0.00000016,-0.00000175,-0.00000011,-0.0
 0000006,-0.00000126,-0.00001320,0.00000271,0.00046410,-0.00150191,-0.0
 0075038,-0.04829458,0.02564419,0.01304108,0.00076045,0.00164568,0.0008
 7933,0.04722738,-0.00270541,0.01553288,0.01692881,0.00445601,0.0007483
 5,0.00065352,0.00025511,-0.00025002,0.00015492,0.00256094,0.00071481,-
 0.00049030,-0.00038028,-0.00012741,-0.00046915,-0.00102393,-0.00066198
 ,0.00084404,-0.00100716,0.00047985,0.00005184,-0.00027205,-0.00083925,
 0.00018444,-0.00004073,-0.00004852,-0.00009954,0.00063603,0.00031043,0
 .00007144,0.00000401,0.00001262,-0.00001394,0.00024111,-0.00001413,0.0
 0019017,-0.00044197,-0.00034136,-0.00002852,-0.00002242,0.00003492,-0.
 00000051,-0.00001770,-0.00004726,0.00000768,-0.00001566,-0.00001007,-0
 .00004885,-0.00330022,0.00096932,-0.00090422,-0.04616263,-0.00532993,-
 0.00519842,0.00031611,0.00103761,0.00344167,-0.00086305,-0.01645105,-0
 .02582801,0.04903353,0.00778988,-0.01643694,-0.01327901,-0.00599772,-0
 .00034282,0.00048578,0.00128228,0.00040814,-0.00017056,-0.00196335,-0.
 00059166,0.00022659,-0.00136355,0.00072050,-0.00010649,-0.00048653,0.0
 0068891,0.00001650,0.00038169,-0.00021347,-0.00002218,0.00177754,-0.00
 001977,-0.00002721,0.00003571,0.00010218,-0.00000826,0.00006256,0.0004
 4553,0.00000007,-0.00003714,-0.00003351,-0.00000473,-0.00135944,0.0001
 5792,0.00010748,0.00092085,-0.00069209,-0.00000098,0.00007921,-0.00006
 914,-0.00000478,0.00002662,0.00011702,0.00000095,0.00007292,0.00000688
 ,-0.00002779,0.00312953,-0.00127214,0.00041266,-0.01033307,-0.12398526
 ,-0.11135111,0.00091682,0.01133052,0.01555090,-0.00098893,-0.00932201,
 -0.01319749,0.00344864,0.13964053,0.00602346,-0.00099451,0.00828608,-0
 .00307318,-0.00063951,0.00153907,0.00108395,-0.00071816,0.00001837,-0.
 00115946,-0.00038400,-0.00008637,-0.00098998,0.00076481,-0.00010810,-0
 .00019896,0.00086662,-0.00040856,0.00027306,-0.00013590,0.00002585,0.0
 0096003,-0.00009646,0.00000487,0.00002888,0.00003952,-0.00002958,-0.00
 002300,0.00023073,0.00002239,-0.00001913,-0.00001053,-0.00000995,-0.00
 078201,0.00012820,0.00008447,0.00053017,-0.00035502,0.00000597,0.00003
 962,-0.00003468,-0.00000167,0.00002035,0.00006365,-0.00000132,0.000030
 30,0.00000750,-0.00002542,0.00191632,-0.00049822,-0.00029450,-0.009869
 25,-0.10725367,-0.19978038,-0.00316820,-0.01516726,-0.02650973,-0.0009
 8325,0.00090525,0.00034666,0.00907830,0.12248363,0.21859834,-0.0963910
 6,-0.03261953,0.00002173,-0.00986016,-0.03406108,0.00003058,-0.0044098
 1,0.00218499,0.00000039,-0.00120339,-0.00139494,-0.00000250,-0.0000429
 3,-0.00195781,-0.00000163,0.00018942,-0.00036574,-0.00000022,0.0007086
 9,-0.00027610,0.00000012,0.00001756,0.00046880,-0.00000030,-0.00044517
 ,-0.00015259,0.00000043,-0.00052208,-0.00031379,-0.00000014,-0.0000255
 2,0.00007145,-0.00000010,0.00015758,-0.00021220,0.00000038,0.00007055,
 0.00053258,0.00000012,0.00000470,-0.00001374,-0.00000002,0.00000741,0.
 00002167,-0.00000024,0.00000271,0.00001655,0.00000005,-0.00086463,-0.0
 0121884,0.00000284,0.00508634,0.02349742,-0.00006267,-0.00208079,0.003
 78415,-0.00064520,0.00128400,0.00159817,0.00001032,-0.00204411,0.00372
 270,0.00065598,0.56866237,-0.03024537,-0.19787866,0.00009440,-0.022266
 77,-0.00974473,0.00001716,0.00215999,0.00363267,0.00000410,-0.00220375
 ,-0.00180587,0.00000100,-0.00277133,0.00047228,-0.00000078,0.00002526,
 0.00038055,-0.00000034,0.00061691,-0.00006865,-0.00000010,0.00260944,-
 0.00019800,-0.00000016,0.00003931,0.00018717,-0.00000057,0.00013354,0.
 00065044,0.00000037,-0.00002008,-0.00017538,0.00000005,-0.00221412,0.0
 0000237,0.00000004,0.00147264,-0.00109218,-0.00000032,0.00012767,-0.00
 011920,0.00000005,-0.00002256,0.00013708,0.00000033,0.00011554,-0.0000
 0768,-0.00000009,0.00452591,-0.00555387,-0.00000404,-0.00004920,-0.024
 65660,0.00005058,0.00008981,-0.00030545,-0.00067375,-0.00267289,0.0004
 1133,0.00000155,0.00005243,-0.00025638,0.00066237,-0.04049387,0.485074
 57,0.00007660,0.00007340,-0.06176584,-0.00002793,-0.00000496,0.0032004
 6,-0.00001021,-0.00000474,0.00878093,-0.00000923,-0.00000384,-0.000947
 75,-0.00000435,0.,0.00101481,-0.00000222,0.00000361,-0.00054000,0.0000
 0311,-0.00000170,0.00009627,0.00000335,0.00000187,0.00034577,-0.000000
 36,0.00000009,-0.00123563,-0.00000156,0.00000010,0.00024881,-0.0000000
 5,-0.00000015,-0.00004023,-0.00000321,0.00000029,-0.00010088,0.0000028
 4,-0.00000043,0.00005106,0.00000015,-0.00000022,0.00002933,0.00000004,
 0.00000031,-0.00003073,0.00000016,0.00000003,-0.00005861,0.00000992,-0
 .00000762,-0.00275255,-0.00004053,0.00000547,-0.00082074,-0.00150278,0
 .00166288,-0.00097667,0.00001577,0.00002870,0.00139760,0.00150321,-0.0
 0164227,-0.00097596,0.00005567,0.00004155,0.49784025,0.00891040,-0.002
 80595,-0.00001071,0.00029452,-0.00009731,-0.00000051,-0.00026422,0.000
 27869,0.00000251,-0.00129886,0.00070307,0.00000282,0.00050337,-0.00015
 882,-0.00000033,-0.00005565,0.00022749,0.,0.00044898,-0.00017093,0.,0.
 00001603,0.00047594,-0.00000012,0.00006089,0.00007697,-0.00000031,-0.0
 0028863,-0.00032731,0.00000011,-0.00007266,0.00000270,0.00000015,0.000
 15163,0.00003013,-0.00000064,-0.00000701,0.00033628,-0.00000006,0.0000
 5370,-0.00003076,0.,0.00004964,0.00006102,0.00000027,0.00003883,0.0000
 1399,0.,-0.00258727,-0.00307213,-0.00000317,-0.00010067,-0.00233293,0.
 00000182,0.00020239,-0.00012605,0.00004752,0.00008365,-0.00006880,0.00
 000342,0.00019623,-0.00011508,-0.00004408,-0.22460282,0.13244617,0.000
 05545,0.24322544,0.02563486,-0.01963701,-0.00001365,0.00319950,-0.0009
 2848,0.00000253,-0.00025492,-0.00038121,0.00000075,-0.00128490,0.00130
 861,-0.00000059,0.00111802,-0.00027009,-0.00000032,-0.00001331,0.00022
 527,0.00000064,0.00045529,-0.00011625,0.00000009,-0.00024615,0.0007237
 7,0.00000021,0.00003063,0.00004275,-0.00000018,-0.00042468,-0.00052172
 ,0.00000014,-0.00004370,0.00000998,-0.00000012,0.00058979,0.00004432,0
 .00000005,-0.00027124,0.00064936,0.00000008,0.00002758,-0.00001006,-0.
 00000001,0.00008610,0.00004879,-0.00000006,0.00001825,0.00001822,-0.00
 000004,0.00089640,0.00096494,-0.00000048,-0.00182730,-0.00547375,0.000
 01492,0.00047309,-0.00080695,-0.00008186,-0.00044424,0.00019475,0.0000
 0079,0.00045629,-0.00078490,0.00007762,0.12675541,-0.14028949,-0.00005
 256,-0.14106119,0.15588817,-0.00002746,0.00001396,-0.00001907,-0.00000
 067,-0.00000063,0.00047251,0.,0.00000071,0.00005753,0.00000211,0.00000
 047,-0.00019496,-0.00000031,0.00000005,-0.00000341,-0.00000003,-0.0000
 0017,-0.00003922,-0.00000063,0.00000040,-0.00011197,-0.00000052,-0.000
 00086,0.00009838,-0.00000002,-0.00000001,-0.00002471,0.00000037,0.0000
 0003,0.00000380,0.00000003,0.00000007,-0.00000884,0.00000047,-0.000000
 01,0.00006975,-0.00000051,-0.00000005,-0.00003240,-0.00000002,0.000000
 04,0.00000523,0.,-0.00000004,0.00000180,-0.00000002,0.,0.00000595,-0.0
 0000201,-0.00000127,-0.00132693,-0.00001210,0.00000473,0.00171176,0.00
 003216,-0.00028796,-0.00012916,0.00000821,0.00000072,-0.00013206,-0.00
 002830,0.00030197,-0.00012979,0.00006100,-0.00005952,-0.05197629,-0.00
 007226,0.00004352,0.05093176,-0.00830706,-0.00760766,0.00511853,0.0030
 9002,-0.00109399,0.00181966,-0.00085754,-0.00031801,-0.00039326,0.0010
 0085,-0.00002260,0.00045994,0.00054250,-0.00031210,-0.00012865,0.00006
 575,-0.00009994,0.00004802,-0.00024329,0.00005866,-0.00004418,-0.00081
 316,-0.00014193,-0.00004043,-0.00007462,-0.00008447,0.00007655,-0.0000
 2373,-0.00010747,-0.00001396,0.00004162,0.00004251,0.00004617,0.000564
 85,-0.00006863,-0.00011029,-0.00038473,0.00026223,-0.00002197,-0.00006
 680,0.00005023,0.00000652,-0.00003121,-0.00007068,0.00004797,-0.000059
 80,-0.00000431,0.00001442,-0.00169231,0.00026345,-0.00122081,-0.000437
 95,0.00065994,-0.00127643,0.00009145,-0.00052767,0.00031483,0.00042700
 ,0.00000934,0.00006756,0.00050160,-0.00047780,-0.00000450,-0.11668481,
 -0.02064668,0.10175983,-0.01246730,-0.00692194,0.02292349,0.12602381,-
 0.02413618,-0.01356183,0.02250273,0.00587140,-0.00396277,0.00205096,-0
 .00185343,-0.00052616,-0.00217777,0.00100716,0.00078581,-0.00008045,0.
 00150279,-0.00085824,-0.00029625,0.00007930,-0.00018133,0.00018541,-0.
 00013681,0.00002531,0.00001727,-0.00151830,0.00021409,-0.00005776,-0.0
 0010391,-0.00011138,0.00029448,-0.00029348,-0.00051181,-0.00005356,0.0
 0001801,0.00008334,-0.00000219,0.00137590,-0.00012934,0.00005007,-0.00
 084690,0.00088304,-0.00000662,-0.00008008,0.00006789,-0.00000597,0.000
 00965,-0.00008177,-0.00001800,-0.00007333,0.00000574,0.00001235,-0.001
 20692,0.00215936,0.00127945,-0.00124215,0.00156458,-0.00072991,0.00044
 479,0.00048297,0.00001735,0.00101275,0.00012576,0.00000978,-0.00013325
 ,-0.00008501,0.00007858,-0.02470965,-0.05435513,0.04072419,0.00784623,
 0.00454042,-0.01727554,0.03332777,0.06199085,0.00138175,0.00412119,0.0
 0744294,-0.00297526,0.00014166,-0.00081133,0.00039409,0.00020016,-0.00
 021483,-0.00092612,-0.00029389,-0.00007338,-0.00056994,0.00021614,0.00
 005542,-0.00003378,0.00011140,-0.00002373,0.00021826,-0.00008760,0.000
 02689,0.00071589,0.00007477,-0.00001759,0.00001954,0.00004436,0.000010
 29,0.00000885,0.00014203,0.00000404,-0.00002024,-0.00003175,-0.0000184
 3,-0.00058927,0.00005255,0.00003255,0.00040426,-0.00028498,0.00000909,
 0.00004911,-0.00004231,-0.00000442,0.00001080,0.00005564,-0.00000291,0
 .00004693,0.00000294,-0.00000706,0.00119401,-0.00053505,0.00004522,0.0
 0080642,0.00005318,0.00113374,-0.00029967,0.00008372,-0.00029466,-0.00
 064569,0.00021089,-0.00031551,-0.00030173,0.00033461,-0.00027187,0.101
 17635,0.03548307,-0.19557380,-0.00046467,-0.00116708,0.00037414,-0.114
 49015,-0.04268434,0.21543068,-0.00834710,-0.00761637,-0.00508980,0.003
 09698,-0.00110032,-0.00182437,-0.00086134,-0.00031816,0.00039334,0.001
 00475,-0.00002208,-0.00045893,0.00054404,-0.00031381,0.00012896,0.0000
 6548,-0.00010099,-0.00004814,-0.00024434,0.00005904,0.00004419,-0.0008
 1555,-0.00014236,0.00004054,-0.00007492,-0.00008472,-0.00007668,-0.000
 02351,-0.00010777,0.00001382,0.00004171,0.00004261,-0.00004609,0.00056
 687,-0.00006886,0.00011004,-0.00038613,0.00026298,0.00002208,-0.000066
 99,0.00005039,-0.00000651,-0.00003131,-0.00007092,-0.00004793,-0.00005
 998,-0.00000433,-0.00001439,-0.00169623,0.00026355,0.00121796,-0.00043
 036,0.00066618,0.00129385,0.00049822,-0.00046284,0.00000396,0.00043039
 ,-0.00000204,-0.00007731,0.00009665,-0.00052435,-0.00032541,-0.1170140
 5,-0.02080798,-0.10188366,-0.01249060,-0.00694765,-0.02288295,0.009794
 85,0.00383864,0.01489025,0.12640247,-0.02413109,-0.01359426,-0.0224452
 4,0.00584320,-0.00397957,-0.00203837,-0.00185598,-0.00052292,0.0021780
 9,0.00099879,0.00078321,0.00007991,0.00149658,-0.00085871,0.00029618,0
 .00007836,-0.00017901,-0.00018537,-0.00013455,0.00002442,-0.00001721,-
 0.00151206,0.00021450,0.00005763,-0.00010425,-0.00011113,-0.00029419,-
 0.00029411,-0.00051083,0.00005343,0.00001791,0.00008312,0.00000213,0.0
 0137140,-0.00012918,-0.00005063,-0.00084358,0.00088161,0.00000686,-0.0
 0007981,0.00006762,0.00000597,0.00000977,-0.00008135,0.00001787,-0.000
 07309,0.00000576,-0.00001217,-0.00119268,0.00215252,-0.00128230,-0.001
 29293,0.00156007,0.00072295,-0.00014151,-0.00006948,-0.00009172,0.0010
 3504,0.00013755,0.00000153,0.00045611,0.00048694,-0.00002057,-0.024864
 01,-0.05444120,-0.04082397,0.00786858,0.00456054,0.01725940,0.00383175
 ,0.00143560,0.00379869,0.03351217,0.06208416,-0.00133213,-0.00406685,0
 .00746518,0.00295681,-0.00014274,-0.00080639,-0.00038989,-0.00019482,-
 0.00021418,0.00092014,0.00029224,-0.00007176,0.00056624,-0.00021599,0.
 00005517,0.00003354,-0.00011135,-0.00002378,-0.00021671,0.00008724,0.0
 0002680,-0.00071108,-0.00007414,-0.00001773,-0.00001943,-0.00004402,0.
 00001043,-0.00000901,-0.00014129,0.00000393,0.00002014,0.00003146,-0.0
 0001833,0.00058602,-0.00005260,0.00003200,-0.00040182,0.00028378,0.000
 00912,-0.00004883,0.00004207,-0.00000441,-0.00001072,-0.00005531,-0.00
 000285,-0.00004668,-0.00000294,-0.00000694,-0.00118250,0.00053055,0.00
 004380,-0.00081345,-0.00005027,0.00112120,0.00030403,-0.00031958,-0.00
 026496,0.00064973,-0.00022266,-0.00030801,0.00030145,-0.00007829,-0.00
 029886,-0.10130295,-0.03561693,-0.19520962,0.00048277,0.00117562,0.000
 39619,-0.01495887,-0.00383426,-0.02693547,0.11462320,0.04278108,0.2150
 1947\\-0.00010932,0.00013763,0.00000821,0.00001561,-0.00034554,0.00000
 840,0.00009631,0.00016256,0.00000046,0.00008006,0.00008056,-0.00000287
 ,-0.00014410,0.00006105,0.00000087,-0.00004371,0.00001508,-0.00000237,
 0.00003343,-0.00001708,0.00000083,0.00008219,-0.00011958,0.00000119,0.
 00000326,-0.00001265,-0.00000039,0.00000419,-0.00000812,0.00000067,-0.
 00001692,0.00001329,-0.00000011,-0.00002606,0.00000047,0.00000001,0.00
 003194,-0.00001004,-0.00000038,0.00000924,0.00000296,-0.00000006,0.000
 00066,-0.00000121,-0.00000002,-0.00000413,-0.00000650,0.00000008,-0.00
 008478,0.00007979,-0.00000295,0.00006639,-0.00008382,0.00000587,-0.000
 01816,0.00002313,-0.00000368,-0.00000940,0.00001105,0.00000436,-0.0000
 0613,0.00002139,-0.00000902,0.00003421,0.00008051,-0.00000445,0.000008
 79,-0.00005464,-0.00000031,-0.00000330,-0.00001280,-0.00000057,-0.0000
 0027,-0.00001748,-0.00000377\\\@
 The archive entry for this job was punched.


 A MUSTACHE HAIR ACROSS A CHIP IS LIKE A REDWOOD
 TREE FALLING THROUGH A HOUSING PROJECT.
 - AN IBM MANAGER IN EAST FISHKILL, NEW YORK
   AS QUOTED IN "FROM SANDS TO CIRCUITS", IBM INNOVATION JANUARY 1985.
 Job cpu time:       0 days  0 hours 21 minutes 48.6 seconds.
 Elapsed time:       0 days  0 hours  0 minutes 41.5 seconds.
 File lengths (MBytes):  RWF=    133 Int=      0 D2E=      0 Chk=      5 Scr=      1
 Normal termination of Gaussian 16 at Mon Nov 11 15:58:28 2024.
