 Entering Gaussian System, Link 0=g16
 Initial command:
 /public/software/apps/Gaussian/g16/l1.exe "/public/home/LLG_HG/tmp/Gau-50526.inp" -scrdir="/public/home/LLG_HG/tmp/"
 Entering Link 1 = /public/software/apps/Gaussian/g16/l1.exe PID=     50528.
  
 Copyright (c) 1988-2019, Gaussian, Inc.  All Rights Reserved.
  
 This is part of the Gaussian(R) 16 program.  It is based on
 the Gaussian(R) 09 system (copyright 2009, Gaussian, Inc.),
 the Gaussian(R) 03 system (copyright 2003, Gaussian, Inc.),
 the Gaussian(R) 98 system (copyright 1998, Gaussian, Inc.),
 the Gaussian(R) 94 system (copyright 1995, Gaussian, Inc.),
 the Gaussian 92(TM) system (copyright 1992, Gaussian, Inc.),
 the Gaussian 90(TM) system (copyright 1990, Gaussian, Inc.),
 the Gaussian 88(TM) system (copyright 1988, Gaussian, Inc.),
 the Gaussian 86(TM) system (copyright 1986, Carnegie Mellon
 University), and the Gaussian 82(TM) system (copyright 1983,
 Carnegie Mellon University). Gaussian is a federally registered
 trademark of Gaussian, Inc.
  
 This software contains proprietary and confidential information,
 including trade secrets, belonging to Gaussian, Inc.
  
 This software is provided under written license and may be
 used, copied, transmitted, or stored only in accord with that
 written license.
  
 The following legend is applicable only to US Government
 contracts under FAR:
  
                    RESTRICTED RIGHTS LEGEND
  
 Use, reproduction and disclosure by the US Government is
 subject to restrictions as set forth in subparagraphs (a)
 and (c) of the Commercial Computer Software - Restricted
 Rights clause in FAR 52.227-19.
  
 Gaussian, Inc.
 340 Quinnipiac St., Bldg. 40, Wallingford CT 06492
  
  
 ---------------------------------------------------------------
 Warning -- This program may not be used in any manner that
 competes with the business of Gaussian, Inc. or will provide
 assistance to any competitor of Gaussian, Inc.  The licensee
 of this program is prohibited from giving any competitor of
 Gaussian, Inc. access to this program.  By using this program,
 the user acknowledges that Gaussian, Inc. is engaged in the
 business of creating and licensing software in the field of
 computational chemistry and represents and warrants to the
 licensee that it is not a competitor of Gaussian, Inc. and that
 it will not use this program in any manner prohibited above.
 ---------------------------------------------------------------
  

 Cite this work as:
 Gaussian 16, Revision C.01,
 M. J. Frisch, G. W. Trucks, H. B. Schlegel, G. E. Scuseria, 
 M. A. Robb, J. R. Cheeseman, G. Scalmani, V. Barone, 
 G. A. Petersson, H. Nakatsuji, X. Li, M. Caricato, A. V. Marenich, 
 J. Bloino, B. G. Janesko, R. Gomperts, B. Mennucci, H. P. Hratchian, 
 J. V. Ortiz, A. F. Izmaylov, J. L. Sonnenberg, D. Williams-Young, 
 F. Ding, F. Lipparini, F. Egidi, J. Goings, B. Peng, A. Petrone, 
 T. Henderson, D. Ranasinghe, V. G. Zakrzewski, J. Gao, N. Rega, 
 G. Zheng, W. Liang, M. Hada, M. Ehara, K. Toyota, R. Fukuda, 
 J. Hasegawa, M. Ishida, T. Nakajima, Y. Honda, O. Kitao, H. Nakai, 
 T. Vreven, K. Throssell, J. A. Montgomery, Jr., J. E. Peralta, 
 F. Ogliaro, M. J. Bearpark, J. J. Heyd, E. N. Brothers, K. N. Kudin, 
 V. N. Staroverov, T. A. Keith, R. Kobayashi, J. Normand, 
 K. Raghavachari, A. P. Rendell, J. C. Burant, S. S. Iyengar, 
 J. Tomasi, M. Cossi, J. M. Millam, M. Klene, C. Adamo, R. Cammi, 
 J. W. Ochterski, R. L. Martin, K. Morokuma, O. Farkas, 
 J. B. Foresman, and D. J. Fox, Gaussian, Inc., Wallingford CT, 2019.
 
 ******************************************
 Gaussian 16:  ES64L-G16RevC.01  3-Jul-2019
                27-Nov-2023 
 ******************************************
 %nprocs=32
 Will use up to   32 processors via shared memory.
 %mem=80GB
 ----------------------------------------------------------------------
 # opt=(calcfc,ts,noeigen,maxstep=1,notrust,gdiis) freq b3lyp/genecp em
 =gd3bj
 ----------------------------------------------------------------------

 Warning!  Use of Opt=GDIIS is deprecated since it is seldom a good choice.

 1/5=1,8=1,9=1,10=4,11=1,18=20,19=11,26=3,38=1/1,3;
 2/9=110,12=2,17=6,18=5,40=1/2;
 3/5=7,11=2,16=1,17=8,25=1,30=1,71=2,74=-5,124=41,140=1/1,2,3;
 4//1;
 5/5=2,38=5/2;
 8/6=4,10=90,11=11/1;
 11/6=1,8=1,9=11,15=111,16=1/1,2,10;
 10/6=1,13=1/2;
 6/7=2,8=2,9=2,10=2,28=1/1;
 7/10=1,25=1/1,2,3,16;
 1/5=1,8=1,9=1,10=4,11=1,18=20,19=11,26=3/3(2);
 2/9=110/2;
 99//99;
 2/9=110/2;
 3/5=7,6=1,11=2,16=1,17=8,25=1,30=1,71=1,74=-5,82=7,124=41/1,2,3;
 4/5=5,16=3,69=1/1;
 5/5=2,38=5/2;
 7//1,2,3,16;
 1/5=1,8=1,9=1,11=1,18=20,19=11,26=3/3(-5);
 2/9=110/2;
 6/7=2,8=2,9=2,10=2,19=2,28=1/1;
 99/9=1/99;
 -------------------
 Title Card Required
 -------------------
 Symbolic Z-matrix:
 Charge =  0 Multiplicity = 1
 Ni                    1.16114   0.03172  -0.38271 
 C                     2.20937   1.62437  -0.39749 
 C                     2.89702   0.03426  -1.23021 
 P                    -0.08328   0.32194   1.36764 
 S                     0.01266  -1.56225  -1.4057 
 C                     5.25009  -1.06412  -2.45625 
 C                    -2.06908  -1.44184   0.54602 
 C                    -1.00535  -1.25631   1.64235 
 H                    -2.56014  -0.47245   0.40359 
 H                    -0.30001  -2.09097   1.64587 
 H                    -1.51335  -1.24719   2.61005 
 C                     0.86542   0.56641   2.90906 
 C                     1.22427   1.87078   3.28401 
 C                     1.3673   -0.51782   3.64428 
 C                     2.06793   2.08176   4.37192 
 H                     0.85504   2.71634   2.71396 
 C                     2.21436  -0.30225   4.73141 
 H                     1.10527  -1.53449   3.36859 
 C                     2.56928   0.99755   5.09526 
 H                     2.3428    3.09507   4.64877 
 H                     2.59622  -1.14965   5.293 
 H                     3.23262   1.16459   5.93833 
 C                    -1.40615   1.58261   1.51224 
 C                    -2.20352   1.66856   2.66619 
 C                    -1.63476   2.46387   0.45107 
 C                    -3.21888   2.6169    2.74827 
 H                    -2.01984   1.00069   3.5029 
 C                    -2.64223   3.42686   0.54387 
 H                    -1.03522   2.39436  -0.44593 
 C                    -3.43579   3.50209   1.68582 
 H                    -3.83446   2.67577   3.64106 
 H                    -2.80082   4.11012  -0.28366 
 H                    -4.22078   4.24955   1.75598 
 C                    -3.13489  -2.39533   1.07034 
 C                    -3.00692  -3.78295   0.96695 
 C                    -4.25021  -1.86094   1.72414 
 C                    -3.97773  -4.62463   1.51031 
 H                    -2.15303  -4.19693   0.44202 
 C                    -5.21977  -2.70038   2.27205 
 H                    -4.35761  -0.78158   1.79186 
 C                    -5.08652  -4.08612   2.16561 
 H                    -3.8701   -5.70153   1.41889 
 H                    -6.08347  -2.27292   2.77283 
 H                    -5.84384  -4.74129   2.58533 
 O                    -0.19621  -1.12717  -2.84046 
 C                     0.67653  -3.33168  -1.57416 
 C                     1.95707  -3.21302  -2.40479 
 H                     1.748    -2.76064  -3.37566 
 H                     2.71787  -2.62057  -1.90164 
 H                     2.36087  -4.21856  -2.56572 
 C                    -0.35645  -4.18052  -2.31233 
 H                     0.07285  -5.17323  -2.48564 
 H                    -1.2737   -4.30163  -1.73392 
 H                    -0.59758  -3.74331  -3.28413 
 C                     0.95418  -3.86637  -0.17205 
 H                     1.67622  -3.24352   0.36102 
 H                     0.03576  -3.94271   0.41506 
 H                     1.38305  -4.87093  -0.25325 
 N                    -1.57816  -1.9276   -0.76331 
 C                    -2.65321  -1.93291  -1.79224 
 H                    -3.30735  -2.78343  -1.58042 
 H                    -2.17974  -2.09751  -2.75834 
 C                    -3.46234  -0.65372  -1.83312 
 C                    -4.78758  -0.62597  -1.38985 
 C                    -2.87755   0.54041  -2.2706 
 C                    -5.50418   0.57076  -1.3625 
 H                    -5.25579  -1.54316  -1.04442 
 C                    -3.59642   1.73087  -2.24412 
 H                    -1.852     0.5268   -2.61879 
 C                    -4.91616   1.77083  -1.77625 
 H                    -6.53073   0.5737   -1.00438 
 H                    -3.11556   2.64703  -2.57567 
 C                    -5.66085   3.07779  -1.67437 
 H                    -5.47646   3.55069  -0.70147 
 H                    -5.33931   3.78388  -2.44591 
 H                    -6.74137   2.93601  -1.77022 
 C                     3.0221    3.63636   0.71694 
 C                     2.19583   4.46103  -0.0043 
 C                     1.37014   3.91032  -1.01391 
 C                     1.41496   2.49788  -1.25536 
 C                     3.05435   2.22704   0.5546 
 H                     0.47507   5.79483  -1.56341 
 H                     3.67198   4.06803   1.47413 
 H                     2.177     5.5319    0.17633 
 C                     0.49658   4.72931  -1.77788 
 C                     0.59479   1.99378  -2.30475 
 C                    -0.234     2.81635  -3.04313 
 C                    -0.29778   4.20003  -2.76986 
 H                     0.60588   0.93632  -2.54288 
 H                    -0.83672   2.38931  -3.83863 
 H                    -0.95522   4.84171  -3.34956 
 C                     4.17514  -2.32085   1.43988 
 C                     3.40205  -1.39611   0.77589 
 C                     3.7418   -0.90559  -0.51411 
 C                     4.92105  -1.44484  -1.13288 
 C                     5.70916  -2.39161  -0.42042 
 C                     5.35075  -2.82413   0.83476 
 H                     3.88698  -2.65302   2.43302 
 H                     2.51048  -1.00355   1.25031 
 H                     6.60264  -2.78129  -0.90161 
 H                     5.9639   -3.55068   1.35985 
 C                     4.4283   -0.19407  -3.14065 
 C                     3.27914   0.3466   -2.53708 
 H                     6.14175  -1.47613  -2.92008 
 H                     4.66706   0.08983  -4.162 
 H                     2.69014   1.05024  -3.1113 
 C                     4.02982   1.48778   1.43579 
 H                     4.53383   2.19209   2.10241 
 H                     3.55486   0.73275   2.06223 
 H                     4.79496   0.97611   0.84392 
 

 GradGradGradGradGradGradGradGradGradGradGradGradGradGradGradGradGradGrad
 Berny optimization.
 Initialization pass.
                           ----------------------------
                           !    Initial Parameters    !
                           ! (Angstroms and Degrees)  !
 --------------------------                            --------------------------
 ! Name  Definition              Value          Derivative Info.                !
 --------------------------------------------------------------------------------
 ! R1    R(1,2)                  1.9067         calculate D2E/DX2 analytically  !
 ! R2    R(1,3)                  1.9317         calculate D2E/DX2 analytically  !
 ! R3    R(1,4)                  2.1671         calculate D2E/DX2 analytically  !
 ! R4    R(1,5)                  2.215          calculate D2E/DX2 analytically  !
 ! R5    R(2,80)                 1.4595         calculate D2E/DX2 analytically  !
 ! R6    R(2,81)                 1.4084         calculate D2E/DX2 analytically  !
 ! R7    R(3,94)                 1.4525         calculate D2E/DX2 analytically  !
 ! R8    R(3,103)                1.3969         calculate D2E/DX2 analytically  !
 ! R9    R(4,8)                  1.8484         calculate D2E/DX2 analytically  !
 ! R10   R(4,12)                 1.8264         calculate D2E/DX2 analytically  !
 ! R11   R(4,23)                 1.8331         calculate D2E/DX2 analytically  !
 ! R12   R(5,45)                 1.5138         calculate D2E/DX2 analytically  !
 ! R13   R(5,46)                 1.8974         calculate D2E/DX2 analytically  !
 ! R14   R(5,59)                 1.7541         calculate D2E/DX2 analytically  !
 ! R15   R(6,95)                 1.4158         calculate D2E/DX2 analytically  !
 ! R16   R(6,102)                1.3787         calculate D2E/DX2 analytically  !
 ! R17   R(6,104)                1.0863         calculate D2E/DX2 analytically  !
 ! R18   R(7,8)                  1.5388         calculate D2E/DX2 analytically  !
 ! R19   R(7,9)                  1.096          calculate D2E/DX2 analytically  !
 ! R20   R(7,34)                 1.5232         calculate D2E/DX2 analytically  !
 ! R21   R(7,59)                 1.4803         calculate D2E/DX2 analytically  !
 ! R22   R(8,10)                 1.0928         calculate D2E/DX2 analytically  !
 ! R23   R(8,11)                 1.093          calculate D2E/DX2 analytically  !
 ! R24   R(12,13)                1.4038         calculate D2E/DX2 analytically  !
 ! R25   R(12,14)                1.4029         calculate D2E/DX2 analytically  !
 ! R26   R(13,15)                1.3928         calculate D2E/DX2 analytically  !
 ! R27   R(13,16)                1.0846         calculate D2E/DX2 analytically  !
 ! R28   R(14,17)                1.3949         calculate D2E/DX2 analytically  !
 ! R29   R(14,18)                1.0855         calculate D2E/DX2 analytically  !
 ! R30   R(15,19)                1.3965         calculate D2E/DX2 analytically  !
 ! R31   R(15,20)                1.0858         calculate D2E/DX2 analytically  !
 ! R32   R(17,19)                1.3957         calculate D2E/DX2 analytically  !
 ! R33   R(17,21)                1.086          calculate D2E/DX2 analytically  !
 ! R34   R(19,22)                1.0857         calculate D2E/DX2 analytically  !
 ! R35   R(23,24)                1.4053         calculate D2E/DX2 analytically  !
 ! R36   R(23,25)                1.3982         calculate D2E/DX2 analytically  !
 ! R37   R(24,26)                1.3918         calculate D2E/DX2 analytically  !
 ! R38   R(24,27)                1.0862         calculate D2E/DX2 analytically  !
 ! R39   R(25,28)                1.3968         calculate D2E/DX2 analytically  !
 ! R40   R(25,29)                1.0812         calculate D2E/DX2 analytically  !
 ! R41   R(26,30)                1.3998         calculate D2E/DX2 analytically  !
 ! R42   R(26,31)                1.086          calculate D2E/DX2 analytically  !
 ! R43   R(28,30)                1.3926         calculate D2E/DX2 analytically  !
 ! R44   R(28,32)                1.0848         calculate D2E/DX2 analytically  !
 ! R45   R(30,33)                1.0862         calculate D2E/DX2 analytically  !
 ! R46   R(34,35)                1.3973         calculate D2E/DX2 analytically  !
 ! R47   R(34,36)                1.3989         calculate D2E/DX2 analytically  !
 ! R48   R(35,37)                1.395          calculate D2E/DX2 analytically  !
 ! R49   R(35,38)                1.0845         calculate D2E/DX2 analytically  !
 ! R50   R(36,39)                1.3946         calculate D2E/DX2 analytically  !
 ! R51   R(36,40)                1.0868         calculate D2E/DX2 analytically  !
 ! R52   R(37,41)                1.396          calculate D2E/DX2 analytically  !
 ! R53   R(37,42)                1.0861         calculate D2E/DX2 analytically  !
 ! R54   R(39,41)                1.3962         calculate D2E/DX2 analytically  !
 ! R55   R(39,43)                1.086          calculate D2E/DX2 analytically  !
 ! R56   R(41,44)                1.0858         calculate D2E/DX2 analytically  !
 ! R57   R(46,47)                1.531          calculate D2E/DX2 analytically  !
 ! R58   R(46,51)                1.5272         calculate D2E/DX2 analytically  !
 ! R59   R(46,55)                1.5261         calculate D2E/DX2 analytically  !
 ! R60   R(47,48)                1.0913         calculate D2E/DX2 analytically  !
 ! R61   R(47,49)                1.0876         calculate D2E/DX2 analytically  !
 ! R62   R(47,50)                1.0955         calculate D2E/DX2 analytically  !
 ! R63   R(51,52)                1.0954         calculate D2E/DX2 analytically  !
 ! R64   R(51,53)                1.0911         calculate D2E/DX2 analytically  !
 ! R65   R(51,54)                1.0926         calculate D2E/DX2 analytically  !
 ! R66   R(55,56)                1.0924         calculate D2E/DX2 analytically  !
 ! R67   R(55,57)                1.0927         calculate D2E/DX2 analytically  !
 ! R68   R(55,58)                1.0953         calculate D2E/DX2 analytically  !
 ! R69   R(59,60)                1.4881         calculate D2E/DX2 analytically  !
 ! R70   R(60,61)                1.0937         calculate D2E/DX2 analytically  !
 ! R71   R(60,62)                1.0884         calculate D2E/DX2 analytically  !
 ! R72   R(60,63)                1.5142         calculate D2E/DX2 analytically  !
 ! R73   R(63,64)                1.3977         calculate D2E/DX2 analytically  !
 ! R74   R(63,65)                1.3998         calculate D2E/DX2 analytically  !
 ! R75   R(64,66)                1.3951         calculate D2E/DX2 analytically  !
 ! R76   R(64,67)                1.0862         calculate D2E/DX2 analytically  !
 ! R77   R(65,68)                1.3909         calculate D2E/DX2 analytically  !
 ! R78   R(65,69)                1.0831         calculate D2E/DX2 analytically  !
 ! R79   R(66,70)                1.399          calculate D2E/DX2 analytically  !
 ! R80   R(66,71)                1.0872         calculate D2E/DX2 analytically  !
 ! R81   R(68,70)                1.4008         calculate D2E/DX2 analytically  !
 ! R82   R(68,72)                1.0865         calculate D2E/DX2 analytically  !
 ! R83   R(70,73)                1.5077         calculate D2E/DX2 analytically  !
 ! R84   R(73,74)                1.0973         calculate D2E/DX2 analytically  !
 ! R85   R(73,75)                1.0942         calculate D2E/DX2 analytically  !
 ! R86   R(73,76)                1.094          calculate D2E/DX2 analytically  !
 ! R87   R(77,78)                1.3722         calculate D2E/DX2 analytically  !
 ! R88   R(77,81)                1.419          calculate D2E/DX2 analytically  !
 ! R89   R(77,83)                1.0872         calculate D2E/DX2 analytically  !
 ! R90   R(78,79)                1.4158         calculate D2E/DX2 analytically  !
 ! R91   R(78,84)                1.0862         calculate D2E/DX2 analytically  !
 ! R92   R(79,80)                1.4336         calculate D2E/DX2 analytically  !
 ! R93   R(79,85)                1.4204         calculate D2E/DX2 analytically  !
 ! R94   R(80,86)                1.4241         calculate D2E/DX2 analytically  !
 ! R95   R(81,107)               1.5082         calculate D2E/DX2 analytically  !
 ! R96   R(82,85)                1.0871         calculate D2E/DX2 analytically  !
 ! R97   R(85,88)                1.3767         calculate D2E/DX2 analytically  !
 ! R98   R(86,87)                1.3816         calculate D2E/DX2 analytically  !
 ! R99   R(86,89)                1.084          calculate D2E/DX2 analytically  !
 ! R100  R(87,88)                1.4118         calculate D2E/DX2 analytically  !
 ! R101  R(87,90)                1.0856         calculate D2E/DX2 analytically  !
 ! R102  R(88,91)                1.0863         calculate D2E/DX2 analytically  !
 ! R103  R(92,93)                1.3761         calculate D2E/DX2 analytically  !
 ! R104  R(92,97)                1.4148         calculate D2E/DX2 analytically  !
 ! R105  R(92,98)                1.0861         calculate D2E/DX2 analytically  !
 ! R106  R(93,94)                1.4213         calculate D2E/DX2 analytically  !
 ! R107  R(93,99)                1.0835         calculate D2E/DX2 analytically  !
 ! R108  R(94,95)                1.4368         calculate D2E/DX2 analytically  !
 ! R109  R(95,96)                1.4231         calculate D2E/DX2 analytically  !
 ! R110  R(96,97)                1.3751         calculate D2E/DX2 analytically  !
 ! R111  R(96,100)               1.0871         calculate D2E/DX2 analytically  !
 ! R112  R(97,101)               1.0861         calculate D2E/DX2 analytically  !
 ! R113  R(102,103)              1.4061         calculate D2E/DX2 analytically  !
 ! R114  R(102,105)              1.0866         calculate D2E/DX2 analytically  !
 ! R115  R(103,106)              1.0825         calculate D2E/DX2 analytically  !
 ! R116  R(107,108)              1.0929         calculate D2E/DX2 analytically  !
 ! R117  R(107,109)              1.09           calculate D2E/DX2 analytically  !
 ! R118  R(107,110)              1.0943         calculate D2E/DX2 analytically  !
 ! A1    A(2,1,3)               60.0978         calculate D2E/DX2 analytically  !
 ! A2    A(2,1,4)              102.1274         calculate D2E/DX2 analytically  !
 ! A3    A(2,1,5)              151.9527         calculate D2E/DX2 analytically  !
 ! A4    A(3,1,4)              150.4796         calculate D2E/DX2 analytically  !
 ! A5    A(3,1,5)              105.3225         calculate D2E/DX2 analytically  !
 ! A6    A(4,1,5)               99.8842         calculate D2E/DX2 analytically  !
 ! A7    A(1,2,80)             101.8439         calculate D2E/DX2 analytically  !
 ! A8    A(1,2,81)             133.0005         calculate D2E/DX2 analytically  !
 ! A9    A(80,2,81)            117.8917         calculate D2E/DX2 analytically  !
 ! A10   A(1,3,94)             107.7877         calculate D2E/DX2 analytically  !
 ! A11   A(1,3,103)            131.0363         calculate D2E/DX2 analytically  !
 ! A12   A(94,3,103)           116.5386         calculate D2E/DX2 analytically  !
 ! A13   A(1,4,8)              106.9863         calculate D2E/DX2 analytically  !
 ! A14   A(1,4,12)             113.6594         calculate D2E/DX2 analytically  !
 ! A15   A(1,4,23)             124.7646         calculate D2E/DX2 analytically  !
 ! A16   A(8,4,12)             104.3581         calculate D2E/DX2 analytically  !
 ! A17   A(8,4,23)             102.4447         calculate D2E/DX2 analytically  !
 ! A18   A(12,4,23)            102.4874         calculate D2E/DX2 analytically  !
 ! A19   A(1,5,45)             107.6052         calculate D2E/DX2 analytically  !
 ! A20   A(1,5,46)             122.052          calculate D2E/DX2 analytically  !
 ! A21   A(1,5,59)             116.8068         calculate D2E/DX2 analytically  !
 ! A22   A(45,5,46)            103.4245         calculate D2E/DX2 analytically  !
 ! A23   A(45,5,59)            106.3701         calculate D2E/DX2 analytically  !
 ! A24   A(46,5,59)             98.9512         calculate D2E/DX2 analytically  !
 ! A25   A(95,6,102)           119.6819         calculate D2E/DX2 analytically  !
 ! A26   A(95,6,104)           119.2022         calculate D2E/DX2 analytically  !
 ! A27   A(102,6,104)          121.11           calculate D2E/DX2 analytically  !
 ! A28   A(8,7,9)              107.1985         calculate D2E/DX2 analytically  !
 ! A29   A(8,7,34)             108.2963         calculate D2E/DX2 analytically  !
 ! A30   A(8,7,59)             116.1349         calculate D2E/DX2 analytically  !
 ! A31   A(9,7,34)             106.5532         calculate D2E/DX2 analytically  !
 ! A32   A(9,7,59)             108.8988         calculate D2E/DX2 analytically  !
 ! A33   A(34,7,59)            109.3361         calculate D2E/DX2 analytically  !
 ! A34   A(4,8,7)              109.9926         calculate D2E/DX2 analytically  !
 ! A35   A(4,8,10)             109.3085         calculate D2E/DX2 analytically  !
 ! A36   A(4,8,11)             110.8745         calculate D2E/DX2 analytically  !
 ! A37   A(7,8,10)             110.8787         calculate D2E/DX2 analytically  !
 ! A38   A(7,8,11)             108.0901         calculate D2E/DX2 analytically  !
 ! A39   A(10,8,11)            107.6696         calculate D2E/DX2 analytically  !
 ! A40   A(4,12,13)            118.8532         calculate D2E/DX2 analytically  !
 ! A41   A(4,12,14)            121.6472         calculate D2E/DX2 analytically  !
 ! A42   A(13,12,14)           119.1232         calculate D2E/DX2 analytically  !
 ! A43   A(12,13,15)           120.2792         calculate D2E/DX2 analytically  !
 ! A44   A(12,13,16)           119.801          calculate D2E/DX2 analytically  !
 ! A45   A(15,13,16)           119.9128         calculate D2E/DX2 analytically  !
 ! A46   A(12,14,17)           120.4146         calculate D2E/DX2 analytically  !
 ! A47   A(12,14,18)           120.2921         calculate D2E/DX2 analytically  !
 ! A48   A(17,14,18)           119.2921         calculate D2E/DX2 analytically  !
 ! A49   A(13,15,19)           120.2962         calculate D2E/DX2 analytically  !
 ! A50   A(13,15,20)           119.5946         calculate D2E/DX2 analytically  !
 ! A51   A(19,15,20)           120.106          calculate D2E/DX2 analytically  !
 ! A52   A(14,17,19)           120.101          calculate D2E/DX2 analytically  !
 ! A53   A(14,17,21)           119.7339         calculate D2E/DX2 analytically  !
 ! A54   A(19,17,21)           120.1651         calculate D2E/DX2 analytically  !
 ! A55   A(15,19,17)           119.7842         calculate D2E/DX2 analytically  !
 ! A56   A(15,19,22)           120.1418         calculate D2E/DX2 analytically  !
 ! A57   A(17,19,22)           120.074          calculate D2E/DX2 analytically  !
 ! A58   A(4,23,24)            121.0855         calculate D2E/DX2 analytically  !
 ! A59   A(4,23,25)            119.4451         calculate D2E/DX2 analytically  !
 ! A60   A(24,23,25)           119.4659         calculate D2E/DX2 analytically  !
 ! A61   A(23,24,26)           120.2683         calculate D2E/DX2 analytically  !
 ! A62   A(23,24,27)           119.9325         calculate D2E/DX2 analytically  !
 ! A63   A(26,24,27)           119.7951         calculate D2E/DX2 analytically  !
 ! A64   A(23,25,28)           120.1356         calculate D2E/DX2 analytically  !
 ! A65   A(23,25,29)           119.9003         calculate D2E/DX2 analytically  !
 ! A66   A(28,25,29)           119.9624         calculate D2E/DX2 analytically  !
 ! A67   A(24,26,30)           119.9454         calculate D2E/DX2 analytically  !
 ! A68   A(24,26,31)           119.929          calculate D2E/DX2 analytically  !
 ! A69   A(30,26,31)           120.1223         calculate D2E/DX2 analytically  !
 ! A70   A(25,28,30)           120.1808         calculate D2E/DX2 analytically  !
 ! A71   A(25,28,32)           119.2753         calculate D2E/DX2 analytically  !
 ! A72   A(30,28,32)           120.5433         calculate D2E/DX2 analytically  !
 ! A73   A(26,30,28)           119.9948         calculate D2E/DX2 analytically  !
 ! A74   A(26,30,33)           119.8753         calculate D2E/DX2 analytically  !
 ! A75   A(28,30,33)           120.1294         calculate D2E/DX2 analytically  !
 ! A76   A(7,34,35)            122.1468         calculate D2E/DX2 analytically  !
 ! A77   A(7,34,36)            118.6616         calculate D2E/DX2 analytically  !
 ! A78   A(35,34,36)           119.1395         calculate D2E/DX2 analytically  !
 ! A79   A(34,35,37)           120.4371         calculate D2E/DX2 analytically  !
 ! A80   A(34,35,38)           119.1441         calculate D2E/DX2 analytically  !
 ! A81   A(37,35,38)           120.4082         calculate D2E/DX2 analytically  !
 ! A82   A(34,36,39)           120.5284         calculate D2E/DX2 analytically  !
 ! A83   A(34,36,40)           119.1626         calculate D2E/DX2 analytically  !
 ! A84   A(39,36,40)           120.3064         calculate D2E/DX2 analytically  !
 ! A85   A(35,37,41)           120.187          calculate D2E/DX2 analytically  !
 ! A86   A(35,37,42)           119.7668         calculate D2E/DX2 analytically  !
 ! A87   A(41,37,42)           120.0459         calculate D2E/DX2 analytically  !
 ! A88   A(36,39,41)           120.0741         calculate D2E/DX2 analytically  !
 ! A89   A(36,39,43)           119.8109         calculate D2E/DX2 analytically  !
 ! A90   A(41,39,43)           120.1122         calculate D2E/DX2 analytically  !
 ! A91   A(37,41,39)           119.6332         calculate D2E/DX2 analytically  !
 ! A92   A(37,41,44)           120.1772         calculate D2E/DX2 analytically  !
 ! A93   A(39,41,44)           120.1888         calculate D2E/DX2 analytically  !
 ! A94   A(5,46,47)            105.5779         calculate D2E/DX2 analytically  !
 ! A95   A(5,46,51)            108.9402         calculate D2E/DX2 analytically  !
 ! A96   A(5,46,55)            107.989          calculate D2E/DX2 analytically  !
 ! A97   A(47,46,51)           110.278          calculate D2E/DX2 analytically  !
 ! A98   A(47,46,55)           111.9292         calculate D2E/DX2 analytically  !
 ! A99   A(51,46,55)           111.8639         calculate D2E/DX2 analytically  !
 ! A100  A(46,47,48)           110.7672         calculate D2E/DX2 analytically  !
 ! A101  A(46,47,49)           112.1051         calculate D2E/DX2 analytically  !
 ! A102  A(46,47,50)           108.4743         calculate D2E/DX2 analytically  !
 ! A103  A(48,47,49)           108.6486         calculate D2E/DX2 analytically  !
 ! A104  A(48,47,50)           108.6884         calculate D2E/DX2 analytically  !
 ! A105  A(49,47,50)           108.0657         calculate D2E/DX2 analytically  !
 ! A106  A(46,51,52)           108.3669         calculate D2E/DX2 analytically  !
 ! A107  A(46,51,53)           111.9656         calculate D2E/DX2 analytically  !
 ! A108  A(46,51,54)           110.9025         calculate D2E/DX2 analytically  !
 ! A109  A(52,51,53)           108.2244         calculate D2E/DX2 analytically  !
 ! A110  A(52,51,54)           107.965          calculate D2E/DX2 analytically  !
 ! A111  A(53,51,54)           109.2934         calculate D2E/DX2 analytically  !
 ! A112  A(46,55,56)           111.6421         calculate D2E/DX2 analytically  !
 ! A113  A(46,55,57)           111.4202         calculate D2E/DX2 analytically  !
 ! A114  A(46,55,58)           108.9336         calculate D2E/DX2 analytically  !
 ! A115  A(56,55,57)           109.4615         calculate D2E/DX2 analytically  !
 ! A116  A(56,55,58)           107.4753         calculate D2E/DX2 analytically  !
 ! A117  A(57,55,58)           107.7498         calculate D2E/DX2 analytically  !
 ! A118  A(5,59,7)             123.8029         calculate D2E/DX2 analytically  !
 ! A119  A(5,59,60)            113.7474         calculate D2E/DX2 analytically  !
 ! A120  A(7,59,60)            111.9107         calculate D2E/DX2 analytically  !
 ! A121  A(59,60,61)           107.515          calculate D2E/DX2 analytically  !
 ! A122  A(59,60,62)           107.4588         calculate D2E/DX2 analytically  !
 ! A123  A(59,60,63)           113.6847         calculate D2E/DX2 analytically  !
 ! A124  A(61,60,62)           108.3299         calculate D2E/DX2 analytically  !
 ! A125  A(61,60,63)           110.0348         calculate D2E/DX2 analytically  !
 ! A126  A(62,60,63)           109.6489         calculate D2E/DX2 analytically  !
 ! A127  A(60,63,64)           120.9903         calculate D2E/DX2 analytically  !
 ! A128  A(60,63,65)           120.3906         calculate D2E/DX2 analytically  !
 ! A129  A(64,63,65)           118.5752         calculate D2E/DX2 analytically  !
 ! A130  A(63,64,66)           120.6818         calculate D2E/DX2 analytically  !
 ! A131  A(63,64,67)           119.5256         calculate D2E/DX2 analytically  !
 ! A132  A(66,64,67)           119.7806         calculate D2E/DX2 analytically  !
 ! A133  A(63,65,68)           120.5487         calculate D2E/DX2 analytically  !
 ! A134  A(63,65,69)           119.0338         calculate D2E/DX2 analytically  !
 ! A135  A(68,65,69)           120.413          calculate D2E/DX2 analytically  !
 ! A136  A(64,66,70)           120.9395         calculate D2E/DX2 analytically  !
 ! A137  A(64,66,71)           119.5876         calculate D2E/DX2 analytically  !
 ! A138  A(70,66,71)           119.4695         calculate D2E/DX2 analytically  !
 ! A139  A(65,68,70)           121.1784         calculate D2E/DX2 analytically  !
 ! A140  A(65,68,72)           119.153          calculate D2E/DX2 analytically  !
 ! A141  A(70,68,72)           119.6585         calculate D2E/DX2 analytically  !
 ! A142  A(66,70,68)           118.0543         calculate D2E/DX2 analytically  !
 ! A143  A(66,70,73)           121.0661         calculate D2E/DX2 analytically  !
 ! A144  A(68,70,73)           120.8409         calculate D2E/DX2 analytically  !
 ! A145  A(70,73,74)           110.5177         calculate D2E/DX2 analytically  !
 ! A146  A(70,73,75)           111.5062         calculate D2E/DX2 analytically  !
 ! A147  A(70,73,76)           111.6898         calculate D2E/DX2 analytically  !
 ! A148  A(74,73,75)           107.3187         calculate D2E/DX2 analytically  !
 ! A149  A(74,73,76)           107.4278         calculate D2E/DX2 analytically  !
 ! A150  A(75,73,76)           108.1855         calculate D2E/DX2 analytically  !
 ! A151  A(78,77,81)           123.3966         calculate D2E/DX2 analytically  !
 ! A152  A(78,77,83)           119.1679         calculate D2E/DX2 analytically  !
 ! A153  A(81,77,83)           117.4146         calculate D2E/DX2 analytically  !
 ! A154  A(77,78,79)           119.4869         calculate D2E/DX2 analytically  !
 ! A155  A(77,78,84)           121.0345         calculate D2E/DX2 analytically  !
 ! A156  A(79,78,84)           119.4713         calculate D2E/DX2 analytically  !
 ! A157  A(78,79,80)           119.0193         calculate D2E/DX2 analytically  !
 ! A158  A(78,79,85)           121.1955         calculate D2E/DX2 analytically  !
 ! A159  A(80,79,85)           119.7831         calculate D2E/DX2 analytically  !
 ! A160  A(2,80,79)            120.51           calculate D2E/DX2 analytically  !
 ! A161  A(2,80,86)            122.3279         calculate D2E/DX2 analytically  !
 ! A162  A(79,80,86)           117.0551         calculate D2E/DX2 analytically  !
 ! A163  A(2,81,77)            119.2538         calculate D2E/DX2 analytically  !
 ! A164  A(2,81,107)           124.9781         calculate D2E/DX2 analytically  !
 ! A165  A(77,81,107)          115.7655         calculate D2E/DX2 analytically  !
 ! A166  A(79,85,82)           118.1125         calculate D2E/DX2 analytically  !
 ! A167  A(79,85,88)           121.3832         calculate D2E/DX2 analytically  !
 ! A168  A(82,85,88)           120.5029         calculate D2E/DX2 analytically  !
 ! A169  A(80,86,87)           121.9088         calculate D2E/DX2 analytically  !
 ! A170  A(80,86,89)           120.0863         calculate D2E/DX2 analytically  !
 ! A171  A(87,86,89)           118.0046         calculate D2E/DX2 analytically  !
 ! A172  A(86,87,88)           120.4755         calculate D2E/DX2 analytically  !
 ! A173  A(86,87,90)           119.3736         calculate D2E/DX2 analytically  !
 ! A174  A(88,87,90)           120.1509         calculate D2E/DX2 analytically  !
 ! A175  A(85,88,87)           119.3538         calculate D2E/DX2 analytically  !
 ! A176  A(85,88,91)           120.4406         calculate D2E/DX2 analytically  !
 ! A177  A(87,88,91)           120.1971         calculate D2E/DX2 analytically  !
 ! A178  A(93,92,97)           119.9669         calculate D2E/DX2 analytically  !
 ! A179  A(93,92,98)           119.8457         calculate D2E/DX2 analytically  !
 ! A180  A(97,92,98)           120.1831         calculate D2E/DX2 analytically  !
 ! A181  A(92,93,94)           122.3817         calculate D2E/DX2 analytically  !
 ! A182  A(92,93,99)           119.6331         calculate D2E/DX2 analytically  !
 ! A183  A(94,93,99)           117.9726         calculate D2E/DX2 analytically  !
 ! A184  A(3,94,93)            122.1231         calculate D2E/DX2 analytically  !
 ! A185  A(3,94,95)            120.5234         calculate D2E/DX2 analytically  !
 ! A186  A(93,94,95)           117.229          calculate D2E/DX2 analytically  !
 ! A187  A(6,95,94)            119.4964         calculate D2E/DX2 analytically  !
 ! A188  A(6,95,96)            121.2094         calculate D2E/DX2 analytically  !
 ! A189  A(94,95,96)           119.2512         calculate D2E/DX2 analytically  !
 ! A190  A(95,96,97)           121.4595         calculate D2E/DX2 analytically  !
 ! A191  A(95,96,100)          118.1687         calculate D2E/DX2 analytically  !
 ! A192  A(97,96,100)          120.3654         calculate D2E/DX2 analytically  !
 ! A193  A(92,97,96)           119.6764         calculate D2E/DX2 analytically  !
 ! A194  A(92,97,101)          120.0211         calculate D2E/DX2 analytically  !
 ! A195  A(96,97,101)          120.3022         calculate D2E/DX2 analytically  !
 ! A196  A(6,102,103)          121.1118         calculate D2E/DX2 analytically  !
 ! A197  A(6,102,105)          120.0331         calculate D2E/DX2 analytically  !
 ! A198  A(103,102,105)        118.854          calculate D2E/DX2 analytically  !
 ! A199  A(3,103,102)          122.6253         calculate D2E/DX2 analytically  !
 ! A200  A(3,103,106)          119.5225         calculate D2E/DX2 analytically  !
 ! A201  A(102,103,106)        117.8346         calculate D2E/DX2 analytically  !
 ! A202  A(81,107,108)         109.8022         calculate D2E/DX2 analytically  !
 ! A203  A(81,107,109)         113.173          calculate D2E/DX2 analytically  !
 ! A204  A(81,107,110)         111.4324         calculate D2E/DX2 analytically  !
 ! A205  A(108,107,109)        107.2655         calculate D2E/DX2 analytically  !
 ! A206  A(108,107,110)        107.9844         calculate D2E/DX2 analytically  !
 ! A207  A(109,107,110)        106.9554         calculate D2E/DX2 analytically  !
 ! D1    D(3,1,2,80)           113.0936         calculate D2E/DX2 analytically  !
 ! D2    D(3,1,2,81)           -98.7903         calculate D2E/DX2 analytically  !
 ! D3    D(4,1,2,80)           -92.3311         calculate D2E/DX2 analytically  !
 ! D4    D(4,1,2,81)            55.785          calculate D2E/DX2 analytically  !
 ! D5    D(5,1,2,80)            48.6316         calculate D2E/DX2 analytically  !
 ! D6    D(5,1,2,81)          -163.2523         calculate D2E/DX2 analytically  !
 ! D7    D(2,1,3,94)           117.1646         calculate D2E/DX2 analytically  !
 ! D8    D(2,1,3,103)          -88.5017         calculate D2E/DX2 analytically  !
 ! D9    D(4,1,3,94)            58.7493         calculate D2E/DX2 analytically  !
 ! D10   D(4,1,3,103)         -146.917          calculate D2E/DX2 analytically  !
 ! D11   D(5,1,3,94)           -88.9328         calculate D2E/DX2 analytically  !
 ! D12   D(5,1,3,103)           65.4009         calculate D2E/DX2 analytically  !
 ! D13   D(2,1,4,8)           -172.5959         calculate D2E/DX2 analytically  !
 ! D14   D(2,1,4,12)           -57.9555         calculate D2E/DX2 analytically  !
 ! D15   D(2,1,4,23)            68.3054         calculate D2E/DX2 analytically  !
 ! D16   D(3,1,4,8)           -123.5425         calculate D2E/DX2 analytically  !
 ! D17   D(3,1,4,12)            -8.9021         calculate D2E/DX2 analytically  !
 ! D18   D(3,1,4,23)           117.3588         calculate D2E/DX2 analytically  !
 ! D19   D(5,1,4,8)             24.8981         calculate D2E/DX2 analytically  !
 ! D20   D(5,1,4,12)           139.5386         calculate D2E/DX2 analytically  !
 ! D21   D(5,1,4,23)           -94.2006         calculate D2E/DX2 analytically  !
 ! D22   D(2,1,5,45)           -11.9251         calculate D2E/DX2 analytically  !
 ! D23   D(2,1,5,46)           107.1569         calculate D2E/DX2 analytically  !
 ! D24   D(2,1,5,59)          -131.3729         calculate D2E/DX2 analytically  !
 ! D25   D(3,1,5,45)           -66.12           calculate D2E/DX2 analytically  !
 ! D26   D(3,1,5,46)            52.962          calculate D2E/DX2 analytically  !
 ! D27   D(3,1,5,59)           174.4323         calculate D2E/DX2 analytically  !
 ! D28   D(4,1,5,45)           129.3891         calculate D2E/DX2 analytically  !
 ! D29   D(4,1,5,46)          -111.5288         calculate D2E/DX2 analytically  !
 ! D30   D(4,1,5,59)             9.9414         calculate D2E/DX2 analytically  !
 ! D31   D(1,2,80,79)          146.1467         calculate D2E/DX2 analytically  !
 ! D32   D(1,2,80,86)          -29.9823         calculate D2E/DX2 analytically  !
 ! D33   D(81,2,80,79)          -7.9361         calculate D2E/DX2 analytically  !
 ! D34   D(81,2,80,86)         175.9348         calculate D2E/DX2 analytically  !
 ! D35   D(1,2,81,77)         -139.1869         calculate D2E/DX2 analytically  !
 ! D36   D(1,2,81,107)          41.42           calculate D2E/DX2 analytically  !
 ! D37   D(80,2,81,77)           5.0172         calculate D2E/DX2 analytically  !
 ! D38   D(80,2,81,107)       -174.3759         calculate D2E/DX2 analytically  !
 ! D39   D(1,3,94,93)          -15.8142         calculate D2E/DX2 analytically  !
 ! D40   D(1,3,94,95)          160.0164         calculate D2E/DX2 analytically  !
 ! D41   D(103,3,94,93)       -174.3952         calculate D2E/DX2 analytically  !
 ! D42   D(103,3,94,95)          1.4354         calculate D2E/DX2 analytically  !
 ! D43   D(1,3,103,102)       -153.4428         calculate D2E/DX2 analytically  !
 ! D44   D(1,3,103,106)         28.1193         calculate D2E/DX2 analytically  !
 ! D45   D(94,3,103,102)        -0.8943         calculate D2E/DX2 analytically  !
 ! D46   D(94,3,103,106)      -179.3322         calculate D2E/DX2 analytically  !
 ! D47   D(1,4,8,7)            -70.8703         calculate D2E/DX2 analytically  !
 ! D48   D(1,4,8,10)            51.0891         calculate D2E/DX2 analytically  !
 ! D49   D(1,4,8,11)           169.6324         calculate D2E/DX2 analytically  !
 ! D50   D(12,4,8,7)           168.3774         calculate D2E/DX2 analytically  !
 ! D51   D(12,4,8,10)          -69.6631         calculate D2E/DX2 analytically  !
 ! D52   D(12,4,8,11)           48.8801         calculate D2E/DX2 analytically  !
 ! D53   D(23,4,8,7)            61.8152         calculate D2E/DX2 analytically  !
 ! D54   D(23,4,8,10)         -176.2254         calculate D2E/DX2 analytically  !
 ! D55   D(23,4,8,11)          -57.6821         calculate D2E/DX2 analytically  !
 ! D56   D(1,4,12,13)           89.9795         calculate D2E/DX2 analytically  !
 ! D57   D(1,4,12,14)          -82.9133         calculate D2E/DX2 analytically  !
 ! D58   D(8,4,12,13)         -153.8281         calculate D2E/DX2 analytically  !
 ! D59   D(8,4,12,14)           33.2791         calculate D2E/DX2 analytically  !
 ! D60   D(23,4,12,13)         -47.2976         calculate D2E/DX2 analytically  !
 ! D61   D(23,4,12,14)         139.8096         calculate D2E/DX2 analytically  !
 ! D62   D(1,4,23,24)          177.4435         calculate D2E/DX2 analytically  !
 ! D63   D(1,4,23,25)           -1.871          calculate D2E/DX2 analytically  !
 ! D64   D(8,4,23,24)           56.2885         calculate D2E/DX2 analytically  !
 ! D65   D(8,4,23,25)         -123.026          calculate D2E/DX2 analytically  !
 ! D66   D(12,4,23,24)         -51.7089         calculate D2E/DX2 analytically  !
 ! D67   D(12,4,23,25)         128.9765         calculate D2E/DX2 analytically  !
 ! D68   D(1,5,46,47)          -62.15           calculate D2E/DX2 analytically  !
 ! D69   D(1,5,46,51)          179.4219         calculate D2E/DX2 analytically  !
 ! D70   D(1,5,46,55)           57.7279         calculate D2E/DX2 analytically  !
 ! D71   D(45,5,46,47)          58.9361         calculate D2E/DX2 analytically  !
 ! D72   D(45,5,46,51)         -59.492          calculate D2E/DX2 analytically  !
 ! D73   D(45,5,46,55)         178.814          calculate D2E/DX2 analytically  !
 ! D74   D(59,5,46,47)         168.2611         calculate D2E/DX2 analytically  !
 ! D75   D(59,5,46,51)          49.833          calculate D2E/DX2 analytically  !
 ! D76   D(59,5,46,55)         -71.861          calculate D2E/DX2 analytically  !
 ! D77   D(1,5,59,7)           -12.67           calculate D2E/DX2 analytically  !
 ! D78   D(1,5,59,60)          129.0668         calculate D2E/DX2 analytically  !
 ! D79   D(45,5,59,7)         -132.7772         calculate D2E/DX2 analytically  !
 ! D80   D(45,5,59,60)           8.9596         calculate D2E/DX2 analytically  !
 ! D81   D(46,5,59,7)          120.2915         calculate D2E/DX2 analytically  !
 ! D82   D(46,5,59,60)         -97.9718         calculate D2E/DX2 analytically  !
 ! D83   D(102,6,95,94)         -0.7594         calculate D2E/DX2 analytically  !
 ! D84   D(102,6,95,96)        176.8362         calculate D2E/DX2 analytically  !
 ! D85   D(104,6,95,94)       -179.8879         calculate D2E/DX2 analytically  !
 ! D86   D(104,6,95,96)         -2.2924         calculate D2E/DX2 analytically  !
 ! D87   D(95,6,102,103)         1.3382         calculate D2E/DX2 analytically  !
 ! D88   D(95,6,102,105)      -179.0457         calculate D2E/DX2 analytically  !
 ! D89   D(104,6,102,103)     -179.5503         calculate D2E/DX2 analytically  !
 ! D90   D(104,6,102,105)        0.0658         calculate D2E/DX2 analytically  !
 ! D91   D(9,7,8,4)            -43.4122         calculate D2E/DX2 analytically  !
 ! D92   D(9,7,8,10)          -164.4339         calculate D2E/DX2 analytically  !
 ! D93   D(9,7,8,11)            77.7684         calculate D2E/DX2 analytically  !
 ! D94   D(34,7,8,4)          -158.0237         calculate D2E/DX2 analytically  !
 ! D95   D(34,7,8,10)           80.9546         calculate D2E/DX2 analytically  !
 ! D96   D(34,7,8,11)          -36.8432         calculate D2E/DX2 analytically  !
 ! D97   D(59,7,8,4)            78.5621         calculate D2E/DX2 analytically  !
 ! D98   D(59,7,8,10)          -42.4596         calculate D2E/DX2 analytically  !
 ! D99   D(59,7,8,11)         -160.2573         calculate D2E/DX2 analytically  !
 ! D100  D(8,7,34,35)          -85.8693         calculate D2E/DX2 analytically  !
 ! D101  D(8,7,34,36)           91.4806         calculate D2E/DX2 analytically  !
 ! D102  D(9,7,34,35)          159.096          calculate D2E/DX2 analytically  !
 ! D103  D(9,7,34,36)          -23.5541         calculate D2E/DX2 analytically  !
 ! D104  D(59,7,34,35)          41.5541         calculate D2E/DX2 analytically  !
 ! D105  D(59,7,34,36)        -141.0961         calculate D2E/DX2 analytically  !
 ! D106  D(8,7,59,5)           -31.4838         calculate D2E/DX2 analytically  !
 ! D107  D(8,7,59,60)         -173.8239         calculate D2E/DX2 analytically  !
 ! D108  D(9,7,59,5)            89.5871         calculate D2E/DX2 analytically  !
 ! D109  D(9,7,59,60)          -52.753          calculate D2E/DX2 analytically  !
 ! D110  D(34,7,59,5)         -154.3554         calculate D2E/DX2 analytically  !
 ! D111  D(34,7,59,60)          63.3045         calculate D2E/DX2 analytically  !
 ! D112  D(4,12,13,15)        -173.0577         calculate D2E/DX2 analytically  !
 ! D113  D(4,12,13,16)           5.9763         calculate D2E/DX2 analytically  !
 ! D114  D(14,12,13,15)          0.0173         calculate D2E/DX2 analytically  !
 ! D115  D(14,12,13,16)        179.0513         calculate D2E/DX2 analytically  !
 ! D116  D(4,12,14,17)         172.7154         calculate D2E/DX2 analytically  !
 ! D117  D(4,12,14,18)          -6.8828         calculate D2E/DX2 analytically  !
 ! D118  D(13,12,14,17)         -0.1588         calculate D2E/DX2 analytically  !
 ! D119  D(13,12,14,18)       -179.757          calculate D2E/DX2 analytically  !
 ! D120  D(12,13,15,19)          0.3047         calculate D2E/DX2 analytically  !
 ! D121  D(12,13,15,20)        179.6567         calculate D2E/DX2 analytically  !
 ! D122  D(16,13,15,19)       -178.7282         calculate D2E/DX2 analytically  !
 ! D123  D(16,13,15,20)          0.6238         calculate D2E/DX2 analytically  !
 ! D124  D(12,14,17,19)         -0.021          calculate D2E/DX2 analytically  !
 ! D125  D(12,14,17,21)        179.981          calculate D2E/DX2 analytically  !
 ! D126  D(18,14,17,19)        179.5812         calculate D2E/DX2 analytically  !
 ! D127  D(18,14,17,21)         -0.4168         calculate D2E/DX2 analytically  !
 ! D128  D(13,15,19,17)         -0.4847         calculate D2E/DX2 analytically  !
 ! D129  D(13,15,19,22)        179.5465         calculate D2E/DX2 analytically  !
 ! D130  D(20,15,19,17)       -179.8333         calculate D2E/DX2 analytically  !
 ! D131  D(20,15,19,22)          0.1979         calculate D2E/DX2 analytically  !
 ! D132  D(14,17,19,15)          0.3424         calculate D2E/DX2 analytically  !
 ! D133  D(14,17,19,22)       -179.6887         calculate D2E/DX2 analytically  !
 ! D134  D(21,17,19,15)       -179.6595         calculate D2E/DX2 analytically  !
 ! D135  D(21,17,19,22)          0.3093         calculate D2E/DX2 analytically  !
 ! D136  D(4,23,24,26)        -178.8552         calculate D2E/DX2 analytically  !
 ! D137  D(4,23,24,27)           1.8871         calculate D2E/DX2 analytically  !
 ! D138  D(25,23,24,26)          0.4592         calculate D2E/DX2 analytically  !
 ! D139  D(25,23,24,27)       -178.7985         calculate D2E/DX2 analytically  !
 ! D140  D(4,23,25,28)         179.7645         calculate D2E/DX2 analytically  !
 ! D141  D(4,23,25,29)           0.2363         calculate D2E/DX2 analytically  !
 ! D142  D(24,23,25,28)          0.4388         calculate D2E/DX2 analytically  !
 ! D143  D(24,23,25,29)       -179.0894         calculate D2E/DX2 analytically  !
 ! D144  D(23,24,26,30)         -0.9144         calculate D2E/DX2 analytically  !
 ! D145  D(23,24,26,31)        179.7485         calculate D2E/DX2 analytically  !
 ! D146  D(27,24,26,30)        178.3443         calculate D2E/DX2 analytically  !
 ! D147  D(27,24,26,31)         -0.9928         calculate D2E/DX2 analytically  !
 ! D148  D(23,25,28,30)         -0.882          calculate D2E/DX2 analytically  !
 ! D149  D(23,25,28,32)        179.3761         calculate D2E/DX2 analytically  !
 ! D150  D(29,25,28,30)        178.6459         calculate D2E/DX2 analytically  !
 ! D151  D(29,25,28,32)         -1.096          calculate D2E/DX2 analytically  !
 ! D152  D(24,26,30,28)          0.4716         calculate D2E/DX2 analytically  !
 ! D153  D(24,26,30,33)       -179.2681         calculate D2E/DX2 analytically  !
 ! D154  D(31,26,30,28)        179.8075         calculate D2E/DX2 analytically  !
 ! D155  D(31,26,30,33)          0.0677         calculate D2E/DX2 analytically  !
 ! D156  D(25,28,30,26)          0.4262         calculate D2E/DX2 analytically  !
 ! D157  D(25,28,30,33)       -179.8347         calculate D2E/DX2 analytically  !
 ! D158  D(32,28,30,26)       -179.8352         calculate D2E/DX2 analytically  !
 ! D159  D(32,28,30,33)         -0.0961         calculate D2E/DX2 analytically  !
 ! D160  D(7,34,35,37)         177.246          calculate D2E/DX2 analytically  !
 ! D161  D(7,34,35,38)          -3.9348         calculate D2E/DX2 analytically  !
 ! D162  D(36,34,35,37)         -0.0917         calculate D2E/DX2 analytically  !
 ! D163  D(36,34,35,38)        178.7276         calculate D2E/DX2 analytically  !
 ! D164  D(7,34,36,39)        -177.1236         calculate D2E/DX2 analytically  !
 ! D165  D(7,34,36,40)           3.4699         calculate D2E/DX2 analytically  !
 ! D166  D(35,34,36,39)          0.3074         calculate D2E/DX2 analytically  !
 ! D167  D(35,34,36,40)       -179.099          calculate D2E/DX2 analytically  !
 ! D168  D(34,35,37,41)         -0.1204         calculate D2E/DX2 analytically  !
 ! D169  D(34,35,37,42)        179.664          calculate D2E/DX2 analytically  !
 ! D170  D(38,35,37,41)       -178.9246         calculate D2E/DX2 analytically  !
 ! D171  D(38,35,37,42)          0.8598         calculate D2E/DX2 analytically  !
 ! D172  D(34,36,39,41)         -0.3115         calculate D2E/DX2 analytically  !
 ! D173  D(34,36,39,43)       -179.6984         calculate D2E/DX2 analytically  !
 ! D174  D(40,36,39,41)        179.0882         calculate D2E/DX2 analytically  !
 ! D175  D(40,36,39,43)         -0.2988         calculate D2E/DX2 analytically  !
 ! D176  D(35,37,41,39)          0.1183         calculate D2E/DX2 analytically  !
 ! D177  D(35,37,41,44)        179.7788         calculate D2E/DX2 analytically  !
 ! D178  D(42,37,41,39)       -179.6655         calculate D2E/DX2 analytically  !
 ! D179  D(42,37,41,44)         -0.005          calculate D2E/DX2 analytically  !
 ! D180  D(36,39,41,37)          0.0963         calculate D2E/DX2 analytically  !
 ! D181  D(36,39,41,44)       -179.5641         calculate D2E/DX2 analytically  !
 ! D182  D(43,39,41,37)        179.4814         calculate D2E/DX2 analytically  !
 ! D183  D(43,39,41,44)         -0.179          calculate D2E/DX2 analytically  !
 ! D184  D(5,46,47,48)         -58.5568         calculate D2E/DX2 analytically  !
 ! D185  D(5,46,47,49)          62.9859         calculate D2E/DX2 analytically  !
 ! D186  D(5,46,47,50)        -177.7659         calculate D2E/DX2 analytically  !
 ! D187  D(51,46,47,48)         58.9741         calculate D2E/DX2 analytically  !
 ! D188  D(51,46,47,49)       -179.4832         calculate D2E/DX2 analytically  !
 ! D189  D(51,46,47,50)        -60.235          calculate D2E/DX2 analytically  !
 ! D190  D(55,46,47,48)       -175.8056         calculate D2E/DX2 analytically  !
 ! D191  D(55,46,47,49)        -54.2629         calculate D2E/DX2 analytically  !
 ! D192  D(55,46,47,50)         64.9853         calculate D2E/DX2 analytically  !
 ! D193  D(5,46,51,52)         174.8747         calculate D2E/DX2 analytically  !
 ! D194  D(5,46,51,53)         -65.8354         calculate D2E/DX2 analytically  !
 ! D195  D(5,46,51,54)          56.5357         calculate D2E/DX2 analytically  !
 ! D196  D(47,46,51,52)         59.4409         calculate D2E/DX2 analytically  !
 ! D197  D(47,46,51,53)        178.7308         calculate D2E/DX2 analytically  !
 ! D198  D(47,46,51,54)        -58.8981         calculate D2E/DX2 analytically  !
 ! D199  D(55,46,51,52)        -65.8165         calculate D2E/DX2 analytically  !
 ! D200  D(55,46,51,53)         53.4734         calculate D2E/DX2 analytically  !
 ! D201  D(55,46,51,54)        175.8445         calculate D2E/DX2 analytically  !
 ! D202  D(5,46,55,56)         -58.8229         calculate D2E/DX2 analytically  !
 ! D203  D(5,46,55,57)          63.908          calculate D2E/DX2 analytically  !
 ! D204  D(5,46,55,58)        -177.3553         calculate D2E/DX2 analytically  !
 ! D205  D(47,46,55,56)         56.9685         calculate D2E/DX2 analytically  !
 ! D206  D(47,46,55,57)        179.6994         calculate D2E/DX2 analytically  !
 ! D207  D(47,46,55,58)        -61.5639         calculate D2E/DX2 analytically  !
 ! D208  D(51,46,55,56)       -178.6911         calculate D2E/DX2 analytically  !
 ! D209  D(51,46,55,57)        -55.9602         calculate D2E/DX2 analytically  !
 ! D210  D(51,46,55,58)         62.7765         calculate D2E/DX2 analytically  !
 ! D211  D(5,59,60,61)         138.5382         calculate D2E/DX2 analytically  !
 ! D212  D(5,59,60,62)          22.1176         calculate D2E/DX2 analytically  !
 ! D213  D(5,59,60,63)         -99.4077         calculate D2E/DX2 analytically  !
 ! D214  D(7,59,60,61)         -75.1488         calculate D2E/DX2 analytically  !
 ! D215  D(7,59,60,62)         168.4306         calculate D2E/DX2 analytically  !
 ! D216  D(7,59,60,63)          46.9054         calculate D2E/DX2 analytically  !
 ! D217  D(59,60,63,64)       -109.2475         calculate D2E/DX2 analytically  !
 ! D218  D(59,60,63,65)         68.3078         calculate D2E/DX2 analytically  !
 ! D219  D(61,60,63,64)         11.4005         calculate D2E/DX2 analytically  !
 ! D220  D(61,60,63,65)       -171.0442         calculate D2E/DX2 analytically  !
 ! D221  D(62,60,63,64)        130.455          calculate D2E/DX2 analytically  !
 ! D222  D(62,60,63,65)        -51.9897         calculate D2E/DX2 analytically  !
 ! D223  D(60,63,64,66)        176.5061         calculate D2E/DX2 analytically  !
 ! D224  D(60,63,64,67)         -2.2347         calculate D2E/DX2 analytically  !
 ! D225  D(65,63,64,66)         -1.0926         calculate D2E/DX2 analytically  !
 ! D226  D(65,63,64,67)       -179.8334         calculate D2E/DX2 analytically  !
 ! D227  D(60,63,65,68)       -176.6478         calculate D2E/DX2 analytically  !
 ! D228  D(60,63,65,69)          2.5876         calculate D2E/DX2 analytically  !
 ! D229  D(64,63,65,68)          0.9658         calculate D2E/DX2 analytically  !
 ! D230  D(64,63,65,69)       -179.7988         calculate D2E/DX2 analytically  !
 ! D231  D(63,64,66,70)         -0.035          calculate D2E/DX2 analytically  !
 ! D232  D(63,64,66,71)       -179.354          calculate D2E/DX2 analytically  !
 ! D233  D(67,64,66,70)        178.7026         calculate D2E/DX2 analytically  !
 ! D234  D(67,64,66,71)         -0.6165         calculate D2E/DX2 analytically  !
 ! D235  D(63,65,68,70)          0.2916         calculate D2E/DX2 analytically  !
 ! D236  D(63,65,68,72)        179.1298         calculate D2E/DX2 analytically  !
 ! D237  D(69,65,68,70)       -178.9333         calculate D2E/DX2 analytically  !
 ! D238  D(69,65,68,72)         -0.0951         calculate D2E/DX2 analytically  !
 ! D239  D(64,66,70,68)          1.2738         calculate D2E/DX2 analytically  !
 ! D240  D(64,66,70,73)       -176.4826         calculate D2E/DX2 analytically  !
 ! D241  D(71,66,70,68)       -179.4063         calculate D2E/DX2 analytically  !
 ! D242  D(71,66,70,73)          2.8373         calculate D2E/DX2 analytically  !
 ! D243  D(65,68,70,66)         -1.4034         calculate D2E/DX2 analytically  !
 ! D244  D(65,68,70,73)        176.3582         calculate D2E/DX2 analytically  !
 ! D245  D(72,68,70,66)        179.7642         calculate D2E/DX2 analytically  !
 ! D246  D(72,68,70,73)         -2.4742         calculate D2E/DX2 analytically  !
 ! D247  D(66,70,73,74)         89.802          calculate D2E/DX2 analytically  !
 ! D248  D(66,70,73,75)       -150.9167         calculate D2E/DX2 analytically  !
 ! D249  D(66,70,73,76)        -29.7364         calculate D2E/DX2 analytically  !
 ! D250  D(68,70,73,74)        -87.8918         calculate D2E/DX2 analytically  !
 ! D251  D(68,70,73,75)         31.3894         calculate D2E/DX2 analytically  !
 ! D252  D(68,70,73,76)        152.5698         calculate D2E/DX2 analytically  !
 ! D253  D(81,77,78,79)         -3.2138         calculate D2E/DX2 analytically  !
 ! D254  D(81,77,78,84)        177.7783         calculate D2E/DX2 analytically  !
 ! D255  D(83,77,78,79)        178.4975         calculate D2E/DX2 analytically  !
 ! D256  D(83,77,78,84)         -0.5104         calculate D2E/DX2 analytically  !
 ! D257  D(78,77,81,2)           0.473          calculate D2E/DX2 analytically  !
 ! D258  D(78,77,81,107)       179.9209         calculate D2E/DX2 analytically  !
 ! D259  D(83,77,81,2)         178.7896         calculate D2E/DX2 analytically  !
 ! D260  D(83,77,81,107)        -1.7625         calculate D2E/DX2 analytically  !
 ! D261  D(77,78,79,80)          0.2092         calculate D2E/DX2 analytically  !
 ! D262  D(77,78,79,85)        179.6943         calculate D2E/DX2 analytically  !
 ! D263  D(84,78,79,80)        179.2328         calculate D2E/DX2 analytically  !
 ! D264  D(84,78,79,85)         -1.2821         calculate D2E/DX2 analytically  !
 ! D265  D(78,79,80,2)           5.351          calculate D2E/DX2 analytically  !
 ! D266  D(78,79,80,86)       -178.3216         calculate D2E/DX2 analytically  !
 ! D267  D(85,79,80,2)        -174.1415         calculate D2E/DX2 analytically  !
 ! D268  D(85,79,80,86)          2.1859         calculate D2E/DX2 analytically  !
 ! D269  D(78,79,85,82)         -0.259          calculate D2E/DX2 analytically  !
 ! D270  D(78,79,85,88)        179.3179         calculate D2E/DX2 analytically  !
 ! D271  D(80,79,85,82)        179.2221         calculate D2E/DX2 analytically  !
 ! D272  D(80,79,85,88)         -1.201          calculate D2E/DX2 analytically  !
 ! D273  D(2,80,86,87)         174.8059         calculate D2E/DX2 analytically  !
 ! D274  D(2,80,86,89)          -4.9939         calculate D2E/DX2 analytically  !
 ! D275  D(79,80,86,87)         -1.4495         calculate D2E/DX2 analytically  !
 ! D276  D(79,80,86,89)        178.7507         calculate D2E/DX2 analytically  !
 ! D277  D(2,81,107,108)      -178.2003         calculate D2E/DX2 analytically  !
 ! D278  D(2,81,107,109)       -58.3813         calculate D2E/DX2 analytically  !
 ! D279  D(2,81,107,110)        62.2034         calculate D2E/DX2 analytically  !
 ! D280  D(77,81,107,108)        2.3876         calculate D2E/DX2 analytically  !
 ! D281  D(77,81,107,109)      122.2066         calculate D2E/DX2 analytically  !
 ! D282  D(77,81,107,110)     -117.2087         calculate D2E/DX2 analytically  !
 ! D283  D(79,85,88,87)         -0.6253         calculate D2E/DX2 analytically  !
 ! D284  D(79,85,88,91)       -179.5661         calculate D2E/DX2 analytically  !
 ! D285  D(82,85,88,87)        178.9415         calculate D2E/DX2 analytically  !
 ! D286  D(82,85,88,91)          0.0008         calculate D2E/DX2 analytically  !
 ! D287  D(80,86,87,88)         -0.3339         calculate D2E/DX2 analytically  !
 ! D288  D(80,86,87,90)        179.5781         calculate D2E/DX2 analytically  !
 ! D289  D(89,86,87,88)        179.47           calculate D2E/DX2 analytically  !
 ! D290  D(89,86,87,90)         -0.618          calculate D2E/DX2 analytically  !
 ! D291  D(86,87,88,85)          1.4032         calculate D2E/DX2 analytically  !
 ! D292  D(86,87,88,91)       -179.6534         calculate D2E/DX2 analytically  !
 ! D293  D(90,87,88,85)       -178.5081         calculate D2E/DX2 analytically  !
 ! D294  D(90,87,88,91)          0.4353         calculate D2E/DX2 analytically  !
 ! D295  D(97,92,93,94)         -0.4395         calculate D2E/DX2 analytically  !
 ! D296  D(97,92,93,99)       -179.1196         calculate D2E/DX2 analytically  !
 ! D297  D(98,92,93,94)        178.8017         calculate D2E/DX2 analytically  !
 ! D298  D(98,92,93,99)          0.1216         calculate D2E/DX2 analytically  !
 ! D299  D(93,92,97,96)         -0.4518         calculate D2E/DX2 analytically  !
 ! D300  D(93,92,97,101)       179.7284         calculate D2E/DX2 analytically  !
 ! D301  D(98,92,97,96)       -179.6905         calculate D2E/DX2 analytically  !
 ! D302  D(98,92,97,101)         0.4897         calculate D2E/DX2 analytically  !
 ! D303  D(92,93,94,3)         177.7484         calculate D2E/DX2 analytically  !
 ! D304  D(92,93,94,95)          1.7873         calculate D2E/DX2 analytically  !
 ! D305  D(99,93,94,3)          -3.5507         calculate D2E/DX2 analytically  !
 ! D306  D(99,93,94,95)       -179.5117         calculate D2E/DX2 analytically  !
 ! D307  D(3,94,95,6)           -0.6449         calculate D2E/DX2 analytically  !
 ! D308  D(3,94,95,96)        -178.2879         calculate D2E/DX2 analytically  !
 ! D309  D(93,94,95,6)         175.3843         calculate D2E/DX2 analytically  !
 ! D310  D(93,94,95,96)         -2.2587         calculate D2E/DX2 analytically  !
 ! D311  D(6,95,96,97)        -176.122          calculate D2E/DX2 analytically  !
 ! D312  D(6,95,96,100)          2.9524         calculate D2E/DX2 analytically  !
 ! D313  D(94,95,96,97)          1.4793         calculate D2E/DX2 analytically  !
 ! D314  D(94,95,96,100)      -179.4463         calculate D2E/DX2 analytically  !
 ! D315  D(95,96,97,92)         -0.0888         calculate D2E/DX2 analytically  !
 ! D316  D(95,96,97,101)       179.7304         calculate D2E/DX2 analytically  !
 ! D317  D(100,96,97,92)      -179.1431         calculate D2E/DX2 analytically  !
 ! D318  D(100,96,97,101)        0.6761         calculate D2E/DX2 analytically  !
 ! D319  D(6,102,103,3)         -0.4891         calculate D2E/DX2 analytically  !
 ! D320  D(6,102,103,106)      177.9737         calculate D2E/DX2 analytically  !
 ! D321  D(105,102,103,3)      179.8904         calculate D2E/DX2 analytically  !
 ! D322  D(105,102,103,106)     -1.6468         calculate D2E/DX2 analytically  !
 --------------------------------------------------------------------------------
 Trust Radius=1.00D-02 FncErr=1.00D-07 GrdErr=1.00D-06 EigMax=2.50D+02 EigMin=1.00D-04
 Number of steps in this run=    657 maximum allowed number of steps=    660.
 Search for a saddle point of order  1.
 GradGradGradGradGradGradGradGradGradGradGradGradGradGradGradGradGradGrad

 Stoichiometry    C53H52NNiOPS
 Framework group  C1[X(C53H52NNiOPS)]
 Deg. of freedom   324
 Full point group                 C1      NOp   1
 Largest Abelian subgroup         C1      NOp   1
 Largest concise Abelian subgroup C1      NOp   1
                         Standard orientation:                         
 ---------------------------------------------------------------------
 Center     Atomic      Atomic             Coordinates (Angstroms)
 Number     Number       Type             X           Y           Z
 ---------------------------------------------------------------------
      1         28           0        1.161137    0.031719   -0.382705
      2          6           0        2.209365    1.624372   -0.397490
      3          6           0        2.897018    0.034258   -1.230211
      4         15           0       -0.083284    0.321936    1.367639
      5         16           0        0.012657   -1.562250   -1.405699
      6          6           0        5.250088   -1.064116   -2.456245
      7          6           0       -2.069076   -1.441838    0.546019
      8          6           0       -1.005352   -1.256311    1.642351
      9          1           0       -2.560139   -0.472448    0.403589
     10          1           0       -0.300010   -2.090966    1.645866
     11          1           0       -1.513352   -1.247190    2.610046
     12          6           0        0.865420    0.566414    2.909061
     13          6           0        1.224270    1.870781    3.284011
     14          6           0        1.367301   -0.517820    3.644281
     15          6           0        2.067934    2.081755    4.371917
     16          1           0        0.855041    2.716339    2.713960
     17          6           0        2.214365   -0.302254    4.731406
     18          1           0        1.105266   -1.534486    3.368592
     19          6           0        2.569284    0.997553    5.095264
     20          1           0        2.342800    3.095066    4.648766
     21          1           0        2.596222   -1.149654    5.293003
     22          1           0        3.232616    1.164592    5.938330
     23          6           0       -1.406154    1.582614    1.512239
     24          6           0       -2.203524    1.668557    2.666192
     25          6           0       -1.634758    2.463874    0.451069
     26          6           0       -3.218884    2.616901    2.748271
     27          1           0       -2.019835    1.000690    3.502904
     28          6           0       -2.642232    3.426856    0.543865
     29          1           0       -1.035219    2.394359   -0.445932
     30          6           0       -3.435785    3.502093    1.685815
     31          1           0       -3.834456    2.675771    3.641059
     32          1           0       -2.800817    4.110117   -0.283659
     33          1           0       -4.220780    4.249555    1.755983
     34          6           0       -3.134887   -2.395327    1.070339
     35          6           0       -3.006917   -3.782951    0.966953
     36          6           0       -4.250212   -1.860939    1.724144
     37          6           0       -3.977729   -4.624631    1.510312
     38          1           0       -2.153030   -4.196933    0.442024
     39          6           0       -5.219767   -2.700380    2.272046
     40          1           0       -4.357607   -0.781575    1.791861
     41          6           0       -5.086520   -4.086123    2.165614
     42          1           0       -3.870104   -5.701528    1.418886
     43          1           0       -6.083470   -2.272920    2.772832
     44          1           0       -5.843840   -4.741286    2.585325
     45          8           0       -0.196212   -1.127170   -2.840460
     46          6           0        0.676525   -3.331681   -1.574156
     47          6           0        1.957069   -3.213018   -2.404790
     48          1           0        1.748000   -2.760640   -3.375661
     49          1           0        2.717870   -2.620566   -1.901637
     50          1           0        2.360873   -4.218555   -2.565721
     51          6           0       -0.356452   -4.180517   -2.312334
     52          1           0        0.072848   -5.173234   -2.485638
     53          1           0       -1.273701   -4.301633   -1.733915
     54          1           0       -0.597578   -3.743311   -3.284133
     55          6           0        0.954183   -3.866373   -0.172045
     56          1           0        1.676221   -3.243523    0.361018
     57          1           0        0.035759   -3.942713    0.415064
     58          1           0        1.383051   -4.870929   -0.253247
     59          7           0       -1.578155   -1.927604   -0.763310
     60          6           0       -2.653205   -1.932913   -1.792238
     61          1           0       -3.307349   -2.783427   -1.580422
     62          1           0       -2.179744   -2.097511   -2.758338
     63          6           0       -3.462343   -0.653720   -1.833118
     64          6           0       -4.787575   -0.625966   -1.389845
     65          6           0       -2.877548    0.540407   -2.270602
     66          6           0       -5.504179    0.570758   -1.362496
     67          1           0       -5.255789   -1.543162   -1.044416
     68          6           0       -3.596420    1.730867   -2.244119
     69          1           0       -1.851995    0.526798   -2.618788
     70          6           0       -4.916164    1.770832   -1.776253
     71          1           0       -6.530727    0.573697   -1.004380
     72          1           0       -3.115557    2.647033   -2.575665
     73          6           0       -5.660850    3.077789   -1.674365
     74          1           0       -5.476456    3.550693   -0.701466
     75          1           0       -5.339308    3.783878   -2.445908
     76          1           0       -6.741371    2.936007   -1.770223
     77          6           0        3.022103    3.636360    0.716937
     78          6           0        2.195834    4.461033   -0.004299
     79          6           0        1.370138    3.910323   -1.013910
     80          6           0        1.414958    2.497877   -1.255356
     81          6           0        3.054354    2.227043    0.554599
     82          1           0        0.475069    5.794826   -1.563407
     83          1           0        3.671976    4.068029    1.474134
     84          1           0        2.176996    5.531900    0.176329
     85          6           0        0.496582    4.729314   -1.777881
     86          6           0        0.594792    1.993779   -2.304747
     87          6           0       -0.234000    2.816350   -3.043126
     88          6           0       -0.297781    4.200029   -2.769862
     89          1           0        0.605878    0.936323   -2.542877
     90          1           0       -0.836722    2.389314   -3.838631
     91          1           0       -0.955216    4.841708   -3.349557
     92          6           0        4.175136   -2.320850    1.439884
     93          6           0        3.402048   -1.396108    0.775888
     94          6           0        3.741802   -0.905592   -0.514111
     95          6           0        4.921053   -1.444837   -1.132878
     96          6           0        5.709161   -2.391612   -0.420415
     97          6           0        5.350749   -2.824131    0.834763
     98          1           0        3.886979   -2.653018    2.433018
     99          1           0        2.510480   -1.003549    1.250312
    100          1           0        6.602637   -2.781293   -0.901605
    101          1           0        5.963900   -3.550675    1.359845
    102          6           0        4.428295   -0.194065   -3.140651
    103          6           0        3.279136    0.346602   -2.537076
    104          1           0        6.141750   -1.476133   -2.920081
    105          1           0        4.667061    0.089828   -4.162001
    106          1           0        2.690137    1.050241   -3.111300
    107          6           0        4.029816    1.487777    1.435794
    108          1           0        4.533835    2.192087    2.102412
    109          1           0        3.554862    0.732750    2.062227
    110          1           0        4.794957    0.976111    0.843922
 ---------------------------------------------------------------------
 Rotational constants (GHZ):           0.0613805           0.0455781           0.0409340
 General basis read from cards:  (5D, 7F)
 ======================================================================================================
                                       Pseudopotential Parameters
 ======================================================================================================
  Center     Atomic      Valence      Angular      Power
  Number     Number     Electrons     Momentum     of R      Exponent        Coefficient   SO-Coeffient
 ======================================================================================================
    1         28           18
                                      F and up 
                                                     2        1.0000000        0.00000000    0.00000000
                                      S - F
                                                     2       26.7400000      317.68227200    0.00000000
                                                     2       11.8600000       58.25539100    0.00000000
                                      P - F
                                                     2       28.8000000      252.47436600    0.00000000
                                                     2       11.7900000       36.08150300    0.00000000
                                      D - F
                                                     2       33.7000000      -18.52295500    0.00000000
                                                     2       11.6600000       -4.55766800    0.00000000
    2          6
                                   No pseudopotential on this center.
    3          6
                                   No pseudopotential on this center.
    4         15
                                   No pseudopotential on this center.
    5         16
                                   No pseudopotential on this center.
    6          6
                                   No pseudopotential on this center.
    7          6
                                   No pseudopotential on this center.
    8          6
                                   No pseudopotential on this center.
    9          1
                                   No pseudopotential on this center.
   10          1
                                   No pseudopotential on this center.
   11          1
                                   No pseudopotential on this center.
   12          6
                                   No pseudopotential on this center.
   13          6
                                   No pseudopotential on this center.
   14          6
                                   No pseudopotential on this center.
   15          6
                                   No pseudopotential on this center.
   16          1
                                   No pseudopotential on this center.
   17          6
                                   No pseudopotential on this center.
   18          1
                                   No pseudopotential on this center.
   19          6
                                   No pseudopotential on this center.
   20          1
                                   No pseudopotential on this center.
   21          1
                                   No pseudopotential on this center.
   22          1
                                   No pseudopotential on this center.
   23          6
                                   No pseudopotential on this center.
   24          6
                                   No pseudopotential on this center.
   25          6
                                   No pseudopotential on this center.
   26          6
                                   No pseudopotential on this center.
   27          1
                                   No pseudopotential on this center.
   28          6
                                   No pseudopotential on this center.
   29          1
                                   No pseudopotential on this center.
   30          6
                                   No pseudopotential on this center.
   31          1
                                   No pseudopotential on this center.
   32          1
                                   No pseudopotential on this center.
   33          1
                                   No pseudopotential on this center.
   34          6
                                   No pseudopotential on this center.
   35          6
                                   No pseudopotential on this center.
   36          6
                                   No pseudopotential on this center.
   37          6
                                   No pseudopotential on this center.
   38          1
                                   No pseudopotential on this center.
   39          6
                                   No pseudopotential on this center.
   40          1
                                   No pseudopotential on this center.
   41          6
                                   No pseudopotential on this center.
   42          1
                                   No pseudopotential on this center.
   43          1
                                   No pseudopotential on this center.
   44          1
                                   No pseudopotential on this center.
   45          8
                                   No pseudopotential on this center.
   46          6
                                   No pseudopotential on this center.
   47          6
                                   No pseudopotential on this center.
   48          1
                                   No pseudopotential on this center.
   49          1
                                   No pseudopotential on this center.
   50          1
                                   No pseudopotential on this center.
   51          6
                                   No pseudopotential on this center.
   52          1
                                   No pseudopotential on this center.
   53          1
                                   No pseudopotential on this center.
   54          1
                                   No pseudopotential on this center.
   55          6
                                   No pseudopotential on this center.
   56          1
                                   No pseudopotential on this center.
   57          1
                                   No pseudopotential on this center.
   58          1
                                   No pseudopotential on this center.
   59          7
                                   No pseudopotential on this center.
   60          6
                                   No pseudopotential on this center.
   61          1
                                   No pseudopotential on this center.
   62          1
                                   No pseudopotential on this center.
   63          6
                                   No pseudopotential on this center.
   64          6
[...]
 0.00000734,0.00000141,0.00001562,-0.00002328,-0.00000613,-0.00000512,-
 0.08497824,-0.16922874,0.11029094,-0.00905045,-0.01360418,0.01224984,0
 .09017270,0.19016294,-0.00020387,-0.00051501,-0.00034012,0.00027486,0.
 00111001,0.00076505,-0.00059619,0.00038084,0.00018253,-0.00014879,-0.0
 0007604,0.00022223,-0.00000219,0.00020250,0.00000704,0.00016795,-0.000
 24619,0.00003886,0.00001232,0.00000465,0.00002158,-0.00004715,0.000007
 22,0.00003875,0.00000831,-0.00000306,-0.00000312,-0.00001040,-0.000003
 89,0.00001000,-0.00000380,-0.00002004,-0.00001147,0.00014684,-0.000119
 47,-0.00036336,0.00069143,-0.00006188,-0.00048048,0.00052167,-0.000009
 89,-0.00008048,0.00058465,-0.00036885,-0.00011087,-0.00006426,0.000012
 94,0.00002379,0.00012440,0.00029690,-0.00006782,-0.00008092,-0.0000469
 5,0.00001938,-0.00021362,-0.00011904,-0.00005714,-0.00003928,0.0000264
 6,0.00002797,-0.00002470,-0.00001991,0.00003696,-0.00001949,0.00000601
 ,0.00002851,0.00000390,0.00000582,-0.00005091,0.00000341,-0.00001344,0
 .00001075,0.00000133,-0.00000149,-0.00001089,-0.00000233,-0.00000053,-
 0.00000495,0.00000216,0.00000163,-0.00000137,-0.00001048,0.00000323,0.
 00000283,0.00001376,0.00000866,-0.00001313,0.00000284,-0.00000181,-0.0
 0000242,0.00000090,-0.00000071,0.00000195,0.00000991,-0.00000123,-0.00
 000153,-0.00000116,0.00000243,0.00000086,0.00000639,0.00000109,-0.0000
 0650,-0.00000853,0.00000394,0.00000672,-0.00000346,0.00000083,0.000000
 11,0.00000159,-0.00000161,0.00000030,-0.00000071,-0.00000156,-0.000002
 49,0.00000326,-0.00000040,-0.00000147,0.00000246,-0.00000133,-0.000000
 23,-0.00000012,-0.00000174,-0.00000015,-0.00000126,-0.00000216,0.00000
 028,0.00000054,0.00000015,-0.00000008,-0.00000023,-0.00000063,-0.00000
 009,-0.00000344,-0.00008487,-0.00000547,-0.00001901,0.00003791,0.00000
 187,-0.00001555,-0.00002997,0.00000757,0.00000878,0.00001274,0.0000111
 4,-0.00001074,0.00000626,-0.00001529,0.00000702,-0.00000165,-0.0000069
 8,0.00002105,-0.00002463,0.00000671,-0.00000462,-0.00000906,-0.0000055
 2,0.00000531,0.00000712,-0.00000104,0.00000243,0.00000709,0.00000759,0
 .00000826,-0.00003836,-0.00002425,-0.00005167,0.00000769,0.00000047,0.
 00002002,0.00001255,0.00000392,-0.00000152,-0.00001076,0.00000467,0.00
 000920,-0.00002640,-0.00001601,-0.00001351,0.00000304,-0.00001064,-0.0
 0000281,-0.00000238,0.00000090,0.00000070,0.00000372,-0.00000159,-0.00
 000485,0.00000451,-0.00000039,-0.00000097,-0.00000462,0.00000282,0.000
 00550,-0.00001289,-0.00000542,-0.00000157,-0.00000190,0.00000122,-0.00
 000222,-0.00000162,0.00000099,0.00000202,0.00001245,-0.00000535,0.0000
 0266,0.00001555,0.00000238,0.00000312,-0.00000502,0.00000022,-0.000001
 36,-0.00000083,0.00000059,0.00000809,-0.00000541,0.00000389,-0.0000001
 3,0.00000136,-0.00000075,0.00000240,-0.00000105,-0.00000130,0.00000168
 ,-0.00000104,0.00000173,-0.00000244,-0.00000147,0.00000010,-0.00026768
 ,-0.00086024,-0.00169464,-0.00053225,0.00037596,-0.00013309,0.00032974
 ,0.00029909,0.00023896,-0.00028168,-0.00051656,0.00083345,0.00559984,0
 .01201450,-0.00993264,-0.00000434,0.00001050,0.00001061,0.00006413,0.0
 0017586,0.00016402,-0.00019769,0.00007137,0.00001886,-0.00010766,-0.00
 006246,-0.00016458,-0.00015044,0.00004496,-0.00015946,0.00018080,-0.00
 014108,0.00002560,-0.00004604,0.00026273,0.00006507,-0.00004370,-0.000
 00118,0.00001606,-0.00001043,-0.00000953,-0.00000740,0.00000030,0.0000
 0248,-0.00000427,0.00026120,0.00004150,0.00053484,0.00067180,-0.000391
 45,-0.00020133,0.00036918,0.00046953,-0.00046123,0.00009502,-0.0001337
 6,-0.00031817,-0.00027454,0.00013943,-0.00000792,0.00001107,-0.0001982
 7,0.00005421,0.00001610,0.00005403,-0.00000733,-0.00103441,-0.00059248
 ,0.00021369,0.00000641,0.00002807,0.00003043,-0.00005571,0.00002971,0.
 00001006,-0.00021696,0.00011716,0.00014425,0.00035254,-0.00016189,-0.0
 0022636,-0.00000592,0.00001112,0.00003640,0.00000532,-0.00000402,0.000
 01028,-0.00002633,-0.00003942,0.00004888,0.06889438,0.11019944,-0.1406
 8717,-0.00882097,-0.01383531,0.01285519,-0.07476742,-0.12013290,0.1501
 2424,0.00023824,-0.00028165,-0.00028367,0.00111964,0.00285346,0.000710
 52,-0.00110420,-0.00049743,0.00009922,-0.00000469,0.00006565,0.0000644
 8,-0.00000718,0.00017664,0.00004091,0.00034356,-0.00012860,0.00022705,
 0.00000543,0.00001114,0.00003483,-0.00003337,0.00001952,0.00003210,0.0
 0001000,-0.00000314,-0.00000369,-0.00000686,-0.00000569,0.00000798,-0.
 00000247,-0.00001920,0.00000834,0.00008184,0.00007860,0.00011209,-0.00
 014982,-0.00004853,0.00017134,-0.00004936,0.00010309,-0.00001311,-0.00
 012912,-0.00003632,-0.00012480,0.00004374,-0.00001426,-0.00004053,0.00
 001754,0.00003724,-0.00001722,-0.00002171,-0.00002528,0.00000861,0.000
 02802,-0.00004813,-0.00005366,-0.00001705,0.00003732,0.00003191,-0.000
 00017,-0.00000815,0.00001807,0.00000166,-0.00000571,0.00002199,-0.0000
 2430,-0.00000100,-0.00000263,0.00000184,-0.00000449,-0.00000754,0.0000
 0684,-0.00000552,-0.00000279,-0.00000299,-0.00000199,0.00000036,0.0000
 0558,0.00000107,0.00000475,-0.00001064,0.00000389,0.00000484,0.0000141
 1,0.00000840,-0.00000626,0.00000292,-0.00000181,-0.00000055,-0.0000021
 5,0.00000038,0.00000334,0.00000982,0.00000031,-0.00000111,-0.00000247,
 0.00000273,0.00000103,0.00000816,-0.00000120,-0.00001230,-0.00001062,0
 .00000374,0.00000606,-0.00000399,0.00000169,-0.00000160,0.00000161,-0.
 00000182,0.00000023,-0.00000016,-0.00000160,-0.00000185,0.00000424,-0.
 00000086,-0.00000124,0.00000273,-0.00000144,0.00000021,-0.00000036,-0.
 00000195,0.00000005,-0.00000123,-0.00000245,0.00000038,0.00000047,0.00
 000033,-0.00000006,-0.00000032,-0.00000083,0.,0.00002250,-0.00007287,-
 0.00001210,-0.00004281,0.00003091,0.00000610,-0.00001928,-0.00002056,0
 .00001511,0.00000285,0.00000804,0.00000788,0.00000820,0.00000781,-0.00
 000439,0.00001377,0.00000318,-0.00000405,0.00002723,-0.00002637,0.0000
 0154,-0.00000553,-0.00001260,-0.00000602,0.00000876,0.00000860,-0.0000
 0094,-0.00000051,0.00000491,0.00000635,0.00000635,-0.00002805,-0.00002
 783,-0.00002629,0.00000016,0.00001741,0.00002034,0.00001604,0.00000080
 ,0.00000195,-0.00000815,0.00000512,0.00004571,-0.00002573,-0.00001508,
 -0.00000861,0.00001246,-0.00001779,0.00000104,-0.00000262,0.00000360,-
 0.00000291,-0.00000193,0.,-0.00000630,0.00000641,0.00000134,-0.0000009
 4,-0.00000489,0.00000180,0.00000376,-0.00001350,-0.00001003,-0.0000020
 3,-0.00000177,0.00000019,-0.00000207,-0.00000165,0.00000153,0.00000222
 ,0.00001245,-0.00000687,0.00000078,0.00002019,0.00001013,0.00000358,-0
 .00000599,0.00000143,-0.00000120,-0.00000093,0.00000077,0.00000656,-0.
 00000588,0.00000376,-0.00000033,0.00000169,-0.00000018,0.00000331,-0.0
 0000190,-0.00000166,0.00000193,-0.00000099,0.00000170,-0.00000271,-0.0
 0000173,-0.00000007,-0.00180723,-0.00076942,-0.00089791,-0.00003791,0.
 00051040,-0.00065538,0.00008632,0.00026606,0.00035161,0.00076133,-0.00
 035600,-0.00015425,-0.01509748,0.01028427,0.00856293,-0.00000085,0.000
 01520,-0.00000122,0.00000435,0.00009847,0.00021237,-0.00002739,0.00013
 288,-0.00015428,-0.00008528,-0.00006659,-0.00014427,-0.00013564,0.0000
 7696,-0.00013472,0.00008841,-0.00014221,0.00011186,-0.00005169,0.00024
 608,0.00002721,-0.00002344,0.00000376,-0.00000313,-0.00000788,-0.00000
 406,-0.00002000,-0.00000933,-0.00000018,0.00000223,0.00036049,0.000040
 70,0.00033656,-0.00025959,-0.00003627,0.00044124,0.00018215,-0.0003507
 0,-0.00053746,0.00073266,0.00005939,-0.00009329,-0.00009423,-0.0002158
 7,0.00000378,-0.00000926,-0.00015475,-0.00020954,-0.00002743,0.0000289
 5,-0.00004635,-0.00006347,0.00002732,0.00004163,-0.00000247,0.00004127
 ,0.00002445,-0.00001455,0.00002068,-0.00000465,-0.00044973,0.00030169,
 0.00011138,0.00043306,-0.00021814,-0.00053723,-0.00003515,-0.00002102,
 0.00002606,-0.00000576,-0.00001328,0.00000361,-0.00005504,-0.00004815,
 0.00004067,-0.16981905,0.08427451,0.10104899,0.01262653,-0.00750096,-0
 .00922839,-0.01026597,0.00698065,0.00891255,0.18268843,-0.00030469,-0.
 00011341,-0.00012672,-0.00118245,-0.00157492,-0.00163142,-0.00075489,0
 .00090048,0.00027675,0.00006771,0.00009286,0.00024299,-0.00011720,-0.0
 0006122,-0.00003537,-0.00003233,-0.00049597,0.00070421,-0.00002001,-0.
 00000289,0.00004635,0.00001203,-0.00000314,-0.00009886,0.00000406,-0.0
 0000267,-0.00000805,-0.00000353,-0.00000182,0.00001165,0.00002625,0.00
 002734,-0.00000194,0.00005502,0.00012273,0.00016724,-0.00017088,-0.000
 16324,0.00019274,-0.00005826,0.00011343,-0.00003230,-0.00014670,-0.000
 07653,-0.00005092,-0.00002396,0.00001644,-0.00000407,0.00000119,0.0000
 5412,-0.00005644,-0.00000855,-0.00002027,0.00000673,-0.00003650,0.0000
 0482,-0.00007273,-0.00001074,0.00003475,0.00004188,-0.00000228,-0.0000
 0447,0.00001115,0.00000214,-0.00000301,0.00001284,-0.00000771,-0.00000
 064,-0.00008171,0.00001110,-0.00002701,0.00000948,-0.00001128,0.000002
 93,0.00001090,0.00000691,-0.00000247,-0.00000877,0.00000729,0.00000608
 ,-0.00000204,0.00000566,0.00000621,-0.00000353,-0.00000912,-0.00000025
 ,-0.00000123,-0.00000085,0.00000295,-0.00000263,0.00000357,-0.00000131
 ,-0.00000236,-0.00000526,0.00000169,0.00000080,0.00000154,-0.00000088,
 -0.00000075,-0.00000510,-0.00000808,-0.00001035,0.00000049,0.00000428,
 0.00000041,0.00000354,0.00000524,-0.00000193,0.00000062,-0.00000409,-0
 .00000084,-0.00000009,-0.00000492,0.00000160,-0.00000058,0.00000016,0.
 00000081,-0.00000149,0.00000006,0.00000103,0.00000111,0.00000095,-0.00
 000129,-0.00000029,0.00000162,0.00000042,0.00000223,-0.00000051,-0.000
 00063,0.00000197,0.00000126,-0.00000074,0.00005873,0.00003487,0.000060
 05,0.00004604,-0.00000515,0.00003617,-0.00002259,0.00000003,-0.0000022
 0,0.00000393,-0.00000064,-0.00000196,0.00001040,-0.00001125,-0.0000118
 1,0.00000343,0.00001345,0.00000603,-0.00001598,0.00002069,-0.00001038,
 0.00000160,0.00001047,0.00000522,0.00000525,0.00000072,-0.00000038,-0.
 00000101,-0.00000459,-0.00000138,-0.00000697,-0.00000907,0.00000026,-0
 .00000596,0.00001334,0.00000528,0.00000186,-0.00000137,-0.00000477,-0.
 00000076,0.00000281,-0.00000196,0.00008198,0.00002533,0.00001504,-0.00
 000436,0.00001212,-0.00003362,0.00001301,0.00000156,0.00000622,-0.0000
 0886,-0.00000573,-0.00000033,0.00000367,0.00000589,0.00000160,0.000000
 17,-0.00000423,0.00000050,-0.00000242,0.00000105,0.00000492,0.00000144
 ,-0.00000261,-0.00000044,-0.00000006,0.00000168,-0.00000014,0.00000507
 ,-0.00000458,0.00000022,-0.00000194,0.00000010,-0.00000185,-0.00000168
 ,0.00000583,0.00000266,0.00000303,-0.00000038,-0.00000136,-0.00000458,
 0.00000185,-0.00000026,-0.00000112,0.00000073,-0.00000187,-0.00000012,
 -0.00000208,-0.00000056,-0.00000097,-0.00000096,0.00000027,0.00000312,
 0.00000019,0.00000008,0.00151705,-0.00007560,0.00101489,-0.00007242,-0
 .00069321,0.00115170,-0.00023758,-0.00016181,-0.00038859,-0.00018593,-
 0.00004356,0.00017348,0.01302228,-0.01001901,-0.00456591,0.00000042,-0
 .00000517,-0.00000185,0.00057344,0.00018769,-0.00021213,0.00006930,-0.
 00012249,0.00008830,0.00021814,-0.00000020,0.00012330,0.00001925,-0.00
 001812,0.00004132,-0.00000356,0.00011628,-0.00002035,-0.00004970,-0.00
 012682,-0.00008775,-0.00001169,0.00000890,0.00001100,0.00000292,0.0000
 0285,0.00000464,-0.00000248,-0.00000791,0.00001589,-0.00058613,0.00037
 885,-0.00002136,-0.00142087,-0.00232900,0.00046984,-0.00025972,-0.0002
 3933,-0.00078155,0.00027445,-0.00040714,-0.00135076,0.00013814,0.00001
 780,0.00028774,0.00034879,-0.00003277,-0.00013050,0.00000985,0.0000817
 4,-0.00001772,0.00007609,0.00020467,0.00016739,-0.00003026,0.00002822,
 0.00001143,-0.00000886,0.00002617,-0.00001723,-0.00059420,0.00046712,-
 0.00003097,0.00049880,-0.00013869,-0.00049809,-0.00000415,0.00001846,0
 .00004454,-0.00000020,0.00001414,0.00003504,0.00001355,-0.00001092,0.0
 0001671,0.08570234,-0.10145451,-0.07319383,0.01455100,-0.00924484,-0.0
 1110152,-0.01536859,0.00998544,0.01242858,-0.09566251,0.11466602,-0.00
 031639,-0.00028669,-0.00003848,0.00016425,-0.00000276,0.00047683,-0.00
 105088,-0.00020929,0.00066853,-0.00013003,0.00001405,-0.00029498,0.000
 04938,0.00006844,-0.00001738,-0.00004545,-0.00065423,0.00071112,0.0000
 0604,0.00001264,-0.00003647,0.00003974,-0.00000844,0.00008527,-0.00000
 401,0.00000249,0.00000009,0.00000353,-0.00000996,-0.00001123,-0.000018
 32,-0.00001366,-0.00000452,-0.00010549,-0.00016627,-0.00013551,0.00014
 479,0.00010173,-0.00030448,0.00000595,-0.00004200,0.00005076,0.0002830
 5,0.00014107,-0.00000790,0.00000814,-0.00001875,-0.00001930,0.00000481
 ,-0.00008226,0.00005037,0.00001212,0.00003043,-0.00000344,0.00015350,-
 0.00009981,0.00016135,-0.00004088,0.00003429,0.00004786,0.00001059,0.0
 0003047,-0.00001971,-0.00000990,-0.00000465,-0.00001004,0.00002384,0.0
 0001666,0.00006340,-0.00000044,0.00001499,0.00000872,0.00002574,-0.000
 00446,-0.00003440,-0.00000603,0.00000110,0.00001499,-0.00001497,-0.000
 00734,0.00000716,-0.00001128,-0.00000066,0.00000481,0.00001625,0.00001
 041,-0.00000815,0.00000542,-0.00000382,-0.00000074,-0.00000057,-0.0000
 0055,-0.00000044,0.00001000,-0.00000863,0.00000066,0.00000045,-0.00000
 252,0.00000062,-0.00000102,0.00000048,0.00001442,0.00000746,-0.0000004
 1,-0.00000203,0.00000312,0.00000206,0.00000248,-0.00000104,-0.00000065
 ,0.00000064,-0.00000075,0.00000026,-0.00000062,-0.00000134,0.00000064,
 0.00000155,-0.00000256,0.00000041,-0.00000176,0.00000086,0.00000077,-0
 .00000047,0.00000021,0.00000138,-0.00000059,-0.00000014,-0.00000017,-0
 .00000114,0.00000026,0.00000053,-0.00000061,0.00000623,-0.00002368,0.0
 0004484,0.00001735,-0.00000413,0.00002059,-0.00001025,0.00001256,0.000
 00094,-0.00000433,-0.00000464,-0.00000401,0.00000842,-0.00001342,0.000
 00417,0.00000284,0.00001064,0.00000453,-0.00000747,0.00001064,-0.00000
 617,-0.00000012,0.00000645,0.00000332,-0.00000089,-0.00000148,0.000000
 22,-0.00000113,-0.00000128,-0.00000192,-0.00001018,-0.00000130,0.00000
 171,0.00002035,0.00000510,-0.00000895,-0.00000980,-0.00000902,-0.00000
 289,-0.00000092,0.00000190,0.00000088,0.00001194,0.00000132,0.00003055
 ,-0.00000989,0.00000285,-0.00000420,0.00000190,-0.00000080,-0.00000063
 ,0.00000190,-0.00000197,0.00000493,-0.00000280,0.00000321,0.00000123,-
 0.00000072,-0.00000285,0.00000291,0.00000584,-0.00000597,-0.00000095,-
 0.00000319,-0.00000009,0.00000290,-0.00000206,-0.00000117,-0.00000074,
 0.00000099,0.00001277,-0.00000329,0.00000054,0.00001090,-0.00000127,0.
 00000160,-0.00000581,0.00000195,-0.00000129,-0.00000098,-0.00000051,0.
 00000762,-0.00000398,0.00000100,0.00000006,0.00000003,-0.00000408,-0.0
 0000140,0.00000229,0.00000046,0.00000057,-0.00000120,0.00000168,-0.000
 00037,0.00000004,0.00000098,-0.00108925,0.00106242,-0.00165694,0.00077
 712,0.00040584,-0.00014821,-0.00028140,-0.00003221,-0.00016004,0.00071
 064,0.00005836,-0.00037824,-0.01418953,0.00919735,0.01310867,0.0000025
 0,0.00001310,-0.00000505,-0.00002179,0.00025453,0.00024229,-0.00009657
 ,0.00011022,-0.00003258,0.00007946,-0.00009760,0.00011254,0.00003968,0
 .00001852,0.00004519,-0.00002596,0.00011478,0.00005460,-0.00012100,-0.
 00000212,-0.00011590,-0.00000667,0.00000652,0.00001034,-0.00000563,-0.
 00000308,-0.00001164,-0.00000247,-0.00000134,-0.00000280,-0.00101708,0
 .00066238,-0.00048472,-0.00019753,-0.00188159,0.00062638,-0.00028658,-
 0.00032887,-0.00061715,0.00007894,-0.00028617,-0.00118697,0.00024849,-
 0.00022658,0.00068025,0.00049938,0.00004435,-0.00056895,0.00001448,0.0
 0000630,0.00000494,0.00006898,-0.00001464,-0.00004469,-0.00001761,0.00
 000180,-0.00000433,0.00000945,0.00001394,-0.00001757,-0.00055305,0.000
 53230,-0.00010777,0.00080223,0.00019778,-0.00066564,0.00000749,0.00000
 809,0.00002631,-0.00000951,0.00001681,0.00000668,-0.00003678,-0.000050
 67,-0.00000393,0.09926867,-0.06889448,-0.12890828,0.01202057,-0.006627
 54,-0.01014224,0.01254364,-0.00989549,-0.01122369,-0.10845269,0.076762
 69,0.14006169\\0.00002534,0.00001571,-0.00000973,-0.00001347,-0.000006
 98,0.00000423,-0.00001641,-0.00001157,0.00000402,-0.00000046,-0.000001
 71,-0.00000051,-0.00000015,0.00000008,0.00000255,-0.00000077,-0.000001
 21,-0.00000059,-0.00000011,0.00000041,0.00000034,-0.00000011,0.0000002
 8,0.00000015,0.00000004,0.00000065,0.00000031,-0.00000011,0.00000048,0
 .00000003,-0.00000002,0.00000063,0.00000025,0.00000099,0.00000058,-0.0
 0000033,0.00000050,0.00000023,-0.00000056,0.00000040,0.00000018,-0.000
 00024,0.00000078,0.00000033,-0.00000033,0.00000073,0.00000015,-0.00000
 053,0.00000037,0.00000007,-0.00000024,0.00000001,0.00000023,0.00000012
 ,0.00000059,0.00000016,-0.00000033,0.00000098,0.00000016,-0.00000063,0
 .00000023,0.00000024,-0.00000011,0.00000074,0.00000017,-0.00000044,0.0
 0000053,0.00000060,0.,0.00000049,0.00000080,0.,0.00000069,0.00000042,-
 0.00000037,0.00000074,0.00000085,-0.00000006,0.00000054,0.00000074,0.0
 0000002,0.00000059,0.00000074,-0.00000028,0.00000089,0.00000015,-0.000
 00063,0.00000082,0.00000076,-0.00000028,0.00000081,0.00000116,-0.00000
 006,0.00000075,0.00000048,-0.00000036,0.00000095,0.00000097,-0.0000002
 3,-0.00000042,0.00000056,0.00000050,-0.00000056,0.00000079,0.00000074,
 -0.00000008,0.00000096,0.00000048,-0.00000060,0.00000095,0.00000086,-0
 .00000078,0.00000045,0.00000076,-0.00000030,0.00000127,0.00000077,0.00
 000001,0.00000101,0.00000044,-0.00000054,0.00000114,0.00000094,-0.0000
 0093,0.00000089,0.00000106,-0.00000020,0.00000146,0.00000080,-0.000000
 66,0.00000138,0.00000110,-0.00000049,-0.00000007,0.00000005,-0.0000007
 1,-0.00000044,0.00000040,-0.00000066,-0.00000043,0.00000041,-0.0000007
 5,-0.00000090,0.00000017,-0.00000059,-0.00000072,0.00000010,-0.0000010
 3,-0.00000078,0.00000036,-0.00000100,-0.00000029,0.00000063,-0.0000011
 6,-0.00000034,0.00000064,-0.00000090,0.00000001,0.00000063,-0.00000097
 ,-0.00000036,0.00000047,-0.00000078,-0.00000006,0.00000040,-0.00000043
 ,-0.00000001,0.00000023,-0.00000066,-0.00000007,0.00000046,-0.00000089
 ,-0.00000026,0.00000049,-0.00000018,0.00000014,0.00000027,-0.00000045,
 0.00000016,0.00000064,-0.00000057,0.00000044,0.00000063,-0.00000059,-0
 .00000003,0.00000039,-0.00000031,0.00000027,0.00000034,-0.00000024,0.0
 0000060,0.00000048,-0.00000006,0.00000012,0.00000019,-0.00000003,0.000
 00079,0.00000034,-0.00000035,0.00000081,0.00000065,0.00000020,0.000000
 40,0.00000008,0.00000013,-0.00000020,0.00000023,0.00000014,0.00000068,
 0.00000020,0.00000002,0.00000104,0.00000045,0.00000037,0.00000030,-0.0
 0000017,0.00000042,0.00000080,0.00000005,0.00000063,0.00000090,-0.0000
 0001,0.00000048,0.00000063,-0.00000009,0.00000040,0.00000097,0.0000002
 0,0.00000046,0.00000007,-0.00000167,0.00000106,-0.00000058,-0.00000053
 ,0.00000092,-0.00000034,-0.00000063,0.00000160,0.00000099,-0.00000058,
 0.00000096,-0.00000017,-0.00000101,0.00000095,-0.00000023,-0.00000087,
 0.00000096,-0.00000054,-0.00000094,0.00000098,-0.00000039,-0.00000085,
 0.00000046,-0.00000050,-0.00000053,0.00000037,0.00000001,-0.00000012,0
 .00000040,-0.00000065,-0.00000020,0.00000032,-0.00000015,-0.00000023,-
 0.00000040,-0.00000068,-0.00000037,0.00000012,-0.00000039,-0.00000035,
 0.00000058,-0.00000027,-0.00000058,-0.00000045,-0.00000031,-0.00000028
 ,0.00000003,-0.00000155,-0.00000070,0.00000155,-0.00000019,-0.00000077
 ,-0.00000005,-0.00000064,-0.00000005,-0.00000038,-0.00000118,-0.000000
 18,-0.00000024,-0.00000102,-0.00000012,-0.00000022,-0.00000039,0.00000
 009,-0.00000034,-0.00000153,0.00000002,-0.00000054,-0.00000138,-0.0000
 0020,-0.00000051,-0.00000096,-0.00000006,0.00000026,-0.00000106,0.0000
 0030,0.00000011,-0.00000054,0.00000064,-0.00000054,-0.00000163,-0.0000
 0036,-0.00000036,-0.00000155,-0.00000037,-0.00000029,-0.00000100,-0.00
 000053,-0.00000025,-0.00000077,0.00000010,0.00000044,-0.00000065,-0.00
 000070,-0.00000009,-0.00000059,-0.00000051,0.00000029,-0.00000113,-0.0
 0000080\\\@
 The archive entry for this job was punched.


 WHEN IT COMES TO CASH FLOW, IT SEEMS LIKE THE TIDE IS ALWAYS GOING OUT.
 Job cpu time:       2 days 23 hours 38 minutes 41.8 seconds.
 Elapsed time:       0 days  2 hours 15 minutes  0.7 seconds.
 File lengths (MBytes):  RWF=  13758 Int=      0 D2E=      0 Chk=    106 Scr=      2
 Normal termination of Gaussian 16 at Mon Nov 27 22:31:52 2023.
