 Entering Gaussian System, Link 0=g16
 Initial command:
 /public/software/apps/Gaussian/g16/l1.exe "/public/home/LLG_HG/tmp/Gau-108256.inp" -scrdir="/public/home/LLG_HG/tmp/"
 Entering Link 1 = /public/software/apps/Gaussian/g16/l1.exe PID=    108257.
  
 Copyright (c) 1988-2019, Gaussian, Inc.  All Rights Reserved.
  
 This is part of the Gaussian(R) 16 program.  It is based on
 the Gaussian(R) 09 system (copyright 2009, Gaussian, Inc.),
 the Gaussian(R) 03 system (copyright 2003, Gaussian, Inc.),
 the Gaussian(R) 98 system (copyright 1998, Gaussian, Inc.),
 the Gaussian(R) 94 system (copyright 1995, Gaussian, Inc.),
 the Gaussian 92(TM) system (copyright 1992, Gaussian, Inc.),
 the Gaussian 90(TM) system (copyright 1990, Gaussian, Inc.),
 the Gaussian 88(TM) system (copyright 1988, Gaussian, Inc.),
 the Gaussian 86(TM) system (copyright 1986, Carnegie Mellon
 University), and the Gaussian 82(TM) system (copyright 1983,
 Carnegie Mellon University). Gaussian is a federally registered
 trademark of Gaussian, Inc.
  
 This software contains proprietary and confidential information,
 including trade secrets, belonging to Gaussian, Inc.
  
 This software is provided under written license and may be
 used, copied, transmitted, or stored only in accord with that
 written license.
  
 The following legend is applicable only to US Government
 contracts under FAR:
  
                    RESTRICTED RIGHTS LEGEND
  
 Use, reproduction and disclosure by the US Government is
 subject to restrictions as set forth in subparagraphs (a)
 and (c) of the Commercial Computer Software - Restricted
 Rights clause in FAR 52.227-19.
  
 Gaussian, Inc.
 340 Quinnipiac St., Bldg. 40, Wallingford CT 06492
  
  
 ---------------------------------------------------------------
 Warning -- This program may not be used in any manner that
 competes with the business of Gaussian, Inc. or will provide
 assistance to any competitor of Gaussian, Inc.  The licensee
 of this program is prohibited from giving any competitor of
 Gaussian, Inc. access to this program.  By using this program,
 the user acknowledges that Gaussian, Inc. is engaged in the
 business of creating and licensing software in the field of
 computational chemistry and represents and warrants to the
 licensee that it is not a competitor of Gaussian, Inc. and that
 it will not use this program in any manner prohibited above.
 ---------------------------------------------------------------
  

 Cite this work as:
 Gaussian 16, Revision C.01,
 M. J. Frisch, G. W. Trucks, H. B. Schlegel, G. E. Scuseria, 
 M. A. Robb, J. R. Cheeseman, G. Scalmani, V. Barone, 
 G. A. Petersson, H. Nakatsuji, X. Li, M. Caricato, A. V. Marenich, 
 J. Bloino, B. G. Janesko, R. Gomperts, B. Mennucci, H. P. Hratchian, 
 J. V. Ortiz, A. F. Izmaylov, J. L. Sonnenberg, D. Williams-Young, 
 F. Ding, F. Lipparini, F. Egidi, J. Goings, B. Peng, A. Petrone, 
 T. Henderson, D. Ranasinghe, V. G. Zakrzewski, J. Gao, N. Rega, 
 G. Zheng, W. Liang, M. Hada, M. Ehara, K. Toyota, R. Fukuda, 
 J. Hasegawa, M. Ishida, T. Nakajima, Y. Honda, O. Kitao, H. Nakai, 
 T. Vreven, K. Throssell, J. A. Montgomery, Jr., J. E. Peralta, 
 F. Ogliaro, M. J. Bearpark, J. J. Heyd, E. N. Brothers, K. N. Kudin, 
 V. N. Staroverov, T. A. Keith, R. Kobayashi, J. Normand, 
 K. Raghavachari, A. P. Rendell, J. C. Burant, S. S. Iyengar, 
 J. Tomasi, M. Cossi, J. M. Millam, M. Klene, C. Adamo, R. Cammi, 
 J. W. Ochterski, R. L. Martin, K. Morokuma, O. Farkas, 
 J. B. Foresman, and D. J. Fox, Gaussian, Inc., Wallingford CT, 2019.
 
 ******************************************
 Gaussian 16:  ES64L-G16RevC.01  3-Jul-2019
                29-Nov-2023 
 ******************************************
 %nprocs=32
 Will use up to   32 processors via shared memory.
 %mem=80GB
 ---------------------------------------------------------------
 # m06/def2tzvpp scrf=(smd,solvent=n,n-dimethylformamide) em=gd3
 ---------------------------------------------------------------
 1/38=1,172=1/1;
 2/12=2,17=6,18=5,40=1/2;
 3/5=44,7=202,11=2,25=1,30=1,70=32201,72=148,74=-54,124=31/1,2,3;
 4//1;
 5/5=2,38=5,53=148/2;
 6/7=2,8=2,9=2,10=2,28=1/1;
 99/5=1,9=1/99;
 -------------------
 Title Card Required
 -------------------
 Symbolic Z-matrix:
 Charge =  0 Multiplicity = 1
 Ni                    1.16201   0.03634  -0.38977 
 C                     2.2355    1.63681  -0.42663 
 C                     2.92594   0.0579   -1.2387 
 P                    -0.07597   0.3342    1.37026 
 S                     0.00821  -1.57326  -1.40431 
 C                     5.24405  -1.11156  -2.45857 
 C                    -2.06207  -1.43717   0.55869 
 C                    -0.99618  -1.24391   1.65252 
 H                    -2.55087  -0.46813   0.40662 
 H                    -0.2897   -2.07749   1.65914 
 H                    -1.50314  -1.23063   2.6208 
 C                     0.87561   0.58905   2.90798 
 C                     1.24065   1.89579   3.26914 
 C                     1.37906  -0.48988   3.65016 
 C                     2.09116   2.11422   4.35017 
 H                     0.87065   2.73725   2.69346 
 C                     2.23334  -0.26684   4.73016 
 H                     1.11261  -1.50824   3.38507 
 C                     2.59407   1.03517   5.08028 
 H                     2.37038   3.12923   4.61629 
 H                     2.61608  -1.11023   5.29722 
 H                     3.26298   1.20794   5.91777 
 C                    -1.4008    1.59357   1.50634 
 C                    -2.1909    1.69626   2.66383 
 C                    -1.63955   2.45574   0.4317 
 C                    -3.20884   2.64269   2.73653 
 H                    -1.99955   1.0427    3.5101 
 C                    -2.64982   3.41662   0.51456 
 H                    -1.04567   2.37247  -0.46799 
 C                    -3.43588   3.50876   1.6605 
 H                    -3.81879   2.71479   3.63221 
 H                    -2.81618   4.08512  -0.32338 
 H                    -4.22299   4.25468   1.72315 
 C                    -3.12842  -2.38266   1.09631 
 C                    -2.99991  -3.7716    1.01247 
 C                    -4.24334  -1.83945   1.74337 
 C                    -3.97021  -4.60586   1.56799 
 H                    -2.14587  -4.19245   0.49314 
 C                    -5.21237  -2.67147   2.30345 
 H                    -4.35085  -0.75931   1.79628 
 C                    -5.07888  -4.05851   2.21621 
 H                    -3.8623   -5.68392   1.49171 
 H                    -6.07585  -2.23728   2.79882 
 H                    -5.83581  -4.70796   2.64543 
 O                    -0.21041  -1.15751  -2.84355 
 C                     0.6821   -3.33962  -1.55298 
 C                     1.95814  -3.21939  -2.39005 
 H                     1.73948  -2.7902   -3.36931 
 H                     2.71081  -2.60481  -1.90124 
 H                     2.37773  -4.22138  -2.53124 
 C                    -0.34729  -4.20603  -2.27523 
 H                     0.08857  -5.19766  -2.4383 
 H                    -1.26069  -4.32649  -1.6905 
 H                    -0.59678  -3.78279  -3.25113 
 C                     0.97097  -3.85311  -0.14521 
 H                     1.68673  -3.21434   0.37764 
 H                     0.0552   -3.93286   0.44565 
 H                     1.41187  -4.85332  -0.21481 
 N                    -1.57678  -1.94061  -0.7467 
 C                    -2.65725  -1.96063  -1.7699 
 H                    -3.30852  -2.80975  -1.54435 
 H                    -2.1883   -2.13633  -2.73633 
 C                    -3.46936  -0.68365  -1.82272 
 C                    -4.79424  -0.65451  -1.3786 
 C                    -2.88761   0.5075   -2.27234 
 C                    -5.51347   0.54086  -1.36202 
 H                    -5.26008  -1.5693   -1.02375 
 C                    -3.60916   1.69652  -2.2567 
 H                    -1.86229   0.49286  -2.62126 
 C                    -4.92847   1.7382   -1.78774 
 H                    -6.53964   0.54499  -1.00281 
 H                    -3.13071   2.61052  -2.5976 
 C                    -5.67561   3.0446   -1.69708 
 H                    -5.49092   3.52697  -0.72887 
 H                    -5.35646   3.7441   -2.47561 
 H                    -6.75598   2.89987  -1.7902 
 C                     2.99335   3.66386   0.69394 
 C                     2.14077   4.46648  -0.02249 
 C                     1.331     3.89722  -1.03476 
 C                     1.41687   2.48776  -1.28362 
 C                     3.06789   2.25758   0.52531 
 H                     0.38296   5.75785  -1.5769 
 H                     3.63206   4.11193   1.45111 
 H                     2.09103   5.53555   0.1627 
 C                     0.43459   4.69424  -1.79546 
 C                     0.60973   1.96374  -2.33343 
 C                    -0.24335   2.76578  -3.06711 
 C                    -0.34498   4.14616  -2.78906 
 H                     0.64788   0.90772  -2.57458 
 H                    -0.83585   2.32462  -3.86248 
 H                    -1.02049   4.77122  -3.36615 
 C                     4.16599  -2.27983   1.46419 
 C                     3.41098  -1.3465    0.79131 
 C                     3.75227  -0.88754  -0.50961 
 C                     4.91336  -1.46532  -1.12813 
 C                     5.68184  -2.42166  -0.40695 
 C                     5.32218  -2.82463   0.8576 
 H                     3.8783   -2.58653   2.46558 
 H                     2.53406  -0.92373   1.26633 
 H                     6.56101  -2.842    -0.88861 
 H                     5.92029  -3.55867   1.38957 
 C                     4.44229  -0.22893  -3.15122 
 C                     3.3102    0.34815  -2.55017 
 H                     6.12222  -1.55287  -2.92114 
 H                     4.68461   0.03616  -4.17673 
 H                     2.73646   1.06093  -3.12863 
 C                     4.06632   1.54145   1.39954 
 H                     4.58374   2.26307   2.0368 
 H                     3.60757   0.80111   2.05581 
 H                     4.81834   1.01664   0.80273 
 
 Stoichiometry    C53H52NNiOPS
 Framework group  C1[X(C53H52NNiOPS)]
 Deg. of freedom   324
 Full point group                 C1      NOp   1
 Largest Abelian subgroup         C1      NOp   1
 Largest concise Abelian subgroup C1      NOp   1
                         Standard orientation:                         
 ---------------------------------------------------------------------
 Center     Atomic      Atomic             Coordinates (Angstroms)
 Number     Number       Type             X           Y           Z
 ---------------------------------------------------------------------
      1         28           0        1.162005    0.036339   -0.389774
      2          6           0        2.235500    1.636814   -0.426626
      3          6           0        2.925939    0.057895   -1.238697
      4         15           0       -0.075974    0.334199    1.370260
      5         16           0        0.008210   -1.573258   -1.404312
      6          6           0        5.244046   -1.111561   -2.458567
      7          6           0       -2.062071   -1.437173    0.558689
      8          6           0       -0.996175   -1.243911    1.652515
      9          1           0       -2.550872   -0.468126    0.406621
     10          1           0       -0.289701   -2.077490    1.659139
     11          1           0       -1.503142   -1.230633    2.620804
     12          6           0        0.875605    0.589048    2.907977
     13          6           0        1.240650    1.895794    3.269138
     14          6           0        1.379058   -0.489881    3.650163
     15          6           0        2.091163    2.114218    4.350167
     16          1           0        0.870645    2.737250    2.693455
     17          6           0        2.233342   -0.266839    4.730159
     18          1           0        1.112608   -1.508238    3.385071
     19          6           0        2.594073    1.035170    5.080284
     20          1           0        2.370375    3.129233    4.616289
     21          1           0        2.616075   -1.110230    5.297221
     22          1           0        3.262979    1.207943    5.917770
     23          6           0       -1.400802    1.593566    1.506336
     24          6           0       -2.190902    1.696259    2.663829
     25          6           0       -1.639547    2.455743    0.431702
     26          6           0       -3.208837    2.642688    2.736528
     27          1           0       -1.999551    1.042702    3.510098
     28          6           0       -2.649824    3.416619    0.514558
     29          1           0       -1.045669    2.372470   -0.467987
     30          6           0       -3.435882    3.508760    1.660502
     31          1           0       -3.818794    2.714794    3.632208
     32          1           0       -2.816179    4.085120   -0.323383
     33          1           0       -4.222987    4.254684    1.723149
     34          6           0       -3.128418   -2.382660    1.096314
     35          6           0       -2.999910   -3.771602    1.012474
     36          6           0       -4.243340   -1.839447    1.743372
     37          6           0       -3.970207   -4.605864    1.567986
     38          1           0       -2.145867   -4.192451    0.493137
     39          6           0       -5.212372   -2.671471    2.303451
     40          1           0       -4.350850   -0.759305    1.796282
     41          6           0       -5.078876   -4.058514    2.216210
     42          1           0       -3.862300   -5.683918    1.491705
     43          1           0       -6.075851   -2.237280    2.798815
     44          1           0       -5.835807   -4.707955    2.645427
     45          8           0       -0.210409   -1.157505   -2.843546
     46          6           0        0.682095   -3.339620   -1.552976
     47          6           0        1.958136   -3.219389   -2.390050
     48          1           0        1.739476   -2.790195   -3.369314
     49          1           0        2.710810   -2.604809   -1.901235
     50          1           0        2.377728   -4.221378   -2.531241
     51          6           0       -0.347286   -4.206034   -2.275234
     52          1           0        0.088568   -5.197664   -2.438295
     53          1           0       -1.260691   -4.326493   -1.690495
     54          1           0       -0.596776   -3.782793   -3.251127
     55          6           0        0.970966   -3.853109   -0.145213
     56          1           0        1.686725   -3.214340    0.377639
     57          1           0        0.055204   -3.932855    0.445647
     58          1           0        1.411871   -4.853315   -0.214813
     59          7           0       -1.576775   -1.940611   -0.746704
     60          6           0       -2.657253   -1.960632   -1.769900
     61          1           0       -3.308521   -2.809747   -1.544352
     62          1           0       -2.188301   -2.136326   -2.736331
     63          6           0       -3.469357   -0.683654   -1.822722
     64          6           0       -4.794240   -0.654511   -1.378595
     65          6           0       -2.887614    0.507497   -2.272339
     66          6           0       -5.513470    0.540863   -1.362016
     67          1           0       -5.260083   -1.569300   -1.023747
     68          6           0       -3.609163    1.696519   -2.256696
     69          1           0       -1.862288    0.492855   -2.621262
     70          6           0       -4.928465    1.738196   -1.787742
     71          1           0       -6.539639    0.544986   -1.002814
     72          1           0       -3.130706    2.610516   -2.597599
     73          6           0       -5.675606    3.044602   -1.697082
     74          1           0       -5.490915    3.526970   -0.728871
     75          1           0       -5.356463    3.744098   -2.475612
     76          1           0       -6.755979    2.899865   -1.790201
     77          6           0        2.993348    3.663860    0.693939
     78          6           0        2.140765    4.466477   -0.022493
     79          6           0        1.331004    3.897224   -1.034755
     80          6           0        1.416872    2.487759   -1.283622
     81          6           0        3.067888    2.257580    0.525311
     82          1           0        0.382955    5.757845   -1.576898
     83          1           0        3.632056    4.111934    1.451114
     84          1           0        2.091027    5.535551    0.162703
     85          6           0        0.434591    4.694237   -1.795455
     86          6           0        0.609727    1.963735   -2.333429
     87          6           0       -0.243349    2.765779   -3.067108
     88          6           0       -0.344983    4.146162   -2.789056
     89          1           0        0.647877    0.907721   -2.574578
     90          1           0       -0.835852    2.324619   -3.862481
     91          1           0       -1.020489    4.771219   -3.366151
     92          6           0        4.165988   -2.279831    1.464190
     93          6           0        3.410977   -1.346502    0.791313
     94          6           0        3.752274   -0.887542   -0.509605
     95          6           0        4.913362   -1.465318   -1.128127
     96          6           0        5.681835   -2.421661   -0.406953
     97          6           0        5.322184   -2.824630    0.857603
     98          1           0        3.878297   -2.586525    2.465578
     99          1           0        2.534058   -0.923728    1.266334
    100          1           0        6.561011   -2.841997   -0.888613
    101          1           0        5.920288   -3.558669    1.389565
    102          6           0        4.442293   -0.228925   -3.151215
    103          6           0        3.310202    0.348150   -2.550167
    104          1           0        6.122220   -1.552872   -2.921139
    105          1           0        4.684615    0.036163   -4.176725
    106          1           0        2.736459    1.060933   -3.128634
    107          6           0        4.066319    1.541452    1.399536
    108          1           0        4.583739    2.263068    2.036802
    109          1           0        3.607574    0.801111    2.055812
    110          1           0        4.818336    1.016643    0.802730
 ---------------------------------------------------------------------
 Rotational constants (GHZ):           0.0614201           0.0455247           0.0409570
 Standard basis: def2TZVPP (5D, 7F)
 There are  2936 symmetry adapted cartesian basis functions of A   symmetry.
 There are  2581 symmetry adapted basis functions of A   symmetry.
  2581 basis functions,  3957 primitive gaussians,  2936 cartesian basis functions
   222 alpha electrons      222 beta electrons
       nuclear repulsion energy     10745.3404089780 Hartrees.
 NAtoms=  110 NActive=  110 NUniq=  110 SFac= 1.00D+00 NAtFMM=   60 NAOKFM=T Big=T
 Integral buffers will be    131072 words long.
 Raffenetti 2 integral format.
 Two-electron integral symmetry is turned on.
 Nuclear repulsion after empirical dispersion term =    10745.2925885393 Hartrees.
 ------------------------------------------------------------------------------
 Polarizable Continuum Model (PCM)
 =================================
 Model                : PCM.
 Atomic radii         : SMD-Coulomb.
 Polarization charges : Total charges.
 Charge compensation  : None.
 Solution method      : On-the-fly selection.
 Cavity type          : VdW (van der Waals Surface) (Alpha=1.000).
 Cavity algorithm     : GePol (No added spheres)
                        Default sphere list used, NSphG=  110.
                        Lebedev-Laikov grids with approx.  5.0 points / Ang**2.
                        Smoothing algorithm: York/Karplus (Gamma=1.0000).
                        Polarization charges: spherical gaussians, with
                                              point-specific exponents (IZeta= 3).
                        Self-potential: point-specific (ISelfS= 7).
                        Self-field    : sphere-specific E.n sum rule (ISelfD= 2).
 Solvent              : n,n-DiMethylFormamide, Eps=  37.219000 Eps(inf)=   2.046330
 ------------------------------------------------------------------------------
 ------------------------------------------------------------------------------
 Atomic radii for non-electrostatic terms: SMD-CDS.
 ------------------------------------------------------------------------------
 Nuclear repulsion after PCM non-electrostatic terms =    10745.2841850464 Hartrees.
 One-electron integrals computed using PRISM.
   1 Symmetry operations used in ECPInt.
 ECPInt:  NShTT=  464166 NPrTT= 1296740 LenC2=  350776 LenP2D=  659040.
 LDataN:  DoStor=T MaxTD1= 8 Len=  415
 NBasis=  2581 RedAO= T EigKep=  2.16D-06  NBF=  2581
 NBsUse=  2581 1.00D-06 EigRej= -1.00D+00 NBFU=  2581
 ExpMin= 4.68D-02 ExpMax= 3.52D+05 ExpMxC= 3.39D+03 IAcc=3 IRadAn=         5 AccDes= 0.00D+00
 Harris functional with IExCor= 1009 and IRadAn=       5 diagonalized for initial guess.
 HarFok:  IExCor= 1009 AccDes= 0.00D+00 IRadAn=         5 IDoV= 1 UseB2=F ITyADJ=14
 ICtDFT=  3500011 ScaDFX=  1.000000  1.000000  1.000000  1.000000
 FoFCou: FMM=F IPFlag=           0 FMFlag=      100000 FMFlg1=        2001
         NFxFlg=           0 DoJE=T BraDBF=F KetDBF=T FulRan=T
         wScrn=  0.000000 ICntrl=       500 IOpCl=  0 I1Cent=   200000004 NGrid=           0
         NMat0=    1 NMatS0=      1 NMatT0=    0 NMatD0=    1 NMtDS0=    0 NMtDT0=    0
 Petite list used in FoFCou.
 Requested convergence on RMS density matrix=1.00D-08 within 128 cycles.
 Requested convergence on MAX density matrix=1.00D-06.
 Requested convergence on             energy=1.00D-06.
 No special actions if energy rises.
 Inv3:  Mode=1 IEnd=   160045248.
 Iteration    1 A*A^-1 deviation from unit magnitude is 4.00D-15 for   3785.
 Iteration    1 A*A^-1 deviation from orthogonality  is 3.44D-15 for   5777   2024.
 Iteration    1 A^-1*A deviation from unit magnitude is 3.77D-15 for   6633.
 Iteration    1 A^-1*A deviation from orthogonality  is 1.04D-14 for   6925   6872.
 EnCoef did     2 forward-backward iterations
 Error on total polarization charges =  0.08938
 SCF Done:  E(RM06) =  -4427.97196623     A.U. after   17 cycles
            NFock= 17  Conv=0.47D-08     -V/T= 2.0036
 SMD-CDS (non-electrostatic) energy       (kcal/mol) =      -5.27
 (included in total energy above)
 Hyperfine terms turned off by default for NAtoms > 100.

 **********************************************************************

            Population analysis using the SCF Density.

 **********************************************************************

 Orbital symmetries:
       Occupied  (A) (A) (A) (A) (A) (A) (A) (A) (A) (A) (A) (A)
                 (A) (A) (A) (A) (A) (A) (A) (A) (A) (A) (A) (A)
                 (A) (A) (A) (A) (A) (A) (A) (A) (A) (A) (A) (A)
                 (A) (A) (A) (A) (A) (A) (A) (A) (A) (A) (A) (A)
                 (A) (A) (A) (A) (A) (A) (A) (A) (A) (A) (A) (A)
                 (A) (A) (A) (A) (A) (A) (A) (A) (A) (A) (A) (A)
                 (A) (A) (A) (A) (A) (A) (A) (A) (A) (A) (A) (A)
                 (A) (A) (A) (A) (A) (A) (A) (A) (A) (A) (A) (A)
                 (A) (A) (A) (A) (A) (A) (A) (A) (A) (A) (A) (A)
                 (A) (A) (A) (A) (A) (A) (A) (A) (A) (A) (A) (A)
                 (A) (A) (A) (A) (A) (A) (A) (A) (A) (A) (A) (A)
                 (A) (A) (A) (A) (A) (A) (A) (A) (A) (A) (A) (A)
                 (A) (A) (A) (A) (A) (A) (A) (A) (A) (A) (A) (A)
                 (A) (A) (A) (A) (A) (A) (A) (A) (A) (A) (A) (A)
                 (A) (A) (A) (A) (A) (A) (A) (A) (A) (A) (A) (A)
                 (A) (A) (A) (A) (A) (A) (A) (A) (A) (A) (A) (A)
                 (A) (A) (A) (A) (A) (A) (A) (A) (A) (A) (A) (A)
                 (A) (A) (A) (A) (A) (A) (A) (A) (A) (A) (A) (A)
                 (A) (A) (A) (A) (A) (A)
       Virtual   (A) (A) (A) (A) (A) (A) (A) (A) (A) (A) (A) (A)
                 (A) (A) (A) (A) (A) (A) (A) (A) (A) (A) (A) (A)
                 (A) (A) (A) (A) (A) (A) (A) (A) (A) (A) (A) (A)
                 (A) (A) (A) (A) (A) (A) (A) (A) (A) (A) (A) (A)
                 (A) (A) (A) (A) (A) (A) (A) (A) (A) (A) (A) (A)
                 (A) (A) (A) (A) (A) (A) (A) (A) (A) (A) (A) (A)
                 (A) (A) (A) (A) (A) (A) (A) (A) (A) (A) (A) (A)
                 (A) (A) (A) (A) (A) (A) (A) (A) (A) (A) (A) (A)
                 (A) (A) (A) (A) (A) (A) (A) (A) (A) (A) (A) (A)
                 (A) (A) (A) (A) (A) (A) (A) (A) (A) (A) (A) (A)
                 (A) (A) (A) (A) (A) (A) (A) (A) (A) (A) (A) (A)
                 (A) (A) (A) (A) (A) (A) (A) (A) (A) (A) (A) (A)
                 (A) (A) (A) (A) (A) (A) (A) (A) (A) (A) (A) (A)
                 (A) (A) (A) (A) (A) (A) (A) (A) (A) (A) (A) (A)
                 (A) (A) (A) (A) (A) (A) (A) (A) (A) (A) (A) (A)
                 (A) (A) (A) (A) (A) (A) (A) (A) (A) (A) (A) (A)
                 (A) (A) (A) (A) (A) (A) (A) (A) (A) (A) (A) (A)
                 (A) (A) (A) (A) (A) (A) (A) (A) (A) (A) (A) (A)
                 (A) (A) (A) (A) (A) (A) (A) (A) (A) (A) (A) (A)
                 (A) (A) (A) (A) (A) (A) (A) (A) (A) (A) (A) (A)
                 (A) (A) (A) (A) (A) (A) (A) (A) (A) (A) (A) (A)
                 (A) (A) (A) (A) (A) (A) (A) (A) (A) (A) (A) (A)
                 (A) (A) (A) (A) (A) (A) (A) (A) (A) (A) (A) (A)
                 (A) (A) (A) (A) (A) (A) (A) (A) (A) (A) (A) (A)
                 (A) (A) (A) (A) (A) (A) (A) (A) (A) (A) (A) (A)
                 (A) (A) (A) (A) (A) (A) (A) (A) (A) (A) (A) (A)
                 (A) (A) (A) (A) (A) (A) (A) (A) (A) (A) (A) (A)
                 (A) (A) (A) (A) (A) (A) (A) (A) (A) (A) (A) (A)
                 (A) (A) (A) (A) (A) (A) (A) (A) (A) (A) (A) (A)
                 (A) (A) (A) (A) (A) (A) (A) (A) (A) (A) (A) (A)
                 (A) (A) (A) (A) (A) (A) (A) (A) (A) (A) (A) (A)
                 (A) (A) (A) (A) (A) (A) (A) (A) (A) (A) (A) (A)
                 (A) (A) (A) (A) (A) (A) (A) (A) (A) (A) (A) (A)
                 (A) (A) (A) (A) (A) (A) (A) (A) (A) (A) (A) (A)
                 (A) (A) (A) (A) (A) (A) (A) (A) (A) (A) (A) (A)
                 (A) (A) (A) (A) (A) (A) (A) (A) (A) (A) (A) (A)
                 (A) (A) (A) (A) (A) (A) (A) (A) (A) (A) (A) (A)
                 (A) (A) (A) (A) (A) (A) (A) (A) (A) (A) (A) (A)
                 (A) (A) (A) (A) (A) (A) (A) (A) (A) (A) (A) (A)
                 (A) (A) (A) (A) (A) (A) (A) (A) (A) (A) (A) (A)
                 (A) (A) (A) (A) (A) (A) (A) (A) (A) (A) (A) (A)
                 (A) (A) (A) (A) (A) (A) (A) (A) (A) (A) (A) (A)
                 (A) (A) (A) (A) (A) (A) (A) (A) (A) (A) (A) (A)
                 (A) (A) (A) (A) (A) (A) (A) (A) (A) (A) (A) (A)
                 (A) (A) (A) (A) (A) (A) (A) (A) (A) (A) (A) (A)
                 (A) (A) (A) (A) (A) (A) (A) (A) (A) (A) (A) (A)
                 (A) (A) (A) (A) (A) (A) (A) (A) (A) (A) (A) (A)
                 (A) (A) (A) (A) (A) (A) (A) (A) (A) (A) (A) (A)
                 (A) (A) (A) (A) (A) (A) (A) (A) (A) (A) (A) (A)
                 (A) (A) (A) (A) (A) (A) (A) (A) (A) (A) (A) (A)
                 (A) (A) (A) (A) (A) (A) (A) (A) (A) (A) (A) (A)
                 (A) (A) (A) (A) (A) (A) (A) (A) (A) (A) (A) (A)
                 (A) (A) (A) (A) (A) (A) (A) (A) (A) (A) (A) (A)
                 (A) (A) (A) (A) (A) (A) (A) (A) (A) (A) (A) (A)
                 (A) (A) (A) (A) (A) (A) (A) (A) (A) (A) (A) (A)
                 (A) (A) (A) (A) (A) (A) (A) (A) (A) (A) (A) (A)
                 (A) (A) (A) (A) (A) (A) (A) (A) (A) (A) (A) (A)
                 (A) (A) (A) (A) (A) (A) (A) (A) (A) (A) (A) (A)
                 (A) (A) (A) (A) (A) (A) (A) (A) (A) (A) (A) (A)
                 (A) (A) (A) (A) (A) (A) (A) (A) (A) (A) (A) (A)
                 (A) (A) (A) (A) (A) (A) (A) (A) (A) (A) (A) (A)
                 (A) (A) (A) (A) (A) (A) (A) (A) (A) (A) (A) (A)
                 (A) (A) (A) (A) (A) (A) (A) (A) (A) (A) (A) (A)
                 (A) (A) (A) (A) (A) (A) (A) (A) (A) (A) (A) (A)
                 (A) (A) (A) (A) (A) (A) (A) (A) (A) (A) (A) (A)
                 (A) (A) (A) (A) (A) (A) (A) (A) (A) (A) (A) (A)
                 (A) (A) (A) (A) (A) (A) (A) (A) (A) (A) (A) (A)
                 (A) (A) (A) (A) (A) (A) (A) (A) (A) (A) (A) (A)
                 (A) (A) (A) (A) (A) (A) (A) (A) (A) (A) (A) (A)
                 (A) (A) (A) (A) (A) (A) (A) (A) (A) (A) (A) (A)
                 (A) (A) (A) (A) (A) (A) (A) (A) (A) (A) (A) (A)
                 (A) (A) (A) (A) (A) (A) (A) (A) (A) (A) (A) (A)
                 (A) (A) (A) (A) (A) (A) (A) (A) (A) (A) (A) (A)
                 (A) (A) (A) (A) (A) (A) (A) (A) (A) (A) (A) (A)
                 (A) (A) (A) (A) (A) (A) (A) (A) (A) (A) (A) (A)
                 (A) (A) (A) (A) (A) (A) (A) (A) (A) (A) (A) (A)
                 (A) (A) (A) (A) (A) (A) (A) (A) (A) (A) (A) (A)
                 (A) (A) (A) (A) (A) (A) (A) (A) (A) (A) (A) (A)
                 (A) (A) (A) (A) (A) (A) (A) (A) (A) (A) (A) (A)
                 (A) (A) (A) (A) (A) (A) (A) (A) (A) (A) (A) (A)
                 (A) (A) (A) (A) (A) (A) (A) (A) (A) (A) (A) (A)
                 (A) (A) (A) (A) (A) (A) (A) (A) (A) (A) (A) (A)
                 (A) (A) (A) (A) (A) (A) (A) (A) (A) (A) (A) (A)
                 (A) (A) (A) (A) (A) (A) (A) (A) (A) (A) (A) (A)
                 (A) (A) (A) (A) (A) (A) (A) (A) (A) (A) (A) (A)
                 (A) (A) (A) (A) (A) (A) (A) (A) (A) (A) (A) (A)
                 (A) (A) (A) (A) (A) (A) (A) (A) (A) (A) (A) (A)
                 (A) (A) (A) (A) (A) (A) (A) (A) (A) (A) (A) (A)
                 (A) (A) (A) (A) (A) (A) (A) (A) (A) (A) (A) (A)
                 (A) (A) (A) (A) (A) (A) (A) (A) (A) (A) (A) (A)
                 (A) (A) (A) (A) (A) (A) (A) (A) (A) (A) (A) (A)
                 (A) (A) (A) (A) (A) (A) (A) (A) (A) (A) (A) (A)
                 (A) (A) (A) (A) (A) (A) (A) (A) (A) (A) (A) (A)
                 (A) (A) (A) (A) (A) (A) (A) (A) (A) (A) (A) (A)
                 (A) (A) (A) (A) (A) (A) (A) (A) (A) (A) (A) (A)
                 (A) (A) (A) (A) (A) (A) (A) (A) (A) (A) (A) (A)
                 (A) (A) (A) (A) (A) (A) (A) (A) (A) (A) (A) (A)
                 (A) (A) (A) (A) (A) (A) (A) (A) (A) (A) (A) (A)
                 (A) (A) (A) (A) (A) (A) (A) (A) (A) (A) (A) (A)
                 (A) (A) (A) (A) (A) (A) (A) (A) (A) (A) (A) (A)
                 (A) (A) (A) (A) (A) (A) (A) (A) (A) (A) (A) (A)
                 (A) (A) (A) (A) (A) (A) (A) (A) (A) (A) (A) (A)
                 (A) (A) (A) (A) (A) (A) (A) (A) (A) (A) (A) (A)
                 (A) (A) (A) (A) (A) (A) (A) (A) (A) (A) (A) (A)
                 (A) (A) (A) (A) (A) (A) (A) (A) (A) (A) (A) (A)
                 (A) (A) (A) (A) (A) (A) (A) (A) (A) (A) (A) (A)
                 (A) (A) (A) (A) (A) (A) (A) (A) (A) (A) (A) (A)
                 (A) (A) (A) (A) (A) (A) (A) (A) (A) (A) (A) (A)
                 (A) (A) (A) (A) (A) (A) (A) (A) (A) (A) (A) (A)
                 (A) (A) (A) (A) (A) (A) (A) (A) (A) (A) (A) (A)
                 (A) (A) (A) (A) (A) (A) (A) (A) (A) (A) (A) (A)
                 (A) (A) (A) (A) (A) (A) (A) (A) (A) (A) (A) (A)
                 (A) (A) (A) (A) (A) (A) (A) (A) (A) (A) (A) (A)
                 (A) (A) (A) (A) (A) (A) (A) (A) (A) (A) (A) (A)
                 (A) (A) (A) (A) (A) (A) (A) (A) (A) (A) (A) (A)
                 (A) (A) (A) (A) (A) (A) (A) (A) (A) (A) (A) (A)
                 (A) (A) (A) (A) (A) (A) (A) (A) (A) (A) (A) (A)
                 (A) (A) (A) (A) (A) (A) (A) (A) (A) (A) (A) (A)
                 (A) (A) (A) (A) (A) (A) (A) (A) (A) (A) (A) (A)
                 (A) (A) (A) (A) (A) (A) (A) (A) (A) (A) (A) (A)
                 (A) (A) (A) (A) (A) (A) (A) (A) (A) (A) (A) (A)
                 (A) (A) (A) (A) (A) (A) (A) (A) (A) (A) (A) (A)
                 (A) (A) (A) (A) (A) (A) (A) (A) (A) (A) (A) (A)
                 (A) (A) (A) (A) (A) (A) (A) (A) (A) (A) (A) (A)
                 (A) (A) (A) (A) (A) (A) (A) (A) (A) (A) (A) (A)
                 (A) (A) (A) (A) (A) (A) (A) (A) (A) (A) (A) (A)
                 (A) (A) (A) (A) (A) (A) (A) (A) (A) (A) (A) (A)
                 (A) (A) (A) (A) (A) (A) (A) (A) (A) (A) (A) (A)
                 (A) (A) (A) (A) (A) (A) (A) (A) (A) (A) (A) (A)
                 (A) (A) (A) (A) (A) (A) (A) (A) (A) (A) (A) (A)
                 (A) (A) (A) (A) (A) (A) (A) (A) (A) (A) (A) (A)
                 (A) (A) (A) (A) (A) (A) (A) (A) (A) (A) (A) (A)
                 (A) (A) (A) (A) (A) (A) (A) (A) (A) (A) (A) (A)
                 (A) (A) (A) (A) (A) (A) (A) (A) (A) (A) (A) (A)
                 (A) (A) (A) (A) (A) (A) (A) (A) (A) (A) (A) (A)
                 (A) (A) (A) (A) (A) (A) (A) (A) (A) (A) (A) (A)
                 (A) (A) (A) (A) (A) (A) (A) (A) (A) (A) (A) (A)
                 (A) (A) (A) (A) (A) (A) (A) (A) (A) (A) (A) (A)
                 (A) (A) (A) (A) (A) (A) (A) (A) (A) (A) (A) (A)
                 (A) (A) (A) (A) (A) (A) (A) (A) (A) (A) (A) (A)
                 (A) (A) (A) (A) (A) (A) (A) (A) (A) (A) (A) (A)
                 (A) (A) (A) (A) (A) (A) (A) (A) (A) (A) (A) (A)
                 (A) (A) (A) (A) (A) (A) (A) (A) (A) (A) (A) (A)
                 (A) (A) (A) (A) (A) (A) (A) (A) (A) (A) (A) (A)
                 (A) (A) (A) (A) (A) (A) (A) (A) (A) (A) (A) (A)
                 (A) (A) (A) (A) (A) (A) (A) (A) (A) (A) (A) (A)
                 (A) (A) (A) (A) (A) (A) (A) (A) (A) (A) (A) (A)
                 (A) (A) (A) (A) (A) (A) (A) (A) (A) (A) (A) (A)
                 (A) (A) (A) (A) (A) (A) (A) (A) (A) (A) (A) (A)
                 (A) (A) (A) (A) (A) (A) (A) (A) (A) (A) (A) (A)
                 (A) (A) (A) (A) (A) (A) (A) (A) (A) (A) (A) (A)
                 (A) (A) (A) (A) (A) (A) (A) (A) (A) (A) (A) (A)
                 (A) (A) (A) (A) (A) (A) (A) (A) (A) (A) (A) (A)
                 (A) (A) (A) (A) (A) (A) (A) (A) (A) (A) (A) (A)
                 (A) (A) (A) (A) (A) (A) (A) (A) (A) (A) (A) (A)
                 (A) (A) (A) (A) (A) (A) (A) (A) (A) (A) (A) (A)
                 (A) (A) (A) (A) (A) (A) (A) (A) (A) (A) (A) (A)
                 (A) (A) (A) (A) (A) (A) (A) (A) (A) (A) (A) (A)
                 (A) (A) (A) (A) (A) (A) (A) (A) (A) (A) (A) (A)
                 (A) (A) (A) (A) (A) (A) (A) (A) (A) (A) (A) (A)
                 (A) (A) (A) (A) (A) (A) (A) (A) (A) (A) (A) (A)
                 (A) (A) (A) (A) (A) (A) (A) (A) (A) (A) (A) (A)
                 (A) (A) (A) (A) (A) (A) (A) (A) (A) (A) (A) (A)
                 (A) (A) (A) (A) (A) (A) (A) (A) (A) (A) (A) (A)
                 (A) (A) (A) (A) (A) (A) (A) (A) (A) (A) (A) (A)
                 (A) (A) (A) (A) (A) (A) (A) (A) (A) (A) (A) (A)
                 (A) (A) (A) (A) (A) (A) (A) (A) (A) (A) (A) (A)
                 (A) (A) (A) (A) (A) (A) (A) (A) (A) (A) (A) (A)
                 (A) (A) (A) (A) (A) (A) (A) (A) (A) (A) (A) (A)
                 (A) (A) (A) (A) (A) (A) (A) (A) (A) (A) (A) (A)
                 (A) (A) (A) (A) (A) (A) (A) (A) (A) (A) (A) (A)
                 (A) (A) (A) (A) (A) (A) (A) (A) (A) (A) (A) (A)
                 (A) (A) (A) (A) (A) (A) (A) (A) (A) (A) (A) (A)
                 (A) (A) (A) (A) (A) (A) (A) (A) (A) (A) (A) (A)
                 (A) (A) (A) (A) (A) (A) (A) (A) (A) (A) (A) (A)
                 (A) (A) (A) (A) (A) (A) (A) (A) (A) (A) (A) (A)
                 (A) (A) (A) (A) (A) (A) (A) (A) (A) (A) (A) (A)
                 (A) (A) (A) (A) (A) (A) (A) (A) (A) (A) (A) (A)
                 (A) (A) (A) (A) (A) (A) (A) (A) (A) (A) (A) (A)
                 (A) (A) (A) (A) (A) (A) (A) (A) (A) (A) (A) (A)
                 (A) (A) (A) (A) (A) (A) (A) (A) (A) (A) (A) (A)
                 (A) (A) (A) (A) (A) (A) (A) (A) (A) (A) (A) (A)
                 (A) (A) (A) (A) (A) (A) (A) (A) (A) (A) (A) (A)
                 (A) (A) (A) (A) (A) (A) (A) (A) (A) (A) (A) (A)
                 (A) (A) (A) (A) (A) (A) (A) (A) (A) (A) (A) (A)
                 (A) (A) (A) (A) (A) (A) (A) (A) (A) (A) (A) (A)
                 (A) (A) (A) (A) (A) (A) (A) (A) (A) (A) (A) (A)
                 (A) (A) (A) (A) (A) (A) (A) (A) (A) (A) (A) (A)
                 (A) (A) (A) (A) (A) (A) (A) (A) (A) (A) (A) (A)
                 (A) (A) (A) (A) (A) (A) (A) (A) (A) (A) (A) (A)
                 (A) (A) (A) (A) (A) (A) (A) (A) (A) (A) (A) (A)
                 (A) (A) (A) (A) (A) (A) (A) (A) (A) (A) (A) (A)
                 (A) (A) (A) (A) (A) (A) (A) (A) (A) (A) (A) (A)
                 (A) (A) (A) (A) (A) (A) (A) (A) (A) (A) (A) (A)
                 (A) (A) (A) (A) (A) (A) (A) (A) (A) (A) (A) (A)
                 (A) (A) (A) (A) (A) (A) (A) (A) (A) (A) (A) (A)
                 (A) (A) (A) (A) (A) (A) (A)
 The electronic state is 1-A.
 Alpha  occ. eigenvalues -- -300.06260 -89.16861 -77.24231 -35.94821 -31.29096
 Alpha  occ. eigenvalues --  -31.28989 -31.27483 -19.18698 -14.41161 -10.28832
 Alpha  occ. eigenvalues --  -10.27683 -10.26465 -10.26300 -10.25865 -10.25241
 Alpha  occ. eigenvalues --  -10.25176 -10.25039 -10.24890 -10.24817 -10.24765
 Alpha  occ. eigenvalues --  -10.24741 -10.24705 -10.24639 -10.24565 -10.24530
 Alpha  occ. eigenvalues --  -10.24514 -10.24470 -10.24461 -10.24399 -10.24319
 Alpha  occ. eigenvalues --  -10.24263 -10.24252 -10.24211 -10.24173 -10.24067
 Alpha  occ. eigenvalues --  -10.24046 -10.23989 -10.23884 -10.23878 -10.23864
 Alpha  occ. eigenvalues --  -10.23806 -10.23748 -10.23654 -10.23628 -10.23586
 Alpha  occ. eigenvalues --  -10.23545 -10.23539 -10.23483 -10.23388 -10.23350
 Alpha  occ. eigenvalues --  -10.23309 -10.23239 -10.23118 -10.23071 -10.23071
 Alpha  occ. eigenvalues --  -10.22918 -10.22594 -10.22564 -10.22441 -10.22343
 Alpha  occ. eigenvalues --  -10.22173 -10.21658  -8.16336  -6.66413  -6.08053
 Alpha  occ. eigenvalues --   -6.07803  -6.07472  -4.78322  -4.78306  -4.77940
 Alpha  occ. eigenvalues --   -4.04765  -2.60971  -2.60656  -2.58485  -1.05120
 Alpha  occ. eigenvalues --   -0.93800  -0.88340  -0.87728  -0.87379  -0.86918
 Alpha  occ. eigenvalues --   -0.86788  -0.86549  -0.83377  -0.83085  -0.82636
 Alpha  occ. eigenvalues --   -0.80628  -0.78764  -0.78645  -0.77843  -0.77113
 Alpha  occ. eigenvalues --   -0.76335  -0.76036  -0.75958  -0.75598  -0.75531
 Alpha  occ. eigenvalues --   -0.75095  -0.74644  -0.74277  -0.72790  -0.72631
 Alpha  occ. eigenvalues --   -0.71878  -0.70082  -0.69783  -0.69456  -0.68617
 Alpha  occ. eigenvalues --   -0.67018  -0.64224  -0.63086  -0.62683  -0.62455
 Alpha  occ. eigenvalues --   -0.61796  -0.61700  -0.61605  -0.61547  -0.61224
 Alpha  occ. eigenvalues --   -0.60889  -0.60539  -0.60047  -0.58909  -0.58225
 Alpha  occ. eigenvalues --   -0.57465  -0.57021  -0.55034  -0.53169  -0.52835
 Alpha  occ. eigenvalues --   -0.51833  -0.51734  -0.51369  -0.51282  -0.50859
 Alpha  occ. eigenvalues --   -0.50444  -0.50319  -0.49838  -0.49095  -0.48788
 Alpha  occ. eigenvalues --   -0.48187  -0.47700  -0.47287  -0.46781  -0.46699
 Alpha  occ. eigenvalues --   -0.46248  -0.46051  -0.45595  -0.45506  -0.45213
 Alpha  occ. eigenvalues --   -0.45141  -0.45129  -0.44711  -0.44550  -0.43909
 Alpha  occ. eigenvalues --   -0.43759  -0.43706  -0.43198  -0.42890  -0.42775
 Alpha  occ. eigenvalues --   -0.42633  -0.42511  -0.42437  -0.42298  -0.42135
 Alpha  occ. eigenvalues --   -0.41924  -0.41456  -0.41137  -0.40938  -0.40697
 Alpha  occ. eigenvalues --   -0.40478  -0.40257  -0.39762  -0.39681  -0.39571
 Alpha  occ. eigenvalues --   -0.39328  -0.38978  -0.38783  -0.38589  -0.38355
 Alpha  occ. eigenvalues --   -0.38197  -0.38028  -0.37948  -0.37810  -0.37473
 Alpha  occ. eigenvalues --   -0.37050  -0.36370  -0.36300  -0.36148  -0.35681
 Alpha  occ. eigenvalues --   -0.35644  -0.35550  -0.35365  -0.35039  -0.34777
 Alpha  occ. eigenvalues --   -0.34360  -0.34340  -0.34195  -0.33964  -0.33870
 Alpha  occ. eigenvalues --   -0.33688  -0.33458  -0.32911  -0.32566  -0.31843
 Alpha  occ. eigenvalues --   -0.31264  -0.30010  -0.29536  -0.28570  -0.27787
 Alpha  occ. eigenvalues --   -0.27710  -0.27116  -0.26872  -0.26628  -0.26100
 Alpha  occ. eigenvalues --   -0.25761  -0.25645  -0.25611  -0.24953  -0.24688
 Alpha  occ. eigenvalues --   -0.24107  -0.24011  -0.23241  -0.23148  -0.22707
 Alpha  occ. eigenvalues --   -0.21302  -0.17116
 Alpha virt. eigenvalues --   -0.05363  -0.03749  -0.02878  -0.02786  -0.02108
 Alpha virt. eigenvalues --   -0.01744  -0.01436  -0.01344  -0.01310  -0.00883
 Alpha virt. eigenvalues --   -0.00296  -0.00040   0.00374   0.01002   0.02185
 Alpha virt. eigenvalues --    0.03015   0.03414   0.03924   0.04427   0.04750
 Alpha virt. eigenvalues --    0.05294   0.05446   0.05588   0.05977   0.06110
 Alpha virt. eigenvalues --    0.06511   0.06716   0.06761   0.06898   0.07147
 Alpha virt. eigenvalues --    0.07526   0.07767   0.07961   0.08023   0.08458
 Alpha virt. eigenvalues --    0.08507   0.08730   0.08862   0.09026   0.09214
 Alpha virt. eigenvalues --    0.09287   0.09494   0.09796   0.10030   0.10155
 Alpha virt. eigenvalues --    0.10276   0.10480   0.10839   0.10918   0.11261
 Alpha virt. eigenvalues --    0.11283   0.11409   0.11607   0.11646   0.11840
 Alpha virt. eigenvalues --    0.12304   0.12385   0.12653   0.12827   0.12965
 Alpha virt. eigenvalues --    0.13055   0.13310   0.13421   0.13781   0.13937
 Alpha virt. eigenvalues --    0.14148   0.14394   0.14472   0.14752   0.15040
 Alpha virt. eigenvalues --    0.15148   0.15206   0.15657   0.15775   0.16013
 Alpha virt. eigenvalues --    0.16295   0.16382   0.16492   0.16592   0.16787
 Alpha virt. eigenvalues --    0.17108   0.17252   0.17418   0.17576   0.17843
 Alpha virt. eigenvalues --    0.18310   0.18546   0.18660   0.18851   0.19011
 Alpha virt. eigenvalues --    0.19082   0.19169   0.19549   0.19602   0.19735
 Alpha virt. eigenvalues --    0.20117   0.20169   0.20485   0.20594   0.20735
 Alpha virt. eigenvalues --    0.20849   0.20957   0.21272   0.21540   0.21577
 Alpha virt. eigenvalues --    0.21718   0.22086   0.22225   0.22418   0.22837
 Alpha virt. eigenvalues --    0.23176   0.23250   0.23329   0.23621   0.23864
 Alpha virt. eigenvalues --    0.23933   0.24056   0.24224   0.24305   0.24494
 Alpha virt. eigenvalues --    0.24728   0.24964   0.24997   0.25059   0.25116
 Alpha virt. eigenvalues --    0.25297   0.25548   0.25721   0.26009   0.26162
 Alpha virt. eigenvalues --    0.26486   0.26653   0.26797   0.26935   0.27024
 Alpha virt. eigenvalues --    0.27120   0.27390   0.27488   0.27601   0.27672
 Alpha virt. eigenvalues --    0.28035   0.28231   0.28308   0.28511   0.28711
 Alpha virt. eigenvalues --    0.28757   0.29034   0.29130   0.29439   0.29541
 Alpha virt. eigenvalues --    0.29682   0.29864   0.29907   0.30083   0.30129
 Alpha virt. eigenvalues --    0.30298   0.30632   0.30674   0.30833   0.30926
 Alpha virt. eigenvalues --    0.31113   0.31202   0.31382   0.31542   0.31885
 Alpha virt. eigenvalues --    0.31997   0.32274   0.32426   0.32519   0.32596
 Alpha virt. eigenvalues --    0.32934   0.33020   0.33162   0.33197   0.33464
 Alpha virt. eigenvalues --    0.33840   0.33854   0.34003   0.34167   0.34255
 Alpha virt. eigenvalues --    0.34371   0.34709   0.34837   0.35097   0.35232
 Alpha virt. eigenvalues --    0.35328   0.35545   0.35733   0.35800   0.35807
 Alpha virt. eigenvalues --    0.36240   0.36281   0.36393   0.36519   0.36658
 Alpha virt. eigenvalues --    0.36795   0.36969   0.37053   0.37142   0.37292
 Alpha virt. eigenvalues --    0.37370   0.37433   0.37511   0.37653   0.37786
 Alpha virt. eigenvalues --    0.38093   0.38101   0.38243   0.38414   0.38587
 Alpha virt. eigenvalues --    0.38729   0.38798   0.39010   0.39172   0.39334
 Alpha virt. eigenvalues --    0.39499   0.39639   0.39852   0.40010   0.40119
 Alpha virt. eigenvalues --    0.40357   0.40367   0.40690   0.40876   0.40993
 Alpha virt. eigenvalues --    0.41005   0.41155   0.41343   0.41517   0.41622
 Alpha virt. eigenvalues --    0.41994   0.42162   0.42391   0.42491   0.42687
 Alpha virt. eigenvalues --    0.42774   0.42908   0.43071   0.43259   0.43444
 Alpha virt. eigenvalues --    0.43597   0.43668   0.43674   0.43894   0.44122
 Alpha virt. eigenvalues --    0.44167   0.44225   0.44431   0.44687   0.44797
 Alpha virt. eigenvalues --    0.45000   0.45357   0.45543   0.45726   0.45787
 Alpha virt. eigenvalues --    0.45885   0.46034   0.46161   0.46272   0.46415
 Alpha virt. eigenvalues --    0.46901   0.46976   0.47146   0.47201   0.47368
 Alpha virt. eigenvalues --    0.47455   0.47722   0.47887   0.48000   0.48049
 Alpha virt. eigenvalues --    0.48268   0.48336   0.48450   0.48660   0.48831
 Alpha virt. eigenvalues --    0.49057   0.49275   0.49532   0.49651   0.49980
 Alpha virt. eigenvalues --    0.49996   0.50265   0.50468   0.50637   0.50697
 Alpha virt. eigenvalues --    0.51036   0.51128   0.51331   0.51634   0.51689
 Alpha virt. eigenvalues --    0.51906   0.51987   0.52119   0.52316   0.52514
 Alpha virt. eigenvalues --    0.52751   0.52947   0.53201   0.53328   0.53576
 Alpha virt. eigenvalues --    0.53775   0.53932   0.54234   0.54580   0.54728
 Alpha virt. eigenvalues --    0.54777   0.55077   0.55488   0.55727   0.56083
 Alpha virt. eigenvalues --    0.56221   0.56284   0.56534   0.56881   0.57116
 Alpha virt. eigenvalues --    0.57221   0.57335   0.57648   0.57892   0.58183
 Alpha virt. eigenvalues --    0.58303   0.58383   0.58757   0.58914   0.59249
 Alpha virt. eigenvalues --    0.59383   0.59629   0.59843   0.60250   0.60402
 Alpha virt. eigenvalues --    0.60782   0.60907   0.61050   0.61392   0.61751
 Alpha virt. eigenvalues --    0.61856   0.61964   0.62206   0.62446   0.62626
 Alpha virt. eigenvalues --    0.62857   0.62953   0.63273   0.63446   0.63558
 Alpha virt. eigenvalues --    0.63794   0.64050   0.64362   0.64412   0.64591
 Alpha virt. eigenvalues --    0.64702   0.64998   0.65112   0.65425   0.65483
 Alpha virt. eigenvalues --    0.65618   0.65809   0.65964   0.66255   0.66435
 Alpha virt. eigenvalues --    0.66757   0.66845   0.67156   0.67280   0.67427
 Alpha virt. eigenvalues --    0.67700   0.67786   0.67964   0.68185   0.68249
 Alpha virt. eigenvalues --    0.68545   0.68687   0.68867   0.69069   0.69253
 Alpha virt. eigenvalues --    0.69544   0.69612   0.69756   0.69878   0.70186
 Alpha virt. eigenvalues --    0.70259   0.70531   0.70872   0.70894   0.71153
 Alpha virt. eigenvalues --    0.71272   0.71341   0.71674   0.71938   0.72127
 Alpha virt. eigenvalues --    0.72244   0.72331   0.72755   0.73005   0.73253
 Alpha virt. eigenvalues --    0.73464   0.73552   0.73725   0.73876   0.74111
 Alpha virt. eigenvalues --    0.74183   0.74600   0.74772   0.74882   0.75064
 Alpha virt. eigenvalues --    0.75486   0.75703   0.76005   0.76072   0.76530
 Alpha virt. eigenvalues --    0.76721   0.76853   0.77027   0.77238   0.77704
 Alpha virt. eigenvalues --    0.77800   0.77910   0.78095   0.78172   0.78451
 Alpha virt. eigenvalues --    0.78693   0.78834   0.79175   0.79330   0.79505
 Alpha virt. eigenvalues --    0.79916   0.80071   0.80261   0.80378   0.80683
 Alpha virt. eigenvalues --    0.81021   0.81213   0.81286   0.81537   0.81652
 Alpha virt. eigenvalues --    0.81702   0.81937   0.82080   0.82474   0.82814
 Alpha virt. eigenvalues --    0.83039   0.83283   0.83425   0.83620   0.83841
 Alpha virt. eigenvalues --    0.84090   0.84425   0.84460   0.84748   0.84832
 Alpha virt. eigenvalues --    0.85183   0.85382   0.85731   0.85887   0.86161
 Alpha virt. eigenvalues --    0.86358   0.86445   0.86648   0.86995   0.87115
 Alpha virt. eigenvalues --    0.87271   0.87485   0.87639   0.88127   0.88302
 Alpha virt. eigenvalues --    0.88463   0.88521   0.89082   0.89182   0.89399
 Alpha virt. eigenvalues --    0.89615   0.89813   0.90239   0.90427   0.90723
 Alpha virt. eigenvalues --    0.90786   0.90857   0.91108   0.91312   0.91609
 Alpha virt. eigenvalues --    0.91739   0.91942   0.92149   0.92203   0.92413
 Alpha virt. eigenvalues --    0.92793   0.92937   0.93250   0.93507   0.94013
 Alpha virt. eigenvalues --    0.94098   0.94149   0.94482   0.94804   0.94922
 Alpha virt. eigenvalues --    0.95143   0.95400   0.95430   0.95747   0.95870
 Alpha virt. eigenvalues --    0.96145   0.96421   0.96605   0.96817   0.97065
 Alpha virt. eigenvalues --    0.97195   0.97560   0.97747   0.97961   0.98206
 Alpha virt. eigenvalues --    0.98452   0.98639   0.98753   0.99127   0.99240
 Alpha virt. eigenvalues --    0.99478   0.99824   1.00034   1.00330   1.00711
 Alpha virt. eigenvalues --    1.00906   1.01048   1.01341   1.01608   1.01715
 Alpha virt. eigenvalues --    1.01887   1.02161   1.02252   1.02591   1.02899
 Alpha virt. eigenvalues --    1.02927   1.03340   1.03688   1.03790   1.04089
 Alpha virt. eigenvalues --    1.04526   1.04615   1.04737   1.04833   1.04895
 Alpha virt. eigenvalues --    1.05168   1.05386   1.05580   1.05899   1.06157
 Alpha virt. eigenvalues --    1.06499   1.06562   1.06787   1.06859   1.07269
 Alpha virt. eigenvalues --    1.07496   1.07747   1.07807   1.07915   1.08120
 Alpha virt. eigenvalues --    1.08194   1.08483   1.08595   1.08928   1.08977
 Alpha virt. eigenvalues --    1.09034   1.09167   1.09476   1.09593   1.09767
 Alpha virt. eigenvalues --    1.10089   1.10246   1.10595   1.10737   1.11061
 Alpha virt. eigenvalues --    1.11106   1.11323   1.11541   1.11775   1.12127
 Alpha virt. eigenvalues --    1.12278   1.12501   1.12616   1.12745   1.13103
 Alpha virt. eigenvalues --    1.13318   1.13441   1.13539   1.14043   1.14094
 Alpha virt. eigenvalues --    1.14208   1.14662   1.14734   1.15051   1.15095
 Alpha virt. eigenvalues --    1.15279   1.15378   1.15808   1.15965   1.16160
 Alpha virt. eigenvalues --    1.16349   1.16509   1.16805   1.16988   1.17147
 Alpha virt. eigenvalues --    1.17507   1.17661   1.17757   1.18238   1.18322
 Alpha virt. eigenvalues --    1.18627   1.19050   1.19073   1.19243   1.19452
 Alpha virt. eigenvalues --    1.19748   1.19885   1.20124   1.20131   1.20486
 Alpha virt. eigenvalues --    1.20695   1.21123   1.21170   1.21235   1.21467
 Alpha virt. eigenvalues --    1.21973   1.22135   1.22376   1.22512   1.22656
 Alpha virt. eigenvalues --    1.22898   1.22987   1.23307   1.23434   1.23679
 Alpha virt. eigenvalues --    1.23845   1.24236   1.24453   1.24603   1.24785
 Alpha virt. eigenvalues --    1.24978   1.25153   1.25290   1.25661   1.25798
 Alpha virt. eigenvalues --    1.26111   1.26308   1.26523   1.26593   1.26757
 Alpha virt. eigenvalues --    1.27055   1.27309   1.27391   1.27720   1.27858
 Alpha virt. eigenvalues --    1.27980   1.28154   1.28273   1.28636   1.28780
 Alpha virt. eigenvalues --    1.29013   1.29212   1.29328   1.29451   1.29866
 Alpha virt. eigenvalues --    1.29981   1.30204   1.30494   1.30558   1.30891
 Alpha virt. eigenvalues --    1.30953   1.31289   1.31365   1.31620   1.31703
 Alpha virt. eigenvalues --    1.31887   1.32023   1.32189   1.32322   1.32494
 Alpha virt. eigenvalues --    1.32851   1.32920   1.33154   1.33467   1.33474
 Alpha virt. eigenvalues --    1.33573   1.33708   1.34175   1.34274   1.34421
 Alpha virt. eigenvalues --    1.34822   1.34941   1.35062   1.35389   1.35454
 Alpha virt. eigenvalues --    1.35657   1.35816   1.36029   1.36276   1.36441
 Alpha virt. eigenvalues --    1.36650   1.36813   1.37073   1.37319   1.37491
 Alpha virt. eigenvalues --    1.37824   1.37944   1.38025   1.38087   1.38241
 Alpha virt. eigenvalues --    1.38504   1.39038   1.39116   1.39329   1.39598
 Alpha virt. eigenvalues --    1.39875   1.40285   1.40452   1.40588   1.40727
 Alpha virt. eigenvalues --    1.40886   1.41199   1.41454   1.41608   1.41812
 Alpha virt. eigenvalues --    1.41980   1.42168   1.42386   1.42795   1.42978
 Alpha virt. eigenvalues --    1.43052   1.43427   1.43591   1.43790   1.43982
 Alpha virt. eigenvalues --    1.44127   1.44347   1.44373   1.44744   1.44993
 Alpha virt. eigenvalues --    1.45110   1.45169   1.45443   1.45749   1.45903
 Alpha virt. eigenvalues --    1.46223   1.46567   1.46642   1.46786   1.47277
 Alpha virt. eigenvalues --    1.47319   1.47525   1.47616   1.47836   1.48291
 Alpha virt. eigenvalues --    1.48587   1.48758   1.48922   1.49021   1.49267
 Alpha virt. eigenvalues --    1.49657   1.49964   1.50126   1.50571   1.50925
 Alpha virt. eigenvalues --    1.51089   1.51541   1.51718   1.51943   1.52132
 Alpha virt. eigenvalues --    1.52308   1.52367   1.52697   1.52743   1.53298
 Alpha virt. eigenvalues --    1.53412   1.53903   1.54106   1.54160   1.54459
 Alpha virt. eigenvalues --    1.54683   1.54894   1.55274   1.55643   1.55843
 Alpha virt. eigenvalues --    1.56003   1.56289   1.56630   1.56889   1.57235
 Alpha virt. eigenvalues --    1.57395   1.57609   1.57727   1.57864   1.58185
 Alpha virt. eigenvalues --    1.58565   1.58805   1.58979   1.59191   1.59344
 Alpha virt. eigenvalues --    1.59583   1.59786   1.59925   1.60323   1.60444
 Alpha virt. eigenvalues --    1.60606   1.60952   1.61355   1.61716   1.61863
 Alpha virt. eigenvalues --    1.61952   1.62020   1.62308   1.62480   1.62946
 Alpha virt. eigenvalues --    1.63164   1.63318   1.63503   1.63681   1.64013
 Alpha virt. eigenvalues --    1.64137   1.64489   1.64775   1.64861   1.64986
 Alpha virt. eigenvalues --    1.65562   1.65678   1.65908   1.66021   1.66075
 Alpha virt. eigenvalues --    1.66314   1.66638   1.66989   1.67175   1.67429
 Alpha virt. eigenvalues --    1.67517   1.67731   1.67834   1.67999   1.68216
 Alpha virt. eigenvalues --    1.68633   1.68700   1.68975   1.69265   1.69455
 Alpha virt. eigenvalues --    1.69811   1.69941   1.70137   1.70290   1.70802
 Alpha virt. eigenvalues --    1.70893   1.70966   1.71487   1.71674   1.72081
 Alpha virt. eigenvalues --    1.72224   1.72870   1.73076   1.73402   1.73522
 Alpha virt. eigenvalues --    1.73946   1.74174   1.74335   1.74523   1.74617
 Alpha virt. eigenvalues --    1.74903   1.75135   1.75332   1.75759   1.75977
 Alpha virt. eigenvalues --    1.76084   1.76802   1.76866   1.76955   1.77104
 Alpha virt. eigenvalues --    1.77664   1.77801   1.78096   1.78364   1.78707
 Alpha virt. eigenvalues --    1.78899   1.78969   1.79201   1.79564   1.79770
 Alpha virt. eigenvalues --    1.80029   1.80188   1.80572   1.81144   1.81449
 Alpha virt. eigenvalues --    1.81691   1.81881   1.82198   1.82321   1.82940
 Alpha virt. eigenvalues --    1.83206   1.83431   1.83688   1.84190   1.84425
 Alpha virt. eigenvalues --    1.84860   1.85136   1.85461   1.85815   1.86359
 Alpha virt. eigenvalues --    1.86665   1.86768   1.87252   1.87475   1.87899
 Alpha virt. eigenvalues --    1.88340   1.88443   1.88949   1.89629   1.89902
 Alpha virt. eigenvalues --    1.90306   1.90370   1.90693   1.91252   1.91888
 Alpha virt. eigenvalues --    1.92027   1.92529   1.92910   1.93503   1.94114
 Alpha virt. eigenvalues --    1.94234   1.94543   1.94756   1.95091   1.95308
 Alpha virt. eigenvalues --    1.95845   1.96372   1.96524   1.97073   1.97315
 Alpha virt. eigenvalues --    1.97576   1.97856   1.98070   1.98530   1.98758
 Alpha virt. eigenvalues --    1.98943   1.99240   1.99800   1.99937   2.00141
 Alpha virt. eigenvalues --    2.00573   2.00811   2.01202   2.01465   2.01826
 Alpha virt. eigenvalues --    2.02116   2.02432   2.02637   2.03181   2.03325
 Alpha virt. eigenvalues --    2.03589   2.03911   2.04313   2.04755   2.04837
 Alpha virt. eigenvalues --    2.04939   2.05365   2.05595   2.05792   2.06446
 Alpha virt. eigenvalues --    2.06514   2.07157   2.07265   2.07435   2.07966
 Alpha virt. eigenvalues --    2.08179   2.08445   2.08631   2.08794   2.09113
 Alpha virt. eigenvalues --    2.09704   2.09917   2.10249   2.10608   2.11003
 Alpha virt. eigenvalues --    2.11093   2.11559   2.11878   2.12258   2.12426
 Alpha virt. eigenvalues --    2.12733   2.12927   2.13394   2.13817   2.14364
 Alpha virt. eigenvalues --    2.14829   2.15211   2.15356   2.15542   2.16300
 Alpha virt. eigenvalues --    2.16725   2.16996   2.17574   2.17988   2.18345
 Alpha virt. eigenvalues --    2.18512   2.18915   2.19328   2.19605   2.20122
 Alpha virt. eigenvalues --    2.20211   2.20956   2.21231   2.21321   2.21608
 Alpha virt. eigenvalues --    2.21865   2.22310   2.22665   2.22789   2.23458
 Alpha virt. eigenvalues --    2.23938   2.24452   2.24923   2.25256   2.25406
 Alpha virt. eigenvalues --    2.26195   2.26317   2.26626   2.26759   2.26858
 Alpha virt. eigenvalues --    2.27203   2.27725   2.28201   2.28566   2.28699
 Alpha virt. eigenvalues --    2.29103   2.29391   2.29810   2.30090   2.30217
 Alpha virt. eigenvalues --    2.30565   2.31059   2.31215   2.31551   2.31905
 Alpha virt. eigenvalues --    2.32204   2.32268   2.32727   2.33100   2.33558
 Alpha virt. eigenvalues --    2.33797   2.33977   2.34293   2.34663   2.34800
 Alpha virt. eigenvalues --    2.35144   2.35258   2.35708   2.36077   2.36439
 Alpha virt. eigenvalues --    2.36992   2.37238   2.37504   2.38046   2.38384
 Alpha virt. eigenvalues --    2.39004   2.39142   2.39592   2.40148   2.40398
 Alpha virt. eigenvalues --    2.40671   2.41277   2.41723   2.42054   2.42458
 Alpha virt. eigenvalues --    2.42687   2.43221   2.43482   2.43953   2.44270
 Alpha virt. eigenvalues --    2.44681   2.45000   2.45461   2.45912   2.46107
 Alpha virt. eigenvalues --    2.46621   2.47327   2.47719   2.48113   2.48708
 Alpha virt. eigenvalues --    2.48829   2.49160   2.49609   2.50017   2.50322
 Alpha virt. eigenvalues --    2.50702   2.51222   2.51613   2.52238   2.52432
 Alpha virt. eigenvalues --    2.52919   2.53201   2.53352   2.53912   2.54171
 Alpha virt. eigenvalues --    2.54847   2.55059   2.55260   2.56050   2.56591
 Alpha virt. eigenvalues --    2.56934   2.57425   2.57757   2.58079   2.58411
 Alpha virt. eigenvalues --    2.58965   2.59607   2.59696   2.60087   2.61293
 Alpha virt. eigenvalues --    2.61900   2.62097   2.62800   2.62929   2.63384
 Alpha virt. eigenvalues --    2.63505   2.64161   2.64444   2.64801   2.65198
 Alpha virt. eigenvalues --    2.65839   2.66279   2.66410   2.66516   2.66745
 Alpha virt. eigenvalues --    2.67397   2.67909   2.68114   2.68139   2.68582
 Alpha virt. eigenvalues --    2.68769   2.68995   2.69220   2.69350   2.69599
 Alpha virt. eigenvalues --    2.69721   2.69936   2.70144   2.70375   2.70553
 Alpha virt. eigenvalues --    2.70757   2.71064   2.71236   2.71393   2.71506
 Alpha virt. eigenvalues --    2.71745   2.71962   2.72116   2.72384   2.72418
 Alpha virt. eigenvalues --    2.72613   2.72796   2.72926   2.73079   2.73526
 Alpha virt. eigenvalues --    2.73624   2.73800   2.73877   2.74344   2.74578
 Alpha virt. eigenvalues --    2.74677   2.74965   2.75101   2.75532   2.75673
 Alpha virt. eigenvalues --    2.75765   2.76071   2.76151   2.76710   2.76720
 Alpha virt. eigenvalues --    2.77306   2.77368   2.77627   2.77795   2.77916
 Alpha virt. eigenvalues --    2.78037   2.78537   2.78611   2.78783   2.78836
 Alpha virt. eigenvalues --    2.79202   2.79415   2.79629   2.79925   2.80278
 Alpha virt. eigenvalues --    2.80348   2.80707   2.80838   2.80912   2.81212
 Alpha virt. eigenvalues --    2.81463   2.81855   2.82089   2.82191   2.82419
 Alpha virt. eigenvalues --    2.82676   2.82899   2.83072   2.83447   2.83811
 Alpha virt. eigenvalues --    2.83988   2.84298   2.84544   2.84964   2.85305
 Alpha virt. eigenvalues --    2.85511   2.85628   2.85955   2.86108   2.86505
 Alpha virt. eigenvalues --    2.86721   2.86755   2.87153   2.87530   2.87985
 Alpha virt. eigenvalues --    2.88132   2.88477   2.88611   2.88837   2.89160
 Alpha virt. eigenvalues --    2.89638   2.89751   2.90055   2.90093   2.90513
 Alpha virt. eigenvalues --    2.90783   2.91110   2.91383   2.91728   2.91823
 Alpha virt. eigenvalues --    2.92241   2.92599   2.92683   2.92849   2.93215
 Alpha virt. eigenvalues --    2.93313   2.93611   2.93971   2.94014   2.94268
 Alpha virt. eigenvalues --    2.94548   2.94621   2.94862   2.95107   2.95248
 Alpha virt. eigenvalues --    2.95626   2.95710   2.96003   2.96025   2.96368
 Alpha virt. eigenvalues --    2.96689   2.96767   2.97004   2.97181   2.97319
 Alpha virt. eigenvalues --    2.97409   2.97633   2.97834   2.98263   2.98501
 Alpha virt. eigenvalues --    2.98892   2.99007   2.99055   2.99252   2.99350
 Alpha virt. eigenvalues --    2.99761   2.99796   2.99959   3.00184   3.00411
 Alpha virt. eigenvalues --    3.00483   3.00719   3.00908   3.00981   3.01344
 Alpha virt. eigenvalues --    3.01524   3.01731   3.01823   3.01942   3.02133
 Alpha virt. eigenvalues --    3.02325   3.02626   3.02752   3.02806   3.03062
 Alpha virt. eigenvalues --    3.03212   3.03279   3.03607   3.03774   3.04026
 Alpha virt. eigenvalues --    3.04244   3.04353   3.04503   3.04682   3.04949
 Alpha virt. eigenvalues --    3.05013   3.05050   3.05474   3.05807   3.06018
 Alpha virt. eigenvalues --    3.06064   3.06218   3.06475   3.06779   3.06876
 Alpha virt. eigenvalues --    3.07109   3.07142   3.07413   3.07583   3.07763
 Alpha virt. eigenvalues --    3.07907   3.08041   3.08464   3.08621   3.08839
 Alpha virt. eigenvalues --    3.09125   3.09292   3.09505   3.09684   3.09902
 Alpha virt. eigenvalues --    3.10229   3.10365   3.10565   3.10691   3.10828
 Alpha virt. eigenvalues --    3.11075   3.11193   3.11480   3.11845   3.12089
 Alpha virt. eigenvalues --    3.12291   3.12525   3.12734   3.12839   3.13079
 Alpha virt. eigenvalues --    3.13398   3.13529   3.13771   3.13890   3.14224
 Alpha virt. eigenvalues --    3.14595   3.14769   3.14912   3.15012   3.15270
 Alpha virt. eigenvalues --    3.15426   3.15642   3.15743   3.16203   3.16335
 Alpha virt. eigenvalues --    3.16565   3.16608   3.17012   3.17209   3.17425
 Alpha virt. eigenvalues --    3.17540   3.17686   3.17888   3.18092   3.18178
 Alpha virt. eigenvalues --    3.18412   3.18577   3.18801   3.19073   3.19382
 Alpha virt. eigenvalues --    3.19585   3.19692   3.20129   3.20398   3.20553
 Alpha virt. eigenvalues --    3.20657   3.20769   3.20874   3.21207   3.21615
 Alpha virt. eigenvalues --    3.21847   3.22119   3.22215   3.22343   3.22540
 Alpha virt. eigenvalues --    3.22785   3.23040   3.23303   3.23636   3.23781
 Alpha virt. eigenvalues --    3.23861   3.24038   3.24256   3.24638   3.24847
 Alpha virt. eigenvalues --    3.25075   3.25222   3.25386   3.25762   3.25808
 Alpha virt. eigenvalues --    3.26067   3.26258   3.26401   3.26560   3.26624
 Alpha virt. eigenvalues --    3.26865   3.27167   3.27412   3.27738   3.27888
 Alpha virt. eigenvalues --    3.27965   3.28103   3.28188   3.28608   3.29053
 Alpha virt. eigenvalues --    3.29161   3.29262   3.29361   3.29600   3.29803
 Alpha virt. eigenvalues --    3.30007   3.30336   3.30377   3.30741   3.30803
 Alpha virt. eigenvalues --    3.31011   3.31165   3.31317   3.31480   3.31611
 Alpha virt. eigenvalues --    3.31991   3.32132   3.32405   3.32534   3.32668
 Alpha virt. eigenvalues --    3.32810   3.33052   3.33358   3.33567   3.33878
 Alpha virt. eigenvalues --    3.34098   3.34345   3.34443   3.34548   3.34806
 Alpha virt. eigenvalues --    3.34893   3.35158   3.35357   3.35383   3.35728
 Alpha virt. eigenvalues --    3.35794   3.36242   3.36315   3.36503   3.36681
 Alpha virt. eigenvalues --    3.37038   3.37143   3.37230   3.37398   3.37663
 Alpha virt. eigenvalues --    3.37995   3.38139   3.38268   3.38435   3.38796
 Alpha virt. eigenvalues --    3.38894   3.39205   3.39291   3.39457   3.39654
 Alpha virt. eigenvalues --    3.39991   3.40110   3.40214   3.40445   3.40623
 Alpha virt. eigenvalues --    3.40891   3.40931   3.41199   3.41379   3.41617
 Alpha virt. eigenvalues --    3.41903   3.42149   3.42244   3.42451   3.42633
 Alpha virt. eigenvalues --    3.42955   3.43143   3.43436   3.43481   3.43656
 Alpha virt. eigenvalues --    3.43900   3.44073   3.44507   3.44596   3.44774
 Alpha virt. eigenvalues --    3.45087   3.45183   3.45551   3.45713   3.46014
 Alpha virt. eigenvalues --    3.46198   3.46304   3.46524   3.46720   3.46962
 Alpha virt. eigenvalues --    3.47205   3.47536   3.47667   3.47797   3.47938
 Alpha virt. eigenvalues --    3.48257   3.48448   3.48790   3.48975   3.49099
 Alpha virt. eigenvalues --    3.49299   3.49435   3.49828   3.49962   3.50181
 Alpha virt. eigenvalues --    3.50362   3.50716   3.50871   3.50999   3.51166
 Alpha virt. eigenvalues --    3.51298   3.51411   3.51590   3.51862   3.51896
 Alpha virt. eigenvalues --    3.52296   3.52472   3.52759   3.53074   3.53190
 Alpha virt. eigenvalues --    3.53294   3.53602   3.53811   3.54033   3.54253
 Alpha virt. eigenvalues --    3.54430   3.54629   3.54960   3.55249   3.55390
 Alpha virt. eigenvalues --    3.55552   3.55660   3.55858   3.56170   3.56258
 Alpha virt. eigenvalues --    3.56839   3.57195   3.57399   3.57752   3.57910
 Alpha virt. eigenvalues --    3.57926   3.58212   3.58319   3.58596   3.58696
 Alpha virt. eigenvalues --    3.59311   3.59516   3.59835   3.60008   3.60236
 Alpha virt. eigenvalues --    3.60578   3.61130   3.61496   3.61629   3.61843
 Alpha virt. eigenvalues --    3.62112   3.62559   3.62694   3.62880   3.63248
 Alpha virt. eigenvalues --    3.63687   3.63745   3.64108   3.64695   3.64831
 Alpha virt. eigenvalues --    3.65198   3.65499   3.65535   3.65701   3.65921
 Alpha virt. eigenvalues --    3.66387   3.66585   3.66780   3.67234   3.67512
 Alpha virt. eigenvalues --    3.67781   3.68118   3.68451   3.68599   3.68719
 Alpha virt. eigenvalues --    3.68959   3.69149   3.69482   3.69593   3.69758
 Alpha virt. eigenvalues --    3.69846   3.70484   3.70634   3.70715   3.70973
 Alpha virt. eigenvalues --    3.71169   3.71602   3.71699   3.71846   3.71969
 Alpha virt. eigenvalues --    3.72372   3.72536   3.72719   3.73033   3.73196
 Alpha virt. eigenvalues --    3.73256   3.73406   3.73670   3.73883   3.74189
 Alpha virt. eigenvalues --    3.74355   3.74401   3.74609   3.74711   3.74935
 Alpha virt. eigenvalues --    3.75234   3.75306   3.75684   3.75882   3.76016
 Alpha virt. eigenvalues --    3.76158   3.76419   3.76538   3.76773   3.76898
 Alpha virt. eigenvalues --    3.77289   3.77613   3.77776   3.77833   3.78192
 Alpha virt. eigenvalues --    3.78340   3.78543   3.78828   3.78993   3.79240
 Alpha virt. eigenvalues --    3.79405   3.79801   3.79823   3.80017   3.80317
 Alpha virt. eigenvalues --    3.80461   3.80613   3.80849   3.81126   3.81594
 Alpha virt. eigenvalues --    3.81647   3.82115   3.82376   3.82591   3.82735
 Alpha virt. eigenvalues --    3.83057   3.83260   3.83424   3.83509   3.83751
 Alpha virt. eigenvalues --    3.84137   3.84348   3.84769   3.84919   3.85107
 Alpha virt. eigenvalues --    3.85216   3.85469   3.85795   3.85919   3.86133
 Alpha virt. eigenvalues --    3.86367   3.86909   3.87006   3.87117   3.87459
 Alpha virt. eigenvalues --    3.87648   3.87788   3.88109   3.88331   3.88722
 Alpha virt. eigenvalues --    3.88965   3.89240   3.89409   3.89730   3.89878
 Alpha virt. eigenvalues --    3.90175   3.90494   3.90669   3.90886   3.91308
 Alpha virt. eigenvalues --    3.91643   3.91694   3.92186   3.92482   3.92541
 Alpha virt. eigenvalues --    3.92673   3.92983   3.93258   3.93780   3.93984
 Alpha virt. eigenvalues --    3.94281   3.94449   3.94506   3.94948   3.95409
 Alpha virt. eigenvalues --    3.95556   3.95939   3.96038   3.96271   3.96595
 Alpha virt. eigenvalues --    3.97133   3.97231   3.97495   3.97575   3.97744
 Alpha virt. eigenvalues --    3.98049   3.98184   3.98478   3.98874   3.99068
 Alpha virt. eigenvalues --    3.99411   3.99506   4.00149   4.00321   4.00689
 Alpha virt. eigenvalues --    4.01015   4.01142   4.01647   4.02038   4.02220
 Alpha virt. eigenvalues --    4.02426   4.02843   4.03099   4.03141   4.03593
 Alpha virt. eigenvalues --    4.03888   4.04234   4.04489   4.04852   4.05036
 Alpha virt. eigenvalues --    4.05525   4.05773   4.05935   4.06080   4.06486
 Alpha virt. eigenvalues --    4.06979   4.07145   4.07325   4.07533   4.07722
 Alpha virt. eigenvalues --    4.07984   4.08401   4.08611   4.09074   4.09171
 Alpha virt. eigenvalues --    4.09431   4.09595   4.09820   4.10176   4.10488
 Alpha virt. eigenvalues --    4.10577   4.10958   4.11008   4.11336   4.11433
 Alpha virt. eigenvalues --    4.11582   4.11881   4.12032   4.12229   4.12468
 Alpha virt. eigenvalues --    4.12759   4.12921   4.13244   4.13600   4.13693
 Alpha virt. eigenvalues --    4.13932   4.14064   4.14314   4.14383   4.14705
 Alpha virt. eigenvalues --    4.14949   4.15051   4.15498   4.15822   4.16089
 Alpha virt. eigenvalues --    4.16273   4.16669   4.16710   4.16848   4.17115
 Alpha virt. eigenvalues --    4.17320   4.17421   4.17775   4.18091   4.18300
 Alpha virt. eigenvalues --    4.18680   4.18825   4.19013   4.19107   4.19433
 Alpha virt. eigenvalues --    4.19486   4.19747   4.19990   4.20299   4.20526
 Alpha virt. eigenvalues --    4.20729   4.20817   4.21025   4.21184   4.21438
 Alpha virt. eigenvalues --    4.21670   4.21722   4.21991   4.22110   4.22196
 Alpha virt. eigenvalues --    4.22448   4.22781   4.23120   4.23266   4.23315
 Alpha virt. eigenvalues --    4.23677   4.23772   4.23902   4.24350   4.24434
 Alpha virt. eigenvalues --    4.24532   4.24840   4.24939   4.25115   4.25206
 Alpha virt. eigenvalues --    4.25421   4.25711   4.25979   4.26294   4.26356
 Alpha virt. eigenvalues --    4.26586   4.26750   4.26941   4.27018   4.27440
 Alpha virt. eigenvalues --    4.27514   4.27796   4.28229   4.28418   4.28558
 Alpha virt. eigenvalues --    4.28792   4.28883   4.29323   4.29710   4.29745
 Alpha virt. eigenvalues --    4.29983   4.30114   4.30417   4.30603   4.30928
 Alpha virt. eigenvalues --    4.31095   4.31291   4.31592   4.31752   4.31983
 Alpha virt. eigenvalues --    4.32202   4.32508   4.32762   4.33064   4.33318
 Alpha virt. eigenvalues --    4.33479   4.33631   4.34389   4.34759   4.34973
 Alpha virt. eigenvalues --    4.35183   4.35448   4.35598   4.35796   4.36169
 Alpha virt. eigenvalues --    4.36988   4.37266   4.37636   4.37751   4.38058
 Alpha virt. eigenvalues --    4.38317   4.38863   4.39205   4.39536   4.39878
 Alpha virt. eigenvalues --    4.40135   4.40448   4.40827   4.40945   4.41108
 Alpha virt. eigenvalues --    4.41440   4.41809   4.42100   4.42630   4.42995
 Alpha virt. eigenvalues --    4.43141   4.43505   4.43701   4.43840   4.44152
 Alpha virt. eigenvalues --    4.44809   4.44920   4.45383   4.45856   4.46104
 Alpha virt. eigenvalues --    4.46454   4.47067   4.47174   4.47453   4.47743
 Alpha virt. eigenvalues --    4.48134   4.48389   4.48683   4.49149   4.49546
 Alpha virt. eigenvalues --    4.49933   4.50329   4.50604   4.50855   4.51534
 Alpha virt. eigenvalues --    4.51646   4.51893   4.52142   4.52317   4.53214
 Alpha virt. eigenvalues --    4.53859   4.54414   4.54634   4.54838   4.55176
 Alpha virt. eigenvalues --    4.55495   4.55622   4.55944   4.56350   4.56520
 Alpha virt. eigenvalues --    4.56982   4.57536   4.57662   4.58187   4.58538
 Alpha virt. eigenvalues --    4.58776   4.58995   4.59198   4.59581   4.59774
 Alpha virt. eigenvalues --    4.60001   4.60569   4.60953   4.61085   4.61331
 Alpha virt. eigenvalues --    4.61716   4.61827   4.62035   4.62513   4.63242
 Alpha virt. eigenvalues --    4.63351   4.63736   4.64158   4.64280   4.64310
 Alpha virt. eigenvalues --    4.64757   4.64989   4.65132   4.65335   4.65507
 Alpha virt. eigenvalues --    4.65983   4.66208   4.66421   4.66715   4.66928
 Alpha virt. eigenvalues --    4.67197   4.67436   4.67681   4.68015   4.68159
 Alpha virt. eigenvalues --    4.68775   4.69192   4.69484   4.69828   4.69973
 Alpha virt. eigenvalues --    4.70181   4.70606   4.70745   4.71005   4.71194
 Alpha virt. eigenvalues --    4.71605   4.71795   4.71931   4.72337   4.72436
 Alpha virt. eigenvalues --    4.72575   4.72796   4.73275   4.73451   4.73588
 Alpha virt. eigenvalues --    4.73888   4.74245   4.74331   4.74845   4.74908
 Alpha virt. eigenvalues --    4.75195   4.75671   4.76048   4.76388   4.76529
 Alpha virt. eigenvalues --    4.76850   4.76990   4.77615   4.77772   4.77905
 Alpha virt. eigenvalues --    4.78151   4.78331   4.78905   4.79242   4.79307
 Alpha virt. eigenvalues --    4.79552   4.80031   4.80160   4.80450   4.81274
 Alpha virt. eigenvalues --    4.81743   4.82325   4.82423   4.83170   4.83954
 Alpha virt. eigenvalues --    4.84485   4.84942   4.85303   4.85620   4.85770
 Alpha virt. eigenvalues --    4.86193   4.86911   4.87094   4.87308   4.87553
 Alpha virt. eigenvalues --    4.87943   4.88282   4.88362   4.88767   4.89294
 Alpha virt. eigenvalues --    4.89413   4.89606   4.89619   4.90378   4.90710
 Alpha virt. eigenvalues --    4.91009   4.91403   4.91775   4.92220   4.92805
 Alpha virt. eigenvalues --    4.93609   4.93787   4.94417   4.94911   4.95319
 Alpha virt. eigenvalues --    4.95852   4.96704   4.97236   4.97633   4.98227
 Alpha virt. eigenvalues --    4.98607   4.99549   4.99943   5.00180   5.00944
 Alpha virt. eigenvalues --    5.00986   5.01416   5.02074   5.02313   5.02567
 Alpha virt. eigenvalues --    5.02752   5.03634   5.04463   5.04715   5.05044
 Alpha virt. eigenvalues --    5.05147   5.05647   5.05901   5.06581   5.06976
 Alpha virt. eigenvalues --    5.07573   5.07793   5.08073   5.08270   5.08380
 Alpha virt. eigenvalues --    5.08890   5.09349   5.09717   5.10506   5.10811
 Alpha virt. eigenvalues --    5.11143   5.11813   5.12234   5.12655   5.13122
 Alpha virt. eigenvalues --    5.13148   5.13526   5.14107   5.14290   5.14396
 Alpha virt. eigenvalues --    5.14714   5.15686   5.16257   5.16398   5.16965
 Alpha virt. eigenvalues --    5.17232   5.17504   5.18070   5.18171   5.18813
 Alpha virt. eigenvalues --    5.19112   5.19602   5.19800   5.20230   5.20389
 Alpha virt. eigenvalues --    5.20650   5.21279   5.21506   5.21802   5.22272
 Alpha virt. eigenvalues --    5.22345   5.22682   5.22882   5.22933   5.23498
 Alpha virt. eigenvalues --    5.23792   5.23883   5.24265   5.24445   5.25021
 Alpha virt. eigenvalues --    5.25124   5.25666   5.25826   5.26088   5.26356
 Alpha virt. eigenvalues --    5.26558   5.26961   5.27121   5.27793   5.28251
 Alpha virt. eigenvalues --    5.28599   5.29113   5.29577   5.30139   5.30575
 Alpha virt. eigenvalues --    5.30958   5.31642   5.32148   5.32312   5.32612
 Alpha virt. eigenvalues --    5.33105   5.33622   5.33947   5.34257   5.34743
 Alpha virt. eigenvalues --    5.35331   5.35614   5.35802   5.36637   5.37213
 Alpha virt. eigenvalues --    5.37393   5.37897   5.38183   5.38523   5.39446
 Alpha virt. eigenvalues --    5.39587   5.40591   5.41106   5.41887   5.42051
 Alpha virt. eigenvalues --    5.43052   5.43775   5.44558   5.44796   5.45100
 Alpha virt. eigenvalues --    5.46204   5.46288   5.46589   5.47388   5.47900
 Alpha virt. eigenvalues --    5.48388   5.50252   5.50927   5.51653   5.52384
 Alpha virt. eigenvalues --    5.53184   5.53931   5.54464   5.55699   5.56571
 Alpha virt. eigenvalues --    5.57177   5.57307   5.58651   5.59283   5.59881
 Alpha virt. eigenvalues --    5.60315   5.60516   5.61187   5.61812   5.62372
 Alpha virt. eigenvalues --    5.62726   5.63357   5.63467   5.63653   5.64486
 Alpha virt. eigenvalues --    5.64915   5.65635   5.66160   5.66585   5.67166
 Alpha virt. eigenvalues --    5.67350   5.67743   5.68627   5.68826   5.69306
 Alpha virt. eigenvalues --    5.69605   5.70322   5.70884   5.71447   5.72138
 Alpha virt. eigenvalues --    5.72478   5.73934   5.74284   5.74651   5.75831
 Alpha virt. eigenvalues --    5.77373   5.78422   5.79939   5.81281   5.82206
 Alpha virt. eigenvalues --    5.82537   5.84427   5.85666   5.86069   5.86884
 Alpha virt. eigenvalues --    5.87704   5.88473   5.89095   5.90598   5.92308
 Alpha virt. eigenvalues --    5.92631   5.93870   5.95236   5.95793   5.96779
 Alpha virt. eigenvalues --    5.98164   5.98725   5.99329   6.00278   6.02323
 Alpha virt. eigenvalues --    6.04447   6.06285   6.08324   6.10041   6.10461
 Alpha virt. eigenvalues --    6.12630   6.15102   6.16191   6.19800   6.26369
 Alpha virt. eigenvalues --    6.30563   6.30880   6.44160   6.45962   6.52573
 Alpha virt. eigenvalues --    6.56050   6.57154   6.59870   6.60961   6.65174
 Alpha virt. eigenvalues --    6.65878   6.67812   6.87448   6.89778   6.97345
 Alpha virt. eigenvalues --    7.13595   7.15306   7.26420   7.37822   7.81237
 Alpha virt. eigenvalues --    8.14454   8.17896   8.26064   9.63734   9.71743
 Alpha virt. eigenvalues --    9.81756  11.56786  11.56987  11.57122  11.57383
 Alpha virt. eigenvalues --   11.57570  11.58619  11.59356  11.60756  11.60867
 Alpha virt. eigenvalues --   12.03726  12.04651  12.10586  12.17497  12.20703
 Alpha virt. eigenvalues --   12.24998  12.35185  16.46477  21.54737  22.77814
 Alpha virt. eigenvalues --   22.82853  22.86629  22.88453  22.90179  22.91395
 Alpha virt. eigenvalues --   22.96550  23.06431  23.06743  23.09337  23.11110
 Alpha virt. eigenvalues --   23.11258  23.12913  23.13216  23.15287  23.16482
 Alpha virt. eigenvalues --   23.17133  23.17519  23.18339  23.18499  23.19645
 Alpha virt. eigenvalues --   23.21399  23.21938  23.22169  23.23212  23.23454
 Alpha virt. eigenvalues --   23.25251  23.26658  23.28369  23.29076  23.30619
 Alpha virt. eigenvalues --   23.31342  23.32332  23.33871  23.35192  23.35886
 Alpha virt. eigenvalues --   23.40557  23.43053  23.50596  23.58946  23.60788
 Alpha virt. eigenvalues --   23.69279  23.69971  23.70352  23.73699  23.80942
 Alpha virt. eigenvalues --   23.90279  23.97407  24.01246  24.06513  24.09365
 Alpha virt. eigenvalues --   24.13086  24.17421  32.99728  44.19878
          Condensed to atoms (all electrons):
 Mulliken charges:
               1
     1  Ni   0.056235
     2  C   -0.055322
     3  C    0.271288
     4  P    0.217102
     5  S    0.484214
     6  C   -0.070043
     7  C    0.011303
     8  C   -0.590818
     9  H    0.013141
    10  H    0.270517
    11  H    0.279615
    12  C    0.248629
    13  C   -0.492569
    14  C   -0.366902
    15  C   -0.298562
    16  H    0.286446
    17  C   -0.256280
    18  H    0.262647
    19  C   -0.194922
    20  H    0.255242
    21  H    0.249957
    22  H    0.248418
    23  C    0.167349
    24  C   -0.390314
    25  C   -0.297667
    26  C   -0.235634
    27  H    0.270220
    28  C   -0.351820
    29  H    0.192699
    30  C   -0.166143
    31  H    0.250371
    32  H    0.272734
    33  H    0.249616
    34  C    0.200266
    35  C   -0.434779
    36  C   -0.462867
    37  C   -0.236879
    38  H    0.276616
    39  C   -0.223983
    40  H    0.268893
    41  C   -0.258935
    42  H    0.250398
    43  H    0.247969
    44  H    0.249799
    45  O   -0.538004
    46  C    0.170243
    47  C   -0.474920
    48  H    0.229710
    49  H    0.016017
    50  H    0.219080
    51  C   -0.652374
    52  H    0.216907
    53  H    0.211756
    54  H    0.212339
    55  C   -0.609466
    56  H    0.132368
    57  H    0.220394
    58  H    0.223756
    59  N   -0.027994
    60  C   -0.405200
    61  H    0.272213
    62  H    0.281662
    63  C    0.075292
    64  C   -0.327776
    65  C   -0.314724
    66  C   -0.212801
    67  H    0.265957
    68  C   -0.292741
    69  H    0.255779
    70  C   -0.091034
    71  H    0.226046
    72  H    0.281840
    73  C   -0.421327
    74  H    0.173160
    75  H    0.178330
    76  H    0.174878
    77  C   -0.313760
    78  C   -0.013068
    79  C   -0.390448
    80  C    0.016561
    81  C    0.229819
    82  H    0.217374
    83  H    0.228642
    84  H    0.222566
    85  C   -0.093389
    86  C   -0.373003
    87  C   -0.291529
    88  C   -0.268541
    89  H    0.304468
    90  H    0.267614
    91  H    0.248079
    92  C   -0.219494
    93  C   -0.202160
    94  C   -0.515464
    95  C   -0.180647
    96  C   -0.052035
    97  C   -0.189797
    98  H    0.240314
    99  H    0.009430
   100  H    0.215273
   101  H    0.248646
   102  C   -0.237623
   103  C   -0.269378
   104  H    0.219023
   105  H    0.240544
   106  H    0.304598
   107  C   -0.497076
   108  H    0.210629
   109  H    0.119890
   110  H    0.227333
 Sum of Mulliken charges =  -0.00000
 Mulliken charges with hydrogens summed into heavy atoms:
               1
     1  Ni   0.056235
     2  C   -0.055322
     3  C    0.271288
     4  P    0.217102
     5  S    0.484214
     6  C    0.148980
     7  C    0.024444
     8  C   -0.040686
    12  C    0.248629
    13  C   -0.206124
    14  C   -0.104255
    15  C   -0.043320
    17  C   -0.006322
    19  C    0.053496
    23  C    0.167349
    24  C   -0.120093
    25  C   -0.104968
    26  C    0.014736
    28  C   -0.079086
    30  C    0.083473
    34  C    0.200266
    35  C   -0.158162
    36  C   -0.193974
    37  C    0.013519
    39  C    0.023986
    41  C   -0.009136
    45  O   -0.538004
    46  C    0.170243
    47  C   -0.010113
    51  C   -0.011371
    55  C   -0.032949
    59  N   -0.027994
    60  C    0.148675
    63  C    0.075292
    64  C   -0.061819
    65  C   -0.058945
    66  C    0.013244
    68  C   -0.010902
    70  C   -0.091034
    73  C    0.105041
    77  C   -0.085117
    78  C    0.209498
    79  C   -0.390448
    80  C    0.016561
    81  C    0.229819
    85  C    0.123985
    86  C   -0.068535
    87  C   -0.023916
    88  C   -0.020462
    92  C    0.020820
    93  C   -0.192731
    94  C   -0.515464
    95  C   -0.180647
    96  C    0.163238
    97  C    0.058849
   102  C    0.002921
   103  C    0.035220
   107  C    0.060776
 Electronic spatial extent (au):  <R**2>=          31681.5608
 Charge=             -0.0000 electrons
 Dipole moment (field-independent basis, Debye):
    X=             -4.5466    Y=             -3.7802    Z=              6.7367  Tot=              8.9635
 Quadrupole moment (field-independent basis, Debye-Ang):
   XX=           -349.8314   YY=           -329.9102   ZZ=           -358.7549
   XY=            -16.8470   XZ=              1.4359   YZ=             -0.7350
 Traceless Quadrupole moment (field-independent basis, Debye-Ang):
   XX=             -3.6659   YY=             16.2553   ZZ=            -12.5894
   XY=            -16.8470   XZ=              1.4359   YZ=             -0.7350
 Octapole moment (field-independent basis, Debye-Ang**2):
  XXX=           -106.3885  YYY=            -61.0034  ZZZ=             67.0999  XYY=            -51.6349
  XXY=            -29.8067  XXZ=             75.9879  XZZ=             53.1507  YZZ=              3.8987
  YYZ=              2.8081  XYZ=             35.3213
 Hexadecapole moment (field-independent basis, Debye-Ang**3):
 XXXX=         -20256.7293 YYYY=         -12479.5146 ZZZZ=          -9741.0322 XXXY=           -489.1810
 XXXZ=           -392.2123 YYYX=           -108.4507 YYYZ=             29.1436 ZZZX=            122.9199
 ZZZY=             51.8993 XXYY=          -5276.4869 XXZZ=          -4878.0227 YYZZ=          -3764.0183
 XXYZ=              6.9445 YYXZ=            118.2870 ZZXY=            -86.1026
 N-N= 1.074528418505D+04 E-N=-3.191555152436D+04  KE= 4.412048644702D+03
 Unable to Open any file for archive entry.
 1\1\GINC-NODE20\SP\RM06\def2TZVPP\C53H52N1Ni1O1P1S1\LLG_HG\29-Nov-2023
 \0\\# m06/def2tzvpp scrf=(smd,solvent=n,n-dimethylformamide) em=gd3\\T
 itle Card Required\\0,1\Ni,0,1.162005,0.036339,-0.389774\C,0,2.2355,1.
 636814,-0.426626\C,0,2.925939,0.057895,-1.238697\P,0,-0.075974,0.33419
 9,1.37026\S,0,0.00821,-1.573258,-1.404312\C,0,5.244046,-1.111561,-2.45
 8567\C,0,-2.062071,-1.437173,0.558689\C,0,-0.996175,-1.243911,1.652515
 \H,0,-2.550872,-0.468126,0.406621\H,0,-0.289701,-2.07749,1.659139\H,0,
 -1.503142,-1.230633,2.620804\C,0,0.875605,0.589048,2.907977\C,0,1.2406
 5,1.895794,3.269138\C,0,1.379058,-0.489881,3.650163\C,0,2.091163,2.114
 218,4.350167\H,0,0.870645,2.73725,2.693455\C,0,2.233342,-0.266839,4.73
 0159\H,0,1.112608,-1.508238,3.385071\C,0,2.594073,1.03517,5.080284\H,0
 ,2.370375,3.129233,4.616289\H,0,2.616075,-1.11023,5.297221\H,0,3.26297
 9,1.207943,5.91777\C,0,-1.400802,1.593566,1.506336\C,0,-2.190902,1.696
 259,2.663829\C,0,-1.639547,2.455743,0.431702\C,0,-3.208837,2.642688,2.
 736528\H,0,-1.999551,1.042702,3.510098\C,0,-2.649824,3.416619,0.514558
 \H,0,-1.045669,2.37247,-0.467987\C,0,-3.435882,3.50876,1.660502\H,0,-3
 .818794,2.714794,3.632208\H,0,-2.816179,4.08512,-0.323383\H,0,-4.22298
 7,4.254684,1.723149\C,0,-3.128418,-2.38266,1.096314\C,0,-2.99991,-3.77
 1602,1.012474\C,0,-4.24334,-1.839447,1.743372\C,0,-3.970207,-4.605864,
 1.567986\H,0,-2.145867,-4.192451,0.493137\C,0,-5.212372,-2.671471,2.30
 3451\H,0,-4.35085,-0.759305,1.796282\C,0,-5.078876,-4.058514,2.21621\H
 ,0,-3.8623,-5.683918,1.491705\H,0,-6.075851,-2.23728,2.798815\H,0,-5.8
 35807,-4.707955,2.645427\O,0,-0.210409,-1.157505,-2.843546\C,0,0.68209
 5,-3.33962,-1.552976\C,0,1.958136,-3.219389,-2.39005\H,0,1.739476,-2.7
 90195,-3.369314\H,0,2.71081,-2.604809,-1.901235\H,0,2.377728,-4.221378
 ,-2.531241\C,0,-0.347286,-4.206034,-2.275234\H,0,0.088568,-5.197664,-2
 .438295\H,0,-1.260691,-4.326493,-1.690495\H,0,-0.596776,-3.782793,-3.2
 51127\C,0,0.970966,-3.853109,-0.145213\H,0,1.686725,-3.21434,0.377639\
 H,0,0.055204,-3.932855,0.445647\H,0,1.411871,-4.853315,-0.214813\N,0,-
 1.576775,-1.940611,-0.746704\C,0,-2.657253,-1.960632,-1.7699\H,0,-3.30
 8521,-2.809747,-1.544352\H,0,-2.188301,-2.136326,-2.736331\C,0,-3.4693
 57,-0.683654,-1.822722\C,0,-4.79424,-0.654511,-1.378595\C,0,-2.887614,
 0.507497,-2.272339\C,0,-5.51347,0.540863,-1.362016\H,0,-5.260083,-1.56
 93,-1.023747\C,0,-3.609163,1.696519,-2.256696\H,0,-1.862288,0.492855,-
 2.621262\C,0,-4.928465,1.738196,-1.787742\H,0,-6.539639,0.544986,-1.00
 2814\H,0,-3.130706,2.610516,-2.597599\C,0,-5.675606,3.044602,-1.697082
 \H,0,-5.490915,3.52697,-0.728871\H,0,-5.356463,3.744098,-2.475612\H,0,
 -6.755979,2.899865,-1.790201\C,0,2.993348,3.66386,0.693939\C,0,2.14076
 5,4.466477,-0.022493\C,0,1.331004,3.897224,-1.034755\C,0,1.416872,2.48
 7759,-1.283622\C,0,3.067888,2.25758,0.525311\H,0,0.382955,5.757845,-1.
 576898\H,0,3.632056,4.111934,1.451114\H,0,2.091027,5.535551,0.162703\C
 ,0,0.434591,4.694237,-1.795455\C,0,0.609727,1.963735,-2.333429\C,0,-0.
 243349,2.765779,-3.067108\C,0,-0.344983,4.146162,-2.789056\H,0,0.64787
 7,0.907721,-2.574578\H,0,-0.835852,2.324619,-3.862481\H,0,-1.020489,4.
 771219,-3.366151\C,0,4.165988,-2.279831,1.46419\C,0,3.410977,-1.346502
 ,0.791313\C,0,3.752274,-0.887542,-0.509605\C,0,4.913362,-1.465318,-1.1
 28127\C,0,5.681835,-2.421661,-0.406953\C,0,5.322184,-2.82463,0.857603\
 H,0,3.878297,-2.586525,2.465578\H,0,2.534058,-0.923728,1.266334\H,0,6.
 561011,-2.841997,-0.888613\H,0,5.920288,-3.558669,1.389565\C,0,4.44229
 3,-0.228925,-3.151215\C,0,3.310202,0.34815,-2.550167\H,0,6.12222,-1.55
 2872,-2.921139\H,0,4.684615,0.036163,-4.176725\H,0,2.736459,1.060933,-
 3.128634\C,0,4.066319,1.541452,1.399536\H,0,4.583739,2.263068,2.036802
 \H,0,3.607574,0.801111,2.055812\H,0,4.818336,1.016643,0.80273\\Version
 =ES64L-G16RevC.01\State=1-A\HF=-4427.9719662\RMSD=4.651e-09\Dipole=-1.
 7887762,-1.4872319,2.6504259\Quadrupole=-2.7254842,12.0854145,-9.35993
 03,-12.5253072,1.0675388,-0.546435\PG=C01 [X(C53H52N1Ni1O1P1S1)]\\@
 The archive entry for this job was punched.


  THE LARGE PRINT GIVETH,
  AND THE SMALL PRINT TAKETH AWAY.

                     -- TOM WAITS
 Job cpu time:       2 days 11 hours  7 minutes 49.3 seconds.
 Elapsed time:       0 days  1 hours 51 minutes 29.1 seconds.
 File lengths (MBytes):  RWF=   4327 Int=      0 D2E=      0 Chk=    386 Scr=      2
 Normal termination of Gaussian 16 at Wed Nov 29 07:09:30 2023.
