 Entering Gaussian System, Link 0=g16
 Input=anion_0167_opt_g16_nbo_sp.com
 Output=anion_0167_opt_g16_nbo_sp.log
 Initial command:
 /public/software/apps/Gaussian/g16/l1.exe "/public/home/TMJ_HG/tmp/Gau-72783.inp" -scrdir="/public/home/TMJ_HG/tmp/"
 Entering Link 1 = /public/software/apps/Gaussian/g16/l1.exe PID=     72784.
  
 Copyright (c) 1988-2019, Gaussian, Inc.  All Rights Reserved.
  
 This is part of the Gaussian(R) 16 program.  It is based on
 the Gaussian(R) 09 system (copyright 2009, Gaussian, Inc.),
 the Gaussian(R) 03 system (copyright 2003, Gaussian, Inc.),
 the Gaussian(R) 98 system (copyright 1998, Gaussian, Inc.),
 the Gaussian(R) 94 system (copyright 1995, Gaussian, Inc.),
 the Gaussian 92(TM) system (copyright 1992, Gaussian, Inc.),
 the Gaussian 90(TM) system (copyright 1990, Gaussian, Inc.),
 the Gaussian 88(TM) system (copyright 1988, Gaussian, Inc.),
 the Gaussian 86(TM) system (copyright 1986, Carnegie Mellon
 University), and the Gaussian 82(TM) system (copyright 1983,
 Carnegie Mellon University). Gaussian is a federally registered
 trademark of Gaussian, Inc.
  
 This software contains proprietary and confidential information,
 including trade secrets, belonging to Gaussian, Inc.
  
 This software is provided under written license and may be
 used, copied, transmitted, or stored only in accord with that
 written license.
  
 The following legend is applicable only to US Government
 contracts under FAR:
  
                    RESTRICTED RIGHTS LEGEND
  
 Use, reproduction and disclosure by the US Government is
 subject to restrictions as set forth in subparagraphs (a)
 and (c) of the Commercial Computer Software - Restricted
 Rights clause in FAR 52.227-19.
  
 Gaussian, Inc.
 340 Quinnipiac St., Bldg. 40, Wallingford CT 06492
  
  
 ---------------------------------------------------------------
 Warning -- This program may not be used in any manner that
 competes with the business of Gaussian, Inc. or will provide
 assistance to any competitor of Gaussian, Inc.  The licensee
 of this program is prohibited from giving any competitor of
 Gaussian, Inc. access to this program.  By using this program,
 the user acknowledges that Gaussian, Inc. is engaged in the
 business of creating and licensing software in the field of
 computational chemistry and represents and warrants to the
 licensee that it is not a competitor of Gaussian, Inc. and that
 it will not use this program in any manner prohibited above.
 ---------------------------------------------------------------
  

 Cite this work as:
 Gaussian 16, Revision C.01,
 M. J. Frisch, G. W. Trucks, H. B. Schlegel, G. E. Scuseria, 
 M. A. Robb, J. R. Cheeseman, G. Scalmani, V. Barone, 
 G. A. Petersson, H. Nakatsuji, X. Li, M. Caricato, A. V. Marenich, 
 J. Bloino, B. G. Janesko, R. Gomperts, B. Mennucci, H. P. Hratchian, 
 J. V. Ortiz, A. F. Izmaylov, J. L. Sonnenberg, D. Williams-Young, 
 F. Ding, F. Lipparini, F. Egidi, J. Goings, B. Peng, A. Petrone, 
 T. Henderson, D. Ranasinghe, V. G. Zakrzewski, J. Gao, N. Rega, 
 G. Zheng, W. Liang, M. Hada, M. Ehara, K. Toyota, R. Fukuda, 
 J. Hasegawa, M. Ishida, T. Nakajima, Y. Honda, O. Kitao, H. Nakai, 
 T. Vreven, K. Throssell, J. A. Montgomery, Jr., J. E. Peralta, 
 F. Ogliaro, M. J. Bearpark, J. J. Heyd, E. N. Brothers, K. N. Kudin, 
 V. N. Staroverov, T. A. Keith, R. Kobayashi, J. Normand, 
 K. Raghavachari, A. P. Rendell, J. C. Burant, S. S. Iyengar, 
 J. Tomasi, M. Cossi, J. M. Millam, M. Klene, C. Adamo, R. Cammi, 
 J. W. Ochterski, R. L. Martin, K. Morokuma, O. Farkas, 
 J. B. Foresman, and D. J. Fox, Gaussian, Inc., Wallingford CT, 2019.
 
 ******************************************
 Gaussian 16:  ES64L-G16RevC.01  3-Jul-2019
                 6-Mar-2024 
 ******************************************
 %mem=60GB
 %nprocshared=32
 Will use up to   32 processors via shared memory.
 %oldchk=anion_0167_opt_g16.chk
 %chk=anion_0167_opt_g16_nbo_sp.chk
 Copying data from "anion_0167_opt_g16.chk" to current chk file "anion_0167_opt_g16_nbo_sp.chk"
 IOpt=  2 FromEx=T IUOpen= 4 IOptOp= 5 NList=   0 IFRang= 0 IUIn= 4 IUOut= 2.
 ---------------------------------------------------------
 #p B3LYP def2svp sp EmpiricalDispersion=GD3BJ pop=nboread
 ---------------------------------------------------------
 1/38=1,172=1/1;
 2/12=2,17=6,18=5,40=1/2;
 3/5=43,7=101,11=2,25=1,30=1,74=-5,124=41/1,2,3;
 4//1;
 5/5=2,38=5/2;
 6/7=2,8=2,9=2,10=2,28=1,40=2/1,7;
 99/5=1,9=1/99;
 Leave Link    1 at Wed Mar  6 03:58:29 2024, MaxMem=  8053063680 cpu:               4.0 elap:               0.1
 (Enter /public/software/apps/Gaussian/g16/l101.exe)
 -------------------------
 Title: anion_0167_opt_g16
 -------------------------
 Symbolic Z-matrix:
 Charge = -1 Multiplicity = 1
 C                     0.66258  -0.26375  -0.54762 
 N                     1.4932    0.60898   0.11358 
 C                    -0.72153  -0.49082  -0.27493 
 Cl                    1.39704  -1.19297  -1.86666 
 O                     2.69689   0.72618  -0.21289 
 O                     0.99633   1.28325   1.05715 
 C                    -1.5609    0.05012   0.64978 
 H                    -1.14532  -1.24145  -0.9538 
 H                    -2.60494  -0.27957   0.67819 
 H                    -1.21326   0.80001   1.3572 
 
 ITRead=  0  0  0  0  0  0  0  0  0  0
 MicOpt= -1 -1 -1 -1 -1 -1 -1 -1 -1 -1
 NAtoms=     10 NQM=       10 NQMF=       0 NMMI=      0 NMMIF=      0
                NMic=       0 NMicF=      0.
                    Isotopes and Nuclear Properties:
 (Nuclear quadrupole moments (NQMom) in fm**2, nuclear magnetic moments (NMagM)
  in nuclear magnetons)

  Atom         1           2           3           4           5           6           7           8           9          10
 IAtWgt=          12          14          12          35          16          16          12           1           1           1
 AtmWgt=  12.0000000  14.0030740  12.0000000  34.9688527  15.9949146  15.9949146  12.0000000   1.0078250   1.0078250   1.0078250
 NucSpn=           0           2           0           3           0           0           0           1           1           1
 AtZEff=  -0.0000000  -0.0000000  -0.0000000  -0.0000000  -0.0000000  -0.0000000  -0.0000000  -0.0000000  -0.0000000  -0.0000000
 NQMom=    0.0000000   2.0440000   0.0000000  -8.1650000   0.0000000   0.0000000   0.0000000   0.0000000   0.0000000   0.0000000
 NMagM=    0.0000000   0.4037610   0.0000000   0.8218740   0.0000000   0.0000000   0.0000000   2.7928460   2.7928460   2.7928460
 AtZNuc=   6.0000000   7.0000000   6.0000000  17.0000000   8.0000000   8.0000000   6.0000000   1.0000000   1.0000000   1.0000000
 Leave Link  101 at Wed Mar  6 03:58:29 2024, MaxMem=  8053063680 cpu:               1.3 elap:               0.1
 (Enter /public/software/apps/Gaussian/g16/l202.exe)
                          Input orientation:                          
 ---------------------------------------------------------------------
 Center     Atomic      Atomic             Coordinates (Angstroms)
 Number     Number       Type             X           Y           Z
 ---------------------------------------------------------------------
      1          6           0        0.662580   -0.263750   -0.547620
      2          7           0        1.493200    0.608980    0.113580
      3          6           0       -0.721530   -0.490820   -0.274930
      4         17           0        1.397040   -1.192970   -1.866660
      5          8           0        2.696890    0.726180   -0.212890
      6          8           0        0.996330    1.283250    1.057150
      7          6           0       -1.560900    0.050120    0.649780
      8          1           0       -1.145320   -1.241450   -0.953800
      9          1           0       -2.604940   -0.279570    0.678190
     10          1           0       -1.213260    0.800010    1.357200
 ---------------------------------------------------------------------
                    Distance matrix (angstroms):
                    1          2          3          4          5
     1  C    0.000000
     2  N    1.374326   0.000000
     3  C    1.428874   2.503104   0.000000
     4  Cl   1.772780   2.679108   2.741342   0.000000
     5  O    2.287012   1.252672   3.629123   2.847403   0.000000
     6  O    2.253860   1.261683   2.805852   3.852389   2.194364
     7  C    2.544827   3.150772   1.360973   4.077641   4.396593
     8  H    2.095085   3.394875   1.097227   2.701714   4.379851
     9  H    3.489921   4.231200   2.121390   4.829742   5.469457
    10  H    2.877273   2.984629   2.138198   4.602055   4.214250
                    6          7          8          9         10
     6  O    0.000000
     7  C    2.868098   0.000000
     8  H    3.873589   2.100554   0.000000
     9  H    3.944003   1.095227   2.391463   0.000000
    10  H    2.281631   1.087948   3.084298   1.887676   0.000000
 Stoichiometry    C3H3ClNO2(1-)
 Framework group  C1[X(C3H3ClNO2)]
 Deg. of freedom    24
 Full point group                 C1      NOp   1
 Largest Abelian subgroup         C1      NOp   1
 Largest concise Abelian subgroup C1      NOp   1
                         Standard orientation:                         
 ---------------------------------------------------------------------
 Center     Atomic      Atomic             Coordinates (Angstroms)
 Number     Number       Type             X           Y           Z
 ---------------------------------------------------------------------
      1          6           0        0.046509   -0.273335   -0.000219
      2          7           0       -0.023251    1.099219   -0.000007
      3          6           0       -1.057789   -1.180092    0.000025
      4         17           0        1.675669   -0.972324    0.000011
      5          8           0        1.016579    1.797748    0.000117
      6          8           0       -1.170854    1.623481   -0.000072
      7          6           0       -2.401968   -0.966952    0.000022
      8          1           0       -0.718797   -2.223640    0.000079
      9          1           0       -3.077481   -1.829045    0.000219
     10          1           0       -2.813641    0.040102    0.000235
 ---------------------------------------------------------------------
 Rotational constants (GHZ):           2.8143297           2.1217378           1.2097221
 Leave Link  202 at Wed Mar  6 03:58:29 2024, MaxMem=  8053063680 cpu:               1.0 elap:               0.0
 (Enter /public/software/apps/Gaussian/g16/l301.exe)
 Standard basis: def2SVP (5D, 7F)
 Ernie: Thresh=  0.10000D-02 Tol=  0.10000D-05 Strict=F.
 There are   124 symmetry adapted cartesian basis functions of A   symmetry.
 There are   117 symmetry adapted basis functions of A   symmetry.
   117 basis functions,   208 primitive gaussians,   124 cartesian basis functions
    31 alpha electrons       31 beta electrons
       nuclear repulsion energy       347.9235000535 Hartrees.
 IExCor=  402 DFT=T Ex+Corr=B3LYP ExCW=0 ScaHFX=  0.200000
 ScaDFX=  0.800000  0.720000  1.000000  0.810000 ScalE2=  1.000000  1.000000
 IRadAn=      5 IRanWt=     -1 IRanGd=            0 ICorTp=0 IEmpDi=141
 NAtoms=   10 NActive=   10 NUniq=   10 SFac= 1.00D+00 NAtFMM=   60 NAOKFM=F Big=F
 Integral buffers will be    131072 words long.
 Raffenetti 2 integral format.
 Two-electron integral symmetry is turned on.
 R6Disp:  Grimme-D3(BJ) Dispersion energy=       -0.0162152574 Hartrees.
 Nuclear repulsion after empirical dispersion term =      347.9072847962 Hartrees.
 Leave Link  301 at Wed Mar  6 03:58:29 2024, MaxMem=  8053063680 cpu:               1.2 elap:               0.0
 (Enter /public/software/apps/Gaussian/g16/l302.exe)
 NPDir=0 NMtPBC=     1 NCelOv=     1 NCel=       1 NClECP=     1 NCelD=      1
         NCelK=      1 NCelE2=     1 NClLst=     1 CellRange=     0.0.
 One-electron integrals computed using PRISM.
 One-electron integral symmetry used in STVInt
   1 Symmetry operations used in ECPInt.
 ECPInt:  NShTT=    1431 NPrTT=    5675 LenC2=    1413 LenP2D=    4382.
 LDataN:  DoStor=T MaxTD1= 4 Len=   56
 NBasis=   117 RedAO= T EigKep=  1.54D-03  NBF=   117
 NBsUse=   117 1.00D-06 EigRej= -1.00D+00 NBFU=   117
 Precomputing XC quadrature grid using
 IXCGrd= 4 IRadAn=           5 IRanWt=          -1 IRanGd=           0 AccXCQ= 0.00D+00.
 Generated NRdTot=       0 NPtTot=           0 NUsed=           0 NTot=          32
 NSgBfM=   124   124   124   124   124 MxSgAt=    10 MxSgA2=    10.
 Leave Link  302 at Wed Mar  6 03:58:30 2024, MaxMem=  8053063680 cpu:              13.3 elap:               0.4
 (Enter /public/software/apps/Gaussian/g16/l303.exe)
 DipDrv:  MaxL=1.
 Leave Link  303 at Wed Mar  6 03:58:30 2024, MaxMem=  8053063680 cpu:               1.6 elap:               0.1
 (Enter /public/software/apps/Gaussian/g16/l401.exe)
 ExpMin= 1.22D-01 ExpMax= 1.04D+04 ExpMxC= 1.57D+03 IAcc=3 IRadAn=         5 AccDes= 0.00D+00
 Harris functional with IExCor=  402 and IRadAn=       5 diagonalized for initial guess.
 HarFok:  IExCor=  402 AccDes= 0.00D+00 IRadAn=         5 IDoV= 1 UseB2=F ITyADJ=14
 ICtDFT=  3500011 ScaDFX=  1.000000  1.000000  1.000000  1.000000
 FoFCou: FMM=F IPFlag=           0 FMFlag=      100000 FMFlg1=           0
         NFxFlg=           0 DoJE=T BraDBF=F KetDBF=T FulRan=T
         wScrn=  0.000000 ICntrl=       500 IOpCl=  0 I1Cent=   200000004 NGrid=           0
         NMat0=    1 NMatS0=      1 NMatT0=    0 NMatD0=    1 NMtDS0=    0 NMtDT0=    0
 Petite list used in FoFCou.
 Harris En= -781.193647886480    
 JPrj=0 DoOrth=F DoCkMO=F.
 Leave Link  401 at Wed Mar  6 03:58:30 2024, MaxMem=  8053063680 cpu:               4.0 elap:               0.1
 (Enter /public/software/apps/Gaussian/g16/l502.exe)
 Keep R1 ints in memory in canonical form, NReq=54279172.
 FoFCou: FMM=F IPFlag=           0 FMFlag=           0 FMFlg1=           0
         NFxFlg=           0 DoJE=F BraDBF=F KetDBF=F FulRan=T
         wScrn=  0.000000 ICntrl=       600 IOpCl=  0 I1Cent=           0 NGrid=           0
         NMat0=    1 NMatS0=   6903 NMatT0=    0 NMatD0=    1 NMtDS0=    0 NMtDT0=    0
 Symmetry not used in FoFCou.
 Two-electron integral symmetry not used.
 Closed shell SCF:
 Using DIIS extrapolation, IDIIS=  1040.
 NGot=  8053063680 LenX=  8029198204 LenY=  8029182387
 Requested convergence on RMS density matrix=1.00D-08 within 128 cycles.
 Requested convergence on MAX density matrix=1.00D-06.
 Requested convergence on             energy=1.00D-06.
 No special actions if energy rises.
 Integral accuracy reduced to 1.0D-05 until final iterations.

 Cycle   1  Pass 0  IDiag  1:
 E= -780.799163744739    
 DIIS: error= 4.41D-02 at cycle   1 NSaved=   1.
 NSaved= 1 IEnMin= 1 EnMin= -780.799163744739     IErMin= 1 ErrMin= 4.41D-02
 ErrMax= 4.41D-02  0.00D+00 EMaxC= 1.00D-01 BMatC= 3.16D-01 BMatP= 3.16D-01
 IDIUse=3 WtCom= 5.59D-01 WtEn= 4.41D-01
 Coeff-Com:  0.100D+01
 Coeff-En:   0.100D+01
 Coeff:      0.100D+01
 Gap=     0.234 Goal=   None    Shift=    0.000
 GapD=    0.234 DampG=1.000 DampE=0.500 DampFc=0.5000 IDamp=-1.
 Damping current iteration by 5.00D-01
 RMSDP=1.21D-02 MaxDP=2.10D-01              OVMax= 2.95D-01

 Cycle   2  Pass 0  IDiag  1:
 E= -780.856885854792     Delta-E=       -0.057722110053 Rises=F Damp=T
 DIIS: error= 2.17D-02 at cycle   2 NSaved=   2.
 NSaved= 2 IEnMin= 2 EnMin= -780.856885854792     IErMin= 2 ErrMin= 2.17D-02
 ErrMax= 2.17D-02  0.00D+00 EMaxC= 1.00D-01 BMatC= 5.49D-02 BMatP= 3.16D-01
 IDIUse=3 WtCom= 7.83D-01 WtEn= 2.17D-01
 Coeff-Com:  0.260D+00 0.740D+00
 Coeff-En:   0.402D+00 0.598D+00
 Coeff:      0.291D+00 0.709D+00
 Gap=     0.234 Goal=   None    Shift=    0.000
 RMSDP=3.32D-03 MaxDP=5.45D-02 DE=-5.77D-02 OVMax= 1.98D-01

 Cycle   3  Pass 0  IDiag  1:
 E= -781.052729170369     Delta-E=       -0.195843315576 Rises=F Damp=F
 DIIS: error= 1.52D-02 at cycle   3 NSaved=   3.
 NSaved= 3 IEnMin= 3 EnMin= -781.052729170369     IErMin= 3 ErrMin= 1.52D-02
 ErrMax= 1.52D-02  0.00D+00 EMaxC= 1.00D-01 BMatC= 2.97D-02 BMatP= 5.49D-02
 IDIUse=3 WtCom= 8.48D-01 WtEn= 1.52D-01
 Coeff-Com:  0.138D+00 0.434D+00 0.428D+00
 Coeff-En:   0.000D+00 0.000D+00 0.100D+01
 Coeff:      0.117D+00 0.368D+00 0.515D+00
 Gap=     0.157 Goal=   None    Shift=    0.000
 RMSDP=2.31D-03 MaxDP=4.68D-02 DE=-1.96D-01 OVMax= 9.86D-02

 Cycle   4  Pass 0  IDiag  1:
 E= -781.071577782718     Delta-E=       -0.018848612349 Rises=F Damp=F
 DIIS: error= 1.25D-02 at cycle   4 NSaved=   4.
 NSaved= 4 IEnMin= 4 EnMin= -781.071577782718     IErMin= 4 ErrMin= 1.25D-02
 ErrMax= 1.25D-02  0.00D+00 EMaxC= 1.00D-01 BMatC= 1.14D-02 BMatP= 2.97D-02
 IDIUse=3 WtCom= 8.75D-01 WtEn= 1.25D-01
 Coeff-Com:  0.450D-01 0.129D+00 0.362D+00 0.464D+00
 Coeff-En:   0.000D+00 0.000D+00 0.292D+00 0.708D+00
 Coeff:      0.394D-01 0.113D+00 0.353D+00 0.495D+00
 Gap=     0.153 Goal=   None    Shift=    0.000
 RMSDP=1.00D-03 MaxDP=2.95D-02 DE=-1.88D-02 OVMax= 5.95D-02

 Cycle   5  Pass 0  IDiag  1:
 E= -781.079945305263     Delta-E=       -0.008367522545 Rises=F Damp=F
 DIIS: error= 4.06D-03 at cycle   5 NSaved=   5.
 NSaved= 5 IEnMin= 5 EnMin= -781.079945305263     IErMin= 5 ErrMin= 4.06D-03
 ErrMax= 4.06D-03  0.00D+00 EMaxC= 1.00D-01 BMatC= 1.51D-03 BMatP= 1.14D-02
 IDIUse=3 WtCom= 9.59D-01 WtEn= 4.06D-02
 Coeff-Com:  0.802D-02 0.110D-01 0.166D+00 0.348D+00 0.467D+00
 Coeff-En:   0.000D+00 0.000D+00 0.000D+00 0.120D+00 0.880D+00
 Coeff:      0.769D-02 0.106D-01 0.159D+00 0.339D+00 0.484D+00
 Gap=     0.154 Goal=   None    Shift=    0.000
 RMSDP=3.69D-04 MaxDP=7.78D-03 DE=-8.37D-03 OVMax= 1.79D-02

 Cycle   6  Pass 0  IDiag  1:
 E= -781.081130071155     Delta-E=       -0.001184765892 Rises=F Damp=F
 DIIS: error= 8.52D-04 at cycle   6 NSaved=   6.
 NSaved= 6 IEnMin= 6 EnMin= -781.081130071155     IErMin= 6 ErrMin= 8.52D-04
 ErrMax= 8.52D-04  0.00D+00 EMaxC= 1.00D-01 BMatC= 1.08D-04 BMatP= 1.51D-03
 IDIUse=3 WtCom= 9.91D-01 WtEn= 8.52D-03
 Coeff-Com:  0.105D-02-0.210D-02 0.669D-01 0.161D+00 0.299D+00 0.474D+00
 Coeff-En:   0.000D+00 0.000D+00 0.000D+00 0.000D+00 0.338D-01 0.966D+00
 Coeff:      0.104D-02-0.208D-02 0.663D-01 0.160D+00 0.297D+00 0.478D+00
 Gap=     0.155 Goal=   None    Shift=    0.000
 RMSDP=1.16D-04 MaxDP=2.72D-03 DE=-1.18D-03 OVMax= 5.03D-03

 Cycle   7  Pass 0  IDiag  1:
 E= -781.081217172860     Delta-E=       -0.000087101706 Rises=F Damp=F
 DIIS: error= 3.06D-04 at cycle   7 NSaved=   7.
 NSaved= 7 IEnMin= 7 EnMin= -781.081217172860     IErMin= 7 ErrMin= 3.06D-04
 ErrMax= 3.06D-04  0.00D+00 EMaxC= 1.00D-01 BMatC= 1.35D-05 BMatP= 1.08D-04
 IDIUse=3 WtCom= 9.97D-01 WtEn= 3.06D-03
 Coeff-Com: -0.380D-03-0.277D-02 0.198D-01 0.540D-01 0.130D+00 0.317D+00
 Coeff-Com:  0.482D+00
 Coeff-En:   0.000D+00 0.000D+00 0.000D+00 0.000D+00 0.000D+00 0.953D-01
 Coeff-En:   0.905D+00
 Coeff:     -0.379D-03-0.276D-02 0.197D-01 0.539D-01 0.130D+00 0.316D+00
 Coeff:      0.484D+00
 Gap=     0.154 Goal=   None    Shift=    0.000
 RMSDP=4.28D-05 MaxDP=8.16D-04 DE=-8.71D-05 OVMax= 2.46D-03

 Cycle   8  Pass 0  IDiag  1:
 E= -781.081230037987     Delta-E=       -0.000012865127 Rises=F Damp=F
 DIIS: error= 6.14D-05 at cycle   8 NSaved=   8.
 NSaved= 8 IEnMin= 8 EnMin= -781.081230037987     IErMin= 8 ErrMin= 6.14D-05
 ErrMax= 6.14D-05  0.00D+00 EMaxC= 1.00D-01 BMatC= 4.81D-07 BMatP= 1.35D-05
 IDIUse=1 WtCom= 1.00D+00 WtEn= 0.00D+00
 Coeff-Com: -0.339D-03-0.114D-02 0.272D-02 0.918D-02 0.318D-01 0.100D+00
 Coeff-Com:  0.216D+00 0.642D+00
 Coeff:     -0.339D-03-0.114D-02 0.272D-02 0.918D-02 0.318D-01 0.100D+00
 Coeff:      0.216D+00 0.642D+00
 Gap=     0.154 Goal=   None    Shift=    0.000
 RMSDP=1.07D-05 MaxDP=2.57D-04 DE=-1.29D-05 OVMax= 6.73D-04

 Cycle   9  Pass 0  IDiag  1:
 E= -781.081230395117     Delta-E=       -0.000000357131 Rises=F Damp=F
 DIIS: error= 2.72D-05 at cycle   9 NSaved=   9.
 NSaved= 9 IEnMin= 9 EnMin= -781.081230395117     IErMin= 9 ErrMin= 2.72D-05
 ErrMax= 2.72D-05  0.00D+00 EMaxC= 1.00D-01 BMatC= 1.60D-07 BMatP= 4.81D-07
 IDIUse=1 WtCom= 1.00D+00 WtEn= 0.00D+00
 Coeff-Com: -0.164D-03-0.384D-03-0.138D-03 0.569D-03 0.720D-02 0.310D-01
 Coeff-Com:  0.784D-01 0.406D+00 0.477D+00
 Coeff:     -0.164D-03-0.384D-03-0.138D-03 0.569D-03 0.720D-02 0.310D-01
 Coeff:      0.784D-01 0.406D+00 0.477D+00
 Gap=     0.154 Goal=   None    Shift=    0.000
 RMSDP=4.78D-06 MaxDP=1.51D-04 DE=-3.57D-07 OVMax= 3.25D-04

 Initial convergence to 1.0D-05 achieved.  Increase integral accuracy.
 Cycle  10  Pass 1  IDiag  1:
 E= -781.081211244602     Delta-E=        0.000019150515 Rises=F Damp=F
 DIIS: error= 5.83D-06 at cycle   1 NSaved=   1.
 NSaved= 1 IEnMin= 1 EnMin= -781.081211244602     IErMin= 1 ErrMin= 5.83D-06
 ErrMax= 5.83D-06  0.00D+00 EMaxC= 1.00D-01 BMatC= 1.37D-08 BMatP= 1.37D-08
 IDIUse=1 WtCom= 1.00D+00 WtEn= 0.00D+00
 Coeff-Com:  0.100D+01
 Coeff:      0.100D+01
 Gap=     0.154 Goal=   None    Shift=    0.000
 RMSDP=4.78D-06 MaxDP=1.51D-04 DE= 1.92D-05 OVMax= 1.18D-04

 Cycle  11  Pass 1  IDiag  1:
 E= -781.081211230898     Delta-E=        0.000000013704 Rises=F Damp=F
 DIIS: error= 1.09D-05 at cycle   2 NSaved=   2.
 NSaved= 2 IEnMin= 1 EnMin= -781.081211244602     IErMin= 1 ErrMin= 5.83D-06
 ErrMax= 1.09D-05  0.00D+00 EMaxC= 1.00D-01 BMatC= 2.76D-08 BMatP= 1.37D-08
 IDIUse=1 WtCom= 1.00D+00 WtEn= 0.00D+00
 Coeff-Com:  0.597D+00 0.403D+00
 Coeff:      0.597D+00 0.403D+00
 Gap=     0.154 Goal=   None    Shift=    0.000
 RMSDP=1.86D-06 MaxDP=5.60D-05 DE= 1.37D-08 OVMax= 1.01D-04

 Cycle  12  Pass 1  IDiag  1:
 E= -781.081211259853     Delta-E=       -0.000000028955 Rises=F Damp=F
 DIIS: error= 2.47D-06 at cycle   3 NSaved=   3.
 NSaved= 3 IEnMin= 3 EnMin= -781.081211259853     IErMin= 3 ErrMin= 2.47D-06
 ErrMax= 2.47D-06  0.00D+00 EMaxC= 1.00D-01 BMatC= 1.23D-09 BMatP= 1.37D-08
 IDIUse=1 WtCom= 1.00D+00 WtEn= 0.00D+00
 Coeff-Com:  0.110D+00 0.188D+00 0.702D+00
 Coeff:      0.110D+00 0.188D+00 0.702D+00
 Gap=     0.154 Goal=   None    Shift=    0.000
 RMSDP=3.97D-07 MaxDP=1.01D-05 DE=-2.90D-08 OVMax= 1.65D-05

 Cycle  13  Pass 1  IDiag  1:
 E= -781.081211260914     Delta-E=       -0.000000001061 Rises=F Damp=F
 DIIS: error= 1.36D-06 at cycle   4 NSaved=   4.
 NSaved= 4 IEnMin= 4 EnMin= -781.081211260914     IErMin= 4 ErrMin= 1.36D-06
 ErrMax= 1.36D-06  0.00D+00 EMaxC= 1.00D-01 BMatC= 3.14D-10 BMatP= 1.23D-09
 IDIUse=1 WtCom= 1.00D+00 WtEn= 0.00D+00
 Coeff-Com: -0.746D-03 0.737D-01 0.424D+00 0.503D+00
 Coeff:     -0.746D-03 0.737D-01 0.424D+00 0.503D+00
 Gap=     0.154 Goal=   None    Shift=    0.000
 RMSDP=1.63D-07 MaxDP=3.65D-06 DE=-1.06D-09 OVMax= 4.64D-06

 Cycle  14  Pass 1  IDiag  1:
 E= -781.081211261145     Delta-E=       -0.000000000231 Rises=F Damp=F
 DIIS: error= 5.07D-07 at cycle   5 NSaved=   5.
 NSaved= 5 IEnMin= 5 EnMin= -781.081211261145     IErMin= 5 ErrMin= 5.07D-07
 ErrMax= 5.07D-07  0.00D+00 EMaxC= 1.00D-01 BMatC= 3.61D-11 BMatP= 3.14D-10
 IDIUse=1 WtCom= 1.00D+00 WtEn= 0.00D+00
 Coeff-Com: -0.944D-02 0.292D-01 0.193D+00 0.314D+00 0.473D+00
 Coeff:     -0.944D-02 0.292D-01 0.193D+00 0.314D+00 0.473D+00
 Gap=     0.154 Goal=   None    Shift=    0.000
 RMSDP=6.03D-08 MaxDP=1.31D-06 DE=-2.31D-10 OVMax= 1.80D-06

 Cycle  15  Pass 1  IDiag  1:
 E= -781.081211261175     Delta-E=       -0.000000000031 Rises=F Damp=F
 DIIS: error= 1.71D-07 at cycle   6 NSaved=   6.
 NSaved= 6 IEnMin= 6 EnMin= -781.081211261175     IErMin= 6 ErrMin= 1.71D-07
 ErrMax= 1.71D-07  0.00D+00 EMaxC= 1.00D-01 BMatC= 2.38D-12 BMatP= 3.61D-11
 IDIUse=1 WtCom= 1.00D+00 WtEn= 0.00D+00
 Coeff-Com: -0.622D-02 0.136D-01 0.918D-01 0.157D+00 0.278D+00 0.466D+00
 Coeff:     -0.622D-02 0.136D-01 0.918D-01 0.157D+00 0.278D+00 0.466D+00
 Gap=     0.154 Goal=   None    Shift=    0.000
 RMSDP=1.72D-08 MaxDP=4.97D-07 DE=-3.09D-11 OVMax= 8.31D-07

 Cycle  16  Pass 1  IDiag  1:
 E= -781.081211261176     Delta-E=       -0.000000000001 Rises=F Damp=F
 DIIS: error= 8.21D-08 at cycle   7 NSaved=   7.
 NSaved= 7 IEnMin= 7 EnMin= -781.081211261176     IErMin= 7 ErrMin= 8.21D-08
 ErrMax= 8.21D-08  0.00D+00 EMaxC= 1.00D-01 BMatC= 5.41D-13 BMatP= 2.38D-12
 IDIUse=1 WtCom= 1.00D+00 WtEn= 0.00D+00
 Coeff-Com: -0.241D-02 0.438D-02 0.278D-01 0.505D-01 0.106D+00 0.336D+00
 Coeff-Com:  0.478D+00
 Coeff:     -0.241D-02 0.438D-02 0.278D-01 0.505D-01 0.106D+00 0.336D+00
 Coeff:      0.478D+00
 Gap=     0.154 Goal=   None    Shift=    0.000
 RMSDP=6.12D-09 MaxDP=1.65D-07 DE=-9.09D-13 OVMax= 3.71D-07

 SCF Done:  E(RB3LYP) =  -781.081211261     A.U. after   16 cycles
            NFock= 16  Conv=0.61D-08     -V/T= 2.0045
 KE= 7.775575674432D+02 PE=-2.553540309327D+03 EE= 6.469942458268D+02
 Leave Link  502 at Wed Mar  6 03:58:31 2024, MaxMem=  8053063680 cpu:              23.1 elap:               0.9
 (Enter /public/software/apps/Gaussian/g16/l601.exe)
 Copying SCF densities to generalized density rwf, IOpCl= 0 IROHF=0.

 **********************************************************************

            Population analysis using the SCF Density.

 **********************************************************************

 Orbital symmetries:
       Occupied  (A) (A) (A) (A) (A) (A) (A) (A) (A) (A) (A) (A)
                 (A) (A) (A) (A) (A) (A) (A) (A) (A) (A) (A) (A)
                 (A) (A) (A) (A) (A) (A) (A)
       Virtual   (A) (A) (A) (A) (A) (A) (A) (A) (A) (A) (A) (A)
                 (A) (A) (A) (A) (A) (A) (A) (A) (A) (A) (A) (A)
                 (A) (A) (A) (A) (A) (A) (A) (A) (A) (A) (A) (A)
                 (A) (A) (A) (A) (A) (A) (A) (A) (A) (A) (A) (A)
                 (A) (A) (A) (A) (A) (A) (A) (A) (A) (A) (A) (A)
                 (A) (A) (A) (A) (A) (A) (A) (A) (A) (A) (A) (A)
                 (A) (A) (A) (A) (A) (A) (A) (A) (A) (A) (A) (A)
                 (A) (A)
 The electronic state is 1-A.
 Alpha  occ. eigenvalues -- -101.33261 -18.92502 -18.92261 -14.32913 -10.06398
 Alpha  occ. eigenvalues --  -10.03535 -10.00369  -9.28697  -7.05588  -7.04610
 Alpha  occ. eigenvalues --   -7.04600  -0.97410  -0.79562  -0.69546  -0.60137
 Alpha  occ. eigenvalues --   -0.55910  -0.44426  -0.34860  -0.31351  -0.31054
 Alpha  occ. eigenvalues --   -0.30130  -0.27609  -0.23621  -0.19931  -0.18166
 Alpha  occ. eigenvalues --   -0.14900  -0.12229  -0.09416  -0.08471  -0.06269
 Alpha  occ. eigenvalues --   -0.00777
 Alpha virt. eigenvalues --    0.14655   0.20315   0.24456   0.24653   0.27443
 Alpha virt. eigenvalues --    0.31205   0.40396   0.44153   0.44983   0.49747
 Alpha virt. eigenvalues --    0.54916   0.57295   0.59382   0.64543   0.64965
 Alpha virt. eigenvalues --    0.67006   0.71326   0.71617   0.75684   0.76148
 Alpha virt. eigenvalues --    0.81080   0.82403   0.84103   0.86068   0.87840
 Alpha virt. eigenvalues --    0.90472   0.94027   0.95319   0.97616   0.98751
 Alpha virt. eigenvalues --    1.00934   1.02666   1.09744   1.10156   1.14661
 Alpha virt. eigenvalues --    1.15548   1.18507   1.21607   1.23558   1.25811
 Alpha virt. eigenvalues --    1.32687   1.35187   1.37738   1.41426   1.42556
 Alpha virt. eigenvalues --    1.45397   1.52543   1.54902   1.63155   1.66496
 Alpha virt. eigenvalues --    1.76756   1.77561   1.85631   1.89158   1.89957
 Alpha virt. eigenvalues --    2.01167   2.01514   2.04044   2.10300   2.10352
 Alpha virt. eigenvalues --    2.21890   2.28575   2.33497   2.36573   2.46898
 Alpha virt. eigenvalues --    2.49978   2.54196   2.57384   2.65503   2.71671
 Alpha virt. eigenvalues --    2.75990   2.82516   2.83699   2.87481   2.89727
 Alpha virt. eigenvalues --    2.93516   2.95204   3.06297   3.22372   3.26478
 Alpha virt. eigenvalues --    3.28469   3.43423   3.51309   3.62602   3.90072
 Alpha virt. eigenvalues --    3.98818
          Condensed to atoms (all electrons):
               1          2          3          4          5          6
     1  C    5.350704   0.399276   0.377545   0.201974  -0.085866  -0.066997
     2  N    0.399276   5.843742  -0.026025  -0.045962   0.289155   0.286430
     3  C    0.377545  -0.026025   4.685088  -0.055036   0.003524  -0.023154
     4  Cl   0.201974  -0.045962  -0.055036  17.088892   0.004135   0.002035
     5  O   -0.085866   0.289155   0.003524   0.004135   8.291773  -0.086904
     6  O   -0.066997   0.286430  -0.023154   0.002035  -0.086904   8.253993
     7  C   -0.078911  -0.013992   0.644084   0.005992   0.000453   0.008940
     8  H   -0.039508   0.007757   0.357686   0.004958  -0.000192   0.000029
     9  H    0.016454   0.000063  -0.015704  -0.000174   0.000010   0.001307
    10  H   -0.025009   0.001030   0.005228  -0.000067   0.000226   0.030328
               7          8          9         10
     1  C   -0.078911  -0.039508   0.016454  -0.025009
     2  N   -0.013992   0.007757   0.000063   0.001030
     3  C    0.644084   0.357686  -0.015704   0.005228
     4  Cl   0.005992   0.004958  -0.000174  -0.000067
     5  O    0.000453  -0.000192   0.000010   0.000226
     6  O    0.008940   0.000029   0.001307   0.030328
     7  C    4.912516  -0.061246   0.318479   0.361891
     8  H   -0.061246   0.808460  -0.024201   0.011869
     9  H    0.318479  -0.024201   0.822222  -0.056503
    10  H    0.361891   0.011869  -0.056503   0.671790
 Mulliken charges:
               1
     1  C   -0.049664
     2  N    0.258524
     3  C    0.046764
     4  Cl  -0.206747
     5  O   -0.416315
     6  O   -0.406008
     7  C   -0.098207
     8  H   -0.065611
     9  H   -0.061953
    10  H   -0.000784
 Sum of Mulliken charges =  -1.00000
 Mulliken charges with hydrogens summed into heavy atoms:
               1
     1  C   -0.049664
     2  N    0.258524
     3  C   -0.018847
     4  Cl  -0.206747
     5  O   -0.416315
     6  O   -0.406008
     7  C   -0.160944
 Electronic spatial extent (au):  <R**2>=            915.3575
 Charge=             -1.0000 electrons
 Dipole moment (field-independent basis, Debye):
    X=              0.9256    Y=             -3.4423    Z=              0.0005  Tot=              3.5646
 Quadrupole moment (field-independent basis, Debye-Ang):
   XX=            -61.7249   YY=            -61.1857   ZZ=            -49.6706
   XY=             -1.3501   XZ=             -0.0012   YZ=             -0.0007
 Traceless Quadrupole moment (field-independent basis, Debye-Ang):
   XX=             -4.1979   YY=             -3.6586   ZZ=              7.8565
   XY=             -1.3501   XZ=             -0.0012   YZ=             -0.0007
 Octapole moment (field-independent basis, Debye-Ang**2):
  XXX=             24.9545  YYY=             -8.7728  ZZZ=              0.0014  XYY=              4.4614
  XXY=              2.9328  XXZ=              0.0027  XZZ=              7.3184  YZZ=              7.1560
  YYZ=             -0.0000  XYZ=             -0.0006
 Hexadecapole moment (field-independent basis, Debye-Ang**3):
 XXXX=           -696.1278 YYYY=           -513.4769 ZZZZ=            -48.5220 XXXY=            -31.7267
 XXXZ=             -0.0056 YYYX=            -16.2568 YYYZ=             -0.0024 ZZZX=              0.0006
 ZZZY=             -0.0002 XXYY=           -211.6730 XXZZ=           -126.2021 YYZZ=            -88.2431
 XXYZ=             -0.0022 YYXZ=             -0.0019 ZZXY=             -7.8150
 N-N= 3.479072847962D+02 E-N=-2.553540310694D+03  KE= 7.775575674432D+02
 No NMR shielding tensors so no spin-rotation constants.
 Leave Link  601 at Wed Mar  6 03:58:31 2024, MaxMem=  8053063680 cpu:               2.5 elap:               0.1
 (Enter /public/software/apps/Gaussian/g16/l607.exe)
 ******************************Gaussian NBO Version 3.1******************************
             N A T U R A L   A T O M I C   O R B I T A L   A N D
          N A T U R A L   B O N D   O R B I T A L   A N A L Y S I S
 ******************************Gaussian NBO Version 3.1******************************

       /RESON  / : Allow strongly delocalized NBO set
       /BNDIDX / : Print bond indices based on the NAO density matrix

 Analyzing the SCF density

 Job title: Title: anion_0167_opt_g16                                       

 Storage needed:     41619 in NPA,     55225 in NBO (8053063100 available)


 NATURAL POPULATIONS:  Natural atomic orbital occupancies 
                                                          
   NAO  Atom  No  lang   Type(AO)    Occupancy      Energy
 ----------------------------------------------------------
     1    C    1  S      Cor( 1S)     1.99882      -9.96333
     2    C    1  S      Val( 2S)     0.86509      -0.01852
     3    C    1  S      Ryd( 3S)     0.00171       0.63550
     4    C    1  px     Val( 2p)     0.90205       0.05147
     5    C    1  px     Ryd( 3p)     0.01171       1.00769
     6    C    1  py     Val( 2p)     0.86711       0.12253
     7    C    1  py     Ryd( 3p)     0.00710       0.84449
     8    C    1  pz     Val( 2p)     1.33610       0.02296
     9    C    1  pz     Ryd( 3p)     0.00384       0.72645
    10    C    1  dxy    Ryd( 3d)     0.00140       2.52249
    11    C    1  dxz    Ryd( 3d)     0.00075       1.96409
    12    C    1  dyz    Ryd( 3d)     0.00077       2.07500
    13    C    1  dx2y2  Ryd( 3d)     0.00244       2.42296
    14    C    1  dz2    Ryd( 3d)     0.00097       2.25710
 
    15    N    2  S      Cor( 1S)     1.99905     -14.18833
    16    N    2  S      Val( 2S)     1.05265      -0.26680
    17    N    2  S      Ryd( 3S)     0.00323       1.05325
    18    N    2  px     Val( 2p)     1.00999      -0.04336
    19    N    2  px     Ryd( 3p)     0.01511       1.29193
    20    N    2  py     Val( 2p)     1.22288      -0.10139
    21    N    2  py     Ryd( 3p)     0.01189       1.16621
    22    N    2  pz     Val( 2p)     1.25311      -0.10158
    23    N    2  pz     Ryd( 3p)     0.00136       0.99011
    24    N    2  dxy    Ryd( 3d)     0.00354       3.03803
    25    N    2  dxz    Ryd( 3d)     0.00413       2.45645
    26    N    2  dyz    Ryd( 3d)     0.00227       2.42732
    27    N    2  dx2y2  Ryd( 3d)     0.00471       2.97321
    28    N    2  dz2    Ryd( 3d)     0.00071       2.80599
 
    29    C    3  S      Cor( 1S)     1.99893      -9.90225
    30    C    3  S      Val( 2S)     0.94822       0.01346
    31    C    3  S      Ryd( 3S)     0.00195       0.68000
    32    C    3  px     Val( 2p)     1.13424       0.10028
    33    C    3  px     Ryd( 3p)     0.00514       0.88090
    34    C    3  py     Val( 2p)     1.16079       0.10238
    35    C    3  py     Ryd( 3p)     0.00569       1.06900
    36    C    3  pz     Val( 2p)     1.01984       0.05997
    37    C    3  pz     Ryd( 3p)     0.00124       0.71707
    38    C    3  dxy    Ryd( 3d)     0.00081       2.61959
    39    C    3  dxz    Ryd( 3d)     0.00126       2.13206
    40    C    3  dyz    Ryd( 3d)     0.00021       2.05196
    41    C    3  dx2y2  Ryd( 3d)     0.00055       2.68316
    42    C    3  dz2    Ryd( 3d)     0.00041       2.38000
 
    43   Cl    4  S      Cor( 1S)     2.00000    -100.34452
    44   Cl    4  S      Cor( 2S)     1.99974      -9.97576
    45   Cl    4  S      Val( 3S)     1.83202      -0.80706
    46   Cl    4  S      Ryd( 4S)     0.00213       0.83805
    47   Cl    4  px     Cor( 2p)     1.99993      -7.04743
    48   Cl    4  px     Val( 3p)     1.43883      -0.11996
    49   Cl    4  px     Ryd( 4p)     0.00108       1.13171
    50   Cl    4  py     Cor( 2p)     1.99997      -7.04218
    51   Cl    4  py     Val( 3p)     1.85829      -0.14219
    52   Cl    4  py     Ryd( 4p)     0.00081       1.10553
    53   Cl    4  pz     Cor( 2p)     1.99999      -7.04064
    54   Cl    4  pz     Val( 3p)     1.96168      -0.14914
    55   Cl    4  pz     Ryd( 4p)     0.00130       1.07862
    56   Cl    4  dxy    Ryd( 3d)     0.00272       1.25456
    57   Cl    4  dxz    Ryd( 3d)     0.00344       1.00159
    58   Cl    4  dyz    Ryd( 3d)     0.00058       0.96114
    59   Cl    4  dx2y2  Ryd( 3d)     0.00255       1.26157
    60   Cl    4  dz2    Ryd( 3d)     0.00139       1.05163
 
    61    O    5  S      Cor( 1S)     1.99978     -18.72306
    62    O    5  S      Val( 2S)     1.74520      -0.64572
    63    O    5  S      Ryd( 3S)     0.00284       1.41981
    64    O    5  px     Val( 2p)     1.47530      -0.04739
    65    O    5  px     Ryd( 3p)     0.00170       1.23246
    66    O    5  py     Val( 2p)     1.70919      -0.05962
    67    O    5  py     Ryd( 3p)     0.00179       1.25271
    68    O    5  pz     Val( 2p)     1.59781      -0.05783
    69    O    5  pz     Ryd( 3p)     0.00225       1.19360
    70    O    5  dxy    Ryd( 3d)     0.00132       3.38829
    71    O    5  dxz    Ryd( 3d)     0.00121       2.96259
    72    O    5  dyz    Ryd( 3d)     0.00063       2.89323
    73    O    5  dx2y2  Ryd( 3d)     0.00137       3.18402
    74    O    5  dz2    Ryd( 3d)     0.00039       3.02989
 
    75    O    6  S      Cor( 1S)     1.99979     -18.72916
    76    O    6  S      Val( 2S)     1.74923      -0.64966
    77    O    6  S      Ryd( 3S)     0.00283       1.44862
    78    O    6  px     Val( 2p)     1.38561      -0.04506
    79    O    6  px     Ryd( 3p)     0.00161       1.29753
    80    O    6  py     Val( 2p)     1.78271      -0.06500
    81    O    6  py     Ryd( 3p)     0.00168       1.29495
    82    O    6  pz     Val( 2p)     1.61908      -0.06111
    83    O    6  pz     Ryd( 3p)     0.00210       1.19365
    84    O    6  dxy    Ryd( 3d)     0.00126       3.32130
    85    O    6  dxz    Ryd( 3d)     0.00139       2.97801
    86    O    6  dyz    Ryd( 3d)     0.00037       2.86762
    87    O    6  dx2y2  Ryd( 3d)     0.00134       3.24766
    88    O    6  dz2    Ryd( 3d)     0.00038       3.02427
 
    89    C    7  S      Cor( 1S)     1.99905      -9.88299
    90    C    7  S      Val( 2S)     1.03325      -0.00937
    91    C    7  S      Ryd( 3S)     0.00045       0.69729
    92    C    7  px     Val( 2p)     1.10543       0.13143
    93    C    7  px     Ryd( 3p)     0.00295       0.69019
    94    C    7  py     Val( 2p)     1.19183       0.13574
    95    C    7  py     Ryd( 3p)     0.00342       1.04876
    96    C    7  pz     Val( 2p)     1.17653       0.05350
    97    C    7  pz     Ryd( 3p)     0.00534       0.68713
    98    C    7  dxy    Ryd( 3d)     0.00066       2.72948
    99    C    7  dxz    Ryd( 3d)     0.00052       2.13599
   100    C    7  dyz    Ryd( 3d)     0.00006       2.08761
   101    C    7  dx2y2  Ryd( 3d)     0.00059       2.63802
   102    C    7  dz2    Ryd( 3d)     0.00034       2.40477
 
   103    H    8  S      Val( 1S)     0.79404       0.21378
   104    H    8  S      Ryd( 2S)     0.00355       0.48078
   105    H    8  px     Ryd( 2p)     0.00022       2.14657
   106    H    8  py     Ryd( 2p)     0.00071       2.47648
   107    H    8  pz     Ryd( 2p)     0.00022       1.79262
 
   108    H    9  S      Val( 1S)     0.83185       0.20663
   109    H    9  S      Ryd( 2S)     0.00207       0.47234
   110    H    9  px     Ryd( 2p)     0.00036       2.18358
   111    H    9  py     Ryd( 2p)     0.00048       2.30736
   112    H    9  pz     Ryd( 2p)     0.00036       1.77220
 
   113    H   10  S      Val( 1S)     0.78085       0.26053
   114    H   10  S      Ryd( 2S)     0.00322       0.52080
   115    H   10  px     Ryd( 2p)     0.00018       2.08213
   116    H   10  py     Ryd( 2p)     0.00082       2.48788
   117    H   10  pz     Ryd( 2p)     0.00024       1.80637

 WARNING:  1 low occupancy (<1.9990e) core orbital  found on  C    1
           1 low occupancy (<1.9990e) core orbital  found on  C    3


 Summary of Natural Population Analysis:                  
                                                          
                                       Natural Population 
                Natural  -----------------------------------------------
    Atom  No    Charge         Core      Valence    Rydberg      Total
 -----------------------------------------------------------------------
      C    1    0.00014      1.99882     3.97035    0.03069     5.99986
      N    2    0.41537      1.99905     4.53863    0.04695     6.58463
      C    3   -0.27927      1.99893     4.26309    0.01725     6.27927
     Cl    4   -0.10648      9.99963     7.09083    0.01601    17.10648
      O    5   -0.54078      1.99978     6.52751    0.01350     8.54078
      O    6   -0.54938      1.99979     6.53664    0.01295     8.54938
      C    7   -0.52041      1.99905     4.50704    0.01433     6.52041
      H    8    0.20125      0.00000     0.79404    0.00470     0.79875
      H    9    0.16487      0.00000     0.83185    0.00327     0.83513
      H   10    0.21469      0.00000     0.78085    0.00446     0.78531
 =======================================================================
   * Total *   -1.00000     21.99504    39.84084    0.16412    62.00000

                                 Natural Population      
 --------------------------------------------------------
   Core                      21.99504 ( 99.9775% of  22)
   Valence                   39.84084 ( 99.6021% of  40)
   Natural Minimal Basis     61.83588 ( 99.7353% of  62)
   Natural Rydberg Basis      0.16412 (  0.2647% of  62)
 --------------------------------------------------------

    Atom  No          Natural Electron Configuration
 ----------------------------------------------------------------------------
      C    1      [core]2S( 0.87)2p( 3.11)3p( 0.02)3d( 0.01)
      N    2      [core]2S( 1.05)2p( 3.49)3p( 0.03)3d( 0.02)
      C    3      [core]2S( 0.95)2p( 3.31)3p( 0.01)
     Cl    4      [core]3S( 1.83)3p( 5.26)3d( 0.01)
      O    5      [core]2S( 1.75)2p( 4.78)3p( 0.01)
      O    6      [core]2S( 1.75)2p( 4.79)3p( 0.01)
      C    7      [core]2S( 1.03)2p( 3.47)3p( 0.01)
      H    8            1S( 0.79)
      H    9            1S( 0.83)
      H   10            1S( 0.78)


 Wiberg bond index matrix in the NAO basis:                                    

     Atom    1       2       3       4       5       6       7       8       9
     ---- ------  ------  ------  ------  ------  ------  ------  ------  ------
   1.  C  0.0000  1.1790  1.2357  0.9944  0.1745  0.1714  0.0896  0.0062  0.0112
   2.  N  1.1790  0.0000  0.0123  0.0396  1.3340  1.3004  0.0504  0.0077  0.0002
   3.  C  1.2357  0.0123  0.0000  0.0259  0.0177  0.0130  1.7359  0.9143  0.0052
   4. Cl  0.9944  0.0396  0.0259  0.0000  0.0139  0.0393  0.0128  0.0063  0.0007
   5.  O  0.1745  1.3340  0.0177  0.0139  0.0000  0.2533  0.0621  0.0013  0.0006
   6.  O  0.1714  1.3004  0.0130  0.0393  0.2533  0.0000  0.0676  0.0015  0.0047
   7.  C  0.0896  0.0504  1.7359  0.0128  0.0621  0.0676  0.0000  0.0072  0.9495
   8.  H  0.0062  0.0077  0.9143  0.0063  0.0013  0.0015  0.0072  0.0000  0.0045
   9.  H  0.0112  0.0002  0.0052  0.0007  0.0006  0.0047  0.9495  0.0045  0.0000
  10.  H  0.0008  0.0003  0.0059  0.0002  0.0014  0.0088  0.9249  0.0169  0.0007

     Atom   10
     ---- ------
   1.  C  0.0008
   2.  N  0.0003
   3.  C  0.0059
   4. Cl  0.0002
   5.  O  0.0014
   6.  O  0.0088
   7.  C  0.9249
   8.  H  0.0169
   9.  H  0.0007
  10.  H  0.0000


 Wiberg bond index, Totals by atom:                                            

     Atom    1
     ---- ------
   1.  C  3.8627
   2.  N  3.9239
   3.  C  3.9659
   4. Cl  1.1329
   5.  O  1.8588
   6.  O  1.8599
   7.  C  3.9001
   8.  H  0.9659
   9.  H  0.9772
  10.  H  0.9598


 Atom-atom overlap-weighted NAO bond order:                                    

     Atom    1       2       3       4       5       6       7       8       9
     ---- ------  ------  ------  ------  ------  ------  ------  ------  ------
   1.  C  0.0000  0.9822  1.0634  0.7504 -0.0410 -0.0250 -0.0089  0.0114  0.0082
   2.  N  0.9822  0.0000  0.0064 -0.0175  0.9852  0.9634 -0.0083  0.0040 -0.0000
   3.  C  1.0634  0.0064  0.0000 -0.0173  0.0034 -0.0001  1.2790  0.7582  0.0075
   4. Cl  0.7504 -0.0175 -0.0173  0.0000  0.0049  0.0015  0.0032  0.0011 -0.0001
   5.  O -0.0410  0.9852  0.0034  0.0049  0.0000 -0.0567  0.0002 -0.0001  0.0000
   6.  O -0.0250  0.9634 -0.0001  0.0015 -0.0567  0.0000  0.0066  0.0003  0.0009
   7.  C -0.0089 -0.0083  1.2790  0.0032  0.0002  0.0066  0.0000  0.0059  0.7669
   8.  H  0.0114  0.0040  0.7582  0.0011 -0.0001  0.0003  0.0059  0.0000 -0.0126
   9.  H  0.0082 -0.0000  0.0075 -0.0001  0.0000  0.0009  0.7669 -0.0126  0.0000
  10.  H -0.0054 -0.0003  0.0137  0.0000  0.0002  0.0206  0.7714  0.0084 -0.0063

     Atom   10
     ---- ------
   1.  C -0.0054
   2.  N -0.0003
   3.  C  0.0137
   4. Cl  0.0000
   5.  O  0.0002
   6.  O  0.0206
   7.  C  0.7714
   8.  H  0.0084
   9.  H -0.0063
  10.  H  0.0000


 Atom-atom overlap-weighted NAO bond order, Totals by atom:                    

     Atom    1
     ---- ------
   1.  C  2.7354
   2.  N  2.9152
   3.  C  3.1144
   4. Cl  0.7263
   5.  O  0.8961
   6.  O  0.9114
   7.  C  2.8160
   8.  H  0.7766
   9.  H  0.7644
  10.  H  0.8023


 MO bond order:                                                                

     Atom    1       2       3       4       5       6       7       8       9
     ---- ------  ------  ------  ------  ------  ------  ------  ------  ------
   1.  C  0.0000  0.4525 -0.1565  0.1954 -0.3017  0.1486 -0.2536 -0.0262 -0.0711
   2.  N  0.4525  0.0000 -0.0183 -0.0739 -0.3195  1.2395 -0.1382 -0.0327 -0.0245
   3.  C -0.1565 -0.0183  0.0000  0.1356 -0.2108 -0.0358  1.0614 -0.1192  0.0346
   4. Cl  0.1954 -0.0739  0.1356  0.0000  0.0891  0.0272 -0.0456 -0.0232  0.0431
   5.  O -0.3017 -0.3195 -0.2108  0.0891  0.0000 -0.3317  0.2252  0.0568 -0.0184
   6.  O  0.1486  1.2395 -0.0358  0.0272 -0.3317  0.0000  0.2041 -0.0538 -0.0808
   7.  C -0.2536 -0.1382  1.0614 -0.0456  0.2252  0.2041  0.0000  0.0761 -0.6731
   8.  H -0.0262 -0.0327 -0.1192 -0.0232  0.0568 -0.0538  0.0761  0.0000 -0.0996
   9.  H -0.0711 -0.0245  0.0346  0.0431 -0.0184 -0.0808 -0.6731 -0.0996  0.0000
  10.  H  0.0116  0.0005  0.0195  0.0105 -0.0095 -0.1132  0.8903  0.1716 -0.0271

     Atom   10
     ---- ------
   1.  C  0.0116
   2.  N  0.0005
   3.  C  0.0195
   4. Cl  0.0105
   5.  O -0.0095
   6.  O -0.1132
   7.  C  0.8903
   8.  H  0.1716
   9.  H -0.0271
  10.  H  0.0000


 MO atomic valencies:                                                          

     Atom    1
     ---- ------
   1.  C -0.0010
   2.  N  1.0853
   3.  C  0.7104
   4. Cl  0.3583
   5.  O -0.8205
   6.  O  1.0042
   7.  C  1.3467
   8.  H -0.0502
   9.  H -0.9169
  10.  H  0.9543


 NATURAL BOND ORBITAL ANALYSIS:

                       Occupancies       Lewis Structure    Low   High
           Occ.    -------------------  -----------------   occ   occ
  Cycle   Thresh.   Lewis   Non-Lewis     CR  BD  3C  LP    (L)   (NL)   Dev
 =============================================================================
   1(1)    1.90    60.34750   1.65250     11  11   0   9     3      3    0.30
   2(2)    1.90    59.98263   2.01737     11  12   0   8     6      4    0.33
   3(3)    1.90    60.00416   1.99584     11  12   0   8     6      4    0.25
   4(4)    1.90    59.34779   2.65221     11  12   0   8     3      3    1.33
   5(5)    1.90    60.00416   1.99584     11  12   0   8     6      4    0.25
   6(6)    1.90    59.34779   2.65221     11  12   0   8     3      3    1.33
   7(7)    1.90    60.00416   1.99584     11  12   0   8     6      4    0.25
   8(8)    1.90    59.34779   2.65221     11  12   0   8     3      3    1.33
   9(9)    1.90    60.00416   1.99584     11  12   0   8     6      4    0.25
  10(1)    1.80    60.57721   1.42279     11  13   0   7     1      2    0.33
  11(2)    1.80    60.45792   1.54208     11  13   0   7     1      2    0.30
  12(3)    1.80    60.43643   1.56357     11  13   0   7     1      2    0.33
  13(4)    1.80    60.45792   1.54208     11  13   0   7     1      2    0.30
  14(5)    1.80    60.43643   1.56357     11  13   0   7     1      2    0.33
  15(6)    1.80    60.45792   1.54208     11  13   0   7     1      2    0.30
  16(7)    1.80    60.43643   1.56357     11  13   0   7     1      2    0.33
  17(8)    1.80    60.45792   1.54208     11  13   0   7     1      2    0.30
  18(9)    1.80    60.43643   1.56357     11  13   0   7     1      2    0.33
  19(1)    1.70    60.57721   1.42279     11  13   0   7     1      2    0.33
  20(2)    1.70    60.45792   1.54208     11  13   0   7     1      2    0.30
  21(3)    1.70    60.43643   1.56357     11  13   0   7     1      2    0.33
  22(4)    1.70    60.45792   1.54208     11  13   0   7     1      2    0.30
  23(5)    1.70    60.43643   1.56357     11  13   0   7     1      2    0.33
  24(6)    1.70    60.45792   1.54208     11  13   0   7     1      2    0.30
  25(7)    1.70    60.43643   1.56357     11  13   0   7     1      2    0.33
  26(8)    1.70    60.45792   1.54208     11  13   0   7     1      2    0.30
  27(9)    1.70    60.43643   1.56357     11  13   0   7     1      2    0.33
  28(1)    1.60    60.57775   1.42225     11  11   0   9     1      2    0.33
  29(2)    1.60    60.45889   1.54111     11  11   0   9     1      2    0.30
  30(3)    1.60    60.45889   1.54111     11  11   0   9     1      2    0.30
  31(4)    1.60    60.04623   1.95377     11  11   0   9     1      2    0.74
  32(5)    1.60    60.57775   1.42225     11  11   0   9     1      2    0.33
  33(6)    1.60    60.45889   1.54111     11  11   0   9     1      2    0.30
  34(7)    1.60    60.45889   1.54111     11  11   0   9     1      2    0.30
  35(8)    1.60    60.04623   1.95377     11  11   0   9     1      2    0.74
  36(9)    1.60    60.57775   1.42225     11  11   0   9     1      2    0.33
  37(1)    1.50    60.57775   1.42225     11  11   0   9     0      2    0.33
  38(2)    1.50    60.57775   1.42225     11  11   0   9     0      2    0.33
  39(1)    1.60    60.57775   1.42225     11  11   0   9     1      2    0.33
 -----------------------------------------------------------------------------

 Structure accepted: RESONANCE keyword permits strongly delocalized structure

 WARNING:  1 low occupancy (<1.9990e) core orbital  found on  C    1
           1 low occupancy (<1.9990e) core orbital  found on  C    3

 --------------------------------------------------------
   Core                     21.99505 ( 99.978% of  22)
   Valence Lewis            38.58270 ( 96.457% of  40)
  ==================       ============================
   Total Lewis              60.57775 ( 97.706% of  62)
  -----------------------------------------------------
   Valence non-Lewis         1.30645 (  2.107% of  62)
   Rydberg non-Lewis         0.11579 (  0.187% of  62)
  ==================       ============================
   Total non-Lewis           1.42225 (  2.294% of  62)
 --------------------------------------------------------


       (Occupancy)   Bond orbital/ Coefficients/ Hybrids
 ---------------------------------------------------------------------------------
     1. (1.99084) BD ( 1) C   1 - N   2  
                ( 37.20%)   0.6099* C   1 s( 32.27%)p 2.09( 67.59%)d 0.00(  0.14%)
                                           -0.0000  0.5677  0.0182 -0.0118  0.0090
                                            0.8207  0.0458  0.0001  0.0000 -0.0002
                                           -0.0000  0.0000 -0.0328 -0.0187
                ( 62.80%)   0.7925* N   2 s( 39.55%)p 1.53( 60.41%)d 0.00(  0.04%)
                                           -0.0000  0.6283 -0.0278  0.0601 -0.0043
                                           -0.7741 -0.0357 -0.0001 -0.0000 -0.0026
                                           -0.0000  0.0000 -0.0172 -0.0081
     2. (1.84740) BD ( 2) C   1 - N   2  
                ( 53.81%)   0.7336* C   1 s(  0.00%)p 1.00( 99.96%)d 0.00(  0.04%)
                                           -0.0000 -0.0001  0.0000 -0.0000  0.0000
                                           -0.0000 -0.0000  0.9998 -0.0104 -0.0000
                                           -0.0000  0.0194  0.0000  0.0000
                ( 46.19%)   0.6796* N   2 s(  0.00%)p 1.00( 99.94%)d 0.00(  0.06%)
                                           -0.0000  0.0001  0.0000 -0.0001  0.0000
                                           -0.0001  0.0000  0.9997  0.0012  0.0000
                                            0.0010 -0.0250 -0.0000 -0.0000
     3. (1.98050) BD ( 1) C   1 - C   3  
                ( 49.43%)   0.7031* C   1 s( 44.33%)p 1.25( 55.63%)d 0.00(  0.04%)
                                            0.0000 -0.6658 -0.0003  0.5803 -0.0039
                                            0.4684  0.0117 -0.0001 -0.0000 -0.0144
                                            0.0000  0.0000 -0.0040  0.0116
                ( 50.57%)   0.7111* C   3 s( 35.17%)p 1.84( 64.78%)d 0.00(  0.05%)
                                           -0.0001 -0.5930 -0.0095 -0.6007 -0.0148
                                           -0.5355  0.0075  0.0001  0.0000 -0.0170
                                            0.0000  0.0000 -0.0029  0.0126
     4. (1.98751) BD ( 1) C   1 -Cl   4  
                ( 41.71%)   0.6458* C   1 s( 23.29%)p 3.28( 76.46%)d 0.01(  0.25%)
                                           -0.0003  0.4826 -0.0091  0.8131  0.0097
                                           -0.3214  0.0020  0.0001 -0.0000 -0.0278
                                            0.0000 -0.0000  0.0332 -0.0251
                ( 58.29%)   0.7635*Cl   4 s( 19.82%)p 4.02( 79.74%)d 0.02(  0.44%)
                                           -0.0000  0.0002  0.4438 -0.0350  0.0001
                                           -0.8132 -0.0269 -0.0001  0.3678  0.0135
                                            0.0000 -0.0001 -0.0000 -0.0421  0.0000
                                           -0.0000  0.0392 -0.0330
     5. (1.99531) BD ( 1) N   2 - O   5  
                ( 49.09%)   0.7006* N   2 s( 30.22%)p 2.30( 69.64%)d 0.00(  0.14%)
                                           -0.0000  0.5493  0.0216  0.6669 -0.0255
                                            0.4989 -0.0454  0.0001 -0.0000  0.0301
                                            0.0000  0.0000  0.0123 -0.0173
                ( 50.91%)   0.7135* O   5 s( 25.54%)p 2.91( 74.32%)d 0.01(  0.14%)
                                           -0.0000  0.5035 -0.0430 -0.7137  0.0277
                                           -0.4827  0.0112 -0.0001  0.0000  0.0304
                                            0.0000  0.0000  0.0129 -0.0177
     6. (1.99185) BD ( 1) N   2 - O   6  
                ( 48.96%)   0.6997* N   2 s( 29.82%)p 2.35( 70.04%)d 0.00(  0.14%)
                                            0.0001  0.5458  0.0187 -0.7405  0.0334
                                            0.3863 -0.0413 -0.0000 -0.0000 -0.0247
                                            0.0000 -0.0000  0.0215 -0.0180
                ( 51.04%)   0.7144* O   6 s( 24.94%)p 3.00( 74.92%)d 0.01(  0.14%)
                                           -0.0000  0.4975 -0.0426  0.7830  0.0290
                                           -0.3678 -0.0058  0.0001  0.0000 -0.0249
                                            0.0000 -0.0000  0.0215 -0.0179
     7. (1.98144) BD ( 1) C   3 - C   7  
                ( 52.14%)   0.7221* C   3 s( 40.28%)p 1.48( 59.68%)d 0.00(  0.03%)
                                           -0.0001  0.6345  0.0164 -0.7577 -0.0269
                                            0.1475 -0.0146  0.0000 -0.0000 -0.0049
                                           -0.0000 -0.0000  0.0144 -0.0108
                ( 47.86%)   0.6918* C   7 s( 39.02%)p 1.56( 60.93%)d 0.00(  0.05%)
                                            0.0003  0.6245  0.0124  0.7714  0.0315
                                           -0.1147 -0.0119  0.0000  0.0000 -0.0054
                                            0.0000 -0.0000  0.0181 -0.0122
     8. (1.95612) BD ( 2) C   3 - C   7  
                ( 45.34%)   0.6734* C   3 s(  0.00%)p 1.00( 99.94%)d 0.00(  0.06%)
                                            0.0000  0.0000 -0.0000  0.0001 -0.0000
                                            0.0001 -0.0000  0.9993 -0.0286  0.0000
                                           -0.0238  0.0035 -0.0000 -0.0000
                ( 54.66%)   0.7393* C   7 s(  0.00%)p 1.00( 99.95%)d 0.00(  0.05%)
                                           -0.0000 -0.0001  0.0000  0.0001 -0.0000
                                            0.0000  0.0000  0.9991 -0.0344  0.0000
                                            0.0218 -0.0066  0.0000  0.0000
     9. (1.96858) BD ( 1) C   3 - H   8  
                ( 60.16%)   0.7756* C   3 s( 24.58%)p 3.07( 75.38%)d 0.00(  0.04%)
                                            0.0004 -0.4952  0.0246 -0.2525  0.0076
                                            0.8306 -0.0087 -0.0000 -0.0000  0.0115
                                           -0.0000 -0.0000  0.0117  0.0108
                ( 39.84%)   0.6312* H   8 s( 99.92%)p 0.00(  0.08%)
                                           -0.9996  0.0027  0.0077 -0.0278  0.0000
    10. (1.98434) BD ( 1) C   7 - H   9  
                ( 58.33%)   0.7638* C   7 s( 29.19%)p 2.42( 70.77%)d 0.00(  0.04%)
                                            0.0003 -0.5403  0.0032  0.5331  0.0221
                                            0.6504  0.0022 -0.0001 -0.0000 -0.0156
                                            0.0000  0.0000  0.0062  0.0096
                ( 41.67%)   0.6455* H   9 s( 99.92%)p 0.00(  0.08%)
                                           -0.9996  0.0019 -0.0174 -0.0212  0.0000
    11. (1.98496) BD ( 1) C   7 - H  10  
                ( 61.05%)   0.7814* C   7 s( 31.77%)p 2.15( 68.20%)d 0.00(  0.03%)
                                            0.0002 -0.5636  0.0074  0.3439  0.0141
                                           -0.7506 -0.0092 -0.0001 -0.0000  0.0101
                                            0.0000 -0.0000  0.0112  0.0090
                ( 38.95%)   0.6241* H  10 s( 99.91%)p 0.00(  0.09%)
                                           -0.9995  0.0050 -0.0066  0.0295  0.0000
    12. (1.99883) CR ( 1) C   1           s(100.00%)p 0.00(  0.00%)
                                            1.0000  0.0002 -0.0000  0.0002  0.0000
                                           -0.0001  0.0000  0.0000 -0.0000 -0.0000
                                            0.0000  0.0000  0.0000 -0.0000
    13. (1.99905) CR ( 1) N   2           s(100.00%)
                                            1.0000 -0.0000 -0.0000  0.0001 -0.0000
                                           -0.0001  0.0000  0.0000  0.0000  0.0000
                                           -0.0000 -0.0000 -0.0000  0.0000
    14. (1.99893) CR ( 1) C   3           s(100.00%)p 0.00(  0.00%)
                                            1.0000  0.0002 -0.0000 -0.0000 -0.0000
                                           -0.0004  0.0000 -0.0000  0.0000 -0.0000
                                            0.0000  0.0000 -0.0000 -0.0000
    15. (2.00000) CR ( 1)Cl   4           s(100.00%)
                                            1.0000 -0.0000  0.0000 -0.0000 -0.0000
                                           -0.0000 -0.0000 -0.0000 -0.0000  0.0000
                                           -0.0000 -0.0000 -0.0000 -0.0000  0.0000
                                           -0.0000  0.0000 -0.0000
    16. (1.99974) CR ( 2)Cl   4           s(100.00%)p 0.00(  0.00%)
                                           -0.0000  1.0000  0.0002  0.0000 -0.0000
                                            0.0002  0.0000  0.0000 -0.0002 -0.0000
                                           -0.0000  0.0000  0.0000  0.0000 -0.0000
                                            0.0000 -0.0000  0.0000
    17. (1.99993) CR ( 3)Cl   4           s(  0.00%)p 1.00(100.00%)
                                           -0.0000 -0.0000  0.0001  0.0000  1.0000
                                            0.0001  0.0000  0.0000 -0.0001 -0.0000
                                           -0.0000  0.0000  0.0000  0.0000 -0.0000
                                            0.0000 -0.0000  0.0000
    18. (1.99997) CR ( 4)Cl   4           s(  0.00%)p 1.00(100.00%)
                                           -0.0000  0.0000 -0.0000 -0.0000  0.0000
                                           -0.0001 -0.0000  1.0000 -0.0000  0.0000
                                            0.0000 -0.0000 -0.0000 -0.0000  0.0000
                                           -0.0000  0.0000 -0.0000
    19. (1.99999) CR ( 5)Cl   4           s(  0.00%)p 1.00(100.00%)
                                           -0.0000 -0.0000  0.0000  0.0000 -0.0000
                                            0.0000  0.0000  0.0000 -0.0000 -0.0000
                                            1.0000 -0.0000  0.0000  0.0000  0.0000
                                           -0.0000 -0.0000  0.0000
    20. (1.99978) CR ( 1) O   5           s(100.00%)p 0.00(  0.00%)
                                            1.0000 -0.0003 -0.0000 -0.0003  0.0000
                                           -0.0000  0.0000 -0.0000  0.0000  0.0000
                                            0.0000  0.0000  0.0000 -0.0000
    21. (1.99978) CR ( 1) O   6           s(100.00%)p 0.00(  0.00%)
                                            1.0000 -0.0003 -0.0000  0.0002  0.0000
                                            0.0000 -0.0000  0.0000  0.0000 -0.0000
                                            0.0000 -0.0000  0.0000 -0.0000
    22. (1.99905) CR ( 1) C   7           s(100.00%)p 0.00(  0.00%)
                                            1.0000  0.0000 -0.0000 -0.0005 -0.0000
                                           -0.0000  0.0000  0.0000 -0.0000  0.0000
                                            0.0000 -0.0000 -0.0000 -0.0000
    23. (1.99391) LP ( 1)Cl   4           s( 79.37%)p 0.26( 20.62%)d 0.00(  0.01%)
                                           -0.0000 -0.0003  0.8908  0.0093 -0.0001
                                            0.4459  0.0026  0.0001 -0.0863 -0.0002
                                           -0.0000  0.0000  0.0000  0.0049 -0.0000
                                            0.0000 -0.0068  0.0051
    24. (1.96868) LP ( 2)Cl   4           s(  0.89%)p99.99( 99.09%)d 0.02(  0.02%)
                                           -0.0000 -0.0001  0.0942  0.0065 -0.0001
                                           -0.3675  0.0026 -0.0001 -0.9251  0.0050
                                           -0.0000  0.0003 -0.0000  0.0118 -0.0000
                                            0.0000  0.0057 -0.0016
    25. (1.96211) LP ( 3)Cl   4           s(  0.00%)p 1.00( 99.99%)d 0.00(  0.01%)
                                            0.0000  0.0000  0.0000  0.0000  0.0000
                                            0.0000  0.0000  0.0000  0.0003 -0.0000
                                            0.0000  0.9999 -0.0108 -0.0000 -0.0100
                                            0.0019  0.0000 -0.0000
    26. (1.98408) LP ( 1) O   5           s( 74.61%)p 0.34( 25.39%)d 0.00(  0.01%)
                                            0.0004  0.8637  0.0116  0.4136 -0.0019
                                            0.2877 -0.0011  0.0001 -0.0000 -0.0051
                                           -0.0000 -0.0000 -0.0023  0.0049
    27. (1.90790) LP ( 2) O   5           s(  0.00%)p 1.00( 99.93%)d 0.00(  0.06%)
                                            0.0001  0.0057  0.0010  0.5627  0.0045
                                           -0.8262 -0.0064 -0.0000 -0.0000  0.0083
                                           -0.0000  0.0000 -0.0239 -0.0002
    28. (1.59956) LP ( 3) O   5           s(  0.00%)p 1.00( 99.90%)d 0.00(  0.10%)
                                            0.0000 -0.0000 -0.0000 -0.0001  0.0000
                                           -0.0001  0.0000  0.9995  0.0067  0.0000
                                           -0.0264 -0.0187  0.0000 -0.0000
    29. (1.98063) LP ( 1) O   6           s( 75.06%)p 0.33( 24.94%)d 0.00(  0.00%)
                                            0.0003  0.8663  0.0113 -0.4308 -0.0022
                                            0.2526  0.0002 -0.0000 -0.0000  0.0048
                                           -0.0000  0.0000 -0.0026  0.0044
    30. (1.89627) LP ( 2) O   6           s(  0.16%)p99.99( 99.79%)d 0.38(  0.06%)
                                            0.0001  0.0394  0.0026 -0.4450  0.0050
                                           -0.8943  0.0068 -0.0001  0.0000 -0.0142
                                           -0.0000  0.0000 -0.0196 -0.0004
    31. (1.62071) LP ( 3) O   6           s(  0.00%)p 1.00( 99.90%)d 0.00(  0.10%)
                                           -0.0000 -0.0000 -0.0000 -0.0001  0.0000
                                           -0.0001 -0.0000  0.9995 -0.0058  0.0000
                                            0.0278 -0.0141 -0.0000  0.0000
    32. (0.01170) RY*( 1) C   1           s(  0.10%)p99.99( 99.49%)d 4.34(  0.41%)
                                           -0.0000  0.0091  0.0296  0.0021 -0.9860
                                           -0.0023  0.1506  0.0000 -0.0001 -0.0381
                                           -0.0000  0.0000  0.0517  0.0052
    33. (0.00638) RY*( 2) C   1           s(  4.37%)p20.93( 91.47%)d 0.95(  4.16%)
                                            0.0000 -0.0230  0.2078 -0.0072  0.1469
                                           -0.0502  0.9437 -0.0000 -0.0001 -0.1275
                                            0.0000 -0.0000 -0.1542 -0.0396
    34. (0.00366) RY*( 3) C   1           s(  0.00%)p 1.00( 88.06%)d 0.14( 11.94%)
                                            0.0000 -0.0000 -0.0001  0.0000 -0.0000
                                           -0.0000  0.0002  0.0068  0.9384 -0.0000
                                           -0.3119  0.1488 -0.0000  0.0001
    35. (0.00136) RY*( 4) C   1           s( 93.96%)p 0.04(  3.85%)d 0.02(  2.19%)
                                            0.0000 -0.0032  0.9693  0.0126 -0.0061
                                           -0.0091 -0.1956 -0.0000 -0.0000  0.1379
                                           -0.0003  0.0003  0.0055 -0.0531
    36. (0.00102) RY*( 5) C   1           s(  0.19%)p 9.12(  1.70%)d99.99( 98.12%)
                                           -0.0000 -0.0085  0.0423 -0.0343  0.0742
                                            0.0328  0.0961 -0.0000  0.0000 -0.2463
                                            0.0001  0.0002  0.9485 -0.1444
    37. (0.00076) RY*( 6) C   1           s(  0.00%)p 1.00(  0.51%)d99.99( 99.49%)
                                            0.0000 -0.0000  0.0002  0.0000 -0.0000
                                            0.0000 -0.0000  0.0194  0.0684 -0.0000
                                           -0.2538 -0.9646  0.0002 -0.0000
    38. (0.00055) RY*( 7) C   1           s(  0.89%)p 4.11(  3.66%)d99.99( 95.45%)
                                           -0.0000 -0.0025  0.0944 -0.0218 -0.0027
                                           -0.0013 -0.1901  0.0000  0.0002 -0.9450
                                            0.0005 -0.0001 -0.2401 -0.0608
    39. (0.00041) RY*( 8) C   1           s(  0.00%)p 1.00( 11.47%)d 7.72( 88.53%)
                                            0.0000 -0.0000  0.0003  0.0000 -0.0001
                                           -0.0000  0.0001  0.0078  0.3386  0.0005
                                            0.9156 -0.2167  0.0000  0.0001
    40. (0.00002) RY*( 9) C   1           s(  0.61%)p 0.24(  0.14%)d99.99( 99.25%)
    41. (0.01470) RY*( 1) N   2           s(  0.22%)p99.99( 96.09%)d17.10(  3.69%)
                                            0.0000 -0.0053  0.0462  0.0485  0.9782
                                           -0.0070 -0.0414 -0.0000 -0.0000 -0.1695
                                            0.0000 -0.0001  0.0903 -0.0078
    42. (0.00941) RY*( 2) N   2           s(  5.66%)p11.90( 67.33%)d 4.77( 27.01%)
                                            0.0000 -0.0630  0.2293 -0.0040 -0.0743
                                           -0.0331 -0.8165  0.0000 -0.0001  0.1070
                                            0.0000  0.0000  0.5082 -0.0197
    43. (0.00445) RY*( 3) N   2           s(  0.00%)p 1.00( 21.50%)d 3.65( 78.50%)
                                            0.0000  0.0000  0.0003 -0.0000 -0.0000
                                           -0.0000  0.0001 -0.0182 -0.4634  0.0001
                                           -0.4392 -0.7694 -0.0001 -0.0002
    44. (0.00407) RY*( 4) N   2           s(  0.00%)p 1.00(  7.10%)d13.08( 92.90%)
                                            0.0000  0.0000  0.0002 -0.0000 -0.0000
                                           -0.0000  0.0000 -0.0094 -0.2663  0.0001
                                            0.8974 -0.3517 -0.0002  0.0001
    45. (0.00287) RY*( 5) N   2           s( 20.04%)p 0.74( 14.92%)d 3.24( 65.03%)
                                            0.0000 -0.0211  0.4472 -0.0011  0.0103
                                            0.0017 -0.3862  0.0000  0.0000 -0.1482
                                           -0.0001  0.0002 -0.7892  0.0744
    46. (0.00224) RY*( 6) N   2           s(  0.02%)p99.99(  3.51%)d99.99( 96.47%)
                                           -0.0000 -0.0002  0.0139 -0.0308  0.1846
                                           -0.0036  0.0056  0.0000 -0.0000  0.9665
                                           -0.0001  0.0002 -0.1747 -0.0079
    47. (0.00036) RY*( 7) N   2           s( 74.40%)p 0.24( 18.00%)d 0.10(  7.60%)
                                            0.0000  0.0227  0.8623  0.0008 -0.0411
                                           -0.0374  0.4206 -0.0000  0.0002  0.0417
                                            0.0000  0.0003  0.2711 -0.0283
    48. (0.00009) RY*( 8) N   2           s(  0.00%)p 1.00( 71.46%)d 0.40( 28.54%)
    49. (0.00004) RY*( 9) N   2           s(  0.07%)p 0.91(  0.06%)d99.99( 99.87%)
    50. (0.00680) RY*( 1) C   3           s(  0.53%)p99.99( 97.63%)d 3.46(  1.84%)
                                            0.0000 -0.0023  0.0729 -0.0069  0.5348
                                           -0.0218 -0.8305 -0.0000 -0.0001  0.1163
                                           -0.0001 -0.0000  0.0696 -0.0068
    51. (0.00341) RY*( 2) C   3           s(  8.35%)p10.55( 88.17%)d 0.42(  3.48%)
                                            0.0000 -0.0150  0.2887  0.0290 -0.8127
                                           -0.0099 -0.4694 -0.0000 -0.0007  0.1716
                                           -0.0007 -0.0002  0.0585  0.0437
    52. (0.00242) RY*( 3) C   3           s(  0.00%)p 1.00( 41.02%)d 1.44( 58.98%)
                                           -0.0000 -0.0000  0.0008  0.0000 -0.0006
                                           -0.0000 -0.0004  0.0348  0.6395  0.0003
                                            0.7282  0.2440  0.0002 -0.0001
    53. (0.00074) RY*( 4) C   3           s( 84.59%)p 0.13( 10.90%)d 0.05(  4.50%)
                                            0.0000 -0.0010  0.9197  0.0045  0.2144
                                           -0.0288  0.2494 -0.0000 -0.0002  0.1085
                                           -0.0006 -0.0003  0.1683 -0.0703
    54. (0.00017) RY*( 5) C   3           s(  2.11%)p 1.25(  2.64%)d45.23( 95.26%)
                                           -0.0000 -0.0025  0.1451  0.0169 -0.0581
                                            0.0103 -0.1504 -0.0000  0.0000 -0.9683
                                            0.0000 -0.0001  0.1203 -0.0224
    55. (0.00011) RY*( 6) C   3           s(  4.31%)p 0.10(  0.42%)d22.09( 95.27%)
                                           -0.0000  0.0075  0.2075 -0.0079  0.0290
                                            0.0073 -0.0566 -0.0000 -0.0016 -0.0848
                                            0.0013  0.0006 -0.9552  0.1817
    56. (0.00008) RY*( 7) C   3           s(  0.00%)p 1.00( 57.61%)d 0.74( 42.39%)
    57. (0.00001) RY*( 8) C   3           s(  0.00%)p 1.00(  1.43%)d68.80( 98.57%)
    58. (0.00002) RY*( 9) C   3           s(  0.07%)p 5.58(  0.40%)d99.99( 99.53%)
    59. (0.00481) RY*( 1)Cl   4           s(  0.00%)p 1.00( 21.58%)d 3.63( 78.42%)
                                            0.0000 -0.0000 -0.0000  0.0000  0.0000
                                            0.0000  0.0000 -0.0000 -0.0000  0.0000
                                            0.0000  0.0038 -0.4645  0.0000  0.8211
                                           -0.3315 -0.0000  0.0002
    60. (0.00116) RY*( 2)Cl   4           s( 26.20%)p 1.73( 45.36%)d 1.09( 28.44%)
                                           -0.0000  0.0000  0.0151  0.5117 -0.0000
                                           -0.0422  0.0523 -0.0000  0.0251 -0.6696
                                           -0.0000 -0.0000 -0.0001  0.5304 -0.0000
                                            0.0001 -0.0291 -0.0471
    61. (0.00096) RY*( 3)Cl   4           s( 20.14%)p 1.09( 22.04%)d 2.87( 57.82%)
                                           -0.0000  0.0000  0.0114  0.4487 -0.0000
                                           -0.0404  0.3971 -0.0000  0.0157  0.2465
                                           -0.0000 -0.0000 -0.0001 -0.2036 -0.0001
                                            0.0001 -0.7324  0.0173
    62. (0.00025) RY*( 4)Cl   4           s(  0.17%)p99.99( 48.35%)d99.99( 51.48%)
                                            0.0000 -0.0000 -0.0095  0.0397  0.0000
                                            0.0223 -0.6922  0.0000 -0.0145 -0.0611
                                            0.0000  0.0000 -0.0000 -0.1183  0.0001
                                           -0.0000 -0.3548 -0.6123
    63. (0.00009) RY*( 5)Cl   4           s( 28.67%)p 0.06(  1.76%)d 2.43( 69.57%)
    64. (0.00007) RY*( 6)Cl   4           s(  0.00%)p 1.00( 32.78%)d 2.05( 67.22%)
    65. (0.00001) RY*( 7)Cl   4           s( 19.19%)p 2.57( 49.35%)d 1.64( 31.46%)
    66. (0.00001) RY*( 8)Cl   4           s(  0.00%)p 1.00( 45.65%)d 1.19( 54.35%)
    67. (0.00002) RY*( 9)Cl   4           s(  5.56%)p 6.06( 33.68%)d10.93( 60.76%)
    68. (0.00236) RY*( 1) O   5           s(  8.09%)p10.92( 88.31%)d 0.45(  3.60%)
                                            0.0000  0.0008  0.2844 -0.0078  0.4568
                                           -0.0017 -0.8212  0.0000  0.0029 -0.0120
                                            0.0006  0.0004  0.1894  0.0044
    69. (0.00233) RY*( 2) O   5           s(  0.00%)p 1.00( 93.63%)d 0.07(  6.37%)
                                            0.0000  0.0000  0.0009 -0.0000  0.0014
                                           -0.0000 -0.0025 -0.0017 -0.9676  0.0000
                                           -0.2077 -0.1434  0.0006 -0.0000
    70. (0.00148) RY*( 3) O   5           s( 60.83%)p 0.57( 34.49%)d 0.08(  4.68%)
                                            0.0000  0.0146  0.7798 -0.0372 -0.5812
                                           -0.0227 -0.0721 -0.0000  0.0000  0.2041
                                            0.0000  0.0001 -0.0703 -0.0147
    71. (0.00005) RY*( 4) O   5           s(  4.40%)p 7.72( 33.98%)d14.00( 61.61%)
    72. (0.00002) RY*( 5) O   5           s( 26.23%)p 1.45( 38.05%)d 1.36( 35.71%)
    73. (0.00003) RY*( 6) O   5           s(  0.00%)p 1.00(  2.43%)d40.15( 97.57%)
    74. (0.00000) RY*( 7) O   5           s(  0.00%)p 1.00(  4.05%)d23.72( 95.95%)
    75. (0.00001) RY*( 8) O   5           s(  0.06%)p85.51(  5.51%)d99.99( 94.43%)
    76. (0.00000) RY*( 9) O   5           s(  0.23%)p 0.04(  0.01%)d99.99( 99.76%)
    77. (0.00220) RY*( 1) O   6           s(  0.00%)p 1.00( 92.81%)d 0.08(  7.19%)
                                            0.0000  0.0000  0.0004  0.0000 -0.0001
                                           -0.0000  0.0003 -0.0028  0.9634 -0.0001
                                            0.2422 -0.1149  0.0001  0.0000
    78. (0.00207) RY*( 2) O   6           s(  5.81%)p15.53( 90.28%)d 0.67(  3.90%)
                                            0.0000 -0.0009  0.2411  0.0041  0.3973
                                            0.0022  0.8631  0.0000 -0.0003  0.0697
                                           -0.0001  0.0000  0.1834  0.0232
    79. (0.00150) RY*( 3) O   6           s( 63.80%)p 0.49( 31.15%)d 0.08(  5.05%)
                                           -0.0000  0.0143  0.7986  0.0406 -0.5540
                                           -0.0162  0.0519  0.0000 -0.0004 -0.2244
                                           -0.0001  0.0000 -0.0084 -0.0078
    80. (0.00014) RY*( 4) O   6           s( 17.48%)p 3.77( 65.89%)d 0.95( 16.63%)
                                            0.0000 -0.0070  0.4180 -0.0021  0.7164
                                            0.0126 -0.3815 -0.0000  0.0000 -0.3664
                                            0.0001 -0.0000 -0.1729  0.0464
    81. (0.00004) RY*( 5) O   6           s(  1.68%)p 0.42(  0.71%)d57.93( 97.60%)
    82. (0.00002) RY*( 6) O   6           s(  0.00%)p 1.00(  2.67%)d36.40( 97.33%)
    83. (0.00001) RY*( 7) O   6           s( 10.52%)p 1.13( 11.91%)d 7.37( 77.57%)
    84. (0.00000) RY*( 8) O   6           s(  0.00%)p 1.00(  4.61%)d20.69( 95.39%)
    85. (0.00000) RY*( 9) O   6           s(  0.56%)p 0.71(  0.40%)d99.99( 99.04%)
    86. (0.00365) RY*( 1) C   7           s(  0.96%)p98.32( 94.79%)d 4.41(  4.25%)
                                            0.0000  0.0031  0.0981 -0.0060  0.3505
                                           -0.0047  0.9082 -0.0000 -0.0005  0.1805
                                           -0.0001  0.0000  0.0993  0.0076
    87. (0.00286) RY*( 2) C   7           s(  0.00%)p 1.00( 96.37%)d 0.04(  3.63%)
                                           -0.0000  0.0000  0.0001  0.0000 -0.0003
                                            0.0000 -0.0004 -0.0295 -0.9812 -0.0001
                                           -0.1905  0.0065 -0.0001  0.0000
    88. (0.00111) RY*( 3) C   7           s( 12.64%)p 6.77( 85.57%)d 0.14(  1.79%)
                                            0.0000 -0.0010  0.3555 -0.0455  0.8559
                                            0.0030 -0.3478  0.0000 -0.0000 -0.1229
                                            0.0000  0.0000  0.0259  0.0465
    89. (0.00013) RY*( 4) C   7           s(  6.26%)p 1.07(  6.68%)d13.91( 87.06%)
                                            0.0000 -0.0020  0.2501 -0.0042 -0.1475
                                           -0.0164  0.2116  0.0000  0.0001 -0.9283
                                            0.0001  0.0001  0.0313 -0.0886
    90. (0.00007) RY*( 5) C   7           s( 73.24%)p 0.13(  9.18%)d 0.24( 17.58%)
    91. (0.00001) RY*( 6) C   7           s(  0.58%)p 2.91(  1.69%)d99.99( 97.73%)
    92. (0.00000) RY*( 7) C   7           s(  0.00%)p 0.00(  0.01%)d 1.00( 99.99%)
    93. (0.00000) RY*( 8) C   7           s(  0.00%)p 1.00(  3.68%)d26.20( 96.32%)
    94. (0.00001) RY*( 9) C   7           s(  6.33%)p 0.35(  2.21%)d14.45( 91.47%)
    95. (0.00359) RY*( 1) H   8           s( 99.08%)p 0.01(  0.92%)
                                            0.0053  0.9954  0.0582 -0.0759 -0.0000
    96. (0.00022) RY*( 2) H   8           s(  0.00%)p 1.00(100.00%)
                                            0.0000  0.0000  0.0002  0.0001  1.0000
    97. (0.00016) RY*( 3) H   8           s(  0.17%)p99.99( 99.83%)
                                           -0.0018  0.0418 -0.9783 -0.2030  0.0002
    98. (0.00005) RY*( 4) H   8           s(  0.82%)p99.99( 99.18%)
    99. (0.00210) RY*( 1) H   9           s( 98.39%)p 0.02(  1.61%)
                                            0.0053  0.9919 -0.0985 -0.0798  0.0001
   100. (0.00036) RY*( 2) H   9           s(  0.00%)p 1.00(100.00%)
                                            0.0000 -0.0001  0.0002  0.0000  1.0000
   101. (0.00012) RY*( 3) H   9           s(  0.01%)p 1.00( 99.99%)
                                            0.0036  0.0093  0.6846 -0.7288 -0.0001
   102. (0.00005) RY*( 4) H   9           s(  1.67%)p58.75( 98.33%)
[...]
  12. CR (   1) C   1                / 51. RY*(   2) C   3                    1.11   10.86    0.098
  12. CR (   1) C   1                / 53. RY*(   4) C   3                    1.40   10.75    0.110
  12. CR (   1) C   1                /109. BD*(   1) C   1 - C   3            0.88   10.66    0.087
  12. CR (   1) C   1                /110. BD*(   1) C   1 -Cl   4            1.25   10.28    0.102
  12. CR (   1) C   1                /111. BD*(   1) N   2 - O   5            0.90   10.57    0.088
  12. CR (   1) C   1                /112. BD*(   1) N   2 - O   6            0.65   10.56    0.075
  12. CR (   1) C   1                /113. BD*(   1) C   3 - C   7            1.42   10.76    0.111
  13. CR (   1) N   2                / 33. RY*(   2) C   1                    4.18   15.04    0.224
  13. CR (   1) N   2                / 42. RY*(   2) N   2                    0.54   15.68    0.082
  13. CR (   1) N   2                /107. BD*(   1) C   1 - N   2            1.20   14.79    0.122
  13. CR (   1) N   2                /109. BD*(   1) C   1 - C   3            0.76   14.89    0.096
  14. CR (   1) C   3                / 32. RY*(   1) C   1                    0.78   10.94    0.083
  14. CR (   1) C   3                / 33. RY*(   2) C   1                    0.88   10.75    0.087
  14. CR (   1) C   3                / 35. RY*(   4) C   1                    0.82   10.61    0.083
  14. CR (   1) C   3                / 88. RY*(   3) C   7                    2.30   10.60    0.139
  14. CR (   1) C   3                / 95. RY*(   1) H   8                    0.58   10.42    0.070
  14. CR (   1) C   3                /107. BD*(   1) C   1 - N   2            1.20   10.51    0.102
  14. CR (   1) C   3                /110. BD*(   1) C   1 -Cl   4            0.68   10.22    0.075
  14. CR (   1) C   3                /116. BD*(   1) C   7 - H   9            0.64   10.52    0.073
  14. CR (   1) C   3                /117. BD*(   1) C   7 - H  10            0.81   10.56    0.083
  16. CR (   2)Cl   4                / 32. RY*(   1) C   1                    1.89   11.01    0.129
  16. CR (   2)Cl   4                /109. BD*(   1) C   1 - C   3            0.74   10.68    0.080
  20. CR (   1) O   5                / 41. RY*(   1) N   2                    1.89   20.02    0.174
  20. CR (   1) O   5                / 42. RY*(   2) N   2                    1.80   20.22    0.171
  20. CR (   1) O   5                /107. BD*(   1) C   1 - N   2            1.53   19.33    0.157
  20. CR (   1) O   5                /112. BD*(   1) N   2 - O   6            0.62   19.32    0.099
  21. CR (   1) O   6                / 41. RY*(   1) N   2                    2.92   20.02    0.217
  21. CR (   1) O   6                / 42. RY*(   2) N   2                    0.77   20.22    0.112
  21. CR (   1) O   6                /107. BD*(   1) C   1 - N   2            1.52   19.33    0.156
  21. CR (   1) O   6                /111. BD*(   1) N   2 - O   5            0.59   19.34    0.097
  22. CR (   1) C   7                / 50. RY*(   1) C   3                    0.65   11.03    0.076
  22. CR (   1) C   7                / 51. RY*(   2) C   3                    1.96   10.78    0.130
  22. CR (   1) C   7                / 99. RY*(   1) H   9                    0.60   10.42    0.070
  22. CR (   1) C   7                /103. RY*(   1) H  10                    0.95   10.46    0.089
  22. CR (   1) C   7                /109. BD*(   1) C   1 - C   3            1.96   10.58    0.130
  22. CR (   1) C   7                /113. BD*(   1) C   3 - C   7            0.58   10.68    0.070
  22. CR (   1) C   7                /115. BD*(   1) C   3 - H   8            0.78   10.49    0.081
  23. LP (   1)Cl   4                / 32. RY*(   1) C   1                    3.07    1.76    0.066
  23. LP (   1)Cl   4                /109. BD*(   1) C   1 - C   3            1.71    1.42    0.044
  24. LP (   2)Cl   4                / 33. RY*(   2) C   1                    0.52    1.00    0.021
  24. LP (   2)Cl   4                /107. BD*(   1) C   1 - N   2            7.22    0.76    0.067
  24. LP (   2)Cl   4                /109. BD*(   1) C   1 - C   3            2.67    0.85    0.043
  25. LP (   3)Cl   4                /108. BD*(   2) C   1 - N   2           11.54    0.24    0.058
  26. LP (   1) O   5                / 41. RY*(   1) N   2                    3.83    1.85    0.075
  26. LP (   1) O   5                / 42. RY*(   2) N   2                    2.08    2.04    0.058
  26. LP (   1) O   5                / 45. RY*(   5) N   2                    0.73    2.82    0.041
  26. LP (   1) O   5                /107. BD*(   1) C   1 - N   2            5.05    1.16    0.069
  26. LP (   1) O   5                /112. BD*(   1) N   2 - O   6            1.66    1.15    0.039
  27. LP (   2) O   5                / 41. RY*(   1) N   2                    0.97    1.36    0.033
  27. LP (   2) O   5                / 42. RY*(   2) N   2                    1.56    1.56    0.045
  27. LP (   2) O   5                / 45. RY*(   5) N   2                    1.41    2.33    0.052
  27. LP (   2) O   5                / 46. RY*(   6) N   2                    0.61    3.10    0.040
  27. LP (   2) O   5                /107. BD*(   1) C   1 - N   2            9.76    0.67    0.072
  27. LP (   2) O   5                /109. BD*(   1) C   1 - C   3            0.77    0.77    0.022
  27. LP (   2) O   5                /112. BD*(   1) N   2 - O   6           17.73    0.66    0.098
  28. LP (   3) O   5                / 43. RY*(   3) N   2                    2.59    2.19    0.075
  28. LP (   3) O   5                / 44. RY*(   4) N   2                    1.18    2.40    0.053
  28. LP (   3) O   5                / 48. RY*(   8) N   2                    0.78    1.46    0.034
  28. LP (   3) O   5                / 69. RY*(   2) O   5                    0.63    1.34    0.029
  28. LP (   3) O   5                /108. BD*(   2) C   1 - N   2           96.10    0.15    0.118
  29. LP (   1) O   6                / 41. RY*(   1) N   2                    5.26    1.85    0.088
  29. LP (   1) O   6                / 42. RY*(   2) N   2                    0.76    2.05    0.035
  29. LP (   1) O   6                /107. BD*(   1) C   1 - N   2            5.25    1.16    0.071
  29. LP (   1) O   6                /111. BD*(   1) N   2 - O   5            1.24    1.17    0.034
  29. LP (   1) O   6                /117. BD*(   1) C   7 - H  10            0.71    1.21    0.026
  30. LP (   2) O   6                / 42. RY*(   2) N   2                    1.78    1.56    0.048
  30. LP (   2) O   6                / 45. RY*(   5) N   2                    1.44    2.33    0.053
  30. LP (   2) O   6                / 46. RY*(   6) N   2                    0.52    3.10    0.037
  30. LP (   2) O   6                /107. BD*(   1) C   1 - N   2            7.88    0.67    0.065
  30. LP (   2) O   6                /110. BD*(   1) C   1 -Cl   4            2.12    0.39    0.026
  30. LP (   2) O   6                /111. BD*(   1) N   2 - O   5           16.66    0.68    0.096
  30. LP (   2) O   6                /116. BD*(   1) C   7 - H   9            0.65    0.69    0.019
  30. LP (   2) O   6                /117. BD*(   1) C   7 - H  10            0.90    0.73    0.023
  31. LP (   3) O   6                / 44. RY*(   4) N   2                    3.37    2.41    0.089
  31. LP (   3) O   6                / 48. RY*(   8) N   2                    0.75    1.46    0.033
  31. LP (   3) O   6                / 77. RY*(   1) O   6                    0.56    1.35    0.027
  31. LP (   3) O   6                /108. BD*(   2) C   1 - N   2           87.78    0.15    0.114
 108. BD*(   2) C   1 - N   2        / 34. RY*(   3) C   1                    2.86    0.77    0.069
 108. BD*(   2) C   1 - N   2        / 37. RY*(   6) C   1                    0.89    1.99    0.062
 108. BD*(   2) C   1 - N   2        / 43. RY*(   3) N   2                    2.24    2.04    0.099
 108. BD*(   2) C   1 - N   2        / 44. RY*(   4) N   2                    0.59    2.25    0.053
 108. BD*(   2) C   1 - N   2        / 52. RY*(   3) C   3                    0.78    1.45    0.049
 108. BD*(   2) C   1 - N   2        / 59. RY*(   1)Cl   4                    1.06    0.88    0.045
 108. BD*(   2) C   1 - N   2        / 69. RY*(   2) O   5                    1.22    1.19    0.056
 108. BD*(   2) C   1 - N   2        / 77. RY*(   1) O   6                    1.19    1.20    0.055
 108. BD*(   2) C   1 - N   2        /114. BD*(   2) C   3 - C   7           33.32    0.11    0.078
 114. BD*(   2) C   3 - C   7        / 56. RY*(   7) C   3                    1.28    1.12    0.097
 114. BD*(   2) C   3 - C   7        / 87. RY*(   2) C   7                    3.03    0.53    0.102


 Natural Bond Orbitals (Summary):

                                                            Principal Delocalizations
           NBO                        Occupancy    Energy   (geminal,vicinal,remote)
 ====================================================================================
 Molecular unit  1  (C3H3NO2Cl)
     1. BD (   1) C   1 - N   2          1.99084    -0.67449  109(g),111(g),68(v),78(v)
                                                    50(v),115(v),112(g)
     2. BD (   2) C   1 - N   2          1.84740    -0.16885  108(g),114(v),59(v),69(v)
                                                    77(v),52(v)
     3. BD (   1) C   1 - C   3          1.98050    -0.52301  113(g),111(v),107(g),116(v)
                                                    41(v),86(v),115(g)
     4. BD (   1) C   1 -Cl   4          1.98751    -0.53455  113(v),112(v),50(v)
     5. BD (   1) N   2 - O   5          1.99531    -0.82424  107(g),32(v),109(v)
     6. BD (   1) N   2 - O   6          1.99185    -0.80993  110(v),107(g),32(v),41(g)
     7. BD (   1) C   3 - C   7          1.98144    -0.53912  109(g),110(v),115(g),33(v)
                                                    117(g),116(g),32(v),95(v)
     8. BD (   2) C   3 - C   7          1.95612    -0.09663  108(v),34(v)
     9. BD (   1) C   3 - H   8          1.96858    -0.33356  107(v),117(v),32(v),113(g)
                                                    110(v),86(v)
    10. BD (   1) C   7 - H   9          1.98434    -0.33885  109(v),50(v),113(g)
    11. BD (   1) C   7 - H  10          1.98496    -0.32942  115(v),51(v),113(g)
    12. CR (   1) C   1                  1.99883    -9.96358  113(v),53(v),110(g),51(v)
                                                    42(v),111(v),109(g),112(v)
    13. CR (   1) N   2                  1.99905   -14.18843  33(v),107(g),109(v),42(g)
    14. CR (   1) C   3                  1.99893    -9.90253  88(v),107(v),33(v),35(v)
                                                    117(v),32(v),110(v),116(v)
                                                    95(v)
    15. CR (   1)Cl   4                  2.00000  -100.34454   
    16. CR (   2)Cl   4                  1.99974    -9.97636  32(v),109(v)
    17. CR (   3)Cl   4                  1.99993    -7.04739   
    18. CR (   4)Cl   4                  1.99997    -7.04219   
    19. CR (   5)Cl   4                  1.99999    -7.04064   
    20. CR (   1) O   5                  1.99978   -18.72417  41(v),42(v),107(v),112(v)
    21. CR (   1) O   6                  1.99978   -18.73018  41(v),107(v),42(v),111(v)
    22. CR (   1) C   7                  1.99905    -9.88308  109(v),51(v),103(v),115(v)
                                                    50(v),99(v),113(g)
    23. LP (   1)Cl   4                  1.99391    -0.72173  32(v),109(v)
    24. LP (   2)Cl   4                  1.96868    -0.15394  107(v),109(v),33(v)
    25. LP (   3)Cl   4                  1.96211    -0.14927  108(v)
    26. LP (   1) O   5                  1.98408    -0.55333  107(v),41(v),42(v),112(v)
                                                    45(v)
    27. LP (   2) O   5                  1.90790    -0.06817  112(v),107(v),42(v),45(v)
                                                    41(v),109(r),46(v)
    28. LP (   3) O   5                  1.59956    -0.05846  108(v),43(v),44(v),48(v)
                                                    69(g)
    29. LP (   1) O   6                  1.98063    -0.55693  107(v),41(v),111(v),42(v)
                                                    117(r)
    30. LP (   2) O   6                  1.89627    -0.07043  111(v),107(v),110(r),42(v)
                                                    45(v),117(r),116(r),46(v)
    31. LP (   3) O   6                  1.62071    -0.06170  108(v),44(v),48(v),77(g)
    32. RY*(   1) C   1                  0.01170     1.03456   
    33. RY*(   2) C   1                  0.00638     0.84781   
    34. RY*(   3) C   1                  0.00366     0.86584   
    35. RY*(   4) C   1                  0.00136     0.71175   
    36. RY*(   5) C   1                  0.00102     2.35227   
    37. RY*(   6) C   1                  0.00076     2.08214   
    38. RY*(   7) C   1                  0.00055     2.43227   
    39. RY*(   8) C   1                  0.00041     1.81788   
    40. RY*(   9) C   1                  0.00002     2.28489   
    41. RY*(   1) N   2                  0.01470     1.29288   
    42. RY*(   2) N   2                  0.00941     1.49122   
    43. RY*(   3) N   2                  0.00445     2.12838   
    44. RY*(   4) N   2                  0.00407     2.34359   
    45. RY*(   5) N   2                  0.00287     2.26438   
    46. RY*(   6) N   2                  0.00224     3.02969   
    47. RY*(   7) N   2                  0.00036     1.43153   
    48. RY*(   8) N   2                  0.00009     1.40045   
    49. RY*(   9) N   2                  0.00004     2.80241   
    50. RY*(   1) C   3                  0.00680     1.15002   
    51. RY*(   2) C   3                  0.00341     0.89537   
    52. RY*(   3) C   3                  0.00242     1.54579   
    53. RY*(   4) C   3                  0.00074     0.79055   
    54. RY*(   5) C   3                  0.00017     2.49403   
    55. RY*(   6) C   3                  0.00011     2.60818   
    56. RY*(   7) C   3                  0.00008     1.32627   
    57. RY*(   8) C   3                  0.00001     2.03127   
    58. RY*(   9) C   3                  0.00002     2.35806   
    59. RY*(   1)Cl   4                  0.00481     0.96780   
    60. RY*(   2)Cl   4                  0.00116     0.93828   
    61. RY*(   3)Cl   4                  0.00096     1.00315   
    62. RY*(   4)Cl   4                  0.00025     1.07759   
    63. RY*(   5)Cl   4                  0.00009     1.37237   
    64. RY*(   6)Cl   4                  0.00007     1.02678   
    65. RY*(   7)Cl   4                  0.00001     1.12164   
    66. RY*(   8)Cl   4                  0.00001     1.04690   
    67. RY*(   9)Cl   4                  0.00002     1.11552   
    68. RY*(   1) O   5                  0.00236     1.32283   
    69. RY*(   2) O   5                  0.00233     1.27902   
    70. RY*(   3) O   5                  0.00148     1.59193   
    71. RY*(   4) O   5                  0.00005     2.57918   
    72. RY*(   5) O   5                  0.00002     2.00828   
    73. RY*(   6) O   5                  0.00003     2.86978   
    74. RY*(   7) O   5                  0.00000     2.90125   
    75. RY*(   8) O   5                  0.00001     3.09411   
    76. RY*(   9) O   5                  0.00000     2.89468   
    77. RY*(   1) O   6                  0.00220     1.29160   
    78. RY*(   2) O   6                  0.00207     1.39919   
    79. RY*(   3) O   6                  0.00150     1.61540   
    80. RY*(   4) O   6                  0.00014     1.49636   
    81. RY*(   5) O   6                  0.00004     3.45259   
    82. RY*(   6) O   6                  0.00002     2.86018   
    83. RY*(   7) O   6                  0.00001     2.77987   
    84. RY*(   8) O   6                  0.00000     2.88810   
    85. RY*(   9) O   6                  0.00000     2.87502   
    86. RY*(   1) C   7                  0.00365     1.14785   
    87. RY*(   2) C   7                  0.00286     0.73266   
    88. RY*(   3) C   7                  0.00111     0.69518   
    89. RY*(   4) C   7                  0.00013     2.46091   
    90. RY*(   5) C   7                  0.00007     1.00223   
    91. RY*(   6) C   7                  0.00001     2.59393   
    92. RY*(   7) C   7                  0.00000     2.08758   
    93. RY*(   8) C   7                  0.00000     2.09400   
    94. RY*(   9) C   7                  0.00001     2.28677   
    95. RY*(   1) H   8                  0.00359     0.52079   
    96. RY*(   2) H   8                  0.00022     1.79262   
    97. RY*(   3) H   8                  0.00016     2.10420   
    98. RY*(   4) H   8                  0.00005     2.47025   
    99. RY*(   1) H   9                  0.00210     0.53555   
   100. RY*(   2) H   9                  0.00036     1.77220   
   101. RY*(   3) H   9                  0.00012     1.97291   
   102. RY*(   4) H   9                  0.00005     2.44690   
   103. RY*(   1) H  10                  0.00330     0.57978   
   104. RY*(   2) H  10                  0.00024     1.80637   
   105. RY*(   3) H  10                  0.00016     1.98773   
   106. RY*(   4) H  10                  0.00007     2.51354   
   107. BD*(   1) C   1 - N   2          0.08376     0.60303   
   108. BD*(   2) C   1 - N   2          0.74151     0.09138  114(v),34(g),43(g),69(v)
                                                    77(v),59(v),37(g),52(v)
                                                    44(g)
   109. BD*(   1) C   1 - C   3          0.02917     0.69878   
   110. BD*(   1) C   1 -Cl   4          0.03894     0.31580   
   111. BD*(   1) N   2 - O   5          0.05577     0.61108   
   112. BD*(   1) N   2 - O   6          0.05989     0.59644   
   113. BD*(   1) C   3 - C   7          0.01289     0.79744   
   114. BD*(   2) C   3 - C   7          0.24348     0.20435  108(v),87(g),56(g)
   115. BD*(   1) C   3 - H   8          0.01745     0.60878   
   116. BD*(   1) C   7 - H   9          0.00972     0.61718   
   117. BD*(   1) C   7 - H  10          0.01387     0.65775   
       -------------------------------
              Total Lewis   60.57775  ( 97.7061%)
        Valence non-Lewis    1.30645  (  2.1072%)
        Rydberg non-Lewis    0.11579  (  0.1868%)
       -------------------------------
            Total unit  1   62.00000  (100.0000%)
           Charge unit  1   -1.00000
 Leave Link  607 at Wed Mar  6 03:58:33 2024, MaxMem=  8053063680 cpu:              68.9 elap:               2.2
 (Enter /public/software/apps/Gaussian/g16/l9999.exe)
 Unable to Open any file for archive entry.
 1\1\GINC-NODE2\SP\RB3LYP\def2SVP\C3H3Cl1N1O2(1-)\TMJ_HG\06-Mar-2024\0\
 \#p B3LYP def2svp sp EmpiricalDispersion=GD3BJ pop=nboread\\Title: ani
 on_0167_opt_g16\\-1,1\C,0,0.66258,-0.26375,-0.54762\N,0,1.4932,0.60898
 ,0.11358\C,0,-0.72153,-0.49082,-0.27493\Cl,0,1.39704,-1.19297,-1.86666
 \O,0,2.69689,0.72618,-0.21289\O,0,0.99633,1.28325,1.05715\C,0,-1.5609,
 0.05012,0.64978\H,0,-1.14532,-1.24145,-0.9538\H,0,-2.60494,-0.27957,0.
 67819\H,0,-1.21326,0.80001,1.3572\\Version=ES64L-G16RevC.01\State=1-A\
 HF=-781.0812113\RMSD=6.118e-09\Dipole=-0.604991,-0.9512099,-0.8342543\
 Quadrupole=-3.3514634,2.0951829,1.2562805,-1.6874336,1.6063149,-3.5508
 708\PG=C01 [X(C3H3Cl1N1O2)]\\@
 The archive entry for this job was punched.


 RESEARCH IS WHAT I AM DOING WHEN I DON'T KNOW WHAT I AM DOING.
     -- WERNER VON BRAUN
 Job cpu time:       0 days  0 hours  2 minutes  1.6 seconds.
 Elapsed time:       0 days  0 hours  0 minutes  4.2 seconds.
 File lengths (MBytes):  RWF=     22 Int=      0 D2E=      0 Chk=     67 Scr=      2
 Normal termination of Gaussian 16 at Wed Mar  6 03:58:33 2024.
