 Entering Gaussian System, Link 0=g16
 Input=cation_0407_opt_g16.com
 Output=cation_0407_opt_g16.log
 Initial command:
 /public/software/apps/Gaussian/g16/l1.exe "/public/home/TMJ_HG/tmp/Gau-14454.inp" -scrdir="/public/home/TMJ_HG/tmp/"
 Entering Link 1 = /public/software/apps/Gaussian/g16/l1.exe PID=     14455.
  
 Copyright (c) 1988-2019, Gaussian, Inc.  All Rights Reserved.
  
 This is part of the Gaussian(R) 16 program.  It is based on
 the Gaussian(R) 09 system (copyright 2009, Gaussian, Inc.),
 the Gaussian(R) 03 system (copyright 2003, Gaussian, Inc.),
 the Gaussian(R) 98 system (copyright 1998, Gaussian, Inc.),
 the Gaussian(R) 94 system (copyright 1995, Gaussian, Inc.),
 the Gaussian 92(TM) system (copyright 1992, Gaussian, Inc.),
 the Gaussian 90(TM) system (copyright 1990, Gaussian, Inc.),
 the Gaussian 88(TM) system (copyright 1988, Gaussian, Inc.),
 the Gaussian 86(TM) system (copyright 1986, Carnegie Mellon
 University), and the Gaussian 82(TM) system (copyright 1983,
 Carnegie Mellon University). Gaussian is a federally registered
 trademark of Gaussian, Inc.
  
 This software contains proprietary and confidential information,
 including trade secrets, belonging to Gaussian, Inc.
  
 This software is provided under written license and may be
 used, copied, transmitted, or stored only in accord with that
 written license.
  
 The following legend is applicable only to US Government
 contracts under FAR:
  
                    RESTRICTED RIGHTS LEGEND
  
 Use, reproduction and disclosure by the US Government is
 subject to restrictions as set forth in subparagraphs (a)
 and (c) of the Commercial Computer Software - Restricted
 Rights clause in FAR 52.227-19.
  
 Gaussian, Inc.
 340 Quinnipiac St., Bldg. 40, Wallingford CT 06492
  
  
 ---------------------------------------------------------------
 Warning -- This program may not be used in any manner that
 competes with the business of Gaussian, Inc. or will provide
 assistance to any competitor of Gaussian, Inc.  The licensee
 of this program is prohibited from giving any competitor of
 Gaussian, Inc. access to this program.  By using this program,
 the user acknowledges that Gaussian, Inc. is engaged in the
 business of creating and licensing software in the field of
 computational chemistry and represents and warrants to the
 licensee that it is not a competitor of Gaussian, Inc. and that
 it will not use this program in any manner prohibited above.
 ---------------------------------------------------------------
  

 Cite this work as:
 Gaussian 16, Revision C.01,
 M. J. Frisch, G. W. Trucks, H. B. Schlegel, G. E. Scuseria, 
 M. A. Robb, J. R. Cheeseman, G. Scalmani, V. Barone, 
 G. A. Petersson, H. Nakatsuji, X. Li, M. Caricato, A. V. Marenich, 
 J. Bloino, B. G. Janesko, R. Gomperts, B. Mennucci, H. P. Hratchian, 
 J. V. Ortiz, A. F. Izmaylov, J. L. Sonnenberg, D. Williams-Young, 
 F. Ding, F. Lipparini, F. Egidi, J. Goings, B. Peng, A. Petrone, 
 T. Henderson, D. Ranasinghe, V. G. Zakrzewski, J. Gao, N. Rega, 
 G. Zheng, W. Liang, M. Hada, M. Ehara, K. Toyota, R. Fukuda, 
 J. Hasegawa, M. Ishida, T. Nakajima, Y. Honda, O. Kitao, H. Nakai, 
 T. Vreven, K. Throssell, J. A. Montgomery, Jr., J. E. Peralta, 
 F. Ogliaro, M. J. Bearpark, J. J. Heyd, E. N. Brothers, K. N. Kudin, 
 V. N. Staroverov, T. A. Keith, R. Kobayashi, J. Normand, 
 K. Raghavachari, A. P. Rendell, J. C. Burant, S. S. Iyengar, 
 J. Tomasi, M. Cossi, J. M. Millam, M. Klene, C. Adamo, R. Cammi, 
 J. W. Ochterski, R. L. Martin, K. Morokuma, O. Farkas, 
 J. B. Foresman, and D. J. Fox, Gaussian, Inc., Wallingford CT, 2019.
 
 ******************************************
 Gaussian 16:  ES64L-G16RevC.01  3-Jul-2019
                24-Feb-2024 
 ******************************************
 %mem=60GB
 %nprocshared=32
 Will use up to   32 processors via shared memory.
 %chk=cation_0407_opt_g16.chk
 ---------------------------------------------------------
 # B3LYP def2svp Opt freq EmpiricalDispersion=GD3BJ NoSymm
 ---------------------------------------------------------
 1/18=20,19=15,26=3,38=1/1,3;
 2/9=110,12=2,15=1,17=6,18=5,40=1/2;
 3/5=43,7=101,11=2,25=1,30=1,71=1,74=-5,124=41/1,2,3;
 4//1;
 5/5=2,38=5/2;
 6/7=2,8=2,9=2,10=2,28=1/1;
 7/30=1/1,2,3,16;
 1/18=20,19=15,26=3/3(2);
 2/9=110,15=1/2;
 99//99;
 2/9=110,15=1/2;
 3/5=43,7=101,11=2,25=1,30=1,71=1,74=-5,124=41/1,2,3;
 4/5=5,16=3,69=1/1;
 5/5=2,38=5/2;
 7/30=1/1,2,3,16;
 1/18=20,19=15,26=3/3(-5);
 2/9=110,15=1/2;
 6/7=2,8=2,9=2,10=2,19=2,28=1/1;
 99/9=1/99;
 ------------------
 Title: cation_0407
 ------------------
 Symbolic Z-matrix:
 Charge =  1 Multiplicity = 1
 C                    -0.7943   -1.296     0. 
 N                    -0.2607   -2.5204   -0.6139 
 N                    -2.119    -1.2839    0.6371 
 C                     0.        0.        0. 
 O                    -0.991    -3.5148   -0.7909 
 O                     1.0497   -2.6209   -1.0145 
 C                    -2.9788   -2.3547    0.3022 
 H                    -2.5513   -0.3629    0.7729 
 H                    -2.4166   -3.0735   -0.3432 
 H                    -3.25     -2.8992    1.2466 
 H                    -3.9235   -2.08     -0.1886 
 C                     1.375     0.        0. 
 C                     2.0973    1.1933    0. 
 C                     1.4561    2.4134    0. 
 C                     0.0774    2.4045    0. 
 C                    -0.6456    1.2172    0. 
 H                     1.9224   -0.9326    0.0001 
 H                     3.1915    1.1773   -0.0001 
 H                     2.0205    3.3367    0. 
 H                    -0.4356    3.3637    0.0001 
 H                    -1.7431    1.2365    0. 
 

 GradGradGradGradGradGradGradGradGradGradGradGradGradGradGradGradGradGrad
 Berny optimization.
 Initialization pass.
                           ----------------------------
                           !    Initial Parameters    !
                           ! (Angstroms and Degrees)  !
 --------------------------                            --------------------------
 ! Name  Definition              Value          Derivative Info.                !
 --------------------------------------------------------------------------------
 ! R1    R(1,2)                  1.47           estimate D2E/DX2                !
 ! R2    R(1,3)                  1.47           estimate D2E/DX2                !
 ! R3    R(1,4)                  1.52           estimate D2E/DX2                !
 ! R4    R(2,5)                  1.2464         estimate D2E/DX2                !
 ! R5    R(2,6)                  1.3739         estimate D2E/DX2                !
 ! R6    R(3,7)                  1.4135         estimate D2E/DX2                !
 ! R7    R(3,8)                  1.0264         estimate D2E/DX2                !
 ! R8    R(4,12)                 1.375          estimate D2E/DX2                !
 ! R9    R(4,16)                 1.3778         estimate D2E/DX2                !
 ! R10   R(7,9)                  1.1177         estimate D2E/DX2                !
 ! R11   R(7,10)                 1.1234         estimate D2E/DX2                !
 ! R12   R(7,11)                 1.0995         estimate D2E/DX2                !
 ! R13   R(12,13)                1.3949         estimate D2E/DX2                !
 ! R14   R(12,17)                1.0814         estimate D2E/DX2                !
 ! R15   R(13,14)                1.3783         estimate D2E/DX2                !
 ! R16   R(13,18)                1.0943         estimate D2E/DX2                !
 ! R17   R(14,15)                1.3787         estimate D2E/DX2                !
 ! R18   R(14,19)                1.0821         estimate D2E/DX2                !
 ! R19   R(15,16)                1.3901         estimate D2E/DX2                !
 ! R20   R(15,20)                1.0878         estimate D2E/DX2                !
 ! R21   R(16,21)                1.0977         estimate D2E/DX2                !
 ! A1    A(2,1,3)              120.9966         estimate D2E/DX2                !
 ! A2    A(2,1,4)              121.3653         estimate D2E/DX2                !
 ! A3    A(3,1,4)              117.6381         estimate D2E/DX2                !
 ! A4    A(1,2,5)              120.7411         estimate D2E/DX2                !
 ! A5    A(1,2,6)              121.932          estimate D2E/DX2                !
 ! A6    A(5,2,6)              117.3269         estimate D2E/DX2                !
 ! A7    A(1,3,7)              116.0547         estimate D2E/DX2                !
 ! A8    A(1,3,8)              116.3764         estimate D2E/DX2                !
 ! A9    A(7,3,8)              117.058          estimate D2E/DX2                !
 ! A10   A(1,4,12)             121.5035         estimate D2E/DX2                !
 ! A11   A(1,4,16)             120.5551         estimate D2E/DX2                !
 ! A12   A(12,4,16)            117.9414         estimate D2E/DX2                !
 ! A13   A(3,7,9)              108.5438         estimate D2E/DX2                !
 ! A14   A(3,7,10)             108.352          estimate D2E/DX2                !
 ! A15   A(3,7,11)             116.0493         estimate D2E/DX2                !
 ! A16   A(9,7,10)             107.1671         estimate D2E/DX2                !
 ! A17   A(9,7,11)             109.5789         estimate D2E/DX2                !
 ! A18   A(10,7,11)            106.7955         estimate D2E/DX2                !
 ! A19   A(4,12,13)            121.1864         estimate D2E/DX2                !
 ! A20   A(4,12,17)            120.4113         estimate D2E/DX2                !
 ! A21   A(13,12,17)           118.4024         estimate D2E/DX2                !
 ! A22   A(12,13,14)           121.0903         estimate D2E/DX2                !
 ! A23   A(12,13,18)           120.3486         estimate D2E/DX2                !
 ! A24   A(14,13,18)           118.5611         estimate D2E/DX2                !
 ! A25   A(13,14,15)           117.3534         estimate D2E/DX2                !
 ! A26   A(13,14,19)           120.8399         estimate D2E/DX2                !
 ! A27   A(15,14,19)           121.8067         estimate D2E/DX2                !
 ! A28   A(14,15,16)           121.709          estimate D2E/DX2                !
 ! A29   A(14,15,20)           117.7689         estimate D2E/DX2                !
 ! A30   A(16,15,20)           120.5221         estimate D2E/DX2                !
 ! A31   A(4,16,15)            120.7195         estimate D2E/DX2                !
 ! A32   A(4,16,21)            118.9488         estimate D2E/DX2                !
 ! A33   A(15,16,21)           120.3316         estimate D2E/DX2                !
 ! D1    D(3,1,2,5)             11.0284         estimate D2E/DX2                !
 ! D2    D(3,1,2,6)           -168.9797         estimate D2E/DX2                !
 ! D3    D(4,1,2,5)           -168.9797         estimate D2E/DX2                !
 ! D4    D(4,1,2,6)             11.0122         estimate D2E/DX2                !
 ! D5    D(2,1,3,7)            -17.2771         estimate D2E/DX2                !
 ! D6    D(2,1,3,8)           -161.143          estimate D2E/DX2                !
 ! D7    D(4,1,3,7)            162.7306         estimate D2E/DX2                !
 ! D8    D(4,1,3,8)             18.8648         estimate D2E/DX2                !
 ! D9    D(2,1,4,12)           -29.282          estimate D2E/DX2                !
 ! D10   D(2,1,4,16)           150.718          estimate D2E/DX2                !
 ! D11   D(3,1,4,12)           150.7102         estimate D2E/DX2                !
 ! D12   D(3,1,4,16)           -29.2898         estimate D2E/DX2                !
 ! D13   D(1,3,7,9)              4.9791         estimate D2E/DX2                !
 ! D14   D(1,3,7,10)           121.0371         estimate D2E/DX2                !
 ! D15   D(1,3,7,11)          -118.8961         estimate D2E/DX2                !
 ! D16   D(8,3,7,9)            148.5933         estimate D2E/DX2                !
 ! D17   D(8,3,7,10)           -95.3487         estimate D2E/DX2                !
 ! D18   D(8,3,7,11)            24.7181         estimate D2E/DX2                !
 ! D19   D(1,4,12,13)          180.0            estimate D2E/DX2                !
 ! D20   D(1,4,12,17)           -0.0061         estimate D2E/DX2                !
 ! D21   D(16,4,12,13)           0.0            estimate D2E/DX2                !
 ! D22   D(16,4,12,17)         179.9939         estimate D2E/DX2                !
 ! D23   D(1,4,16,15)          180.0            estimate D2E/DX2                !
 ! D24   D(1,4,16,21)            0.0            estimate D2E/DX2                !
 ! D25   D(12,4,16,15)           0.0            estimate D2E/DX2                !
 ! D26   D(12,4,16,21)         180.0            estimate D2E/DX2                !
 ! D27   D(4,12,13,14)           0.0            estimate D2E/DX2                !
 ! D28   D(4,12,13,18)        -179.9939         estimate D2E/DX2                !
 ! D29   D(17,12,13,14)       -179.994          estimate D2E/DX2                !
 ! D30   D(17,12,13,18)          0.0121         estimate D2E/DX2                !
 ! D31   D(12,13,14,15)          0.0            estimate D2E/DX2                !
 ! D32   D(12,13,14,19)        180.0            estimate D2E/DX2                !
 ! D33   D(18,13,14,15)        179.994          estimate D2E/DX2                !
 ! D34   D(18,13,14,19)         -0.006          estimate D2E/DX2                !
 ! D35   D(13,14,15,16)          0.0            estimate D2E/DX2                !
 ! D36   D(13,14,15,20)        179.994          estimate D2E/DX2                !
 ! D37   D(19,14,15,16)        180.0            estimate D2E/DX2                !
 ! D38   D(19,14,15,20)         -0.006          estimate D2E/DX2                !
 ! D39   D(14,15,16,4)           0.0            estimate D2E/DX2                !
 ! D40   D(14,15,16,21)        180.0            estimate D2E/DX2                !
 ! D41   D(20,15,16,4)        -179.9939         estimate D2E/DX2                !
 ! D42   D(20,15,16,21)          0.0061         estimate D2E/DX2                !
 --------------------------------------------------------------------------------
 Trust Radius=3.00D-01 FncErr=1.00D-07 GrdErr=1.00D-06 EigMax=2.50D+02 EigMin=1.00D-04
 Number of steps in this run=    106 maximum allowed number of steps=    126.
 GradGradGradGradGradGradGradGradGradGradGradGradGradGradGradGradGradGrad

                          Input orientation:                          
 ---------------------------------------------------------------------
 Center     Atomic      Atomic             Coordinates (Angstroms)
 Number     Number       Type             X           Y           Z
 ---------------------------------------------------------------------
      1          6           0       -0.794300   -1.296000    0.000000
      2          7           0       -0.260700   -2.520400   -0.613900
      3          7           0       -2.119000   -1.283900    0.637100
      4          6           0        0.000000    0.000000    0.000000
      5          8           0       -0.991000   -3.514800   -0.790900
      6          8           0        1.049700   -2.620900   -1.014500
      7          6           0       -2.978800   -2.354700    0.302200
      8          1           0       -2.551300   -0.362900    0.772900
      9          1           0       -2.416600   -3.073500   -0.343200
     10          1           0       -3.250000   -2.899200    1.246600
     11          1           0       -3.923500   -2.080000   -0.188600
     12          6           0        1.375000    0.000000    0.000000
     13          6           0        2.097300    1.193300    0.000000
     14          6           0        1.456100    2.413400    0.000000
     15          6           0        0.077400    2.404500    0.000000
     16          6           0       -0.645600    1.217200    0.000000
     17          1           0        1.922400   -0.932600    0.000100
     18          1           0        3.191500    1.177300   -0.000100
     19          1           0        2.020500    3.336700    0.000000
     20          1           0       -0.435600    3.363700    0.000100
     21          1           0       -1.743100    1.236500    0.000000
 ---------------------------------------------------------------------
                    Distance matrix (angstroms):
                    1          2          3          4          5
     1  C    0.000000
     2  N    1.469952   0.000000
     3  N    1.469991   2.558752   0.000000
     4  C    1.520042   2.607154   2.558214   0.000000
     5  O    2.363744   1.246394   2.878973   3.736499   0.000000
     6  O    2.486947   1.373946   3.815234   3.000033   2.239087
     7  C    2.446265   2.873110   1.413516   3.809093   2.547950
     8  H    2.134268   3.438731   1.026434   2.690391   3.848958
     9  H    2.430874   2.242120   2.062092   3.924811   1.558049
    10  H    3.186648   3.541308   2.063939   4.530107   3.103780
    11  H    3.231427   3.713615   2.138171   4.444752   3.319785
    12  C    2.526950   3.066725   3.776550   1.375000   4.310139
    13  C    3.815490   4.441689   4.931491   2.413013   5.685888
    14  C    4.338657   5.259910   5.182399   2.818639   6.461995
    15  C    3.801784   4.974518   4.339858   2.405745   6.066722
    16  C    2.517595   3.807187   2.971919   1.377815   4.810057
    17  H    2.740897   2.768399   4.106348   2.136671   3.972573
    18  H    4.690822   5.095824   5.887694   3.401721   6.335177
    19  H    5.420794   6.315565   6.236289   3.900768   7.525803
    20  H    4.673486   5.918633   4.983953   3.391788   6.946072
    21  H    2.704400   4.085178   2.626712   2.137131   4.875041
                    6          7          8          9         10
     6  O    0.000000
     7  C    4.246572   0.000000
     8  H    4.610918   2.090833   0.000000
     9  H    3.559596   1.117713   2.934480   0.000000
    10  H    4.865947   1.123353   2.673086   1.803441   0.000000
    11  H    5.070247   1.099456   2.399135   1.811544   1.784514
    12  C    2.829160   4.958983   4.018072   4.892895   5.599107
    13  C    4.083479   6.200518   4.962723   6.220825   6.848079
    14  C    5.151558   6.518776   4.936038   6.724705   7.205908
    15  C    5.218163   5.664068   3.894347   6.028790   6.383951
    16  C    4.316742   4.277104   2.593411   4.654496   5.028087
    17  H    2.154385   5.112279   4.575562   4.850591   5.672301
    18  H    4.476900   7.116109   5.995790   7.045410   7.724315
    19  H    6.120838   7.581316   5.931759   7.803609   8.259457
    20  H    6.249077   6.265719   4.354418   6.743868   6.978433
    21  H    4.869135   3.809855   1.951574   4.375784   4.574798
                   11         12         13         14         15
    11  H    0.000000
    12  C    5.695268   0.000000
    13  C    6.855662   1.394877   0.000000
    14  C    7.011869   2.414762   1.378326   0.000000
    15  C    6.012779   2.732286   2.355207   1.378729   0.000000
    16  C    4.653142   2.358898   2.743004   2.418272   1.390112
    17  H    5.960426   1.081383   2.133082   3.378336   3.813169
    18  H    7.827436   2.164650   1.094317   2.130623   3.347184
    19  H    8.044088   3.398564   2.144775   1.082142   2.155141
    20  H    6.467992   3.820046   3.335599   2.116979   1.087765
    21  H    3.973523   3.354323   3.840643   3.408808   2.162971
                   16         17         18         19         20
    16  C    0.000000
    17  H    3.349069   0.000000
    18  H    3.837307   2.462172   0.000000
    19  H    3.405932   4.270427   2.456471   0.000000
    20  H    2.156748   4.900853   4.235115   2.456248   0.000000
    21  H    1.097670   4.259212   4.934955   4.309933   2.496905
                   21
    21  H    0.000000
 Symmetry turned off by external request.
 Stoichiometry    C8H9N2O2(1+)
 Framework group  C1[X(C8H9N2O2)]
 Deg. of freedom    57
 Full point group                 C1      NOp   1
 Rotational constants (GHZ):           1.8180464           0.6304420           0.4803012
 Standard basis: def2SVP (5D, 7F)
   213 basis functions,   363 primitive gaussians,   225 cartesian basis functions
    43 alpha electrons       43 beta electrons
       nuclear repulsion energy       670.9478233263 Hartrees.
 NAtoms=   21 NActive=   21 NUniq=   21 SFac= 1.00D+00 NAtFMM=   60 NAOKFM=F Big=F
 Integral buffers will be    131072 words long.
 Raffenetti 2 integral format.
 Two-electron integral symmetry is turned off.
 Nuclear repulsion after empirical dispersion term =      670.9089680127 Hartrees.
 One-electron integrals computed using PRISM.
   1 Symmetry operations used in ECPInt.
 ECPInt:  NShTT=    4950 NPrTT=   18138 LenC2=    4756 LenP2D=   13051.
 LDataN:  DoStor=T MaxTD1= 4 Len=   56
 NBasis=   213 RedAO= T EigKep=  2.67D-04  NBF=   213
 NBsUse=   213 1.00D-06 EigRej= -1.00D+00 NBFU=   213
 ExpMin= 1.22D-01 ExpMax= 2.27D+03 ExpMxC= 3.41D+02 IAcc=3 IRadAn=         5 AccDes= 0.00D+00
 Harris functional with IExCor=  402 and IRadAn=       5 diagonalized for initial guess.
 HarFok:  IExCor=  402 AccDes= 0.00D+00 IRadAn=         5 IDoV= 1 UseB2=F ITyADJ=14
 ICtDFT=  3500011 ScaDFX=  1.000000  1.000000  1.000000  1.000000
 FoFCou: FMM=F IPFlag=           0 FMFlag=      100000 FMFlg1=           0
         NFxFlg=           0 DoJE=T BraDBF=F KetDBF=T FulRan=T
         wScrn=  0.000000 ICntrl=       500 IOpCl=  0 I1Cent=   200000004 NGrid=           0
         NMat0=    1 NMatS0=      1 NMatT0=    0 NMatD0=    1 NMtDS0=    0 NMtDT0=    0
 Symmetry not used in FoFCou.
 Requested convergence on RMS density matrix=1.00D-08 within 128 cycles.
 Requested convergence on MAX density matrix=1.00D-06.
 Requested convergence on             energy=1.00D-06.
 No special actions if energy rises.
 Integral accuracy reduced to 1.0D-05 until final iterations.
 EnCoef did     1 forward-backward iterations
 EnCoef did     2 forward-backward iterations
 EnCoef did     3 forward-backward iterations
 EnCoef did     1 forward-backward iterations
 EnCoef did    10 forward-backward iterations
 EnCoef did     5 forward-backward iterations
 Initial convergence to 1.0D-05 achieved.  Increase integral accuracy.
 SCF Done:  E(RB3LYP) =  -569.371389914     A.U. after   23 cycles
            NFock= 23  Conv=0.44D-08     -V/T= 2.0100

 **********************************************************************

            Population analysis using the SCF Density.

 **********************************************************************

 Alpha  occ. eigenvalues --  -19.37619 -19.35710 -14.75724 -14.62329 -10.54589
 Alpha  occ. eigenvalues --  -10.40823 -10.38373 -10.37928 -10.37051 -10.36842
 Alpha  occ. eigenvalues --  -10.36371 -10.35769  -1.37605  -1.17834  -1.16058
 Alpha  occ. eigenvalues --   -1.05005  -1.00622  -0.94005  -0.91847  -0.87853
 Alpha  occ. eigenvalues --   -0.81685  -0.78617  -0.78455  -0.74569  -0.71709
 Alpha  occ. eigenvalues --   -0.70950  -0.68808  -0.67440  -0.65191  -0.63770
 Alpha  occ. eigenvalues --   -0.62668  -0.61012  -0.59466  -0.58478  -0.56568
 Alpha  occ. eigenvalues --   -0.53712  -0.52167  -0.51586  -0.48961  -0.48219
 Alpha  occ. eigenvalues --   -0.45799  -0.44850  -0.43065
 Alpha virt. eigenvalues --   -0.34991  -0.25258  -0.18236  -0.17043  -0.14959
 Alpha virt. eigenvalues --   -0.09833  -0.07347  -0.05760  -0.05314  -0.03739
 Alpha virt. eigenvalues --   -0.02785  -0.01718  -0.00795   0.00401   0.01842
 Alpha virt. eigenvalues --    0.02862   0.03893   0.07457   0.09308   0.11325
 Alpha virt. eigenvalues --    0.12698   0.13547   0.14575   0.16419   0.17368
 Alpha virt. eigenvalues --    0.19519   0.21966   0.23852   0.25240   0.25529
 Alpha virt. eigenvalues --    0.27951   0.28620   0.29292   0.30785   0.32543
 Alpha virt. eigenvalues --    0.33266   0.33837   0.36656   0.39182   0.40696
 Alpha virt. eigenvalues --    0.41535   0.42586   0.43939   0.45252   0.46854
 Alpha virt. eigenvalues --    0.47772   0.48806   0.49309   0.50151   0.50833
 Alpha virt. eigenvalues --    0.51208   0.51844   0.52705   0.53534   0.56434
 Alpha virt. eigenvalues --    0.57677   0.57916   0.60242   0.61870   0.62721
 Alpha virt. eigenvalues --    0.63631   0.64521   0.68485   0.72215   0.76147
 Alpha virt. eigenvalues --    0.77132   0.78327   0.82600   0.84498   0.84850
 Alpha virt. eigenvalues --    0.87021   0.87885   0.89073   0.92586   0.93733
 Alpha virt. eigenvalues --    0.99072   1.02077   1.05729   1.05912   1.07833
 Alpha virt. eigenvalues --    1.08389   1.11147   1.12209   1.13862   1.14060
 Alpha virt. eigenvalues --    1.16308   1.19138   1.24085   1.26760   1.28023
 Alpha virt. eigenvalues --    1.35224   1.35901   1.40561   1.44409   1.48089
 Alpha virt. eigenvalues --    1.50065   1.50834   1.54691   1.54886   1.55758
 Alpha virt. eigenvalues --    1.57763   1.58245   1.59139   1.60254   1.61209
 Alpha virt. eigenvalues --    1.61392   1.63595   1.64087   1.64548   1.66619
 Alpha virt. eigenvalues --    1.68826   1.70627   1.73160   1.75470   1.77833
 Alpha virt. eigenvalues --    1.79265   1.80634   1.82602   1.84796   1.88124
 Alpha virt. eigenvalues --    1.92042   1.93951   1.95360   1.97188   1.98924
 Alpha virt. eigenvalues --    1.99652   2.01977   2.03200   2.09621   2.10418
 Alpha virt. eigenvalues --    2.13463   2.13977   2.14939   2.17446   2.18900
 Alpha virt. eigenvalues --    2.19248   2.25683   2.31839   2.36881   2.38727
 Alpha virt. eigenvalues --    2.41214   2.43194   2.44684   2.45105   2.46617
 Alpha virt. eigenvalues --    2.48398   2.49925   2.50450   2.54989   2.56438
 Alpha virt. eigenvalues --    2.57311   2.58599   2.64476   2.68649   2.70845
 Alpha virt. eigenvalues --    2.72607   2.73558   2.76695   2.81019   2.87968
 Alpha virt. eigenvalues --    2.91537   2.94003   2.97114   2.97703   3.08714
 Alpha virt. eigenvalues --    3.13538   3.16900   3.40486   3.49022   3.56577
          Condensed to atoms (all electrons):
               1          2          3          4          5          6
     1  C    5.099917   0.245705   0.456857   0.235783  -0.050325  -0.048443
     2  N    0.245705   6.111351  -0.037514  -0.032557   0.268367   0.267363
     3  N    0.456857  -0.037514   6.123745  -0.052368  -0.005648   0.000329
     4  C    0.235783  -0.032557  -0.052368   5.532981   0.001758  -0.006545
     5  O   -0.050325   0.268367  -0.005648   0.001758   8.020429  -0.082167
     6  O   -0.048443   0.267363   0.000329  -0.006545  -0.082167   7.998336
     7  C   -0.046747  -0.000634   0.316800   0.008295  -0.074747  -0.000425
     8  H   -0.005487   0.002738   0.353617  -0.019881  -0.000724  -0.000070
     9  H   -0.005417  -0.015566  -0.016162   0.000389   0.044968   0.000460
    10  H    0.001612   0.000881  -0.025338  -0.000715   0.000599   0.000020
    11  H    0.001666  -0.000216  -0.018028   0.000300   0.002156   0.000013
    12  C   -0.064578  -0.006238   0.002070   0.187186   0.000248  -0.001363
    13  C    0.013763   0.000261  -0.000068   0.116755   0.000005   0.001231
    14  C   -0.000484  -0.000026  -0.000010  -0.168639  -0.000000  -0.000029
    15  C    0.011008  -0.000043   0.000371   0.110101   0.000000   0.000004
    16  C   -0.065740   0.002085  -0.007335   0.159192  -0.000059  -0.000239
    17  H   -0.010035  -0.004500   0.000110  -0.085156   0.000159   0.025279
    18  H   -0.000318   0.000007   0.000001   0.016136  -0.000000  -0.000020
    19  H    0.000037  -0.000000   0.000000  -0.001980   0.000000   0.000000
    20  H   -0.000357   0.000001   0.000002   0.016569  -0.000000   0.000000
    21  H   -0.014238   0.000008  -0.001976  -0.093266  -0.000003   0.000010
               7          8          9         10         11         12
     1  C   -0.046747  -0.005487  -0.005417   0.001612   0.001666  -0.064578
     2  N   -0.000634   0.002738  -0.015566   0.000881  -0.000216  -0.006238
     3  N    0.316800   0.353617  -0.016162  -0.025338  -0.018028   0.002070
     4  C    0.008295  -0.019881   0.000389  -0.000715   0.000300   0.187186
     5  O   -0.074747  -0.000724   0.044968   0.000599   0.002156   0.000248
     6  O   -0.000425  -0.000070   0.000460   0.000020   0.000013  -0.001363
     7  C    4.669226  -0.019042   0.397605   0.381450   0.384673  -0.000142
     8  H   -0.019042   0.483819   0.003953  -0.000150  -0.007287   0.000039
     9  H    0.397605   0.003953   0.478503  -0.006838  -0.007327  -0.000064
    10  H    0.381450  -0.000150  -0.006838   0.563473  -0.016618   0.000021
    11  H    0.384673  -0.007287  -0.007327  -0.016618   0.568546  -0.000002
    12  C   -0.000142   0.000039  -0.000064   0.000021  -0.000002   5.159117
    13  C    0.000003  -0.000017   0.000000   0.000000  -0.000000   0.240251
    14  C    0.000000   0.000018  -0.000000  -0.000000   0.000000   0.117840
    15  C   -0.000005  -0.000120   0.000000   0.000002  -0.000007  -0.154965
    16  C   -0.000205   0.009011   0.000064   0.000061  -0.000102   0.081265
    17  H    0.000011  -0.000003   0.000003   0.000002  -0.000003   0.449935
    18  H   -0.000000   0.000000  -0.000000   0.000000   0.000000  -0.065865
    19  H    0.000000  -0.000001   0.000000  -0.000000  -0.000000   0.014492
    20  H   -0.000000   0.000001   0.000000  -0.000000   0.000000  -0.001357
    21  H   -0.000416   0.005890  -0.000067   0.000051  -0.000062   0.014114
              13         14         15         16         17         18
     1  C    0.013763  -0.000484   0.011008  -0.065740  -0.010035  -0.000318
     2  N    0.000261  -0.000026  -0.000043   0.002085  -0.004500   0.000007
     3  N   -0.000068  -0.000010   0.000371  -0.007335   0.000110   0.000001
     4  C    0.116755  -0.168639   0.110101   0.159192  -0.085156   0.016136
     5  O    0.000005  -0.000000   0.000000  -0.000059   0.000159  -0.000000
     6  O    0.001231  -0.000029   0.000004  -0.000239   0.025279  -0.000020
     7  C    0.000003   0.000000  -0.000005  -0.000205   0.000011  -0.000000
     8  H   -0.000017   0.000018  -0.000120   0.009011  -0.000003   0.000000
     9  H    0.000000  -0.000000   0.000000   0.000064   0.000003  -0.000000
    10  H    0.000000  -0.000000   0.000002   0.000061   0.000002   0.000000
    11  H   -0.000000   0.000000  -0.000007  -0.000102  -0.000003   0.000000
    12  C    0.240251   0.117840  -0.154965   0.081265   0.449935  -0.065865
    13  C    5.084349   0.209453   0.120950  -0.165024  -0.045379   0.449783
    14  C    0.209453   5.074065   0.229111   0.108570   0.013762  -0.070526
    15  C    0.120950   0.229111   4.997964   0.300337  -0.001845   0.014958
    16  C   -0.165024   0.108570   0.300337   5.187512   0.014375  -0.001540
    17  H   -0.045379   0.013762  -0.001845   0.014375   0.614298  -0.012025
    18  H    0.449783  -0.070526   0.014958  -0.001540  -0.012025   0.633980
    19  H   -0.068701   0.456753  -0.071710   0.015076  -0.000173  -0.011602
    20  H    0.014739  -0.066886   0.445949  -0.066276   0.000016  -0.000315
    21  H   -0.001445   0.013172  -0.039076   0.437342  -0.000219   0.000030
              19         20         21
     1  C    0.000037  -0.000357  -0.014238
     2  N   -0.000000   0.000001   0.000008
     3  N    0.000000   0.000002  -0.001976
     4  C   -0.001980   0.016569  -0.093266
     5  O    0.000000  -0.000000  -0.000003
     6  O    0.000000   0.000000   0.000010
     7  C    0.000000  -0.000000  -0.000416
     8  H   -0.000001   0.000001   0.005890
     9  H    0.000000   0.000000  -0.000067
    10  H   -0.000000  -0.000000   0.000051
    11  H   -0.000000   0.000000  -0.000062
    12  C    0.014492  -0.001357   0.014114
    13  C   -0.068701   0.014739  -0.001445
    14  C    0.456753  -0.066886   0.013172
    15  C   -0.071710   0.445949  -0.039076
    16  C    0.015076  -0.066276   0.437342
    17  H   -0.000173   0.000016  -0.000219
    18  H   -0.011602  -0.000315   0.000030
    19  H    0.632333  -0.011897  -0.000186
    20  H   -0.011897   0.641272  -0.012623
    21  H   -0.000186  -0.012623   0.689045
 Mulliken charges:
               1
     1  C    0.245822
     2  N    0.198526
     3  N   -0.089453
     4  C    0.075663
     5  O   -0.125016
     6  O   -0.153745
     7  C   -0.015697
     8  H    0.193694
     9  H    0.125494
    10  H    0.101486
    11  H    0.092298
    12  C    0.027997
    13  C    0.029090
    14  C    0.083856
    15  C    0.037016
    16  C   -0.008369
    17  H    0.041387
    18  H    0.047317
    19  H    0.047557
    20  H    0.041163
    21  H    0.003916
 Sum of Mulliken charges =   1.00000
 Mulliken charges with hydrogens summed into heavy atoms:
               1
     1  C    0.245822
     2  N    0.198526
     3  N    0.104240
     4  C    0.075663
     5  O   -0.125016
     6  O   -0.153745
     7  C    0.303581
    12  C    0.069385
    13  C    0.076406
    14  C    0.131413
    15  C    0.078179
    16  C   -0.004453
 Electronic spatial extent (au):  <R**2>=           2361.6392
 Charge=              1.0000 electrons
 Dipole moment (field-independent basis, Debye):
    X=             -4.6715    Y=              0.4190    Z=              1.3881  Tot=              4.8914
 Quadrupole moment (field-independent basis, Debye-Ang):
   XX=            -39.5582   YY=            -49.7629   ZZ=            -68.7747
   XY=             14.8143   XZ=             -1.9377   YZ=             -3.0725
 Traceless Quadrupole moment (field-independent basis, Debye-Ang):
   XX=             13.1404   YY=              2.9357   ZZ=            -16.0761
   XY=             14.8143   XZ=             -1.9377   YZ=             -3.0725
 Octapole moment (field-independent basis, Debye-Ang**2):
  XXX=              2.8153  YYY=            138.9528  ZZZ=             20.7337  XYY=              0.6432
  XXY=             20.3344  XXZ=             16.0161  XZZ=              7.4953  YZZ=             29.9940
  YYZ=             18.2695  XYZ=              0.9550
 Hexadecapole moment (field-independent basis, Debye-Ang**3):
 XXXX=           -783.0838 YYYY=          -1639.2916 ZZZZ=           -151.1522 XXXY=           -197.7903
 XXXZ=             22.2777 YYYX=           -224.6735 YYYZ=           -122.8636 ZZZX=             42.2092
 ZZZY=            -81.9249 XXYY=           -363.3357 XXZZ=           -195.6796 YYZZ=           -324.7748
 XXYZ=            -39.3883 YYXZ=              9.0069 ZZXY=           -101.9485
 N-N= 6.709089680127D+02 E-N=-2.651687509416D+03  KE= 5.637548186886D+02
   1 Symmetry operations used in ECPInt.
 ECPInt:  NShTT=    4950 NPrTT=   18138 LenC2=    4756 LenP2D=   13051.
 LDataN:  DoStor=T MaxTD1= 5 Len=  102
 Calling FoFJK, ICntrl=      2127 FMM=F ISym2X=0 I1Cent= 0 IOpClX= 0 NMat=1 NMatS=1 NMatT=0.
 -------------------------------------------------------------------
 Center     Atomic                   Forces (Hartrees/Bohr)
 Number     Number              X              Y              Z
 -------------------------------------------------------------------
      1        6          -0.049691713    0.067929715    0.049333591
      2        7           0.082830745   -0.067085764   -0.039588847
      3        7           0.099923947   -0.006289629   -0.082390678
      4        6          -0.030490645   -0.067085119   -0.003796645
      5        8           0.046762073    0.031815562   -0.000479958
      6        8          -0.112796965    0.029985527    0.040337847
      7        6          -0.032335463   -0.042181767    0.015684104
      8        1           0.012200746    0.000281089    0.008951982
      9        1          -0.028233173    0.014042832    0.016733250
     10        1          -0.000455043    0.003651518   -0.008856958
     11        1          -0.000374867    0.011302745    0.002824858
     12        6           0.048312965   -0.001909948   -0.002131569
     13        6           0.017121794   -0.015569611    0.000069815
     14        6           0.005495001   -0.003254947   -0.000207626
     15        6          -0.029216631    0.008893990    0.001119619
     16        6          -0.028904084    0.029414360    0.004601583
     17        1           0.001795795   -0.002917971    0.001021534
     18        1          -0.001669665   -0.004386605    0.000598162
     19        1           0.002144971    0.006375719   -0.000185787
     20        1          -0.006082146    0.000499964   -0.000765942
     21        1           0.003662362    0.006488340   -0.002872335
 -------------------------------------------------------------------
 Cartesian Forces:  Max     0.112796965 RMS     0.034205401

 GradGradGradGradGradGradGradGradGradGradGradGradGradGradGradGradGradGrad
 Berny optimization.
 FormGI is forming the generalized inverse of G from B-inverse, IUseBI=4.
 Internal  Forces:  Max     0.138985591 RMS     0.028642092
 Search for a local minimum.
 Step number   1 out of a maximum of  106
 All quantities printed in internal units (Hartrees-Bohrs-Radians)
 Mixed Optimization -- RFO/linear search
 Second derivative matrix not updated -- first step.
 ITU=  0
     Eigenvalues ---    0.00501   0.00679   0.00766   0.00766   0.00766
     Eigenvalues ---    0.01513   0.01782   0.01997   0.02239   0.02265
     Eigenvalues ---    0.02283   0.02292   0.02322   0.02325   0.02373
     Eigenvalues ---    0.02394   0.07160   0.08098   0.13904   0.16000
     Eigenvalues ---    0.16000   0.16000   0.16000   0.16000   0.16000
     Eigenvalues ---    0.16000   0.16000   0.22000   0.22000   0.22468
     Eigenvalues ---    0.23483   0.25000   0.25000   0.25000   0.25000
     Eigenvalues ---    0.25000   0.30362   0.31226   0.31797   0.33742
     Eigenvalues ---    0.33941   0.34318   0.35072   0.35737   0.35741
     Eigenvalues ---    0.35746   0.35828   0.42704   0.43327   0.43452
     Eigenvalues ---    0.44994   0.46900   0.48818   0.49458   0.49751
     Eigenvalues ---    0.50226   0.84583
 RFO step:  Lambda=-1.69503504D-01 EMin= 5.00826772D-03
 Linear search not attempted -- first point.
 Maximum step size (   0.300) exceeded in Quadratic search.
    -- Step size scaled by   0.497
 Iteration  1 RMS(Cart)=  0.14900682 RMS(Int)=  0.00941744
 Iteration  2 RMS(Cart)=  0.01689833 RMS(Int)=  0.00020815
 Iteration  3 RMS(Cart)=  0.00017830 RMS(Int)=  0.00019768
 Iteration  4 RMS(Cart)=  0.00000003 RMS(Int)=  0.00019768
 Variable       Old X    -DE/DX   Delta X   Delta X   Delta X     New X
                                 (Linear)    (Quad)   (Total)
    R1        2.77781   0.01039   0.00000   0.00980   0.00980   2.78760
    R2        2.77788  -0.06627   0.00000  -0.06250  -0.06250   2.71538
    R3        2.87246  -0.04636   0.00000  -0.04870  -0.04870   2.82376
    R4        2.35534  -0.05271   0.00000  -0.02580  -0.02580   2.32954
    R5        2.59638  -0.12153   0.00000  -0.08991  -0.08991   2.50647
    R6        2.67116   0.04108   0.00000   0.03380   0.03380   2.70496
    R7        1.93968  -0.00370   0.00000  -0.00305  -0.00305   1.93663
    R8        2.59837   0.04311   0.00000   0.03248   0.03248   2.63085
    R9        2.60369   0.04120   0.00000   0.03128   0.03128   2.63497
   R10        2.11217  -0.03289   0.00000  -0.03354  -0.03354   2.07864
   R11        2.12283  -0.00911   0.00000  -0.00939  -0.00939   2.11344
   R12        2.07767   0.00188   0.00000   0.00185   0.00185   2.07952
   R13        2.63594  -0.00535   0.00000  -0.00416  -0.00416   2.63177
   R14        2.04352   0.00343   0.00000   0.00323   0.00323   2.04674
   R15        2.60466   0.02632   0.00000   0.01924   0.01925   2.62390
   R16        2.06796  -0.00161   0.00000  -0.00156  -0.00156   2.06640
   R17        2.60542   0.02999   0.00000   0.02199   0.02199   2.62741
   R18        2.04495   0.00656   0.00000   0.00619   0.00619   2.05114
   R19        2.62693  -0.00734   0.00000  -0.00571  -0.00571   2.62122
   R20        2.05558   0.00331   0.00000   0.00316   0.00316   2.05874
   R21        2.07430  -0.00355   0.00000  -0.00346  -0.00346   2.07083
    A1        2.11179   0.08732   0.00000   0.10344   0.10339   2.21518
    A2        2.11822  -0.04755   0.00000  -0.05633  -0.05637   2.06186
    A3        2.05317  -0.03977   0.00000  -0.04711  -0.04715   2.00603
    A4        2.10733   0.05104   0.00000   0.06047   0.06047   2.16780
    A5        2.12811  -0.05380   0.00000  -0.06374  -0.06374   2.06437
    A6        2.04774   0.00276   0.00000   0.00327   0.00326   2.05100
    A7        2.02554   0.13899   0.00000   0.17713   0.17687   2.20241
    A8        2.03115  -0.06401   0.00000  -0.07912  -0.07965   1.95150
    A9        2.04305  -0.05114   0.00000  -0.05903  -0.05905   1.98400
   A10        2.12064   0.00322   0.00000   0.00295   0.00296   2.12359
   A11        2.10408  -0.01112   0.00000  -0.01404  -0.01404   2.09005
   A12        2.05847   0.00790   0.00000   0.01109   0.01108   2.06954
   A13        1.89445   0.02514   0.00000   0.03947   0.03948   1.93393
   A14        1.89110   0.00397   0.00000   0.00559   0.00533   1.89643
   A15        2.02544  -0.02279   0.00000  -0.03563  -0.03555   1.98989
   A16        1.87042  -0.00600   0.00000  -0.00619  -0.00652   1.86389
   A17        1.91251  -0.00195   0.00000  -0.00250  -0.00221   1.91030
   A18        1.86393   0.00198   0.00000   0.00007  -0.00010   1.86384
   A19        2.11510  -0.00869   0.00000  -0.01002  -0.01003   2.10507
   A20        2.10157   0.00442   0.00000   0.00512   0.00512   2.10670
   A21        2.06651   0.00427   0.00000   0.00490   0.00490   2.07141
   A22        2.11343  -0.00300   0.00000  -0.00446  -0.00446   2.10897
   A23        2.10048  -0.00306   0.00000  -0.00465  -0.00465   2.09583
   A24        2.06928   0.00606   0.00000   0.00911   0.00911   2.07839
   A25        2.04820   0.01501   0.00000   0.01756   0.01757   2.06578
   A26        2.10905  -0.00597   0.00000  -0.00647  -0.00648   2.10257
   A27        2.12593  -0.00903   0.00000  -0.01109  -0.01109   2.11483
   A28        2.12422  -0.00653   0.00000  -0.00911  -0.00910   2.11512
   A29        2.05546   0.00854   0.00000   0.01250   0.01250   2.06796
   A30        2.10351  -0.00201   0.00000  -0.00340  -0.00340   2.10011
   A31        2.10695  -0.00469   0.00000  -0.00506  -0.00507   2.10188
   A32        2.07605   0.00914   0.00000   0.01278   0.01278   2.08883
   A33        2.10018  -0.00445   0.00000  -0.00772  -0.00772   2.09247
    D1        0.19248   0.00270   0.00000   0.00762   0.00783   0.20032
    D2       -2.94925   0.00074   0.00000   0.00210   0.00231  -2.94694
    D3       -2.94925  -0.00329   0.00000  -0.00928  -0.00949  -2.95874
    D4        0.19220  -0.00526   0.00000  -0.01480  -0.01501   0.17718
    D5       -0.30154  -0.00397   0.00000  -0.01690  -0.01759  -0.31913
    D6       -2.81248  -0.02141   0.00000  -0.05437  -0.05424  -2.86671
    D7        2.84019   0.00182   0.00000  -0.00061  -0.00074   2.83945
    D8        0.32925  -0.01563   0.00000  -0.03808  -0.03739   0.29186
    D9       -0.51107   0.00165   0.00000   0.00467   0.00414  -0.50693
   D10        2.63053   0.00227   0.00000   0.00633   0.00578   2.63631
   D11        2.63039  -0.00415   0.00000  -0.01167  -0.01112   2.61927
   D12       -0.51120  -0.00352   0.00000  -0.01001  -0.00948  -0.52068
   D13        0.08690  -0.01037   0.00000  -0.02348  -0.02404   0.06286
   D14        2.11250  -0.00192   0.00000  -0.00676  -0.00701   2.10549
   D15       -2.07513  -0.01153   0.00000  -0.02619  -0.02633  -2.10146
   D16        2.59344   0.00310   0.00000   0.00764   0.00771   2.60115
   D17       -1.66415   0.01154   0.00000   0.02436   0.02474  -1.63941
   D18        0.43141   0.00193   0.00000   0.00493   0.00542   0.43683
   D19        3.14159   0.00080   0.00000   0.00209   0.00210  -3.13949
   D20       -0.00011  -0.00017   0.00000  -0.00041  -0.00040  -0.00051
   D21        0.00000   0.00019   0.00000   0.00047   0.00047   0.00047
   D22        3.14149  -0.00078   0.00000  -0.00203  -0.00203   3.13946
   D23        3.14159  -0.00038   0.00000  -0.00099  -0.00098   3.14061
   D24        0.00000  -0.00195   0.00000  -0.00506  -0.00507  -0.00507
   D25        0.00000   0.00023   0.00000   0.00061   0.00061   0.00061
   D26        3.14159  -0.00135   0.00000  -0.00346  -0.00348   3.13812
   D27        0.00000  -0.00046   0.00000  -0.00118  -0.00117  -0.00117
   D28       -3.14149  -0.00057   0.00000  -0.00146  -0.00145   3.14024
   D29       -3.14149   0.00049   0.00000   0.00127   0.00127  -3.14021
   D30        0.00021   0.00038   0.00000   0.00099   0.00099   0.00120
   D31        0.00000   0.00029   0.00000   0.00075   0.00076   0.00076
   D32        3.14159   0.00039   0.00000   0.00101   0.00101  -3.14058
   D33        3.14149   0.00040   0.00000   0.00103   0.00104  -3.14066
   D34       -0.00010   0.00050   0.00000   0.00128   0.00129   0.00119
   D35        0.00000   0.00013   0.00000   0.00034   0.00034   0.00034
   D36        3.14149   0.00063   0.00000   0.00162   0.00162  -3.14007
   D37        3.14159   0.00003   0.00000   0.00008   0.00008  -3.14151
   D38       -0.00010   0.00053   0.00000   0.00136   0.00137   0.00126
   D39        0.00000  -0.00040   0.00000  -0.00104  -0.00103  -0.00103
   D40        3.14159   0.00120   0.00000   0.00309   0.00307  -3.13852
   D41       -3.14149  -0.00091   0.00000  -0.00236  -0.00234   3.13936
   D42        0.00011   0.00069   0.00000   0.00177   0.00176   0.00186
         Item               Value     Threshold  Converged?
 Maximum Force            0.138986     0.000450     NO 
 RMS     Force            0.028642     0.000300     NO 
 Maximum Displacement     0.657219     0.001800     NO 
 RMS     Displacement     0.157798     0.001200     NO 
 Predicted change in Energy=-7.155642D-02
 GradGradGradGradGradGradGradGradGradGradGradGradGradGradGradGradGradGrad

                          Input orientation:                          
 ---------------------------------------------------------------------
 Center     Atomic      Atomic             Coordinates (Angstroms)
 Number     Number       Type             X           Y           Z
 ---------------------------------------------------------------------
      1          6           0       -0.740207   -1.359360   -0.063863
      2          7           0       -0.097020   -2.527808   -0.693994
      3          7           0       -2.035096   -1.317583    0.557625
      4          6           0        0.015500   -0.070651   -0.032578
      5          8           0       -0.677512   -3.585218   -0.948085
      6          8           0        1.186598   -2.440668   -1.016450
      7          6           0       -3.090913   -2.266828    0.375691
      8          1           0       -2.364280   -0.355806    0.687530
      9          1           0       -2.764385   -3.095473   -0.269797
     10          1           0       -3.346501   -2.712457    1.369103
     11          1           0       -4.018867   -1.832915   -0.026273
     12          6           0        1.406984   -0.039800   -0.000836
     13          6           0        2.088890    1.174106    0.030473
     14          6           0        1.398203    2.378643    0.029349
     15          6           0        0.008662    2.343162   -0.002883
     16          6           0       -0.678605    1.138678   -0.032895
     17          1           0        1.980601   -0.958515    0.002436
     18          1           0        3.181981    1.188217    0.056552
     19          1           0        1.935725    3.321320    0.052903
     20          1           0       -0.535280    3.287089   -0.005280
     21          1           0       -1.774078    1.135567   -0.060928
 ---------------------------------------------------------------------
                    Distance matrix (angstroms):
                    1          2          3          4          5
     1  C    0.000000
     2  N    1.475135   0.000000
     3  N    1.436917   2.605250   0.000000
     4  C    1.494270   2.547107   2.471462   0.000000
     5  O    2.395876   1.232740   3.041770   3.697377   0.000000
     6  O    2.406081   1.326366   3.757438   2.820719   2.188509
     7  C    2.557836   3.189942   1.431404   3.826184   3.052055
     8  H    2.051664   3.430258   1.024818   2.502644   3.993685
     9  H    2.674658   2.759895   2.092219   4.115043   2.248325
    10  H    3.267573   3.853516   2.079412   4.499656   3.640683
    11  H    3.312896   4.038516   2.131163   4.402469   3.883936
    12  C    2.521040   2.988759   3.713828   1.392188   4.220473
    13  C    3.798834   4.359727   4.847026   2.419161   5.591218
    14  C    4.307453   5.179978   5.072346   2.813315   6.389961
    15  C    3.777988   4.920890   4.229914   2.414006   6.042345
    16  C    2.498989   3.770731   2.867403   1.394367   4.811732
    17  H    2.750976   2.695219   4.069764   2.156652   3.855985
    18  H    4.678483   5.012386   5.809302   3.408708   6.220182
    19  H    5.392867   6.237164   6.127119   3.898723   7.451930
    20  H    4.651335   5.871919   4.875378   3.402723   6.938135
    21  H    2.700660   4.078433   2.543361   2.158323   4.926999
                    6          7          8          9         10
     6  O    0.000000
     7  C    4.501708   0.000000
     8  H    4.456336   2.068150   0.000000
     9  H    4.073883   1.099967   2.929562   0.000000
    10  H    5.129689   1.118382   2.642556   1.780885   0.000000
    11  H    5.333543   1.100433   2.330026   1.796408   1.781220
    12  C    2.616144   5.033141   3.846575   5.177818   5.622762
    13  C    3.869983   6.228126   4.754270   6.470992   6.814747
    14  C    4.936013   6.469352   4.697520   6.883499   7.087062
    15  C    5.029899   5.568007   3.659503   6.110629   6.220833
    16  C    4.154284   4.193286   2.365163   4.725953   4.890246
    17  H    1.966049   5.250834   4.439663   5.211103   5.772530
    18  H    4.278048   7.168569   5.791645   7.335923   7.717456
    19  H    5.908064   7.523210   5.693334   7.960553   8.126547
    20  H    6.065849   6.125553   4.134721   6.765794   6.766569
    21  H    4.740051   3.674368   1.769950   4.350406   4.395998
                   11         12         13         14         15
    11  H    0.000000
    12  C    5.714523   0.000000
    13  C    6.808090   1.392675   0.000000
    14  C    6.861848   2.418647   1.388510   0.000000
    15  C    5.801824   2.762936   2.386452   1.390367   0.000000
    16  C    4.470767   2.395729   2.768447   2.419611   1.387090
    17  H    6.062922   1.083090   2.135552   3.387703   3.845730
    18  H    7.809373   2.159151   1.093493   2.144696   3.377482
    19  H    7.875886   3.402879   2.152787   1.085415   2.161822
    20  H    6.192759   3.852350   3.369309   2.136546   1.089439
    21  H    3.721850   3.391793   3.864242   3.408336   2.154024
                   16         17         18         19         20
    16  C    0.000000
    17  H    3.386863   0.000000
    18  H    3.861940   2.460630   0.000000
    19  H    3.406760   4.280368   2.470485   0.000000
    20  H    2.153364   4.935065   4.269323   2.471927   0.000000
    21  H    1.095836   4.299629   4.957731   4.307333   2.483297
                   21
    21  H    0.000000
 Symmetry turned off by external request.
 Stoichiometry    C8H9N2O2(1+)
 Framework group  C1[X(C8H9N2O2)]
 Deg. of freedom    57
 Full point group                 C1      NOp   1
 Rotational constants (GHZ):           1.6808720           0.6607024           0.4876461
 Standard basis: def2SVP (5D, 7F)
   213 basis functions,   363 primitive gaussians,   225 cartesian basis functions
    43 alpha electrons       43 beta electrons
       nuclear repulsion energy       671.4605234835 Hartrees.
 NAtoms=   21 NActive=   21 NUniq=   21 SFac= 1.00D+00 NAtFMM=   60 NAOKFM=F Big=F
 Integral buffers will be    131072 words long.
 Raffenetti 2 integral format.
 Two-electron integral symmetry is turned off.
 Nuclear repulsion after empirical dispersion term =      671.4217592884 Hartrees.
 One-electron integrals computed using PRISM.
   1 Symmetry operations used in ECPInt.
 ECPInt:  NShTT=    4950 NPrTT=   18138 LenC2=    4767 LenP2D=   13091.
 LDataN:  DoStor=T MaxTD1= 4 Len=   56
 NBasis=   213 RedAO= T EigKep=  2.81D-04  NBF=   213
 NBsUse=   213 1.00D-06 EigRej= -1.00D+00 NBFU=   213
 Initial guess from the checkpoint file:  "cation_0407_opt_g16.chk"
 B after Tr=     0.054191   -0.012708   -0.029420
         Rot=    0.999922   -0.004841    0.004854   -0.010436 Ang=  -1.43 deg.
 ExpMin= 1.22D-01 ExpMax= 2.27D+03 ExpMxC= 3.41D+02 IAcc=3 IRadAn=         5 AccDes= 0.00D+00
 Harris functional with IExCor=  402 and IRadAn=       5 diagonalized for initial guess.
 HarFok:  IExCor=  402 AccDes= 0.00D+00 IRadAn=         5 IDoV= 1 UseB2=F ITyADJ=14
 ICtDFT=  3500011 ScaDFX=  1.000000  1.000000  1.000000  1.000000
 FoFCou: FMM=F IPFlag=           0 FMFlag=      100000 FMFlg1=           0
         NFxFlg=           0 DoJE=T BraDBF=F KetDBF=T FulRan=T
         wScrn=  0.000000 ICntrl=       500 IOpCl=  0 I1Cent=   200000004 NGrid=           0
         NMat0=    1 NMatS0=      1 NMatT0=    0 NMatD0=    1 NMtDS0=    0 NMtDT0=    0
 Symmetry not used in FoFCou.
 Requested convergence on RMS density matrix=1.00D-08 within 128 cycles.
 Requested convergence on MAX density matrix=1.00D-06.
 Requested convergence on             energy=1.00D-06.
 No special actions if energy rises.
 Integral accuracy reduced to 1.0D-05 until final iterations.
 Initial convergence to 1.0D-05 achieved.  Increase integral accuracy.
 SCF Done:  E(RB3LYP) =  -569.411088833     A.U. after   17 cycles
            NFock= 17  Conv=0.86D-08     -V/T= 2.0101
   1 Symmetry operations used in ECPInt.
 ECPInt:  NShTT=    4950 NPrTT=   18138 LenC2=    4767 LenP2D=   13091.
 LDataN:  DoStor=T MaxTD1= 5 Len=  102
 Calling FoFJK, ICntrl=      2127 FMM=F ISym2X=0 I1Cent= 0 IOpClX= 0 NMat=1 NMatS=1 NMatT=0.
 -------------------------------------------------------------------
 Center     Atomic                   Forces (Hartrees/Bohr)
 Number     Number              X              Y              Z
 -------------------------------------------------------------------
      1        6          -0.051079916    0.058575801    0.043914592
      2        7           0.083135170   -0.055033073   -0.035993660
      3        7           0.078874942   -0.011289214   -0.069829396
      4        6          -0.018527134   -0.046935974   -0.005991774
      5        8          -0.011703046    0.040905377    0.019178858
      6        8          -0.094612821    0.006904880    0.025509338
      7        6          -0.011072201   -0.034360704    0.012282263
      8        1           0.010501390   -0.001951581    0.011500382
      9        1          -0.000925552    0.002753824    0.001454628
     10        1           0.000691010    0.003860196   -0.007132445
     11        1           0.003594070    0.007104443   -0.000641045
     12        6           0.033182999    0.005547137    0.001554791
     13        6           0.008848235   -0.005610187   -0.000029163
     14        6           0.003423591   -0.005383119   -0.000480468
     15        6          -0.018078162    0.006564638    0.000974399
     16        6          -0.015035143    0.018408182    0.004319959
     17        1           0.000104246    0.002194644    0.003510321
     18        1          -0.001197200   -0.002876914    0.000665538
     19        1           0.001067088    0.004490240   -0.000046476
     20        1          -0.003772898    0.000017778   -0.000894611
     21        1           0.002581333    0.006113626   -0.003826030
 -------------------------------------------------------------------
 Cartesian Forces:  Max     0.094612821 RMS     0.027900688

 GradGradGradGradGradGradGradGradGradGradGradGradGradGradGradGradGradGrad
 Berny optimization.
 Using GEDIIS/GDIIS optimizer.
 FormGI is forming the generalized inverse of G from B-inverse, IUseBI=4.
 Internal  Forces:  Max     0.097311557 RMS     0.018843177
 Search for a local minimum.
 Step number   2 out of a maximum of  106
 All quantities printed in internal units (Hartrees-Bohrs-Radians)
 Mixed Optimization -- RFO/linear search
 Update second derivatives using D2CorX and points    1    2
 DE= -3.97D-02 DEPred=-7.16D-02 R= 5.55D-01
 TightC=F SS=  1.41D+00  RLast= 3.12D-01 DXNew= 5.0454D-01 9.3586D-01
 Trust test= 5.55D-01 RLast= 3.12D-01 DXMaxT set to 5.05D-01
 ITU=  1  0
 Use linear search instead of GDIIS.
     Eigenvalues ---    0.00499   0.00695   0.00766   0.00767   0.00780
     Eigenvalues ---    0.01514   0.01771   0.01789   0.02240   0.02266
     Eigenvalues ---    0.02284   0.02292   0.02321   0.02326   0.02373
     Eigenvalues ---    0.02394   0.07285   0.07963   0.14582   0.15675
     Eigenvalues ---    0.16000   0.16000   0.16000   0.16000   0.16000
     Eigenvalues ---    0.16000   0.16052   0.19502   0.22000   0.22059
     Eigenvalues ---    0.23465   0.24550   0.24998   0.24999   0.25000
     Eigenvalues ---    0.28893   0.31076   0.31455   0.31960   0.33742
     Eigenvalues ---    0.33943   0.34319   0.35072   0.35688   0.35737
     Eigenvalues ---    0.35825   0.42126   0.42830   0.43327   0.44509
     Eigenvalues ---    0.45356   0.46920   0.48845   0.49507   0.49780
     Eigenvalues ---    0.83439   1.18538
 RFO step:  Lambda=-1.45520876D-01 EMin= 4.99039872D-03
 Quartic linear search produced a step of  0.60859.
 Maximum step size (   0.505) exceeded in Quadratic search.
    -- Step size scaled by   0.873
 Iteration  1 RMS(Cart)=  0.16437134 RMS(Int)=  0.02122979
 Iteration  2 RMS(Cart)=  0.04269962 RMS(Int)=  0.00128885
 Iteration  3 RMS(Cart)=  0.00079169 RMS(Int)=  0.00122037
 Iteration  4 RMS(Cart)=  0.00000114 RMS(Int)=  0.00122037
 Iteration  5 RMS(Cart)=  0.00000000 RMS(Int)=  0.00122037
 Variable       Old X    -DE/DX   Delta X   Delta X   Delta X     New X
                                 (Linear)    (Quad)   (Total)
    R1        2.78760  -0.00810   0.00596  -0.01468  -0.00872   2.77888
    R2        2.71538  -0.09723  -0.03804  -0.27434  -0.31238   2.40300
    R3        2.82376  -0.01882  -0.02964  -0.08028  -0.10992   2.71384
    R4        2.32954  -0.03353  -0.01570  -0.05245  -0.06816   2.26138
    R5        2.50647  -0.09731  -0.05472  -0.22995  -0.28467   2.22180
    R6        2.70496   0.01862   0.02057   0.05703   0.07760   2.78257
    R7        1.93663  -0.00375  -0.00186  -0.00960  -0.01145   1.92517
    R8        2.63085   0.03050   0.01977   0.07577   0.09553   2.72638
    R9        2.63497   0.02901   0.01904   0.07271   0.09173   2.72670
   R10        2.07864  -0.00320  -0.02041  -0.02768  -0.04809   2.03055
   R11        2.11344  -0.00803  -0.00572  -0.02719  -0.03291   2.08053
   R12        2.07952   0.00000   0.00112   0.00104   0.00217   2.08168
   R13        2.63177  -0.00214  -0.00253  -0.00629  -0.00881   2.62297
   R14        2.04674  -0.00180   0.00196  -0.00267  -0.00071   2.04603
   R15        2.62390   0.01203   0.01171   0.03138   0.04311   2.66702
   R16        2.06640  -0.00122  -0.00095  -0.00396  -0.00491   2.06150
   R17        2.62741   0.01496   0.01338   0.03830   0.05169   2.67910
   R18        2.05114   0.00443   0.00377   0.01431   0.01808   2.06922
   R19        2.62122  -0.00508  -0.00347  -0.01315  -0.01664   2.60458
   R20        2.05874   0.00190   0.00192   0.00650   0.00842   2.06716
   R21        2.07083  -0.00250  -0.00211  -0.00833  -0.01044   2.06039
    A1        2.21518  -0.06401   0.06292  -0.13684  -0.07400   2.14118
    A2        2.06186   0.04573  -0.03430   0.10858   0.07417   2.13603
    A3        2.00603   0.01829  -0.02869   0.02808  -0.00070   2.00532
    A4        2.16780  -0.03950   0.03680  -0.08649  -0.04994   2.11786
    A5        2.06437   0.00335  -0.03879  -0.02920  -0.06824   1.99614
    A6        2.05100   0.03613   0.00199   0.11553   0.11727   2.16827
    A7        2.20241   0.00388   0.10764   0.13214   0.23514   2.43755
    A8        1.95150  -0.00630  -0.04847  -0.07120  -0.12560   1.82590
    A9        1.98400   0.00669  -0.03594   0.00009  -0.03974   1.94426
   A10        2.12359   0.01873   0.00180   0.05842   0.06017   2.18376
   A11        2.09005  -0.01499  -0.00854  -0.05814  -0.06671   2.02334
   A12        2.06954  -0.00374   0.00674  -0.00030   0.00640   2.07594
   A13        1.93393   0.00230   0.02403   0.03992   0.06373   1.99766
   A14        1.89643   0.00308   0.00325   0.01708   0.01897   1.91540
   A15        1.98989  -0.01262  -0.02163  -0.08001  -0.10118   1.88872
   A16        1.86389   0.00069  -0.00397   0.00374  -0.00205   1.86184
   A17        1.91030   0.00403  -0.00135   0.01323   0.01325   1.92355
   A18        1.86384   0.00333  -0.00006   0.00987   0.00911   1.87295
   A19        2.10507  -0.00290  -0.00610  -0.01367  -0.01979   2.08529
   A20        2.10670   0.00282   0.00312   0.01248   0.01553   2.12223
   A21        2.07141   0.00008   0.00298   0.00115   0.00406   2.07547
   A22        2.10897   0.00005  -0.00271  -0.00489  -0.00754   2.10143
   A23        2.09583  -0.00297  -0.00283  -0.01457  -0.01743   2.07840
   A24        2.07839   0.00292   0.00554   0.01945   0.02496   2.10335
   A25        2.06578   0.00850   0.01070   0.03535   0.04609   2.11187
   A26        2.10257  -0.00292  -0.00394  -0.01057  -0.01454   2.08804
   A27        2.11483  -0.00558  -0.00675  -0.02478  -0.03155   2.08328
   A28        2.11512  -0.00416  -0.00554  -0.02291  -0.02844   2.08668
   A29        2.06796   0.00546   0.00761   0.03100   0.03859   2.10655
   A30        2.10011  -0.00130  -0.00207  -0.00810  -0.01018   2.08993
   A31        2.10188   0.00225  -0.00309   0.00641   0.00322   2.10511
   A32        2.08883   0.00514   0.00778   0.02975   0.03744   2.12626
   A33        2.09247  -0.00740  -0.00470  -0.03624  -0.04101   2.05146
    D1        0.20032  -0.00055   0.00477   0.00557   0.01047   0.21078
    D2       -2.94694  -0.00406   0.00141  -0.02958  -0.02803  -2.97498
    D3       -2.95874   0.00061  -0.00578  -0.00703  -0.01295  -2.97169
    D4        0.17718  -0.00290  -0.00914  -0.04218  -0.05145   0.12573
    D5       -0.31913   0.00302  -0.01070  -0.00762  -0.02061  -0.33974
    D6       -2.86671  -0.00659  -0.03301  -0.11017  -0.14023  -3.00694
    D7        2.83945   0.00162  -0.00045   0.00386   0.00046   2.83991
    D8        0.29186  -0.00799  -0.02275  -0.09869  -0.11916   0.17271
    D9       -0.50693  -0.00717   0.00252  -0.05572  -0.05295  -0.55988
   D10        2.63631  -0.00530   0.00352  -0.03963  -0.03599   2.60032
   D11        2.61927  -0.00702  -0.00677  -0.06860  -0.07549   2.54378
   D12       -0.52068  -0.00515  -0.00577  -0.05251  -0.05852  -0.57921
   D13        0.06286  -0.00474  -0.01463  -0.05944  -0.07749  -0.01463
   D14        2.10549  -0.00074  -0.00426  -0.02180  -0.02782   2.07767
   D15       -2.10146  -0.00237  -0.01602  -0.04804  -0.06542  -2.16688
   D16        2.60115   0.00130   0.00469   0.02552   0.03115   2.63230
   D17       -1.63941   0.00531   0.01506   0.06316   0.08082  -1.55859
   D18        0.43683   0.00368   0.00330   0.03692   0.04322   0.48005
   D19       -3.13949   0.00132   0.00128   0.01230   0.01407  -3.12543
   D20       -0.00051  -0.00070  -0.00024  -0.00536  -0.00518  -0.00569
   D21        0.00047  -0.00054   0.00029  -0.00366  -0.00343  -0.00296
   D22        3.13946  -0.00256  -0.00123  -0.02132  -0.02268   3.11678
   D23        3.14061  -0.00074  -0.00060  -0.00685  -0.00668   3.13393
   D24       -0.00507  -0.00312  -0.00309  -0.02898  -0.03196  -0.03703
   D25        0.00061   0.00106   0.00037   0.00869   0.00912   0.00973
   D26        3.13812  -0.00133  -0.00212  -0.01344  -0.01616   3.12196
   D27       -0.00117  -0.00030  -0.00071  -0.00341  -0.00388  -0.00506
   D28        3.14024  -0.00073  -0.00089  -0.00695  -0.00765   3.13260
   D29       -3.14021   0.00168   0.00078   0.01387   0.01482  -3.12539
   D30        0.00120   0.00125   0.00060   0.01033   0.01106   0.01226
   D31        0.00076   0.00062   0.00046   0.00544   0.00596   0.00672
   D32       -3.14058   0.00035   0.00062   0.00369   0.00426  -3.13632
   D33       -3.14066   0.00105   0.00063   0.00895   0.00978  -3.13087
   D34        0.00119   0.00078   0.00079   0.00720   0.00808   0.00927
   D35        0.00034  -0.00010   0.00020  -0.00037  -0.00028   0.00006
   D36       -3.14007   0.00046   0.00099   0.00513   0.00610  -3.13397
   D37       -3.14151   0.00018   0.00005   0.00139   0.00142  -3.14009
   D38        0.00126   0.00073   0.00083   0.00690   0.00780   0.00906
   D39       -0.00103  -0.00075  -0.00063  -0.00676  -0.00721  -0.00824
   D40       -3.13852   0.00162   0.00187   0.01526   0.01683  -3.12169
   D41        3.13936  -0.00131  -0.00142  -0.01234  -0.01349   3.12587
   D42        0.00186   0.00105   0.00107   0.00969   0.01055   0.01241
         Item               Value     Threshold  Converged?
 Maximum Force            0.097312     0.000450     NO 
 RMS     Force            0.018843     0.000300     NO 
 Maximum Displacement     0.754011     0.001800     NO 
 RMS     Displacement     0.190603     0.001200     NO 
 Predicted change in Energy=-5.781015D-02
 GradGradGradGradGradGradGradGradGradGradGradGradGradGradGradGradGradGrad

                          Input orientation:                          
 ---------------------------------------------------------------------
 Center     Atomic      Atomic             Coordinates (Angstroms)
 Number     Number       Type             X           Y           Z
 ---------------------------------------------------------------------
      1          6           0       -0.657535   -1.407045   -0.150980
      2          7           0       -0.098602   -2.613545   -0.778984
      3          7           0       -1.801033   -1.389312    0.404988
      4          6           0        0.069999   -0.171090   -0.076809
      5          8           0       -0.775676   -3.578384   -0.985581
      6          8           0        1.031069   -2.519172   -1.090858
      7          6           0       -3.056039   -2.159391    0.415371
      8          1           0       -1.965275   -0.407997    0.623878
      9          1           0       -3.063161   -3.007312   -0.244606
     10          1           0       -3.246848   -2.545948    1.428434
     11          1           0       -3.882047   -1.475039    0.164675
     12          6           0        1.503150   -0.057568    0.044391
     13          6           0        2.084196    1.200323    0.126133
     14          6           0        1.282778    2.361307    0.085122
     15          6           0       -0.127268    2.271495   -0.031655
     16          6           0       -0.725770    1.032181   -0.106285
     17          1           0        2.139319   -0.932293    0.093526
     18          1           0        3.167683    1.278460    0.226165
     19          1           0        1.754796    3.347475    0.145602
     20          1           0       -0.743073    3.174772   -0.070128
     21          1           0       -1.810262    1.001783   -0.214598
 ---------------------------------------------------------------------
                    Distance matrix (angstroms):
                    1          2          3          4          5
     1  C    0.000000
     2  N    1.470523   0.000000
     3  N    1.271615   2.408072   0.000000
     4  C    1.436103   2.546971   2.284066   0.000000
     5  O    2.329211   1.196672   2.788741   3.626386   0.000000
     6  O    2.229704   1.175724   3.396313   2.732295   2.096983
     7  C    2.576741   3.221672   1.472470   3.737338   3.029234
     8  H    1.818979   3.211998   1.018758   2.165509   3.749247
     9  H    2.890788   3.037964   2.152409   4.229539   2.471387
    10  H    3.239782   3.845610   2.115568   4.348239   3.605562
    11  H    3.240638   4.062160   2.096596   4.168605   3.923861
    12  C    2.554960   3.126751   3.580670   1.442740   4.318568
    13  C    3.793712   4.486584   4.677497   2.445189   5.678980
    14  C    4.245119   5.234887   4.866143   2.812488   6.376799
    15  C    3.718478   4.941957   4.048908   2.450954   5.962507
    16  C    2.440590   3.759945   2.698374   1.442907   4.693928
    17  H    2.847380   2.931924   3.978977   2.211454   4.082091
    18  H    4.688974   5.179445   5.642440   3.433458   6.372389
    19  H    5.339735   6.310602   5.928605   3.907468   7.459918
    20  H    4.583329   5.867064   4.709127   3.443244   6.815000
    21  H    2.671195   4.039667   2.470083   2.220361   4.758436
                    6          7          8          9         10
     6  O    0.000000
     7  C    4.370654   0.000000
     8  H    4.046660   2.073795   0.000000
     9  H    4.209174   1.074518   2.952297   0.000000
    10  H    4.964687   1.100968   2.619270   1.745182   0.000000
    11  H    5.177382   1.101579   2.241308   1.784922   1.774095
    12  C    2.751571   5.034033   3.533918   5.443869   5.538058
    13  C    4.052750   6.147630   4.385505   6.658598   6.644589
    14  C    5.026466   6.274640   4.302226   6.915054   6.811985
    15  C    5.041244   5.330129   3.314765   6.044056   5.922110
    16  C    4.082643   3.986027   2.035589   4.669051   4.638341
    17  H    2.269179   5.348000   4.171793   5.611225   5.778984
    18  H    4.552107   7.112618   5.417524   7.577129   7.564242
    19  H    6.039053   7.317273   5.307659   7.984252   7.835466
    20  H    6.050659   5.834280   3.848591   6.605408   6.421932
    21  H    4.608483   3.455698   1.647590   4.200417   4.165301
                   11         12         13         14         15
    11  H    0.000000
    12  C    5.569923   0.000000
    13  C    6.538738   1.388015   0.000000
    14  C    6.434228   2.429234   1.411325   0.000000
    15  C    5.307864   2.844043   2.462292   1.417721   0.000000
    16  C    4.040007   2.485627   2.824571   2.416087   1.378286
    17  H    6.046196   1.082714   2.133577   3.403165   3.926493
    18  H    7.568635   2.142121   1.090897   2.178376   3.450985
    19  H    7.418288   3.415829   2.172359   1.094982   2.175160
    20  H    5.615071   3.937849   3.454044   2.188584   1.093895
    21  H    3.251275   3.488266   3.914374   3.391907   2.116153
                   16         17         18         19         20
    16  C    0.000000
    17  H    3.479629   0.000000
    18  H    3.915374   2.441834   0.000000
    19  H    3.402534   4.297322   2.506703   0.000000
    20  H    2.142966   5.020254   4.356352   2.513109   0.000000
    21  H    1.090311   4.408490   5.005074   4.282715   2.425210
                   21
    21  H    0.000000
 Symmetry turned off by external request.
 Stoichiometry    C8H9N2O2(1+)
 Framework group  C1[X(C8H9N2O2)]
 Deg. of freedom    57
 Full point group                 C1      NOp   1
 Rotational constants (GHZ):           1.7420239           0.6707891           0.5017805
 Standard basis: def2SVP (5D, 7F)
   213 basis functions,   363 primitive gaussians,   225 cartesian basis functions
    43 alpha electrons       43 beta electrons
       nuclear repulsion energy       681.9839410897 Hartrees.
 NAtoms=   21 NActive=   21 NUniq=   21 SFac= 1.00D+00 NAtFMM=   60 NAOKFM=F Big=F
 Integral buffers will be    131072 words long.
 Raffenetti 2 integral format.
 Two-electron integral symmetry is turned off.
 Nuclear repulsion after empirical dispersion term =      681.9447741686 Hartrees.
 One-electron integrals computed using PRISM.
   1 Symmetry operations used in ECPInt.
 ECPInt:  NShTT=    4950 NPrTT=   18138 LenC2=    4777 LenP2D=   13156.
 LDataN:  DoStor=T MaxTD1= 4 Len=   56
 NBasis=   213 RedAO= T EigKep=  3.27D-04  NBF=   213
 NBsUse=   213 1.00D-06 EigRej= -1.00D+00 NBFU=   213
 Initial guess from the checkpoint file:  "cation_0407_opt_g16.chk"
 B after Tr=    -0.010871   -0.059263   -0.036221
         Rot=    0.999984   -0.005339   -0.001953    0.000032 Ang=  -0.65 deg.
 ExpMin= 1.22D-01 ExpMax= 2.27D+03 ExpMxC= 3.41D+02 IAcc=3 IRadAn=         5 AccDes= 0.00D+00
 Harris functional with IExCor=  402 and IRadAn=       5 diagonalized for initial guess.
 HarFok:  IExCor=  402 AccDes= 0.00D+00 IRadAn=         5 IDoV= 1 UseB2=F ITyADJ=14
 ICtDFT=  3500011 ScaDFX=  1.000000  1.000000  1.000000  1.000000
 FoFCou: FMM=F IPFlag=           0 FMFlag=      100000 FMFlg1=           0
         NFxFlg=           0 DoJE=T BraDBF=F KetDBF=T FulRan=T
         wScrn=  0.000000 ICntrl=       500 IOpCl=  0 I1Cent=   200000004 NGrid=           0
         NMat0=    1 NMatS0=      1 NMatT0=    0 NMatD0=    1 NMtDS0=    0 NMtDT0=    0
 Symmetry not used in FoFCou.
 Requested convergence on RMS density matrix=1.00D-08 within 128 cycles.
 Requested convergence on MAX density matrix=1.00D-06.
 Requested convergence on             energy=1.00D-06.
 No special actions if energy rises.
 Integral accuracy reduced to 1.0D-05 until final iterations.
 Initial convergence to 1.0D-05 achieved.  Increase integral accuracy.
 SCF Done:  E(RB3LYP) =  -569.443427452     A.U. after   16 cycles
            NFock= 16  Conv=0.30D-08     -V/T= 2.0090
   1 Symmetry operations used in ECPInt.
 ECPInt:  NShTT=    4950 NPrTT=   18138 LenC2=    4777 LenP2D=   13156.
 LDataN:  DoStor=T MaxTD1= 5 Len=  102
 Calling FoFJK, ICntrl=      2127 FMM=F ISym2X=0 I1Cent= 0 IOpClX= 0 NMat=1 NMatS=1 NMatT=0.
 -------------------------------------------------------------------
 Center     Atomic                   Forces (Hartrees/Bohr)
 Number     Number              X              Y              Z
 -------------------------------------------------------------------
      1        6           0.019306520    0.005971851    0.004887647
      2        7          -0.017205294   -0.008318317   -0.000700928
      3        7          -0.054911132   -0.003608691   -0.000459423
      4        6           0.024473809    0.022001638   -0.009391186
      5        8          -0.038935910   -0.014339955    0.007598860
      6        8           0.067462170    0.010396288   -0.014216316
      7        6          -0.001093302   -0.001831354    0.009240649
      8        1          -0.007347118   -0.001430937    0.019358373
      9        1           0.006575328   -0.009153246   -0.012508173
     10        1           0.003166461    0.002834692    0.002332433
     11        1           0.003384709    0.000907347   -0.000752958
     12        6          -0.020909585    0.001432340   -0.004171839
     13        6          -0.009414263    0.010283928    0.000247867
     14        6          -0.002343451   -0.004471667   -0.000458272
     15        6           0.013657660    0.004277232    0.002597507
     16        6           0.015577397   -0.010428562    0.001534533
     17        1          -0.000952713   -0.004204943   -0.000128378
     18        1           0.000134942    0.001245002    0.000425553
     19        1          -0.000750240   -0.001595496   -0.000408404
     20        1           0.002194514   -0.000693470   -0.000210685
     21        1          -0.002070501    0.000726321   -0.004816860
 -------------------------------------------------------------------
 Cartesian Forces:  Max     0.067462170 RMS     0.014788502

 GradGradGradGradGradGradGradGradGradGradGradGradGradGradGradGradGradGrad
 Berny optimization.
 Using GEDIIS/GDIIS optimizer.
 FormGI is forming the generalized inverse of G from B-inverse, IUseBI=4.
 Internal  Forces:  Max     0.069425320 RMS     0.014868180
 Search for a local minimum.
 Step number   3 out of a maximum of  106
 All quantities printed in internal units (Hartrees-Bohrs-Radians)
 Mixed Optimization -- RFO/linear search
 Update second derivatives using D2CorX and points    2    3
 DE= -3.23D-02 DEPred=-5.78D-02 R= 5.59D-01
 TightC=F SS=  1.41D+00  RLast= 6.64D-01 DXNew= 8.4853D-01 1.9925D+00
 Trust test= 5.59D-01 RLast= 6.64D-01 DXMaxT set to 8.49D-01
 ITU=  1  1  0
 Use linear search instead of GDIIS.
     Eigenvalues ---    0.00507   0.00688   0.00765   0.00767   0.00784
     Eigenvalues ---    0.01435   0.01514   0.01798   0.02242   0.02268
     Eigenvalues ---    0.02288   0.02295   0.02326   0.02329   0.02373
     Eigenvalues ---    0.02393   0.07334   0.08027   0.15385   0.15778
     Eigenvalues ---    0.15995   0.15998   0.16000   0.16000   0.16000
     Eigenvalues ---    0.16023   0.16129   0.19910   0.22000   0.22033
     Eigenvalues ---    0.23463   0.24509   0.24994   0.24996   0.26241
     Eigenvalues ---    0.30576   0.31213   0.31722   0.33741   0.33942
     Eigenvalues ---    0.34318   0.35072   0.35367   0.35736   0.35825
     Eigenvalues ---    0.39905   0.43001   0.43203   0.43371   0.44750
     Eigenvalues ---    0.46918   0.48834   0.49347   0.49754   0.57423
     Eigenvalues ---    0.85232   1.18626
 RFO step:  Lambda=-3.12803649D-02 EMin= 5.07366416D-03
 Quartic linear search produced a step of -0.26946.
 Iteration  1 RMS(Cart)=  0.17470997 RMS(Int)=  0.01456513
 Iteration  2 RMS(Cart)=  0.02133526 RMS(Int)=  0.00108679
 Iteration  3 RMS(Cart)=  0.00049951 RMS(Int)=  0.00095572
 Iteration  4 RMS(Cart)=  0.00000082 RMS(Int)=  0.00095572
 Variable       Old X    -DE/DX   Delta X   Delta X   Delta X     New X
                                 (Linear)    (Quad)   (Total)
    R1        2.77888   0.01749   0.00235   0.03236   0.03471   2.81359
    R2        2.40300   0.05252   0.08417   0.00617   0.09035   2.49335
    R3        2.71384   0.02515   0.02962   0.01027   0.03989   2.75373
    R4        2.26138   0.03228   0.01837   0.00758   0.02595   2.28733
    R5        2.22180   0.06943   0.07671   0.00963   0.08634   2.30814
    R6        2.78257  -0.00648  -0.02091   0.01607  -0.00484   2.77772
    R7        1.92517   0.00397   0.00309   0.00268   0.00577   1.93094
    R8        2.72638  -0.01989  -0.02574   0.00163  -0.02411   2.70228
    R9        2.72670  -0.01080  -0.02472   0.01266  -0.01204   2.71466
   R10        2.03055   0.01486   0.01296   0.00747   0.02043   2.05098
   R11        2.08053   0.00060   0.00887  -0.00940  -0.00053   2.07999
   R12        2.08168  -0.00180  -0.00058  -0.00231  -0.00289   2.07879
   R13        2.62297   0.00324   0.00237   0.00123   0.00358   2.62655
   R14        2.04603   0.00283   0.00019   0.00590   0.00609   2.05212
   R15        2.66702  -0.01390  -0.01162  -0.00465  -0.01629   2.65073
   R16        2.06150   0.00026   0.00132  -0.00109   0.00023   2.06173
   R17        2.67910  -0.01434  -0.01393  -0.00249  -0.01642   2.66268
   R18        2.06922  -0.00178  -0.00487   0.00270  -0.00218   2.06704
   R19        2.60458   0.00651   0.00448   0.00435   0.00886   2.61344
   R20        2.06716  -0.00180  -0.00227  -0.00042  -0.00269   2.06447
   R21        2.06039   0.00252   0.00281   0.00128   0.00409   2.06448
    A1        2.14118  -0.04477   0.01994  -0.09117  -0.07136   2.06982
    A2        2.13603  -0.01040  -0.01999  -0.02825  -0.04836   2.08766
    A3        2.00532   0.05517   0.00019   0.11792   0.11779   2.12311
    A4        2.11786  -0.03625   0.01346  -0.07915  -0.06580   2.05206
    A5        1.99614   0.01152   0.01839  -0.01166   0.00662   2.00276
    A6        2.16827   0.02487  -0.03160   0.09177   0.06007   2.22834
    A7        2.43755  -0.03425  -0.06336   0.04793  -0.01929   2.41826
    A8        1.82590   0.02815   0.03384   0.04216   0.07241   1.89831
    A9        1.94426   0.00514   0.01071  -0.00545   0.00090   1.94516
   A10        2.18376  -0.01342  -0.01621  -0.01695  -0.03318   2.15058
   A11        2.02334   0.01942   0.01798   0.02613   0.04409   2.06743
   A12        2.07594  -0.00598  -0.00172  -0.00916  -0.01084   2.06511
   A13        1.99766  -0.00939  -0.01717   0.00438  -0.01289   1.98477
   A14        1.91540  -0.00382  -0.00511  -0.00336  -0.00825   1.90715
   A15        1.88872  -0.00165   0.02726  -0.05640  -0.02953   1.85918
   A16        1.86184   0.00734   0.00055   0.02899   0.02999   1.89183
   A17        1.92355   0.00471  -0.00357   0.01635   0.01212   1.93568
   A18        1.87295   0.00364  -0.00246   0.01223   0.00970   1.88265
   A19        2.08529   0.00498   0.00533   0.00332   0.00859   2.09388
   A20        2.12223  -0.00583  -0.00418  -0.01218  -0.01642   2.10581
[...]
 ! D25   D(12,4,16,15)           0.2192         -DE/DX =    0.0                 !
 ! D26   D(12,4,16,21)        -178.3583         -DE/DX =    0.0                 !
 ! D27   D(4,12,13,14)           0.2546         -DE/DX =    0.0                 !
 ! D28   D(4,12,13,18)        -179.739          -DE/DX =    0.0                 !
 ! D29   D(17,12,13,14)        179.5245         -DE/DX =    0.0                 !
 ! D30   D(17,12,13,18)         -0.4691         -DE/DX =    0.0                 !
 ! D31   D(12,13,14,15)          0.0499         -DE/DX =    0.0                 !
 ! D32   D(12,13,14,19)        179.7884         -DE/DX =    0.0                 !
 ! D33   D(18,13,14,15)       -179.9566         -DE/DX =    0.0                 !
 ! D34   D(18,13,14,19)         -0.218          -DE/DX =    0.0                 !
 ! D35   D(13,14,15,16)         -0.221          -DE/DX =    0.0                 !
 ! D36   D(13,14,15,20)        179.3304         -DE/DX =    0.0                 !
 ! D37   D(19,14,15,16)       -179.9599         -DE/DX =    0.0                 !
 ! D38   D(19,14,15,20)         -0.4086         -DE/DX =    0.0                 !
 ! D39   D(14,15,16,4)           0.0831         -DE/DX =    0.0                 !
 ! D40   D(14,15,16,21)        178.6988         -DE/DX =    0.0                 !
 ! D41   D(20,15,16,4)        -179.4692         -DE/DX =    0.0                 !
 ! D42   D(20,15,16,21)         -0.8536         -DE/DX =    0.0                 !
 --------------------------------------------------------------------------------
 GradGradGradGradGradGradGradGradGradGradGradGradGradGradGradGradGradGrad

                          Input orientation:                          
 ---------------------------------------------------------------------
 Center     Atomic      Atomic             Coordinates (Angstroms)
 Number     Number       Type             X           Y           Z
 ---------------------------------------------------------------------
      1          6           0       -0.875729   -1.151759   -0.039528
      2          7           0       -0.157309   -2.455778   -0.109747
      3          7           0       -2.174813   -1.246021   -0.005126
      4          6           0       -0.076744    0.039108   -0.000540
      5          8           0        0.190969   -2.910169    0.978203
      6          8           0        0.003478   -2.918011   -1.238212
      7          6           0       -2.974418   -2.478378    0.021873
      8          1           0       -2.691660   -0.368041    0.046650
      9          1           0       -2.464866   -3.269949   -0.540682
     10          1           0       -3.135134   -2.797472    1.063157
     11          1           0       -3.941416   -2.270326   -0.451911
     12          6           0        1.318687   -0.048452   -0.232839
     13          6           0        2.095499    1.103164   -0.215119
     14          6           0        1.500546    2.344905    0.036966
     15          6           0        0.120126    2.442781    0.274791
     16          6           0       -0.667168    1.302132    0.256478
     17          1           0        1.793636   -1.009102   -0.438269
     18          1           0        3.169074    1.035207   -0.398315
     19          1           0        2.115957    3.247237    0.053323
     20          1           0       -0.332933    3.413879    0.481210
     21          1           0       -1.735381    1.398746    0.465437
 ---------------------------------------------------------------------
                    Distance matrix (angstroms):
                    1          2          3          4          5
     1  C    0.000000
     2  N    1.490478   0.000000
     3  N    1.302954   2.354736   0.000000
     4  C    1.434595   2.498574   2.460381   0.000000
     5  O    2.294695   1.229392   3.055036   3.118948   0.000000
     6  O    2.308569   1.230018   3.010150   3.206683   2.224345
     7  C    2.483583   2.820273   1.469286   3.838588   3.334770
     8  H    1.979708   3.287254   1.020128   2.646844   3.954713
     9  H    2.695039   2.484632   2.113583   4.116398   3.080570
    10  H    3.004862   3.218680   2.114343   4.304810   3.329096
    11  H    3.289329   3.804067   2.090383   4.524700   4.419414
    12  C    2.463761   2.826470   3.700077   1.417341   3.305721
    13  C    3.734128   4.213350   4.878354   2.428353   4.599793
    14  C    4.228381   5.081001   5.138560   2.793914   5.496974
    15  C    3.743160   4.921456   4.353431   2.427388   5.399433
    16  C    2.480464   3.809983   2.972292   1.417706   4.358987
    17  H    2.702750   2.450916   3.999042   2.188303   2.861641
    18  H    4.612156   4.830639   5.823721   3.418446   5.131267
    19  H    5.320712   6.141557   6.213171   3.886249   6.517256
    20  H    4.627186   5.901945   5.034255   3.418596   6.365143
    21  H    2.738442   4.204581   2.722007   2.194727   4.747683
                    6          7          8          9         10
     6  O    0.000000
     7  C    3.263274   0.000000
     8  H    3.926447   2.129340   0.000000
     9  H    2.589041   1.096675   2.969422   0.000000
    10  H    3.893805   1.100874   2.670598   1.801331   0.000000
    11  H    4.074304   1.096740   2.330052   1.785308   1.795384
    12  C    3.312841   4.939653   4.032757   4.978763   5.391961
    13  C    4.646840   6.211898   5.014963   6.326692   6.648946
    14  C    5.618325   6.579483   4.993472   6.898171   6.999046
    15  C    5.571434   5.818761   3.982324   6.323169   6.219204
    16  C    4.526972   4.435166   2.632882   4.977058   4.852663
    17  H    2.736514   5.010474   4.556751   4.822526   5.453928
    18  H    5.133649   7.089735   6.042789   7.091961   7.521195
    19  H    6.643863   7.661304   6.015269   7.988147   8.070454
    20  H    6.569811   6.473572   4.478320   7.089637   6.838997
    21  H    4.955849   4.094393   2.052166   4.831266   4.463723
                   11         12         13         14         15
    11  H    0.000000
    12  C    5.714315   0.000000
    13  C    6.919599   1.389234   0.000000
    14  C    7.152224   2.415373   1.399799   0.000000
    15  C    6.263992   2.810780   2.436531   1.404172   0.000000
    16  C    4.897445   2.450945   2.809684   2.415481   1.386091
    17  H    5.872111   1.091158   2.145364   3.400164   3.901870
    18  H    7.841459   2.150728   1.091211   2.165356   3.424970
    19  H    8.209174   3.402807   2.160909   1.092337   2.163224
    20  H    6.797209   3.901980   3.423675   2.168340   1.091284
    21  H    4.378379   3.450986   3.902072   3.398533   2.137583
                   16         17         18         19         20
    16  C    0.000000
    17  H    3.446742   0.000000
    18  H    3.900866   2.464269   0.000000
    19  H    3.401543   4.296740   2.491206   0.000000
    20  H    2.149812   4.993044   4.323851   2.491569   0.000000
    21  H    1.092738   4.366735   4.993186   4.291802   2.455173
                   21
    21  H    0.000000
 Symmetry turned off by external request.
 Stoichiometry    C8H9N2O2(1+)
 Framework group  C1[X(C8H9N2O2)]
 Deg. of freedom    57
 Full point group                 C1      NOp   1
 Rotational constants (GHZ):           1.8276052           0.6480385           0.5199891

 **********************************************************************

            Population analysis using the SCF Density.

 **********************************************************************

 Alpha  occ. eigenvalues --  -19.35894 -19.35806 -14.74865 -14.61188 -10.51579
 Alpha  occ. eigenvalues --  -10.41452 -10.40025 -10.38537 -10.38152 -10.37113
 Alpha  occ. eigenvalues --  -10.36438 -10.36095  -1.40394  -1.23783  -1.19124
 Alpha  occ. eigenvalues --   -1.04203  -0.98845  -0.92958  -0.91778  -0.90300
 Alpha  occ. eigenvalues --   -0.81033  -0.79995  -0.77693  -0.73867  -0.72552
 Alpha  occ. eigenvalues --   -0.69963  -0.69154  -0.67685  -0.65514  -0.65246
 Alpha  occ. eigenvalues --   -0.63253  -0.60354  -0.59972  -0.59107  -0.57842
 Alpha  occ. eigenvalues --   -0.53318  -0.53237  -0.52420  -0.49704  -0.48680
 Alpha  occ. eigenvalues --   -0.48508  -0.44006  -0.43420
 Alpha virt. eigenvalues --   -0.27932  -0.26135  -0.18222  -0.15554  -0.13651
 Alpha virt. eigenvalues --   -0.08549  -0.07242  -0.06846  -0.03624  -0.03451
 Alpha virt. eigenvalues --   -0.02458  -0.02168  -0.01271  -0.00314   0.01385
 Alpha virt. eigenvalues --    0.03462   0.07240   0.08548   0.09205   0.11427
 Alpha virt. eigenvalues --    0.12534   0.14533   0.15525   0.19094   0.19551
 Alpha virt. eigenvalues --    0.21703   0.23681   0.23976   0.24640   0.25641
 Alpha virt. eigenvalues --    0.28096   0.28614   0.28924   0.30147   0.32250
 Alpha virt. eigenvalues --    0.33608   0.33946   0.36236   0.40783   0.41369
 Alpha virt. eigenvalues --    0.41852   0.43147   0.43801   0.46156   0.46728
 Alpha virt. eigenvalues --    0.47800   0.48288   0.48791   0.49928   0.50249
 Alpha virt. eigenvalues --    0.51124   0.52060   0.52660   0.55508   0.56370
 Alpha virt. eigenvalues --    0.58101   0.59096   0.59135   0.61498   0.62696
 Alpha virt. eigenvalues --    0.64528   0.66456   0.68144   0.68843   0.72793
 Alpha virt. eigenvalues --    0.74904   0.76314   0.78622   0.81576   0.84561
 Alpha virt. eigenvalues --    0.88878   0.90217   0.90910   0.92990   0.94954
 Alpha virt. eigenvalues --    0.97813   1.00303   1.02605   1.05162   1.06077
 Alpha virt. eigenvalues --    1.06678   1.07480   1.09889   1.10971   1.12444
 Alpha virt. eigenvalues --    1.13048   1.14430   1.21093   1.23575   1.34536
 Alpha virt. eigenvalues --    1.35055   1.36973   1.45403   1.46412   1.49691
 Alpha virt. eigenvalues --    1.51007   1.52940   1.53462   1.56163   1.57170
 Alpha virt. eigenvalues --    1.57520   1.58080   1.59191   1.59573   1.60346
 Alpha virt. eigenvalues --    1.60963   1.61058   1.63426   1.65423   1.67867
 Alpha virt. eigenvalues --    1.70074   1.74022   1.75939   1.77780   1.79272
 Alpha virt. eigenvalues --    1.80528   1.82018   1.82520   1.84067   1.86076
 Alpha virt. eigenvalues --    1.89409   1.93305   1.96646   1.97415   1.99262
 Alpha virt. eigenvalues --    2.00771   2.07914   2.08392   2.11397   2.12750
 Alpha virt. eigenvalues --    2.13905   2.14085   2.16147   2.17691   2.21211
 Alpha virt. eigenvalues --    2.23617   2.26744   2.34042   2.35638   2.36902
 Alpha virt. eigenvalues --    2.41563   2.42087   2.43674   2.43957   2.44584
 Alpha virt. eigenvalues --    2.44608   2.48240   2.52329   2.53251   2.55499
 Alpha virt. eigenvalues --    2.56494   2.57569   2.66183   2.68984   2.69826
 Alpha virt. eigenvalues --    2.70470   2.76280   2.77881   2.83748   2.87541
 Alpha virt. eigenvalues --    2.93512   2.96539   2.97968   3.10815   3.13235
 Alpha virt. eigenvalues --    3.19328   3.25246   3.45756   3.47167   3.62223
          Condensed to atoms (all electrons):
               1          2          3          4          5          6
     1  C    5.072450   0.212374   0.546138   0.296017  -0.030403  -0.021972
     2  N    0.212374   6.198423  -0.048306  -0.025399   0.250598   0.229568
     3  N    0.546138  -0.048306   6.016870  -0.051190  -0.008280  -0.006899
     4  C    0.296017  -0.025399  -0.051190   5.360409  -0.004504  -0.011049
     5  O   -0.030403   0.250598  -0.008280  -0.004504   8.021052  -0.083180
     6  O   -0.021972   0.229568  -0.006899  -0.011049  -0.083180   8.036503
     7  C   -0.040331  -0.004322   0.298095   0.004488   0.005822  -0.004049
     8  H   -0.000999   0.005686   0.356085  -0.031398  -0.000545  -0.000615
     9  H   -0.013217   0.008490  -0.013741   0.000212  -0.003970   0.010256
    10  H   -0.001580   0.000275  -0.022961   0.000058   0.000776   0.000086
    11  H    0.004899   0.000008  -0.014111  -0.000191   0.000084  -0.000143
    12  C   -0.070520  -0.009935   0.001897   0.243520   0.001530   0.002386
    13  C    0.013472  -0.000698  -0.000084   0.094624  -0.000103   0.000166
    14  C    0.000791   0.000025  -0.000007  -0.150867  -0.000004  -0.000004
    15  C    0.013293  -0.000141   0.000356   0.093154   0.000008   0.000006
    16  C   -0.084976   0.005405  -0.006658   0.193801  -0.000790  -0.000473
    17  H   -0.022353   0.009208   0.000121  -0.067874  -0.002509   0.000974
    18  H   -0.000411  -0.000009   0.000001   0.014882   0.000003  -0.000001
    19  H    0.000030  -0.000000   0.000000  -0.001352   0.000000   0.000000
    20  H   -0.000470   0.000002   0.000001   0.015180  -0.000000  -0.000000
    21  H   -0.016926  -0.000008  -0.002221  -0.087206  -0.000010  -0.000001
               7          8          9         10         11         12
     1  C   -0.040331  -0.000999  -0.013217  -0.001580   0.004899  -0.070520
     2  N   -0.004322   0.005686   0.008490   0.000275   0.000008  -0.009935
     3  N    0.298095   0.356085  -0.013741  -0.022961  -0.014111   0.001897
     4  C    0.004488  -0.031398   0.000212   0.000058  -0.000191   0.243520
     5  O    0.005822  -0.000545  -0.003970   0.000776   0.000084   0.001530
     6  O   -0.004049  -0.000615   0.010256   0.000086  -0.000143   0.002386
     7  C    4.495740  -0.021894   0.393599   0.403303   0.396916  -0.000036
     8  H   -0.021894   0.494554   0.004301   0.000290  -0.006608   0.000009
     9  H    0.393599   0.004301   0.547280  -0.015588  -0.013904  -0.000002
    10  H    0.403303   0.000290  -0.015588   0.541300  -0.014603   0.000003
    11  H    0.396916  -0.006608  -0.013904  -0.014603   0.553775   0.000009
    12  C   -0.000036   0.000009  -0.000002   0.000003   0.000009   5.075448
    13  C    0.000006  -0.000022  -0.000001  -0.000000  -0.000000   0.314386
    14  C    0.000000   0.000032   0.000000  -0.000000   0.000000   0.089138
    15  C    0.000007  -0.000256   0.000001  -0.000001  -0.000001  -0.127788
    16  C   -0.000310   0.011998   0.000041   0.000007  -0.000005   0.049215
    17  H   -0.000014   0.000019   0.000022  -0.000001   0.000000   0.438013
    18  H   -0.000000   0.000000  -0.000000   0.000000   0.000000  -0.063077
    19  H   -0.000000  -0.000001   0.000000  -0.000000  -0.000000   0.013800
    20  H   -0.000000   0.000012   0.000000   0.000000  -0.000000  -0.001203
    21  H   -0.000130   0.006053  -0.000000  -0.000015   0.000003   0.010119
              13         14         15         16         17         18
     1  C    0.013472   0.000791   0.013293  -0.084976  -0.022353  -0.000411
     2  N   -0.000698   0.000025  -0.000141   0.005405   0.009208  -0.000009
     3  N   -0.000084  -0.000007   0.000356  -0.006658   0.000121   0.000001
     4  C    0.094624  -0.150867   0.093154   0.193801  -0.067874   0.014882
     5  O   -0.000103  -0.000004   0.000008  -0.000790  -0.002509   0.000003
     6  O    0.000166  -0.000004   0.000006  -0.000473   0.000974  -0.000001
     7  C    0.000006   0.000000   0.000007  -0.000310  -0.000014  -0.000000
     8  H   -0.000022   0.000032  -0.000256   0.011998   0.000019   0.000000
     9  H   -0.000001   0.000000   0.000001   0.000041   0.000022  -0.000000
    10  H   -0.000000  -0.000000  -0.000001   0.000007  -0.000001   0.000000
    11  H   -0.000000   0.000000  -0.000001  -0.000005   0.000000   0.000000
    12  C    0.314386   0.089138  -0.127788   0.049215   0.438013  -0.063077
    13  C    4.967959   0.264556   0.095415  -0.137522  -0.044737   0.447630
    14  C    0.264556   5.033687   0.265875   0.087689   0.012869  -0.065446
    15  C    0.095415   0.265875   4.943004   0.329557  -0.001710   0.012490
    16  C   -0.137522   0.087689   0.329557   5.162868   0.011864  -0.001320
    17  H   -0.044737   0.012869  -0.001710   0.011864   0.634699  -0.011547
    18  H    0.447630  -0.065446   0.012490  -0.001320  -0.011547   0.630287
    19  H   -0.063875   0.445099  -0.064874   0.014061  -0.000207  -0.010861
    20  H    0.012286  -0.063895   0.443677  -0.061953   0.000026  -0.000187
    21  H   -0.001351   0.013251  -0.034402   0.438485  -0.000119   0.000026
              19         20         21
     1  C    0.000030  -0.000470  -0.016926
     2  N   -0.000000   0.000002  -0.000008
     3  N    0.000000   0.000001  -0.002221
     4  C   -0.001352   0.015180  -0.087206
     5  O    0.000000  -0.000000  -0.000010
     6  O    0.000000  -0.000000  -0.000001
     7  C   -0.000000  -0.000000  -0.000130
     8  H   -0.000001   0.000012   0.006053
     9  H    0.000000   0.000000  -0.000000
    10  H   -0.000000   0.000000  -0.000015
    11  H   -0.000000  -0.000000   0.000003
    12  C    0.013800  -0.001203   0.010119
    13  C   -0.063875   0.012286  -0.001351
    14  C    0.445099  -0.063895   0.013251
    15  C   -0.064874   0.443677  -0.034402
    16  C    0.014061  -0.061953   0.438485
    17  H   -0.000207   0.000026  -0.000119
    18  H   -0.010861  -0.000187   0.000026
    19  H    0.624472  -0.010783  -0.000241
    20  H   -0.010783   0.636052  -0.012780
    21  H   -0.000241  -0.012780   0.677624
 Mulliken charges:
               1
     1  C    0.144694
     2  N    0.168753
     3  N   -0.045109
     4  C    0.114686
     5  O   -0.145575
     6  O   -0.151560
     7  C    0.073111
     8  H    0.183300
     9  H    0.096219
    10  H    0.108654
    11  H    0.093872
    12  C    0.033087
    13  C    0.037894
    14  C    0.067211
    15  C    0.032332
    16  C   -0.010983
    17  H    0.043256
    18  H    0.047540
    19  H    0.054731
    20  H    0.044035
    21  H    0.009851
 Sum of Mulliken charges =   1.00000
 Mulliken charges with hydrogens summed into heavy atoms:
               1
     1  C    0.144694
     2  N    0.168753
     3  N    0.138192
     4  C    0.114686
     5  O   -0.145575
     6  O   -0.151560
     7  C    0.371856
    12  C    0.076344
    13  C    0.085433
    14  C    0.121942
    15  C    0.076367
    16  C   -0.001132
 Electronic spatial extent (au):  <R**2>=           2249.1220
 Charge=              1.0000 electrons
 Dipole moment (field-independent basis, Debye):
    X=             -5.4072    Y=              0.1608    Z=              0.1992  Tot=              5.4133
 Quadrupole moment (field-independent basis, Debye-Ang):
   XX=            -33.6696   YY=            -48.3830   ZZ=            -71.2235
   XY=             16.9197   XZ=             -2.2478   YZ=              0.9953
 Traceless Quadrupole moment (field-independent basis, Debye-Ang):
   XX=             17.4225   YY=              2.7090   ZZ=            -20.1315
   XY=             16.9197   XZ=             -2.2478   YZ=              0.9953
 Octapole moment (field-independent basis, Debye-Ang**2):
  XXX=            -12.0007  YYY=            120.8451  ZZZ=              5.5117  XYY=            -12.6394
  XXY=              3.9567  XXZ=             -1.1748  XZZ=              9.2844  YZZ=             34.1801
  YYZ=              6.5403  XYZ=              0.1780
 Hexadecapole moment (field-independent basis, Debye-Ang**3):
 XXXX=           -675.6807 YYYY=          -1521.2148 ZZZZ=           -163.9856 XXXY=           -149.4431
 XXXZ=              7.7396 YYYX=           -164.1062 YYYZ=            -22.9911 ZZZX=             14.0475
 ZZZY=            -40.4630 XXYY=           -304.3700 XXZZ=           -187.5637 YYZZ=           -326.1510
 XXYZ=            -12.0492 YYXZ=             -0.8713 ZZXY=            -96.7973
 N-N= 6.802079649098D+02 E-N=-2.670266778018D+03  KE= 5.639307480454D+02


 WERE I TO AWAIT PERFECTION, MY BOOK WOULD NEVER BE FINISHED.
                                    -- HISTORY OF CHINESE WRITING

                                       TAI T'UNG, 13TH CENTURY
 Error termination request processed by link 9999.
 Error termination via Lnk1e in /public/software/apps/Gaussian/g16/l9999.exe at Sat Feb 24 09:47:58 2024.
 Job cpu time:       0 days  6 hours 20 minutes 57.2 seconds.
 Elapsed time:       0 days  0 hours 12 minutes 21.4 seconds.
 File lengths (MBytes):  RWF=     44 Int=      0 D2E=      0 Chk=      5 Scr=      2
