 Entering Gaussian System, Link 0=g16
 Input=cation_0371_opt_g16.com
 Output=cation_0371_opt_g16.log
 Initial command:
 /public/software/apps/Gaussian/g16/l1.exe "/public/home/TMJ_HG/tmp/Gau-95570.inp" -scrdir="/public/home/TMJ_HG/tmp/"
 Entering Link 1 = /public/software/apps/Gaussian/g16/l1.exe PID=     95571.
  
 Copyright (c) 1988-2019, Gaussian, Inc.  All Rights Reserved.
  
 This is part of the Gaussian(R) 16 program.  It is based on
 the Gaussian(R) 09 system (copyright 2009, Gaussian, Inc.),
 the Gaussian(R) 03 system (copyright 2003, Gaussian, Inc.),
 the Gaussian(R) 98 system (copyright 1998, Gaussian, Inc.),
 the Gaussian(R) 94 system (copyright 1995, Gaussian, Inc.),
 the Gaussian 92(TM) system (copyright 1992, Gaussian, Inc.),
 the Gaussian 90(TM) system (copyright 1990, Gaussian, Inc.),
 the Gaussian 88(TM) system (copyright 1988, Gaussian, Inc.),
 the Gaussian 86(TM) system (copyright 1986, Carnegie Mellon
 University), and the Gaussian 82(TM) system (copyright 1983,
 Carnegie Mellon University). Gaussian is a federally registered
 trademark of Gaussian, Inc.
  
 This software contains proprietary and confidential information,
 including trade secrets, belonging to Gaussian, Inc.
  
 This software is provided under written license and may be
 used, copied, transmitted, or stored only in accord with that
 written license.
  
 The following legend is applicable only to US Government
 contracts under FAR:
  
                    RESTRICTED RIGHTS LEGEND
  
 Use, reproduction and disclosure by the US Government is
 subject to restrictions as set forth in subparagraphs (a)
 and (c) of the Commercial Computer Software - Restricted
 Rights clause in FAR 52.227-19.
  
 Gaussian, Inc.
 340 Quinnipiac St., Bldg. 40, Wallingford CT 06492
  
  
 ---------------------------------------------------------------
 Warning -- This program may not be used in any manner that
 competes with the business of Gaussian, Inc. or will provide
 assistance to any competitor of Gaussian, Inc.  The licensee
 of this program is prohibited from giving any competitor of
 Gaussian, Inc. access to this program.  By using this program,
 the user acknowledges that Gaussian, Inc. is engaged in the
 business of creating and licensing software in the field of
 computational chemistry and represents and warrants to the
 licensee that it is not a competitor of Gaussian, Inc. and that
 it will not use this program in any manner prohibited above.
 ---------------------------------------------------------------
  

 Cite this work as:
 Gaussian 16, Revision C.01,
 M. J. Frisch, G. W. Trucks, H. B. Schlegel, G. E. Scuseria, 
 M. A. Robb, J. R. Cheeseman, G. Scalmani, V. Barone, 
 G. A. Petersson, H. Nakatsuji, X. Li, M. Caricato, A. V. Marenich, 
 J. Bloino, B. G. Janesko, R. Gomperts, B. Mennucci, H. P. Hratchian, 
 J. V. Ortiz, A. F. Izmaylov, J. L. Sonnenberg, D. Williams-Young, 
 F. Ding, F. Lipparini, F. Egidi, J. Goings, B. Peng, A. Petrone, 
 T. Henderson, D. Ranasinghe, V. G. Zakrzewski, J. Gao, N. Rega, 
 G. Zheng, W. Liang, M. Hada, M. Ehara, K. Toyota, R. Fukuda, 
 J. Hasegawa, M. Ishida, T. Nakajima, Y. Honda, O. Kitao, H. Nakai, 
 T. Vreven, K. Throssell, J. A. Montgomery, Jr., J. E. Peralta, 
 F. Ogliaro, M. J. Bearpark, J. J. Heyd, E. N. Brothers, K. N. Kudin, 
 V. N. Staroverov, T. A. Keith, R. Kobayashi, J. Normand, 
 K. Raghavachari, A. P. Rendell, J. C. Burant, S. S. Iyengar, 
 J. Tomasi, M. Cossi, J. M. Millam, M. Klene, C. Adamo, R. Cammi, 
 J. W. Ochterski, R. L. Martin, K. Morokuma, O. Farkas, 
 J. B. Foresman, and D. J. Fox, Gaussian, Inc., Wallingford CT, 2019.
 
 ******************************************
 Gaussian 16:  ES64L-G16RevC.01  3-Jul-2019
                23-Feb-2024 
 ******************************************
 %mem=60GB
 %nprocshared=32
 Will use up to   32 processors via shared memory.
 %chk=cation_0371_opt_g16.chk
 ---------------------------------------------------------
 # B3LYP def2svp Opt freq EmpiricalDispersion=GD3BJ NoSymm
 ---------------------------------------------------------
 1/18=20,19=15,26=3,38=1/1,3;
 2/9=110,12=2,15=1,17=6,18=5,40=1/2;
 3/5=43,7=101,11=2,25=1,30=1,71=1,74=-5,124=41/1,2,3;
 4//1;
 5/5=2,38=5/2;
 6/7=2,8=2,9=2,10=2,28=1/1;
 7/30=1/1,2,3,16;
 1/18=20,19=15,26=3/3(2);
 2/9=110,15=1/2;
 99//99;
 2/9=110,15=1/2;
 3/5=43,7=101,11=2,25=1,30=1,71=1,74=-5,124=41/1,2,3;
 4/5=5,16=3,69=1/1;
 5/5=2,38=5/2;
 7/30=1/1,2,3,16;
 1/18=20,19=15,26=3/3(-5);
 2/9=110,15=1/2;
 6/7=2,8=2,9=2,10=2,19=2,28=1/1;
 99/9=1/99;
 ------------------
 Title: cation_0371
 ------------------
 Symbolic Z-matrix:
 Charge =  1 Multiplicity = 1
 C                    -0.7943   -1.296     0. 
 C                    -0.292    -2.5318   -0.7286 
 N                    -2.0694   -1.3143    0.7312 
 C                     0.        0.        0. 
 O                    -0.8688   -3.6199   -0.4779 
 O                     0.7566   -2.4817   -1.6352 
 C                     1.224    -3.6318   -2.3134 
 H                     1.9316   -4.2072   -1.6662 
 H                     0.4309   -4.3164   -2.6196 
 H                     1.8125   -3.2616   -3.1984 
 C                    -2.8304   -2.5005    0.6227 
 H                    -2.5874   -0.4289    0.7668 
 H                    -2.2375   -3.2516    0.0451 
 H                    -2.9813   -2.9195    1.654 
 H                    -3.8283   -2.3946    0.1736 
 C                     1.375     0.        0. 
 C                     2.0973    1.1933    0. 
 C                     1.4561    2.4134    0. 
 C                     0.0774    2.4045    0. 
 C                    -0.6456    1.2172    0. 
 H                     1.9224   -0.9326    0.0001 
 H                     3.1915    1.1773   -0.0001 
 H                     2.0205    3.3367    0. 
 H                    -0.4356    3.3637    0.0001 
 H                    -1.7431    1.2365    0. 
 

 GradGradGradGradGradGradGradGradGradGradGradGradGradGradGradGradGradGrad
 Berny optimization.
 Initialization pass.
                           ----------------------------
                           !    Initial Parameters    !
                           ! (Angstroms and Degrees)  !
 --------------------------                            --------------------------
 ! Name  Definition              Value          Derivative Info.                !
 --------------------------------------------------------------------------------
 ! R1    R(1,2)                  1.52           estimate D2E/DX2                !
 ! R2    R(1,3)                  1.47           estimate D2E/DX2                !
 ! R3    R(1,4)                  1.52           estimate D2E/DX2                !
 ! R4    R(2,5)                  1.2568         estimate D2E/DX2                !
 ! R5    R(2,6)                  1.3871         estimate D2E/DX2                !
 ! R6    R(3,11)                 1.4135         estimate D2E/DX2                !
 ! R7    R(3,12)                 1.0264         estimate D2E/DX2                !
 ! R8    R(4,16)                 1.375          estimate D2E/DX2                !
 ! R9    R(4,20)                 1.3778         estimate D2E/DX2                !
 ! R10   R(6,7)                  1.4146         estimate D2E/DX2                !
 ! R11   R(7,8)                  1.1183         estimate D2E/DX2                !
 ! R12   R(7,9)                  1.0915         estimate D2E/DX2                !
 ! R13   R(7,10)                 1.1254         estimate D2E/DX2                !
 ! R14   R(11,13)                1.1177         estimate D2E/DX2                !
 ! R15   R(11,14)                1.1233         estimate D2E/DX2                !
 ! R16   R(11,15)                1.0994         estimate D2E/DX2                !
 ! R17   R(16,17)                1.3949         estimate D2E/DX2                !
 ! R18   R(16,21)                1.0814         estimate D2E/DX2                !
 ! R19   R(17,18)                1.3783         estimate D2E/DX2                !
 ! R20   R(17,22)                1.0943         estimate D2E/DX2                !
 ! R21   R(18,19)                1.3787         estimate D2E/DX2                !
 ! R22   R(18,23)                1.0821         estimate D2E/DX2                !
 ! R23   R(19,20)                1.3901         estimate D2E/DX2                !
 ! R24   R(19,24)                1.0878         estimate D2E/DX2                !
 ! R25   R(20,25)                1.0977         estimate D2E/DX2                !
 ! A1    A(2,1,3)              120.9951         estimate D2E/DX2                !
 ! A2    A(2,1,4)              121.3667         estimate D2E/DX2                !
 ! A3    A(3,1,4)              117.6382         estimate D2E/DX2                !
 ! A4    A(1,2,5)              117.1694         estimate D2E/DX2                !
 ! A5    A(1,2,6)              122.2597         estimate D2E/DX2                !
 ! A6    A(5,2,6)              120.5709         estimate D2E/DX2                !
 ! A7    A(1,3,11)             116.0573         estimate D2E/DX2                !
 ! A8    A(1,3,12)             116.377          estimate D2E/DX2                !
 ! A9    A(11,3,12)            117.056          estimate D2E/DX2                !
 ! A10   A(1,4,16)             121.5035         estimate D2E/DX2                !
 ! A11   A(1,4,20)             120.5551         estimate D2E/DX2                !
 ! A12   A(16,4,20)            117.9414         estimate D2E/DX2                !
 ! A13   A(2,6,7)              122.2603         estimate D2E/DX2                !
 ! A14   A(6,7,8)              110.4822         estimate D2E/DX2                !
 ! A15   A(6,7,9)              113.8492         estimate D2E/DX2                !
 ! A16   A(6,7,10)             106.4            estimate D2E/DX2                !
 ! A17   A(8,7,9)              107.4205         estimate D2E/DX2                !
 ! A18   A(8,7,10)             107.0658         estimate D2E/DX2                !
 ! A19   A(9,7,10)             111.448          estimate D2E/DX2                !
 ! A20   A(3,11,13)            108.5428         estimate D2E/DX2                !
 ! A21   A(3,11,14)            108.3527         estimate D2E/DX2                !
 ! A22   A(3,11,15)            116.0523         estimate D2E/DX2                !
 ! A23   A(13,11,14)           107.1593         estimate D2E/DX2                !
 ! A24   A(13,11,15)           109.5792         estimate D2E/DX2                !
 ! A25   A(14,11,15)           106.7992         estimate D2E/DX2                !
 ! A26   A(4,16,17)            121.1864         estimate D2E/DX2                !
 ! A27   A(4,16,21)            120.4113         estimate D2E/DX2                !
 ! A28   A(17,16,21)           118.4024         estimate D2E/DX2                !
 ! A29   A(16,17,18)           121.0903         estimate D2E/DX2                !
 ! A30   A(16,17,22)           120.3486         estimate D2E/DX2                !
 ! A31   A(18,17,22)           118.5611         estimate D2E/DX2                !
 ! A32   A(17,18,19)           117.3534         estimate D2E/DX2                !
 ! A33   A(17,18,23)           120.8399         estimate D2E/DX2                !
 ! A34   A(19,18,23)           121.8067         estimate D2E/DX2                !
 ! A35   A(18,19,20)           121.709          estimate D2E/DX2                !
 ! A36   A(18,19,24)           117.7689         estimate D2E/DX2                !
 ! A37   A(20,19,24)           120.5221         estimate D2E/DX2                !
 ! A38   A(4,20,19)            120.7195         estimate D2E/DX2                !
 ! A39   A(4,20,25)            118.9488         estimate D2E/DX2                !
 ! A40   A(19,20,25)           120.3316         estimate D2E/DX2                !
 ! D1    D(3,1,2,5)            -12.9439         estimate D2E/DX2                !
 ! D2    D(3,1,2,6)            167.0477         estimate D2E/DX2                !
 ! D3    D(4,1,2,5)            167.0493         estimate D2E/DX2                !
 ! D4    D(4,1,2,6)            -12.9591         estimate D2E/DX2                !
 ! D5    D(2,1,3,11)            -4.7976         estimate D2E/DX2                !
 ! D6    D(2,1,3,12)          -148.6644         estimate D2E/DX2                !
 ! D7    D(4,1,3,11)           175.209          estimate D2E/DX2                !
 ! D8    D(4,1,3,12)            31.3422         estimate D2E/DX2                !
 ! D9    D(2,1,4,16)           -34.1521         estimate D2E/DX2                !
 ! D10   D(2,1,4,20)           145.8479         estimate D2E/DX2                !
 ! D11   D(3,1,4,16)           145.8413         estimate D2E/DX2                !
 ! D12   D(3,1,4,20)           -34.1587         estimate D2E/DX2                !
 ! D13   D(1,2,6,7)           -179.9934         estimate D2E/DX2                !
 ! D14   D(5,2,6,7)             -0.0021         estimate D2E/DX2                !
 ! D15   D(1,3,11,13)            4.9796         estimate D2E/DX2                !
 ! D16   D(1,3,11,14)          121.0283         estimate D2E/DX2                !
 ! D17   D(1,3,11,15)         -118.8975         estimate D2E/DX2                !
 ! D18   D(12,3,11,13)         148.5957         estimate D2E/DX2                !
 ! D19   D(12,3,11,14)         -95.3556         estimate D2E/DX2                !
 ! D20   D(12,3,11,15)          24.7186         estimate D2E/DX2                !
 ! D21   D(1,4,16,17)          180.0            estimate D2E/DX2                !
 ! D22   D(1,4,16,21)           -0.0061         estimate D2E/DX2                !
 ! D23   D(20,4,16,17)           0.0            estimate D2E/DX2                !
 ! D24   D(20,4,16,21)         179.9939         estimate D2E/DX2                !
 ! D25   D(1,4,20,19)          180.0            estimate D2E/DX2                !
 ! D26   D(1,4,20,25)            0.0            estimate D2E/DX2                !
 ! D27   D(16,4,20,19)           0.0            estimate D2E/DX2                !
 ! D28   D(16,4,20,25)         180.0            estimate D2E/DX2                !
 ! D29   D(2,6,7,8)            -82.3626         estimate D2E/DX2                !
 ! D30   D(2,6,7,9)             38.6048         estimate D2E/DX2                !
 ! D31   D(2,6,7,10)           161.7567         estimate D2E/DX2                !
 ! D32   D(4,16,17,18)           0.0            estimate D2E/DX2                !
 ! D33   D(4,16,17,22)        -179.9939         estimate D2E/DX2                !
 ! D34   D(21,16,17,18)       -179.994          estimate D2E/DX2                !
 ! D35   D(21,16,17,22)          0.0121         estimate D2E/DX2                !
 ! D36   D(16,17,18,19)          0.0            estimate D2E/DX2                !
 ! D37   D(16,17,18,23)        180.0            estimate D2E/DX2                !
 ! D38   D(22,17,18,19)        179.994          estimate D2E/DX2                !
 ! D39   D(22,17,18,23)         -0.006          estimate D2E/DX2                !
 ! D40   D(17,18,19,20)          0.0            estimate D2E/DX2                !
 ! D41   D(17,18,19,24)        179.994          estimate D2E/DX2                !
 ! D42   D(23,18,19,20)        180.0            estimate D2E/DX2                !
 ! D43   D(23,18,19,24)         -0.006          estimate D2E/DX2                !
 ! D44   D(18,19,20,4)           0.0            estimate D2E/DX2                !
 ! D45   D(18,19,20,25)        180.0            estimate D2E/DX2                !
 ! D46   D(24,19,20,4)        -179.9939         estimate D2E/DX2                !
 ! D47   D(24,19,20,25)          0.0061         estimate D2E/DX2                !
 --------------------------------------------------------------------------------
 Trust Radius=3.00D-01 FncErr=1.00D-07 GrdErr=1.00D-06 EigMax=2.50D+02 EigMin=1.00D-04
 Number of steps in this run=    122 maximum allowed number of steps=    150.
 GradGradGradGradGradGradGradGradGradGradGradGradGradGradGradGradGradGrad

                          Input orientation:                          
 ---------------------------------------------------------------------
 Center     Atomic      Atomic             Coordinates (Angstroms)
 Number     Number       Type             X           Y           Z
 ---------------------------------------------------------------------
      1          6           0       -0.794300   -1.296000    0.000000
      2          6           0       -0.292000   -2.531800   -0.728600
      3          7           0       -2.069400   -1.314300    0.731200
      4          6           0        0.000000    0.000000    0.000000
      5          8           0       -0.868800   -3.619900   -0.477900
      6          8           0        0.756600   -2.481700   -1.635200
      7          6           0        1.224000   -3.631800   -2.313400
      8          1           0        1.931600   -4.207200   -1.666200
      9          1           0        0.430900   -4.316400   -2.619600
     10          1           0        1.812500   -3.261600   -3.198400
     11          6           0       -2.830400   -2.500500    0.622700
     12          1           0       -2.587400   -0.428900    0.766800
     13          1           0       -2.237500   -3.251600    0.045100
     14          1           0       -2.981300   -2.919500    1.654000
     15          1           0       -3.828300   -2.394600    0.173600
     16          6           0        1.375000    0.000000    0.000000
     17          6           0        2.097300    1.193300    0.000000
     18          6           0        1.456100    2.413400    0.000000
     19          6           0        0.077400    2.404500    0.000000
     20          6           0       -0.645600    1.217200    0.000000
     21          1           0        1.922400   -0.932600    0.000100
     22          1           0        3.191500    1.177300   -0.000100
     23          1           0        2.020500    3.336700    0.000000
     24          1           0       -0.435600    3.363700    0.000100
     25          1           0       -1.743100    1.236500    0.000000
 ---------------------------------------------------------------------
                    Distance matrix (angstroms):
                    1          2          3          4          5
     1  C    0.000000
     2  C    1.519988   0.000000
     3  N    1.469989   2.602398   0.000000
     4  C    1.520042   2.650685   2.558213   0.000000
     5  O    2.373700   1.256786   2.866907   3.753249   0.000000
     6  O    2.546577   1.387082   3.866387   3.066783   2.297122
     7  C    3.857631   2.453538   5.048453   4.476602   2.783705
     8  H    4.322249   2.937764   5.488570   4.920146   3.098261
     9  H    4.181655   2.698752   5.147035   5.067474   2.600233
    10  H    4.570421   3.325874   5.856866   4.914565   3.836518
    11  C    2.446279   2.875842   1.413493   3.827717   2.512419
    12  H    2.134257   3.453588   1.026413   2.732504   3.832146
    13  H    2.430891   2.213977   2.062067   3.947321   1.510799
    14  H    3.186603   3.613783   2.063926   4.488580   3.081917
    15  H    3.231442   3.652151   2.138152   4.518863   3.268708
    16  C    2.526950   3.117653   3.758448   1.375000   4.285639
    17  C    3.815490   4.485084   4.917733   2.413013   5.673890
    18  C    4.338657   5.295443   5.182620   2.818639   6.483383
    19  C    3.801784   5.003436   4.355787   2.405745   6.116950
    20  C    2.517595   3.835478   2.995055   1.377815   4.865773
    21  H    2.740897   2.827015   4.076110   2.136671   3.903955
    22  H    4.690822   5.140322   5.866851   3.401721   6.302972
    23  H    5.420794   6.349630   6.236484   3.900768   7.547895
    24  H    4.673486   5.942099   5.008742   3.391788   7.013331
    25  H    2.704400   4.103247   2.673519   2.137131   4.957561
                    6          7          8          9         10
     6  O    0.000000
     7  C    1.414619   0.000000
     8  H    2.087807   1.118325   0.000000
     9  H    2.107427   1.091533   1.781291   0.000000
    10  H    2.041265   1.125436   1.804434   1.832057   0.000000
    11  C    4.238518   5.132123   5.552345   4.944298   6.061072
    12  H    4.600644   5.854312   6.373100   5.974152   6.565525
    13  H    3.518635   4.205836   4.606855   3.918518   5.188727
    14  H    4.998240   5.825134   6.067824   5.644298   6.829593
    15  H    4.929569   5.765550   6.312435   5.443902   6.628778
    16  C    3.035644   4.308665   4.559228   5.136627   4.589031
    17  C    4.239927   5.421814   5.654121   6.324238   5.491540
    18  C    5.208184   6.476892   6.843586   7.294076   6.523987
    19  C    5.197128   6.565320   7.066035   7.222033   6.733871
    20  C    4.280409   5.688587   6.232359   6.216260   6.027576
    21  H    2.536337   3.622944   3.674186   4.531832   3.958121
    22  H    4.689411   5.687693   5.775472   6.683071   5.642216
    23  H    6.174553   7.385542   7.726225   8.243729   7.335570
    24  H    6.185810   7.552720   8.105475   8.160734   7.692786
    25  H    4.769422   6.152711   6.775951   6.513315   6.565437
                   11         12         13         14         15
    11  C    0.000000
    12  H    2.090775   0.000000
    13  H    1.117722   2.934436   0.000000
    14  H    1.123348   2.673082   1.803355   0.000000
    15  H    1.099413   2.399103   1.811520   1.784520   0.000000
    16  C    4.932103   4.058639   4.860565   5.498777   5.730495
    17  C    6.189842   5.016565   6.208837   6.741144   6.929351
    18  C    6.550439   5.001654   6.762909   7.132044   7.146460
    19  C    5.736034   3.964505   6.111650   6.358957   6.189991
    20  C    4.356880   2.658611   4.744086   5.030258   4.817138
    21  H    5.043317   4.602156   4.762830   5.543413   5.936169
    22  H    7.083599   6.046792   7.006514   7.591000   7.878213
    23  H    7.615241   6.000039   7.844635   8.178860   8.190629
    24  H    6.364868   4.427402   6.856461   6.978150   6.685696
    25  H    3.941465   2.018510   4.515474   4.641249   4.190833
                   16         17         18         19         20
    16  C    0.000000
    17  C    1.394877   0.000000
    18  C    2.414762   1.378326   0.000000
    19  C    2.732286   2.355207   1.378729   0.000000
    20  C    2.358898   2.743004   2.418272   1.390112   0.000000
    21  H    1.081383   2.133082   3.378336   3.813169   3.349069
    22  H    2.164650   1.094317   2.130623   3.347184   3.837307
    23  H    3.398564   2.144775   1.082142   2.155141   3.405932
    24  H    3.820046   3.335599   2.116979   1.087765   2.156748
    25  H    3.354323   3.840643   3.408808   2.162971   1.097670
                   21         22         23         24         25
    21  H    0.000000
    22  H    2.462172   0.000000
    23  H    4.270427   2.456471   0.000000
    24  H    4.900853   4.235115   2.456248   0.000000
    25  H    4.259212   4.934955   4.309933   2.496905   0.000000
 Symmetry turned off by external request.
 Stoichiometry    C10H12NO2(1+)
 Framework group  C1[X(C10H12NO2)]
 Deg. of freedom    69
 Full point group                 C1      NOp   1
 Rotational constants (GHZ):           1.1923890           0.5590279           0.3995095
 Standard basis: def2SVP (5D, 7F)
   242 basis functions,   409 primitive gaussians,   255 cartesian basis functions
    47 alpha electrons       47 beta electrons
       nuclear repulsion energy       765.4730253612 Hartrees.
 NAtoms=   25 NActive=   25 NUniq=   25 SFac= 1.00D+00 NAtFMM=   60 NAOKFM=F Big=F
 Integral buffers will be    131072 words long.
 Raffenetti 2 integral format.
 Two-electron integral symmetry is turned off.
 Nuclear repulsion after empirical dispersion term =      765.4283682764 Hartrees.
 One-electron integrals computed using PRISM.
   1 Symmetry operations used in ECPInt.
 ECPInt:  NShTT=    6555 NPrTT=   23641 LenC2=    6266 LenP2D=   16584.
 LDataN:  DoStor=T MaxTD1= 4 Len=   56
 NBasis=   242 RedAO= T EigKep=  2.66D-04  NBF=   242
 NBsUse=   242 1.00D-06 EigRej= -1.00D+00 NBFU=   242
 ExpMin= 1.22D-01 ExpMax= 2.27D+03 ExpMxC= 3.41D+02 IAcc=3 IRadAn=         5 AccDes= 0.00D+00
 Harris functional with IExCor=  402 and IRadAn=       5 diagonalized for initial guess.
 HarFok:  IExCor=  402 AccDes= 0.00D+00 IRadAn=         5 IDoV= 1 UseB2=F ITyADJ=14
 ICtDFT=  3500011 ScaDFX=  1.000000  1.000000  1.000000  1.000000
 FoFCou: FMM=F IPFlag=           0 FMFlag=      100000 FMFlg1=           0
         NFxFlg=           0 DoJE=T BraDBF=F KetDBF=T FulRan=T
         wScrn=  0.000000 ICntrl=       500 IOpCl=  0 I1Cent=   200000004 NGrid=           0
         NMat0=    1 NMatS0=      1 NMatT0=    0 NMatD0=    1 NMtDS0=    0 NMtDT0=    0
 Symmetry not used in FoFCou.
 Requested convergence on RMS density matrix=1.00D-08 within 128 cycles.
 Requested convergence on MAX density matrix=1.00D-06.
 Requested convergence on             energy=1.00D-06.
 No special actions if energy rises.
 Integral accuracy reduced to 1.0D-05 until final iterations.
 Initial convergence to 1.0D-05 achieved.  Increase integral accuracy.
 SCF Done:  E(RB3LYP) =  -592.783357789     A.U. after   19 cycles
            NFock= 19  Conv=0.46D-08     -V/T= 2.0108

 **********************************************************************

            Population analysis using the SCF Density.

 **********************************************************************

 Alpha  occ. eigenvalues --  -19.35213 -19.30945 -14.59563 -10.51927 -10.49377
 Alpha  occ. eigenvalues --  -10.38522 -10.38019 -10.36111 -10.35587 -10.35365
 Alpha  occ. eigenvalues --  -10.34768 -10.34424 -10.34200  -1.25461  -1.17890
 Alpha  occ. eigenvalues --   -1.12679  -1.02761  -0.95297  -0.90323  -0.89470
 Alpha  occ. eigenvalues --   -0.86129  -0.83414  -0.76790  -0.76429  -0.73868
 Alpha  occ. eigenvalues --   -0.70645  -0.69003  -0.66326  -0.64808  -0.64295
 Alpha  occ. eigenvalues --   -0.62899  -0.61685  -0.60380  -0.59132  -0.58611
 Alpha  occ. eigenvalues --   -0.57532  -0.56108  -0.54871  -0.53790  -0.51484
 Alpha  occ. eigenvalues --   -0.50541  -0.49929  -0.48791  -0.46336  -0.42834
 Alpha  occ. eigenvalues --   -0.42636  -0.41371
 Alpha virt. eigenvalues --   -0.30772  -0.18220  -0.16525  -0.13530  -0.11556
 Alpha virt. eigenvalues --   -0.07348  -0.05670  -0.05168  -0.03481  -0.02426
 Alpha virt. eigenvalues --   -0.01398  -0.00730   0.00045   0.00171   0.01181
 Alpha virt. eigenvalues --    0.01237   0.03769   0.03857   0.04633   0.05774
 Alpha virt. eigenvalues --    0.07181   0.11726   0.12122   0.13707   0.14604
 Alpha virt. eigenvalues --    0.15610   0.16977   0.18581   0.20913   0.22287
 Alpha virt. eigenvalues --    0.24567   0.25151   0.26436   0.27702   0.29010
 Alpha virt. eigenvalues --    0.29419   0.30316   0.31035   0.32227   0.33585
 Alpha virt. eigenvalues --    0.34304   0.35313   0.35558   0.37962   0.38954
 Alpha virt. eigenvalues --    0.39052   0.40716   0.42989   0.43611   0.44764
 Alpha virt. eigenvalues --    0.45842   0.47269   0.48223   0.49103   0.49487
 Alpha virt. eigenvalues --    0.50384   0.50751   0.51513   0.51637   0.52401
 Alpha virt. eigenvalues --    0.52662   0.53309   0.53880   0.54363   0.55411
 Alpha virt. eigenvalues --    0.57368   0.58787   0.59620   0.61096   0.61919
 Alpha virt. eigenvalues --    0.64236   0.65208   0.65820   0.66865   0.70928
 Alpha virt. eigenvalues --    0.73981   0.74819   0.78928   0.82145   0.85286
 Alpha virt. eigenvalues --    0.88127   0.89014   0.90009   0.91088   0.94694
 Alpha virt. eigenvalues --    0.98377   1.00646   1.05591   1.07253   1.08406
 Alpha virt. eigenvalues --    1.10032   1.10792   1.12281   1.13081   1.13747
 Alpha virt. eigenvalues --    1.15756   1.17916   1.19654   1.23970   1.27412
 Alpha virt. eigenvalues --    1.29817   1.33426   1.35556   1.37743   1.38595
 Alpha virt. eigenvalues --    1.41232   1.42102   1.45117   1.49441   1.50853
 Alpha virt. eigenvalues --    1.51687   1.52175   1.54904   1.57191   1.57409
 Alpha virt. eigenvalues --    1.59014   1.60013   1.60333   1.60773   1.61752
 Alpha virt. eigenvalues --    1.62115   1.62555   1.63805   1.64772   1.65636
 Alpha virt. eigenvalues --    1.67084   1.67745   1.69198   1.70757   1.72463
 Alpha virt. eigenvalues --    1.73607   1.74884   1.77791   1.79853   1.80536
 Alpha virt. eigenvalues --    1.81682   1.83478   1.84465   1.86280   1.88649
 Alpha virt. eigenvalues --    1.91022   1.95762   1.96395   1.99175   2.00118
 Alpha virt. eigenvalues --    2.00935   2.02034   2.03436   2.09144   2.12288
 Alpha virt. eigenvalues --    2.14150   2.15010   2.15524   2.15904   2.17287
 Alpha virt. eigenvalues --    2.19368   2.19768   2.20495   2.22790   2.27586
 Alpha virt. eigenvalues --    2.35109   2.40205   2.41906   2.46657   2.47739
 Alpha virt. eigenvalues --    2.48067   2.49183   2.50887   2.51972   2.55612
 Alpha virt. eigenvalues --    2.58103   2.58425   2.59618   2.62840   2.65378
 Alpha virt. eigenvalues --    2.66837   2.69575   2.72373   2.73905   2.75056
 Alpha virt. eigenvalues --    2.75768   2.80337   2.82363   2.90610   2.92068
 Alpha virt. eigenvalues --    2.95771   2.97008   2.99220   3.09960   3.11429
 Alpha virt. eigenvalues --    3.13509   3.23066   3.37935   3.46209   3.51573
          Condensed to atoms (all electrons):
               1          2          3          4          5          6
     1  C    5.356174   0.244722   0.476729   0.220839  -0.069893  -0.085505
     2  C    0.244722   4.622206  -0.049893  -0.027325   0.550082   0.394795
     3  N    0.476729  -0.049893   6.110870  -0.052550  -0.010747   0.000154
     4  C    0.220839  -0.027325  -0.052550   5.470405   0.004651   0.009954
     5  O   -0.069893   0.550082  -0.010747   0.004651   7.815037  -0.068723
     6  O   -0.085505   0.394795   0.000154   0.009954  -0.068723   7.848166
     7  C    0.006042  -0.022709  -0.000024  -0.000189   0.000310   0.259774
     8  H   -0.000076  -0.000941  -0.000002   0.000109   0.001692  -0.025278
     9  H    0.000812  -0.005797   0.000008  -0.000034   0.011275  -0.022443
    10  H    0.000005   0.003517   0.000002  -0.000060   0.000242  -0.021752
    11  C   -0.045923  -0.006029   0.322989   0.008868  -0.085968  -0.000394
    12  H   -0.014597   0.005061   0.358204  -0.018442  -0.000621  -0.000048
    13  H   -0.011190  -0.017650  -0.005544  -0.000473   0.055234   0.000170
    14  H    0.001759   0.001513  -0.025902  -0.000536   0.000680   0.000005
    15  H    0.001616  -0.000005  -0.019507   0.000086   0.002776   0.000025
    16  C   -0.078178  -0.005918   0.000576   0.210041   0.000134  -0.004468
    17  C    0.012986  -0.000519  -0.000030   0.124105  -0.000003  -0.000435
    18  C   -0.000676   0.000071  -0.000013  -0.173082   0.000000   0.000001
    19  C    0.012655  -0.000341   0.000305   0.120754  -0.000000  -0.000008
    20  C   -0.075649   0.007030  -0.006940   0.144288  -0.000079  -0.000268
    21  H   -0.024452   0.004556   0.000021  -0.081142  -0.000216   0.010164
    22  H   -0.000256  -0.000005   0.000001   0.016511  -0.000000  -0.000009
    23  H    0.000032   0.000000  -0.000000  -0.002024   0.000000   0.000000
    24  H   -0.000360   0.000002   0.000005   0.016812  -0.000000   0.000000
    25  H   -0.015039   0.000115  -0.002474  -0.094957  -0.000002   0.000001
               7          8          9         10         11         12
     1  C    0.006042  -0.000076   0.000812   0.000005  -0.045923  -0.014597
     2  C   -0.022709  -0.000941  -0.005797   0.003517  -0.006029   0.005061
     3  N   -0.000024  -0.000002   0.000008   0.000002   0.322989   0.358204
     4  C   -0.000189   0.000109  -0.000034  -0.000060   0.008868  -0.018442
     5  O    0.000310   0.001692   0.011275   0.000242  -0.085968  -0.000621
     6  O    0.259774  -0.025278  -0.022443  -0.021752  -0.000394  -0.000048
     7  C    4.416692   0.400414   0.398884   0.396490   0.000054   0.000006
     8  H    0.400414   0.601995  -0.025717  -0.022398   0.000020   0.000000
     9  H    0.398884  -0.025717   0.592598  -0.019481  -0.000028   0.000000
    10  H    0.396490  -0.022398  -0.019481   0.579759  -0.000000  -0.000000
    11  C    0.000054   0.000020  -0.000028  -0.000000   4.690608  -0.022633
    12  H    0.000006   0.000000   0.000000  -0.000000  -0.022633   0.491411
    13  H    0.000057  -0.000058   0.000305   0.000016   0.382207   0.003821
    14  H   -0.000000  -0.000001   0.000002   0.000000   0.382227  -0.000106
    15  H   -0.000003   0.000000  -0.000006  -0.000000   0.380563  -0.007666
    16  C   -0.000067   0.000045   0.000020  -0.000039  -0.000075  -0.000043
    17  C   -0.000008  -0.000020   0.000000   0.000013   0.000002  -0.000014
    18  C   -0.000000   0.000000   0.000000  -0.000000   0.000000   0.000015
    19  C   -0.000000   0.000000  -0.000000  -0.000000   0.000003  -0.000137
    20  C    0.000009  -0.000004   0.000002   0.000003  -0.000331   0.009870
    21  H   -0.000337  -0.000465   0.000143  -0.000068  -0.000014  -0.000029
    22  H    0.000001   0.000000  -0.000000   0.000000  -0.000000   0.000000
    23  H   -0.000000  -0.000000   0.000000  -0.000000   0.000000  -0.000001
    24  H    0.000000   0.000000   0.000000  -0.000000  -0.000000   0.000006
    25  H   -0.000000  -0.000000   0.000000  -0.000000  -0.000289   0.005898
              13         14         15         16         17         18
     1  C   -0.011190   0.001759   0.001616  -0.078178   0.012986  -0.000676
     2  C   -0.017650   0.001513  -0.000005  -0.005918  -0.000519   0.000071
     3  N   -0.005544  -0.025902  -0.019507   0.000576  -0.000030  -0.000013
     4  C   -0.000473  -0.000536   0.000086   0.210041   0.124105  -0.173082
     5  O    0.055234   0.000680   0.002776   0.000134  -0.000003   0.000000
     6  O    0.000170   0.000005   0.000025  -0.004468  -0.000435   0.000001
     7  C    0.000057  -0.000000  -0.000003  -0.000067  -0.000008  -0.000000
     8  H   -0.000058  -0.000001   0.000000   0.000045  -0.000020   0.000000
     9  H    0.000305   0.000002  -0.000006   0.000020   0.000000   0.000000
    10  H    0.000016   0.000000  -0.000000  -0.000039   0.000013  -0.000000
    11  C    0.382207   0.382227   0.380563  -0.000075   0.000002   0.000000
    12  H    0.003821  -0.000106  -0.007666  -0.000043  -0.000014   0.000015
    13  H    0.482364  -0.006942  -0.006477  -0.000048   0.000002  -0.000000
    14  H   -0.006942   0.575851  -0.018871   0.000020  -0.000000  -0.000000
    15  H   -0.006477  -0.018871   0.592125   0.000002  -0.000000  -0.000000
    16  C   -0.000048   0.000020   0.000002   5.125115   0.276076   0.110525
    17  C    0.000002  -0.000000  -0.000000   0.276076   5.044729   0.229050
    18  C   -0.000000  -0.000000  -0.000000   0.110525   0.229050   5.068741
    19  C    0.000000   0.000001  -0.000004  -0.159473   0.121900   0.233059
    20  C    0.000080   0.000077  -0.000103   0.084887  -0.165594   0.111122
    21  H    0.000020   0.000003  -0.000002   0.446952  -0.052486   0.015229
    22  H   -0.000000   0.000000   0.000000  -0.068145   0.447275  -0.070237
    23  H    0.000000  -0.000000  -0.000000   0.015140  -0.071261   0.457243
    24  H    0.000000  -0.000000   0.000000  -0.001394   0.015255  -0.068697
    25  H   -0.000042   0.000041  -0.000062   0.014856  -0.001685   0.013966
              19         20         21         22         23         24
     1  C    0.012655  -0.075649  -0.024452  -0.000256   0.000032  -0.000360
     2  C   -0.000341   0.007030   0.004556  -0.000005   0.000000   0.000002
     3  N    0.000305  -0.006940   0.000021   0.000001  -0.000000   0.000005
     4  C    0.120754   0.144288  -0.081142   0.016511  -0.002024   0.016812
     5  O   -0.000000  -0.000079  -0.000216  -0.000000   0.000000  -0.000000
     6  O   -0.000008  -0.000268   0.010164  -0.000009   0.000000   0.000000
     7  C   -0.000000   0.000009  -0.000337   0.000001  -0.000000   0.000000
     8  H    0.000000  -0.000004  -0.000465   0.000000  -0.000000   0.000000
     9  H   -0.000000   0.000002   0.000143  -0.000000   0.000000   0.000000
    10  H   -0.000000   0.000003  -0.000068   0.000000  -0.000000  -0.000000
    11  C    0.000003  -0.000331  -0.000014  -0.000000   0.000000  -0.000000
    12  H   -0.000137   0.009870  -0.000029   0.000000  -0.000001   0.000006
    13  H    0.000000   0.000080   0.000020  -0.000000   0.000000   0.000000
    14  H    0.000001   0.000077   0.000003   0.000000  -0.000000  -0.000000
    15  H   -0.000004  -0.000103  -0.000002   0.000000  -0.000000   0.000000
    16  C   -0.159473   0.084887   0.446952  -0.068145   0.015140  -0.001394
    17  C    0.121900  -0.165594  -0.052486   0.447275  -0.071261   0.015255
    18  C    0.233059   0.111122   0.015229  -0.070237   0.457243  -0.068697
    19  C    5.014561   0.283132  -0.002352   0.015300  -0.072846   0.446038
    20  C    0.283132   5.216199   0.017586  -0.001588   0.015347  -0.068614
    21  H   -0.002352   0.017586   0.670266  -0.012802  -0.000215   0.000024
    22  H    0.015300  -0.001588  -0.012802   0.650673  -0.012108  -0.000340
    23  H   -0.072846   0.015347  -0.000215  -0.012108   0.645888  -0.012329
    24  H    0.446038  -0.068614   0.000024  -0.000340  -0.012329   0.654311
    25  H   -0.044121   0.441760  -0.000254   0.000031  -0.000203  -0.012903
              25
     1  C   -0.015039
     2  C    0.000115
     3  N   -0.002474
     4  C   -0.094957
     5  O   -0.000002
     6  O    0.000001
     7  C   -0.000000
     8  H   -0.000000
     9  H    0.000000
    10  H   -0.000000
    11  C   -0.000289
    12  H    0.005898
    13  H   -0.000042
    14  H    0.000041
    15  H   -0.000062
    16  C    0.014856
    17  C   -0.001685
    18  C    0.013966
    19  C   -0.044121
    20  C    0.441760
    21  H   -0.000254
    22  H    0.000031
    23  H   -0.000203
    24  H   -0.012903
    25  H    0.698434
 Mulliken charges:
               1
     1  C    0.087424
     2  C    0.303461
     3  N   -0.096238
     4  C    0.103391
     5  O   -0.205861
     6  O   -0.293878
     7  C    0.144604
     8  H    0.070683
     9  H    0.069456
    10  H    0.083750
    11  C   -0.005855
    12  H    0.190045
    13  H    0.124148
    14  H    0.090178
    15  H    0.075513
    16  C    0.033458
    17  C    0.020661
    18  C    0.073686
    19  C    0.031575
    20  C   -0.012221
    21  H    0.009868
    22  H    0.035700
    23  H    0.037337
    24  H    0.032184
    25  H   -0.003069
 Sum of Mulliken charges =   1.00000
 Mulliken charges with hydrogens summed into heavy atoms:
               1
     1  C    0.087424
     2  C    0.303461
     3  N    0.093807
     4  C    0.103391
     5  O   -0.205861
     6  O   -0.293878
     7  C    0.368493
    11  C    0.283984
    16  C    0.043325
    17  C    0.056361
    18  C    0.111023
    19  C    0.063759
    20  C   -0.015290
 Electronic spatial extent (au):  <R**2>=           3059.5368
 Charge=              1.0000 electrons
 Dipole moment (field-independent basis, Debye):
    X=             -1.8741    Y=             -3.1134    Z=             -1.2774  Tot=              3.8519
 Quadrupole moment (field-independent basis, Debye-Ang):
   XX=            -47.6167   YY=            -45.5775   ZZ=            -68.6637
   XY=              3.5682   XZ=             -6.9751   YZ=              8.4039
 Traceless Quadrupole moment (field-independent basis, Debye-Ang):
   XX=              6.3359   YY=              8.3752   ZZ=            -14.7111
   XY=              3.5682   XZ=             -6.9751   YZ=              8.4039
 Octapole moment (field-independent basis, Debye-Ang**2):
  XXX=            -11.9074  YYY=            164.1462  ZZZ=             48.7522  XYY=             28.4113
  XXY=             39.0216  XXZ=             26.8442  XZZ=              8.7964  YZZ=             25.6868
  YYZ=            -12.7380  XYZ=             20.1110
 Hexadecapole moment (field-independent basis, Debye-Ang**3):
 XXXX=           -846.1387 YYYY=          -2088.8658 ZZZZ=           -400.2676 XXXY=           -154.4044
 XXXZ=             95.4188 YYYX=           -286.9506 YYYZ=           -108.2657 ZZZX=             99.8135
 ZZZY=           -177.5936 XXYY=           -444.1623 XXZZ=           -230.6538 YYZZ=           -360.6603
 XXYZ=            -76.7951 YYXZ=            -28.7302 ZZXY=           -112.2501
 N-N= 7.654283682764D+02 E-N=-2.893440844567D+03  KE= 5.864712082076D+02
   1 Symmetry operations used in ECPInt.
 ECPInt:  NShTT=    6555 NPrTT=   23641 LenC2=    6266 LenP2D=   16584.
 LDataN:  DoStor=T MaxTD1= 5 Len=  102
 Calling FoFJK, ICntrl=      2127 FMM=F ISym2X=0 I1Cent= 0 IOpClX= 0 NMat=1 NMatS=1 NMatT=0.
 -------------------------------------------------------------------
 Center     Atomic                   Forces (Hartrees/Bohr)
 Number     Number              X              Y              Z
 -------------------------------------------------------------------
      1        6          -0.034431310    0.059325998    0.040075028
      2        6           0.002308670   -0.078714563   -0.006033018
      3        7           0.091124751   -0.005565048   -0.090436696
      4        6          -0.037152244   -0.053961371   -0.004026283
      5        8           0.060373825    0.037209955   -0.029237244
      6        8          -0.045910567    0.041899007    0.046290277
      7        6           0.024745202   -0.014606247   -0.008140319
      8        1          -0.007616141    0.006438921   -0.002402179
      9        1          -0.007126528    0.001126191   -0.001226989
     10        1          -0.012500531   -0.003597680    0.013020812
     11        6          -0.032270168   -0.034198628    0.022033059
     12        1           0.012536084    0.002656919    0.010902489
     13        1          -0.024116082    0.010515504    0.017419181
     14        1           0.000289689    0.002214177   -0.009364814
     15        1          -0.001768024    0.011582692    0.001980129
     16        6           0.038817696   -0.004537726   -0.004792092
     17        6           0.018037329   -0.014486324    0.001048661
     18        6           0.003435712   -0.003618192    0.000029730
     19        6          -0.025393478    0.011022581    0.000421238
     20        6          -0.024834906    0.026353313    0.005178437
     21        1           0.003125907   -0.005551236   -0.000213205
     22        1          -0.001548320   -0.004100993    0.000527988
     23        1           0.002181413    0.006130774   -0.000255782
     24        1          -0.005828344    0.000766341   -0.000689816
     25        1           0.003520367    0.005695636   -0.002108591
 -------------------------------------------------------------------
 Cartesian Forces:  Max     0.091124751 RMS     0.027144679

 GradGradGradGradGradGradGradGradGradGradGradGradGradGradGradGradGradGrad
 Berny optimization.
 FormGI is forming the generalized inverse of G from B-inverse, IUseBI=4.
 Internal  Forces:  Max     0.140011441 RMS     0.026746619
 Search for a local minimum.
 Step number   1 out of a maximum of  122
 All quantities printed in internal units (Hartrees-Bohrs-Radians)
 Mixed Optimization -- RFO/linear search
 Second derivative matrix not updated -- first step.
 ITU=  0
     Eigenvalues ---    0.00501   0.00502   0.00587   0.00766   0.00975
     Eigenvalues ---    0.01498   0.01513   0.01782   0.01863   0.01997
     Eigenvalues ---    0.02239   0.02265   0.02283   0.02292   0.02322
     Eigenvalues ---    0.02325   0.02373   0.02394   0.07159   0.08099
     Eigenvalues ---    0.09882   0.10612   0.13905   0.16000   0.16000
     Eigenvalues ---    0.16000   0.16000   0.16000   0.16000   0.16000
     Eigenvalues ---    0.16000   0.16000   0.16000   0.16000   0.22000
     Eigenvalues ---    0.22000   0.22468   0.23483   0.25000   0.25000
     Eigenvalues ---    0.25000   0.25000   0.25000   0.25000   0.30362
     Eigenvalues ---    0.30368   0.31019   0.31227   0.31734   0.31796
     Eigenvalues ---    0.33747   0.33941   0.34318   0.34636   0.35072
     Eigenvalues ---    0.35737   0.35742   0.35828   0.42704   0.43281
     Eigenvalues ---    0.43330   0.43455   0.44994   0.46900   0.47830
     Eigenvalues ---    0.48818   0.49458   0.49751   0.80779
 RFO step:  Lambda=-1.78536176D-01 EMin= 5.00826772D-03
 Linear search not attempted -- first point.
 Maximum step size (   0.300) exceeded in Quadratic search.
    -- Step size scaled by   0.481
 Iteration  1 RMS(Cart)=  0.18765422 RMS(Int)=  0.00999805
 Iteration  2 RMS(Cart)=  0.02629436 RMS(Int)=  0.00020829
 Iteration  3 RMS(Cart)=  0.00046658 RMS(Int)=  0.00011824
 Iteration  4 RMS(Cart)=  0.00000014 RMS(Int)=  0.00011823
 Variable       Old X    -DE/DX   Delta X   Delta X   Delta X     New X
                                 (Linear)    (Quad)   (Total)
    R1        2.87236   0.00716   0.00000   0.00715   0.00715   2.87951
    R2        2.77788  -0.06318   0.00000  -0.05672  -0.05672   2.72115
    R3        2.87246  -0.04434   0.00000  -0.04425  -0.04425   2.82822
    R4        2.37498  -0.06576   0.00000  -0.03208  -0.03208   2.34290
    R5        2.62120  -0.06654   0.00000  -0.04875  -0.04875   2.57246
    R6        2.67112   0.03699   0.00000   0.02903   0.02903   2.70015
    R7        1.93964  -0.00366   0.00000  -0.00288  -0.00288   1.93676
    R8        2.59837   0.03638   0.00000   0.02614   0.02613   2.62451
    R9        2.60369   0.03746   0.00000   0.02714   0.02713   2.63083
   R10        2.67324   0.00722   0.00000   0.00569   0.00569   2.67893
   R11        2.11333  -0.00952   0.00000  -0.00924  -0.00924   2.10409
   R12        2.06270   0.00482   0.00000   0.00441   0.00441   2.06711
   R13        2.12677  -0.01796   0.00000  -0.01768  -0.01768   2.10908
   R14        2.11219  -0.02886   0.00000  -0.02797  -0.02797   2.08422
   R15        2.12282  -0.00946   0.00000  -0.00928  -0.00928   2.11354
   R16        2.07759   0.00191   0.00000   0.00178   0.00178   2.07937
   R17        2.63594  -0.00412   0.00000  -0.00310  -0.00310   2.63283
   R18        2.04352   0.00637   0.00000   0.00571   0.00571   2.04923
   R19        2.60466   0.02543   0.00000   0.01782   0.01782   2.62248
   R20        2.06796  -0.00149   0.00000  -0.00137  -0.00137   2.06659
   R21        2.60542   0.02757   0.00000   0.01940   0.01940   2.62482
   R22        2.04495   0.00637   0.00000   0.00572   0.00572   2.05067
   R23        2.62693  -0.00427   0.00000  -0.00314  -0.00313   2.62380
   R24        2.05558   0.00342   0.00000   0.00311   0.00311   2.05869
   R25        2.07430  -0.00342   0.00000  -0.00318  -0.00318   2.07112
    A1        2.11176   0.10310   0.00000   0.11577   0.11577   2.22753
    A2        2.11825  -0.05549   0.00000  -0.06231  -0.06231   2.05594
    A3        2.05317  -0.04761   0.00000  -0.05346  -0.05346   1.99971
    A4        2.04499   0.08078   0.00000   0.09071   0.09067   2.13566
    A5        2.13383  -0.07150   0.00000  -0.08029  -0.08033   2.05351
    A6        2.10436  -0.00928   0.00000  -0.01042  -0.01046   2.09390
    A7        2.02558   0.14001   0.00000   0.16893   0.16868   2.19426
    A8        2.03116  -0.06332   0.00000  -0.07365  -0.07412   1.95704
    A9        2.04301  -0.05231   0.00000  -0.05755  -0.05763   1.98538
   A10        2.12064  -0.00963   0.00000  -0.01147  -0.01146   2.10917
   A11        2.10408   0.00077   0.00000   0.00020   0.00021   2.10429
   A12        2.05847   0.00886   0.00000   0.01126   0.01125   2.06972
   A13        2.13384  -0.02669   0.00000  -0.02998  -0.02998   2.10387
   A14        1.92828  -0.00219   0.00000  -0.00276  -0.00277   1.92551
   A15        1.98704  -0.00718   0.00000  -0.01059  -0.01062   1.97642
   A16        1.85703  -0.00181   0.00000  -0.00257  -0.00259   1.85444
   A17        1.87484   0.00479   0.00000   0.00677   0.00675   1.88159
   A18        1.86865   0.00571   0.00000   0.00901   0.00900   1.87765
   A19        1.94513   0.00135   0.00000   0.00118   0.00114   1.94628
   A20        1.89443   0.02359   0.00000   0.03494   0.03499   1.92942
   A21        1.89111   0.00212   0.00000   0.00227   0.00209   1.89320
   A22        2.02550  -0.02121   0.00000  -0.03088  -0.03083   1.99466
   A23        1.87028  -0.00700   0.00000  -0.00830  -0.00847   1.86181
   A24        1.91252   0.00003   0.00000   0.00112   0.00134   1.91386
   A25        1.86400   0.00261   0.00000   0.00115   0.00099   1.86499
   A26        2.11510  -0.00773   0.00000  -0.00862  -0.00863   2.10647
   A27        2.10157   0.00375   0.00000   0.00415   0.00415   2.10572
   A28        2.06651   0.00398   0.00000   0.00448   0.00448   2.07099
   A29        2.11343  -0.00361   0.00000  -0.00490  -0.00490   2.10852
   A30        2.10048  -0.00246   0.00000  -0.00361  -0.00361   2.09687
   A31        2.06928   0.00607   0.00000   0.00851   0.00851   2.07779
   A32        2.04820   0.01451   0.00000   0.01638   0.01639   2.06460
   A33        2.10905  -0.00589   0.00000  -0.00625  -0.00625   2.10280
   A34        2.12593  -0.00862   0.00000  -0.01013  -0.01014   2.11579
   A35        2.12422  -0.00703   0.00000  -0.00891  -0.00890   2.11532
   A36        2.05546   0.00842   0.00000   0.01144   0.01143   2.06689
   A37        2.10351  -0.00140   0.00000  -0.00253  -0.00253   2.10098
   A38        2.10695  -0.00500   0.00000  -0.00521  -0.00521   2.10174
   A39        2.07605   0.00847   0.00000   0.01109   0.01109   2.08714
   A40        2.10018  -0.00347   0.00000  -0.00588  -0.00588   2.09430
    D1       -0.22591  -0.00950   0.00000  -0.02471  -0.02485  -0.25077
    D2        2.91553  -0.00326   0.00000  -0.00876  -0.00860   2.90693
    D3        2.91556  -0.00984   0.00000  -0.02558  -0.02574   2.88982
    D4       -0.22618  -0.00360   0.00000  -0.00963  -0.00949  -0.23567
    D5       -0.08373  -0.00220   0.00000  -0.01069  -0.01101  -0.09475
    D6       -2.59468  -0.02004   0.00000  -0.04680  -0.04651  -2.64120
    D7        3.05797  -0.00188   0.00000  -0.00986  -0.01015   3.04783
    D8        0.54702  -0.01972   0.00000  -0.04597  -0.04565   0.50138
    D9       -0.59607   0.00220   0.00000   0.00578   0.00575  -0.59031
   D10        2.54553   0.00227   0.00000   0.00596   0.00592   2.55145
   D11        2.54541   0.00189   0.00000   0.00496   0.00499   2.55040
   D12       -0.59618   0.00196   0.00000   0.00513   0.00516  -0.59102
   D13       -3.14148  -0.00255   0.00000  -0.00660  -0.00628   3.13542
   D14       -0.00004   0.00390   0.00000   0.00989   0.00958   0.00954
   D15        0.08691  -0.00868   0.00000  -0.01856  -0.01896   0.06795
   D16        2.11234  -0.00324   0.00000  -0.00852  -0.00876   2.10359
   D17       -2.07515  -0.01240   0.00000  -0.02588  -0.02598  -2.10114
   D18        2.59348   0.00587   0.00000   0.01263   0.01272   2.60621
   D19       -1.66427   0.01131   0.00000   0.02267   0.02292  -1.64134
   D20        0.43142   0.00216   0.00000   0.00530   0.00570   0.43712
   D21        3.14159   0.00088   0.00000   0.00209   0.00209  -3.13950
   D22       -0.00011   0.00016   0.00000   0.00037   0.00038   0.00027
   D23        0.00000   0.00081   0.00000   0.00192   0.00192   0.00192
   D24        3.14149   0.00009   0.00000   0.00020   0.00021  -3.14149
   D25        3.14159  -0.00021   0.00000  -0.00049  -0.00048   3.14111
   D26        0.00000  -0.00137   0.00000  -0.00326  -0.00326  -0.00326
   D27        0.00000  -0.00014   0.00000  -0.00032  -0.00032  -0.00032
   D28        3.14159  -0.00130   0.00000  -0.00309  -0.00309   3.13850
   D29       -1.43750   0.00192   0.00000   0.00341   0.00340  -1.43410
   D30        0.67378   0.00149   0.00000   0.00274   0.00272   0.67650
   D31        2.82319  -0.00271   0.00000  -0.00440  -0.00438   2.81881
   D32        0.00000  -0.00090   0.00000  -0.00214  -0.00213  -0.00213
   D33       -3.14149  -0.00065   0.00000  -0.00155  -0.00154   3.14016
   D34       -3.14149  -0.00019   0.00000  -0.00046  -0.00045   3.14125
   D35        0.00021   0.00006   0.00000   0.00013   0.00014   0.00035
   D36        0.00000   0.00027   0.00000   0.00066   0.00067   0.00067
   D37        3.14159   0.00057   0.00000   0.00136   0.00136  -3.14023
   D38        3.14149   0.00003   0.00000   0.00008   0.00009   3.14157
   D39       -0.00010   0.00033   0.00000   0.00078   0.00078   0.00068
   D40        0.00000   0.00040   0.00000   0.00095   0.00095   0.00095
   D41        3.14149   0.00064   0.00000   0.00152   0.00152  -3.14018
   D42        3.14159   0.00010   0.00000   0.00024   0.00025  -3.14135
   D43       -0.00010   0.00034   0.00000   0.00081   0.00082   0.00071
   D44        0.00000  -0.00047   0.00000  -0.00113  -0.00113  -0.00113
   D45        3.14159   0.00070   0.00000   0.00167   0.00166  -3.13993
   D46       -3.14149  -0.00072   0.00000  -0.00172  -0.00171   3.13998
   D47        0.00011   0.00045   0.00000   0.00108   0.00107   0.00118
         Item               Value     Threshold  Converged?
 Maximum Force            0.140011     0.000450     NO 
 RMS     Force            0.026747     0.000300     NO 
 Maximum Displacement     0.820377     0.001800     NO 
 RMS     Displacement     0.207625     0.001200     NO 
 Predicted change in Energy=-7.399281D-02
 GradGradGradGradGradGradGradGradGradGradGradGradGradGradGradGradGradGrad

                          Input orientation:                          
 ---------------------------------------------------------------------
 Center     Atomic      Atomic             Coordinates (Angstroms)
 Number     Number       Type             X           Y           Z
 ---------------------------------------------------------------------
      1          6           0       -0.809404   -1.399476   -0.022716
      2          6           0       -0.224417   -2.593239   -0.767431
      3          7           0       -2.048457   -1.340683    0.708592
      4          6           0       -0.030117   -0.121766   -0.030675
      5          8           0       -0.647576   -3.747562   -0.607428
      6          8           0        0.811432   -2.360650   -1.619497
      7          6           0        1.406807   -3.427881   -2.337979
      8          1           0        2.148713   -3.957907   -1.698927
      9          1           0        0.682284   -4.166752   -2.692499
     10          1           0        1.963826   -2.961595   -3.185291
     11          6           0       -3.024899   -2.381365    0.780514
     12          1           0       -2.449259   -0.397427    0.713898
     13          1           0       -2.671625   -3.281046    0.249286
     14          1           0       -3.154716   -2.672023    1.852694
     15          1           0       -4.018939   -2.096032    0.404673
     16          6           0        1.358651   -0.134674   -0.032559
     17          6           0        2.080886    1.056735   -0.037471
     18          6           0        1.430094    2.282421   -0.043128
     19          6           0        0.041121    2.290334   -0.042948
     20          6           0       -0.684862    1.106820   -0.036148
     21          1           0        1.902767   -1.072680   -0.028539
     22          1           0        3.174281    1.036078   -0.037562
     23          1           0        1.997934    3.207149   -0.048212
     24          1           0       -0.471966    3.251338   -0.048739
     25          1           0       -1.780459    1.136083   -0.037710
 ---------------------------------------------------------------------
                    Distance matrix (angstroms):
                    1          2          3          4          5
     1  C    0.000000
     2  C    1.523772   0.000000
     3  N    1.439973   2.659824   0.000000
     4  C    1.496627   2.586260   2.471026   0.000000
     5  O    2.425198   1.239809   3.080170   3.722942   0.000000
     6  O    2.469954   1.361285   3.826133   2.871439   2.253112
     7  C    3.792949   2.413326   5.057356   4.280047   2.705087
     8  H    4.255080   2.891669   5.501113   4.716603   3.009127
     9  H    4.124402   2.646495   5.197214   4.894357   2.508340
    10  H    4.486970   3.281790   5.821349   4.689568   3.752672
    11  C    2.552979   3.206825   1.428856   3.838298   3.073198
    12  H    2.058113   3.459169   1.024892   2.546100   4.026832
    13  H    2.661233   2.737812   2.089093   4.127589   2.246857
    14  H    3.261446   3.931655   2.074908   4.451293   3.673518
    15  H    3.311944   4.002429   2.132069   4.471907   3.888186
    16  C    2.510036   3.015076   3.689465   1.388830   4.172335
    17  C    3.793015   4.378307   4.832773   2.417694   5.554334
    18  C    4.309540   5.199431   5.078611   2.812915   6.402800
    19  C    3.786621   4.944155   4.256223   2.413183   6.103206
    20  C    2.509424   3.799634   2.899017   1.392173   4.888024
    21  H    2.731794   2.717163   4.028320   2.154132   3.740903
    22  H    4.669249   5.025514   5.786427   3.407172   6.149354
    23  H    5.394700   6.253048   6.134232   3.898073   7.461866
    24  H    4.663112   5.893800   4.913810   3.401968   7.023359
    25  H    2.715186   4.106288   2.600608   2.155442   5.045592
                    6          7          8          9         10
     6  O    0.000000
     7  C    1.417629   0.000000
     8  H    2.084672   1.113436   0.000000
     9  H    2.104760   1.093869   1.783596   0.000000
    10  H    2.034910   1.116078   1.798916   1.826909   0.000000
    11  C    4.525253   5.519078   5.949737   5.384481   6.399348
    12  H    4.464424   5.776405   6.296038   5.968075   6.422925
    13  H    4.058468   4.832092   5.243026   4.548327   5.778042
    14  H    5.280473   6.240237   6.511057   6.133153   7.187811
    15  H    5.244022   6.223720   6.777288   5.998488   7.030684
    16  C    2.787972   4.020260   4.244772   4.877541   4.277550
    17  C    3.974021   5.085125   5.283150   6.024125   5.105825
    18  C    4.942246   6.154221   6.496136   7.012148   6.136592
    19  C    4.970969   6.311121   6.798876   7.008934   6.415128
    20  C    4.095026   5.498820   6.037006   6.061011   5.786593
    21  H    2.319704   3.335635   3.342936   4.261401   3.679241
    22  H    4.429823   5.323796   5.362071   6.350447   5.230180
    23  H    5.905684   7.043868   7.354292   7.943399   6.920681
    24  H    5.967310   7.306324   7.846291   7.959259   7.373708
    25  H    4.631100   6.023261   6.644303   6.421298   6.381058
                   11         12         13         14         15
    11  C    0.000000
    12  H    2.066836   0.000000
    13  H    1.102920   2.929262   0.000000
    14  H    1.118439   2.639757   1.781910   0.000000
    15  H    1.100357   2.333404   1.801016   1.781968   0.000000
    16  C    4.992416   3.889270   5.120763   5.510245   5.740782
    17  C    6.209563   4.816779   6.440880   6.699842   6.880646
    18  C    6.502019   4.775359   6.918221   7.011501   7.004523
    19  C    5.648304   3.741506   6.203601   6.199340   5.993718
    20  C    4.279035   2.436888   4.825150   4.893624   4.644206
    21  H    5.162278   4.466242   5.087153   5.628061   6.025075
    22  H    7.125868   5.851823   7.272858   7.574912   7.857996
    23  H    7.559572   5.775059   7.999373   8.045366   8.033156
    24  H    6.239588   4.219572   6.899229   6.774866   6.432804
    25  H    3.819759   1.834083   4.515260   4.468096   3.956395
                   16         17         18         19         20
    16  C    0.000000
    17  C    1.393235   0.000000
    18  C    2.418174   1.387757   0.000000
    19  C    2.759829   2.383786   1.388995   0.000000
    20  C    2.391081   2.766202   2.419737   1.388453   0.000000
    21  H    1.084405   2.136870   3.388265   3.843929   3.383209
    22  H    2.160370   1.093591   2.143733   3.374889   3.859792
    23  H    3.402456   2.152040   1.085168   2.160948   3.407187
    24  H    3.849220   3.366520   2.134634   1.089413   2.155096
    25  H    3.386571   3.862160   3.409072   2.156496   1.095988
                   21         22         23         24         25
    21  H    0.000000
    22  H    2.462456   0.000000
    23  H    4.280932   2.469302   0.000000
    24  H    4.933244   4.266453   2.470295   0.000000
    25  H    4.294750   4.955749   4.308791   2.487283   0.000000
 Symmetry turned off by external request.
 Stoichiometry    C10H12NO2(1+)
 Framework group  C1[X(C10H12NO2)]
 Deg. of freedom    69
 Full point group                 C1      NOp   1
 Rotational constants (GHZ):           1.1026164           0.6014759           0.4094812
 Standard basis: def2SVP (5D, 7F)
   242 basis functions,   409 primitive gaussians,   255 cartesian basis functions
    47 alpha electrons       47 beta electrons
       nuclear repulsion energy       767.1448409921 Hartrees.
 NAtoms=   25 NActive=   25 NUniq=   25 SFac= 1.00D+00 NAtFMM=   60 NAOKFM=F Big=F
 Integral buffers will be    131072 words long.
 Raffenetti 2 integral format.
 Two-electron integral symmetry is turned off.
 Nuclear repulsion after empirical dispersion term =      767.1000237557 Hartrees.
 One-electron integrals computed using PRISM.
   1 Symmetry operations used in ECPInt.
 ECPInt:  NShTT=    6555 NPrTT=   23641 LenC2=    6289 LenP2D=   16659.
 LDataN:  DoStor=T MaxTD1= 4 Len=   56
 NBasis=   242 RedAO= T EigKep=  2.78D-04  NBF=   242
 NBsUse=   242 1.00D-06 EigRej= -1.00D+00 NBFU=   242
 Initial guess from the checkpoint file:  "cation_0371_opt_g16.chk"
 B after Tr=     0.010779   -0.064280   -0.025222
         Rot=    0.999985   -0.002346    0.000846   -0.004858 Ang=  -0.63 deg.
 ExpMin= 1.22D-01 ExpMax= 2.27D+03 ExpMxC= 3.41D+02 IAcc=3 IRadAn=         5 AccDes= 0.00D+00
 Harris functional with IExCor=  402 and IRadAn=       5 diagonalized for initial guess.
 HarFok:  IExCor=  402 AccDes= 0.00D+00 IRadAn=         5 IDoV= 1 UseB2=F ITyADJ=14
 ICtDFT=  3500011 ScaDFX=  1.000000  1.000000  1.000000  1.000000
 FoFCou: FMM=F IPFlag=           0 FMFlag=      100000 FMFlg1=           0
         NFxFlg=           0 DoJE=T BraDBF=F KetDBF=T FulRan=T
         wScrn=  0.000000 ICntrl=       500 IOpCl=  0 I1Cent=   200000004 NGrid=           0
         NMat0=    1 NMatS0=      1 NMatT0=    0 NMatD0=    1 NMtDS0=    0 NMtDT0=    0
 Symmetry not used in FoFCou.
 Requested convergence on RMS density matrix=1.00D-08 within 128 cycles.
 Requested convergence on MAX density matrix=1.00D-06.
 Requested convergence on             energy=1.00D-06.
 No special actions if energy rises.
 Integral accuracy reduced to 1.0D-05 until final iterations.
 Initial convergence to 1.0D-05 achieved.  Increase integral accuracy.
 SCF Done:  E(RB3LYP) =  -592.820861636     A.U. after   15 cycles
            NFock= 15  Conv=0.92D-08     -V/T= 2.0110
   1 Symmetry operations used in ECPInt.
 ECPInt:  NShTT=    6555 NPrTT=   23641 LenC2=    6289 LenP2D=   16659.
 LDataN:  DoStor=T MaxTD1= 5 Len=  102
 Calling FoFJK, ICntrl=      2127 FMM=F ISym2X=0 I1Cent= 0 IOpClX= 0 NMat=1 NMatS=1 NMatT=0.
 -------------------------------------------------------------------
 Center     Atomic                   Forces (Hartrees/Bohr)
 Number     Number              X              Y              Z
 -------------------------------------------------------------------
      1        6          -0.037516365    0.051817682    0.038175920
      2        6           0.001437607   -0.073303171   -0.004554979
      3        7           0.073555262   -0.010664977   -0.079738139
      4        6          -0.025800925   -0.035061876   -0.004817552
      5        8           0.004264633    0.046704788    0.001835013
      6        8          -0.033255689    0.029699640    0.028449976
      7        6           0.020738877   -0.009742109   -0.007440307
      8        1          -0.006494653    0.003943114   -0.001229908
      9        1          -0.005263950    0.001108728   -0.000625841
     10        1          -0.008967434   -0.003761820    0.008629033
     11        6          -0.007042354   -0.032341309    0.013534642
     12        1           0.011787567    0.001192733    0.014485828
     13        1          -0.001035713    0.003612174    0.001902207
     14        1           0.000128747    0.002875377   -0.007661520
     15        1           0.002686418    0.006547604   -0.001920816
     16        6           0.026435947   -0.000978890   -0.003331682
     17        6           0.010604043   -0.006512762    0.001454711
     18        6           0.001659481   -0.005728057   -0.000091621
     19        6          -0.015616950    0.008625503    0.000649894
     20        6          -0.012259693    0.016518905    0.004890493
     21        1           0.001152908   -0.001693277    0.000877419
     22        1          -0.001231932   -0.002663187    0.000631947
     23        1           0.001327064    0.004324465   -0.000352100
     24        1          -0.003776834    0.000273356   -0.000741246
     25        1           0.002483939    0.005207365   -0.003011374
 -------------------------------------------------------------------
 Cartesian Forces:  Max     0.079738139 RMS     0.021327114

 GradGradGradGradGradGradGradGradGradGradGradGradGradGradGradGradGradGrad
 Berny optimization.
 Using GEDIIS/GDIIS optimizer.
 FormGI is forming the generalized inverse of G from B-inverse, IUseBI=4.
 Internal  Forces:  Max     0.100247768 RMS     0.014302382
 Search for a local minimum.
 Step number   2 out of a maximum of  122
 All quantities printed in internal units (Hartrees-Bohrs-Radians)
 Mixed Optimization -- RFO/linear search
 Update second derivatives using D2CorX and points    1    2
 DE= -3.75D-02 DEPred=-7.40D-02 R= 5.07D-01
 TightC=F SS=  1.41D+00  RLast= 3.13D-01 DXNew= 5.0454D-01 9.3916D-01
 Trust test= 5.07D-01 RLast= 3.13D-01 DXMaxT set to 5.05D-01
 ITU=  1  0
 Use linear search instead of GDIIS.
     Eigenvalues ---    0.00501   0.00506   0.00594   0.00776   0.00945
     Eigenvalues ---    0.01498   0.01514   0.01781   0.01789   0.01863
     Eigenvalues ---    0.02240   0.02266   0.02284   0.02292   0.02322
     Eigenvalues ---    0.02326   0.02373   0.02394   0.07268   0.07992
     Eigenvalues ---    0.09975   0.10633   0.14613   0.15825   0.16000
     Eigenvalues ---    0.16000   0.16000   0.16000   0.16000   0.16000
     Eigenvalues ---    0.16000   0.16000   0.16000   0.16052   0.21344
     Eigenvalues ---    0.22000   0.22267   0.23442   0.23982   0.24999
     Eigenvalues ---    0.25000   0.25000   0.25000   0.29109   0.30265
     Eigenvalues ---    0.30892   0.31189   0.31612   0.31739   0.32243
     Eigenvalues ---    0.33746   0.33942   0.34319   0.34636   0.35072
     Eigenvalues ---    0.35734   0.35823   0.42814   0.42937   0.43287
     Eigenvalues ---    0.43331   0.44891   0.46291   0.46914   0.48790
     Eigenvalues ---    0.49044   0.49644   0.78939   1.09908
 RFO step:  Lambda=-1.81461168D-01 EMin= 5.00841784D-03
 Quartic linear search produced a step of  1.21099.
 Maximum step size (   0.505) exceeded in Quadratic search.
    -- Step size scaled by   0.870
 Iteration  1 RMS(Cart)=  0.18964562 RMS(Int)=  0.02667606
 Iteration  2 RMS(Cart)=  0.05655974 RMS(Int)=  0.00214690
 Iteration  3 RMS(Cart)=  0.00263068 RMS(Int)=  0.00185449
 Iteration  4 RMS(Cart)=  0.00000315 RMS(Int)=  0.00185449
 Iteration  5 RMS(Cart)=  0.00000001 RMS(Int)=  0.00185449
 Variable       Old X    -DE/DX   Delta X   Delta X   Delta X     New X
                                 (Linear)    (Quad)   (Total)
    R1        2.87951  -0.01863   0.00866  -0.06579  -0.05713   2.82238
    R2        2.72115  -0.10025  -0.06869  -0.32957  -0.39826   2.32290
    R3        2.82822  -0.02290  -0.05358  -0.09149  -0.14508   2.68314
    R4        2.34290  -0.04470  -0.03885  -0.06412  -0.10297   2.23993
    R5        2.57246  -0.03905  -0.05903  -0.09647  -0.15550   2.41695
    R6        2.70015   0.01795   0.03516   0.04874   0.08390   2.78405
    R7        1.93676  -0.00344  -0.00348  -0.00957  -0.01305   1.92371
    R8        2.62451   0.02479   0.03165   0.06050   0.09207   2.71657
    R9        2.63083   0.02499   0.03286   0.06161   0.09440   2.72523
   R10        2.67893   0.00671   0.00689   0.01868   0.02557   2.70450
   R11        2.10409  -0.00691  -0.01119  -0.02577  -0.03696   2.06713
   R12        2.06711   0.00294   0.00535   0.01017   0.01551   2.08262
   R13        2.10908  -0.01260  -0.02141  -0.04808  -0.06949   2.03959
   R14        2.08422  -0.00419  -0.03387  -0.01924  -0.05312   2.03110
   R15        2.11354  -0.00811  -0.01124  -0.03038  -0.04162   2.07193
   R16        2.07937  -0.00007   0.00216  -0.00004   0.00212   2.08149
   R17        2.63283  -0.00219  -0.00376  -0.00558  -0.00936   2.62347
   R18        2.04923   0.00205   0.00691   0.00702   0.01394   2.06316
   R19        2.62248   0.01309   0.02158   0.02935   0.05100   2.67348
   R20        2.06659  -0.00118  -0.00166  -0.00408  -0.00574   2.06084
   R21        2.62482   0.01525   0.02349   0.03478   0.05836   2.68318
   R22        2.05067   0.00438   0.00693   0.01463   0.02155   2.07222
   R23        2.62380  -0.00292  -0.00380  -0.00733  -0.01110   2.61270
   R24        2.05869   0.00202   0.00377   0.00692   0.01069   2.06938
   R25        2.07112  -0.00234  -0.00385  -0.00821  -0.01206   2.05906
    A1        2.22753  -0.04721   0.14020  -0.14956  -0.00938   2.21815
    A2        2.05594   0.02521  -0.07546   0.07969   0.00422   2.06016
    A3        1.99971   0.02200  -0.06474   0.06986   0.00511   2.00482
    A4        2.13566  -0.00418   0.10980   0.01585   0.12555   2.26122
    A5        2.05351  -0.02466  -0.09727  -0.12920  -0.22656   1.82695
    A6        2.09390   0.02890  -0.01266   0.11342   0.10069   2.19459
    A7        2.19426  -0.00175   0.20426   0.07719   0.27262   2.46687
    A8        1.95704  -0.00233  -0.08976  -0.03658  -0.13680   1.82024
    A9        1.98538   0.00765  -0.06979   0.03081  -0.04713   1.93825
   A10        2.10917  -0.00214  -0.01388  -0.01550  -0.02932   2.07986
   A11        2.10429   0.00097   0.00025   0.00138   0.00170   2.10599
   A12        2.06972   0.00117   0.01363   0.01412   0.02759   2.09731
   A13        2.10387  -0.01865  -0.03630  -0.08655  -0.12285   1.98102
   A14        1.92551  -0.00187  -0.00335  -0.00991  -0.01368   1.91183
   A15        1.97642  -0.00628  -0.01286  -0.04235  -0.05595   1.92047
   A16        1.85444  -0.00100  -0.00314  -0.00683  -0.01055   1.84389
   A17        1.88159   0.00360   0.00817   0.02289   0.03044   1.91203
   A18        1.87765   0.00490   0.01090   0.03674   0.04741   1.92506
   A19        1.94628   0.00108   0.00139   0.00275   0.00319   1.94947
   A20        1.92942   0.00193   0.04237   0.04026   0.08278   2.01220
   A21        1.89320   0.00219   0.00253   0.01175   0.01230   1.90550
   A22        1.99466  -0.01133  -0.03734  -0.08464  -0.12144   1.87322
   A23        1.86181   0.00077  -0.01026   0.00493  -0.00742   1.85439
   A24        1.91386   0.00395   0.00162   0.02237   0.02626   1.94011
   A25        1.86499   0.00328   0.00120   0.00961   0.00901   1.87400
   A26        2.10647  -0.00342  -0.01045  -0.01613  -0.02672   2.07975
   A27        2.10572   0.00186   0.00502   0.00869   0.01373   2.11945
   A28        2.07099   0.00156   0.00543   0.00741   0.01285   2.08384
   A29        2.10852  -0.00168  -0.00593  -0.01209  -0.01798   2.09055
   A30        2.09687  -0.00194  -0.00437  -0.01275  -0.01714   2.07973
   A31        2.07779   0.00362   0.01031   0.02483   0.03511   2.11290
   A32        2.06460   0.00925   0.01985   0.04304   0.06304   2.12763
   A33        2.10280  -0.00346  -0.00757  -0.01411  -0.02176   2.08104
   A34        2.11579  -0.00579  -0.01228  -0.02893  -0.04129   2.07450
   A35        2.11532  -0.00468  -0.01078  -0.02680  -0.03748   2.07784
   A36        2.06689   0.00564   0.01384   0.03553   0.04932   2.11621
   A37        2.10098  -0.00095  -0.00306  -0.00873  -0.01185   2.08913
   A38        2.10174  -0.00064  -0.00631  -0.00216  -0.00859   2.09315
   A39        2.08714   0.00579   0.01343   0.03548   0.04884   2.13599
   A40        2.09430  -0.00515  -0.00712  -0.03337  -0.04054   2.05376
    D1       -0.25077   0.00195  -0.03010  -0.03893  -0.06929  -0.32006
    D2        2.90693  -0.00267  -0.01041  -0.04464  -0.05478   2.85215
    D3        2.88982   0.00122  -0.03117  -0.04777  -0.07922   2.81060
    D4       -0.23567  -0.00339  -0.01149  -0.05348  -0.06471  -0.30037
    D5       -0.09475  -0.00113  -0.01333  -0.04932  -0.06603  -0.16077
    D6       -2.64120  -0.01023  -0.05633  -0.18529  -0.23827  -2.87946
    D7        3.04783  -0.00043  -0.01229  -0.04072  -0.05637   2.99146
    D8        0.50138  -0.00953  -0.05528  -0.17670  -0.22861   0.27277
    D9       -0.59031  -0.00113   0.00697   0.00283   0.00989  -0.58042
   D10        2.55145  -0.00025   0.00717   0.01087   0.01792   2.56937
   D11        2.55040  -0.00180   0.00604  -0.00500   0.00116   2.55156
   D12       -0.59102  -0.00092   0.00625   0.00303   0.00919  -0.58183
   D13        3.13542   0.00315  -0.00761   0.01497   0.00793  -3.13983
   D14        0.00954  -0.00104   0.01160   0.01028   0.02131   0.03085
   D15        0.06795  -0.00434  -0.02296  -0.07183  -0.09944  -0.03149
   D16        2.10359  -0.00104  -0.01060  -0.03638  -0.04991   2.05367
   D17       -2.10114  -0.00253  -0.03147  -0.06955  -0.10236  -2.20350
   D18        2.60621   0.00195   0.01540   0.04696   0.06366   2.66987
   D19       -1.64134   0.00524   0.02776   0.08242   0.11319  -1.52816
   D20        0.43712   0.00375   0.00690   0.04924   0.06074   0.49786
   D21       -3.13950   0.00149   0.00253   0.01697   0.01941  -3.12009
   D22        0.00027   0.00010   0.00046   0.00172   0.00222   0.00249
   D23        0.00192   0.00063   0.00233   0.00909   0.01142   0.01334
   D24       -3.14149  -0.00076   0.00025  -0.00616  -0.00577   3.13593
   D25        3.14111  -0.00065  -0.00059  -0.00664  -0.00706   3.13405
   D26       -0.00326  -0.00230  -0.00395  -0.02626  -0.03063  -0.03389
   D27       -0.00032   0.00020  -0.00038   0.00122   0.00106   0.00074
   D28        3.13850  -0.00144  -0.00375  -0.01840  -0.02251   3.11599
   D29       -1.43410   0.00227   0.00412   0.01942   0.02323  -1.41087
   D30        0.67650   0.00123   0.00330   0.01257   0.01558   0.69208
   D31        2.81881  -0.00202  -0.00530  -0.01513  -0.01984   2.79897
   D32       -0.00213  -0.00100  -0.00258  -0.01277  -0.01509  -0.01721
   D33        3.14016  -0.00082  -0.00187  -0.01005  -0.01170   3.12846
   D34        3.14125   0.00036  -0.00055   0.00218   0.00175  -3.14019
   D35        0.00035   0.00054   0.00017   0.00490   0.00514   0.00549
   D36        0.00067   0.00052   0.00081   0.00585   0.00691   0.00758
   D37       -3.14023   0.00068   0.00165   0.00853   0.01034  -3.12989
   D38        3.14157   0.00034   0.00010   0.00314   0.00344  -3.13817
   D39        0.00068   0.00050   0.00095   0.00582   0.00686   0.00754
   D40        0.00095   0.00031   0.00115   0.00453   0.00569   0.00664
   D41       -3.14018   0.00060   0.00184   0.00809   0.00988  -3.13030
   D42       -3.14135   0.00016   0.00030   0.00183   0.00229  -3.13906
   D43        0.00071   0.00044   0.00099   0.00539   0.00648   0.00719
   D44       -0.00113  -0.00067  -0.00137  -0.00810  -0.00934  -0.01047
   D45       -3.13993   0.00096   0.00201   0.01150   0.01299  -3.12694
   D46        3.13998  -0.00096  -0.00208  -0.01172  -0.01345   3.12654
   D47        0.00118   0.00067   0.00130   0.00788   0.00888   0.01006
         Item               Value     Threshold  Converged?
 Maximum Force            0.100248     0.000450     NO 
 RMS     Force            0.014302     0.000300     NO 
 Maximum Displacement     0.810576     0.001800     NO 
 RMS     Displacement     0.220393     0.001200     NO 
 Predicted change in Energy=-1.019625D-02
 GradGradGradGradGradGradGradGradGradGradGradGradGradGradGradGradGradGrad

                          Input orientation:                          
 ---------------------------------------------------------------------
 Center     Atomic      Atomic             Coordinates (Angstroms)
 Number     Number       Type             X           Y           Z
 ---------------------------------------------------------------------
      1          6           0       -0.781668   -1.504847   -0.052825
      2          6           0       -0.171962   -2.682449   -0.739968
      3          7           0       -1.851354   -1.471307    0.551856
      4          6           0       -0.067367   -0.277886   -0.071069
      5          8           0       -0.407113   -3.837005   -0.610764
      6          8           0        0.721812   -2.183292   -1.506677
      7          6           0        1.432749   -3.164193   -2.268660
      8          1           0        2.211445   -3.616181   -1.647440
      9          1           0        0.739318   -3.946329   -2.617932
     10          1           0        1.876271   -2.627044   -3.093073
     11          6           0       -3.054561   -2.282270    0.807018
     12          1           0       -2.051069   -0.478380    0.654344
     13          1           0       -3.081593   -3.233516    0.307395
     14          1           0       -3.123138   -2.497226    1.879966
     15          1           0       -3.927854   -1.667093    0.538376
     16          6           0        1.369798   -0.303500   -0.049943
     17          6           0        2.067702    0.896579   -0.041722
     18          6           0        1.360076    2.121174   -0.075301
     19          6           0       -0.058659    2.167382   -0.108572
     20          6           0       -0.769390    0.981501   -0.100125
     21          1           0        1.922173   -1.244836   -0.022547
     22          1           0        3.157707    0.877187   -0.013192
     23          1           0        1.920591    3.063658   -0.079677
     24          1           0       -0.595284    3.121261   -0.144971
     25          1           0       -1.856529    1.042812   -0.140299
 ---------------------------------------------------------------------
                    Distance matrix (angstroms):
                    1          2          3          4          5
     1  C    0.000000
     2  C    1.493537   0.000000
     3  N    1.229224   2.440498   0.000000
     4  C    1.419856   2.498057   2.234927   0.000000
     5  O    2.427045   1.185323   3.005668   3.615802   0.000000
     6  O    2.198733   1.278996   3.371300   2.512836   2.193603
     7  C    3.544996   2.268055   4.648280   3.925624   2.566396
     8  H    3.994903   2.715877   5.093498   4.338449   2.824943
     9  H    3.854089   2.440199   4.783813   4.538141   2.314082
    10  H    4.191309   3.120165   5.340077   4.292875   3.583253
    11  C    2.551423   3.295858   1.473253   3.702961   3.381757
    12  H    1.779074   3.214509   1.017986   2.121673   3.947588
    13  H    2.899606   3.141114   2.163015   4.238460   2.891377
    14  H    3.194211   3.950671   2.105664   4.250852   3.921165
    15  H    3.205359   4.095342   2.085753   4.147852   4.292394
    16  C    2.464153   2.917629   3.478758   1.437549   3.994695
    17  C    3.726375   4.279378   4.617165   2.436955   5.371716
    18  C    4.211365   5.085638   4.859272   2.791612   6.237753
    19  C    3.743142   4.892070   4.109741   2.445571   6.035418
    20  C    2.486827   3.767074   2.758984   1.442129   4.859011
    21  H    2.716483   2.639475   3.823707   2.212604   3.534249
    22  H    4.603731   4.928074   5.561061   3.426172   5.940425
    23  H    5.307934   6.150814   5.932311   3.888184   7.302014
    24  H    4.630778   5.849468   4.811961   3.440692   6.976377
    25  H    2.766504   4.132183   2.607662   2.224890   5.112216
                    6          7          8          9         10
     6  O    0.000000
     7  C    1.431159   0.000000
     8  H    2.071712   1.093880   0.000000
     9  H    2.084104   1.102077   1.793881   0.000000
    10  H    2.011552   1.079304   1.783419   1.805252   0.000000
    11  C    4.429895   5.511219   5.961082   5.375210   6.296243
[...]
 473,-0.29249374,-0.01602355,0.00436600,0.67619160,0.00019041,-0.000617
 36,0.00705909,-0.00016423,0.00062001,-0.00044235,-0.00085929,-0.000467
 49,-0.00084063,-0.00082634,0.00102693,0.01033290,0.00004045,0.00001663
 ,0.00024107,0.00005613,-0.00027435,-0.00005117,-0.00007246,-0.00001934
 ,-0.00005971,-0.00000873,0.00002277,-0.00001018,-0.00000424,-0.0000278
 1,0.00000248,0.00000697,0.00001057,0.00001446,-0.00039623,0.00052826,-
 0.00073563,0.00014880,-0.00017461,0.00036189,-0.00001409,-0.00008713,-
 0.00000425,0.00017128,0.00009163,0.00002171,-0.00006129,-0.00013786,-0
 .00001938,-0.00295480,-0.01234690,-0.06897026,-0.01912011,0.03982294,0
 .14379656,-0.00641698,0.00210590,-0.00015111,0.00096815,-0.00078333,-0
 .00155421,0.00108068,-0.00179863,0.00043961,-0.03729682,0.02523408,0.0
 0505377,-0.00014785,0.00073769,0.00028004,-0.00108224,0.00024287,0.000
 84172,0.00012642,-0.00004056,-0.00010282,-0.00000470,0.00012208,0.0000
 1829,-0.00002569,0.00001971,-0.00001687,0.00000414,0.00002573,0.000030
 51,-0.00018910,-0.00017098,-0.00048247,0.00018177,-0.00045664,0.000216
 26,-0.00010383,-0.00004891,0.00001965,0.00002843,0.00012699,0.00004526
 ,-0.00001351,-0.00002236,-0.00000411,0.06267251,0.01939213,-0.00027538
 ,-0.18273326,0.05744273,0.00802987,0.68996574,0.00204397,-0.00088724,0
 .00087210,-0.00021309,0.00001593,0.00064763,0.00112084,0.00069776,-0.0
 0065619,0.02292710,-0.01488417,-0.00268908,0.00001125,-0.00010061,-0.0
 0018240,0.00038567,-0.00014660,-0.00054140,-0.00013523,0.00003005,0.00
 009739,-0.00000224,-0.00005971,0.00001179,0.00002925,-0.00002450,0.000
 00209,-0.00001645,-0.00002538,-0.00003197,0.00003900,-0.00024755,0.000
 26285,-0.00002831,0.00050823,-0.00042532,-0.00001122,0.00003583,0.0000
 1398,-0.00004191,-0.00000304,-0.00007557,0.00002885,0.00001426,-0.0000
 4317,-0.02311540,-0.05800115,-0.00383820,0.12351265,-0.29569399,-0.020
 17611,0.03487983,0.73137832,-0.00003219,-0.00001553,-0.00090888,-0.000
 08699,-0.00015339,0.00052241,0.00007192,-0.00012496,-0.00010402,0.0025
 3111,-0.00094751,-0.00902740,0.00000694,-0.00005629,-0.00010083,0.0001
 8472,0.00019829,0.00000169,0.00002375,-0.00002653,-0.00001793,-0.00000
 795,-0.00000419,0.00000337,-0.00000565,0.00001040,0.00000732,-0.000002
 97,-0.00000095,-0.00000327,0.00010829,-0.00006397,0.00018758,0.0000388
 3,0.00025062,-0.00010414,0.00001628,0.00000380,0.00000129,-0.00003966,
 -0.00003060,-0.00001118,0.00000800,0.00001944,0.00000405,-0.00332805,-
 0.00561108,0.00730468,0.01280232,-0.01827084,-0.07036463,-0.01545867,0
 .03891344,0.15427994,0.01088289,0.01055340,0.00025507,-0.00012491,0.00
 196916,0.00386627,-0.00693231,0.00063633,0.00121228,0.04568057,-0.0309
 7278,-0.00666808,0.00011254,-0.00109080,-0.00104012,0.00149514,-0.0006
 7103,-0.00189781,-0.00042631,0.00035993,0.00038190,0.00002024,-0.00019
 366,-0.00000451,0.00007653,-0.00004646,0.00000427,-0.00000040,-0.00006
 000,-0.00007023,0.00092763,0.00068301,0.00055863,0.00006053,0.00025431
 ,-0.00118545,-0.00016365,-0.00006611,-0.00004933,-0.00025445,-0.000343
 65,-0.00015442,-0.00003320,-0.00012692,-0.00010314,-0.04498539,-0.0221
 8254,-0.00135433,-0.02009271,0.07071186,0.00642756,-0.33690235,-0.0247
 0103,0.00700063,0.68564321,0.01061582,-0.00094648,-0.00184010,-0.00167
 115,0.00063645,0.00141726,-0.00296865,0.00214475,0.00037133,0.01073859
 ,-0.05710260,-0.00535045,0.00042931,-0.00095071,-0.00014608,0.00084302
 ,-0.00048949,-0.00097857,-0.00017721,0.00023248,0.00025316,0.00000683,
 -0.00010369,-0.00003378,0.00003682,-0.00004223,0.00000545,0.00001195,-
 0.00004121,-0.00003470,0.00003257,0.00028279,0.00039068,-0.00038721,-0
 .00094193,0.00013297,0.00005853,0.00005265,-0.00003162,-0.00003949,-0.
 00013458,-0.00007316,-0.00003151,-0.00006661,-0.00001423,-0.02739105,-
 0.01492904,0.00009814,0.03394171,0.03287702,0.00031369,0.04142586,-0.1
 3171611,-0.00469110,-0.02578460,0.75163120,-0.00037599,-0.00037523,0.0
 0646558,0.00023862,-0.00005614,-0.00091838,-0.00011606,-0.00040889,-0.
 00071831,0.00120103,-0.00335857,0.00954293,-0.00012346,0.00049497,0.00
 005790,-0.00009406,-0.00010519,0.00013454,0.00006026,-0.00003981,-0.00
 003273,-0.00000123,0.00000934,-0.00001157,-0.00000840,0.00000663,-0.00
 000286,-0.00000200,0.00000230,0.00000403,-0.00016639,0.00022244,0.0002
 5203,-0.00036606,-0.00046410,-0.00008528,0.00007096,0.00004226,-0.0000
 3991,-0.00000021,-0.00008877,-0.00005283,-0.00003560,-0.00006493,-0.00
 004789,-0.00071172,0.00036967,-0.00664366,0.00334684,-0.00127609,0.008
 53956,0.00974438,-0.00239388,-0.06938372,-0.01464765,0.03655066,0.1426
 5575,0.01737719,-0.01598495,-0.00403109,-0.00531163,-0.00073577,0.0011
 0961,-0.00414620,-0.00049200,0.00037764,-0.16630189,0.10455241,0.01291
 340,0.00152017,-0.00168329,0.00032951,0.00113575,-0.00052590,-0.000974
 15,-0.00015830,0.00039707,0.00028912,0.00002206,-0.00015108,-0.0000690
 4,0.00004479,-0.00005404,0.00000983,0.00002498,-0.00004738,-0.00004060
 ,0.00010934,0.00026087,-0.00028129,0.00011581,-0.00436058,0.00208247,-
 0.00019939,-0.00001641,-0.00000841,-0.00004399,-0.00005542,-0.00008978
 ,-0.00009331,-0.00018127,-0.00004810,-0.02633325,0.03002577,0.00408495
 ,-0.00076005,0.00011158,-0.00045300,-0.03230776,-0.02761116,-0.0002287
 4,-0.19043082,-0.13932688,-0.00568636,0.74006143,-0.01584422,-0.047445
 03,-0.00026792,-0.00190519,-0.00132605,-0.00278417,0.01684109,-0.00360
 984,-0.00384781,0.06723662,-0.24387183,-0.01284250,0.00028139,0.000462
 53,0.00111235,-0.00155754,0.00118057,0.00195782,0.00058040,-0.00050570
 ,-0.00060524,-0.00004135,0.00022860,0.00000955,-0.00009035,0.00008935,
 0.00001546,0.00000381,0.00005819,0.00007457,-0.00062795,-0.00121269,-0
 .00096712,0.00011533,0.00326682,-0.00027013,0.00020799,0.00000934,0.00
 020023,0.00036569,0.00050162,0.00011979,0.00011151,0.00036213,0.000132
 58,0.06438787,0.02203662,0.00058235,-0.00502003,-0.05809092,-0.0035801
 9,-0.06991534,0.03559462,0.00338366,-0.07568062,-0.30574665,-0.0123791
 2,0.02328783,0.67245259,-0.00316730,-0.00283619,0.00127255,0.00175024,
 -0.00152015,0.00216376,0.00316860,0.00092538,-0.00067858,0.00754887,-0
 .01084526,-0.06834734,-0.00010842,-0.00097238,0.00005686,-0.00080887,0
 .00041412,0.00092173,-0.00016988,-0.00005607,-0.00009211,-0.00000915,0
 .00008642,0.00007268,0.00000352,-0.00002064,-0.00000266,-0.00002224,0.
 00003804,0.00001696,-0.00080224,-0.00045654,-0.00041230,-0.00015746,0.
 00057829,-0.00046812,0.00004968,0.00005816,0.00006485,0.00016310,0.000
 25257,0.00004800,0.00003630,0.00000909,-0.00002088,0.00638674,-0.00016
 382,0.00939538,-0.00067552,-0.00449850,-0.00662600,-0.00487469,0.00282
 422,0.00822607,-0.00008981,-0.01010691,-0.06689974,-0.00805260,0.03045
 272,0.14275326,0.00118550,0.00194304,0.00000065,-0.00251691,-0.0014347
 0,0.00092777,-0.00016581,-0.00029730,0.00001291,-0.00928693,0.02575486
 ,0.00253332,0.00023073,-0.00013246,-0.00019236,0.00076229,0.00026277,-
 0.00028223,0.00046859,-0.00074997,-0.00047781,-0.00002576,0.00010266,-
 0.00001399,-0.00010083,0.00013196,0.00001068,-0.00000226,0.00003673,0.
 00004806,0.00005376,0.00005292,-0.00001060,0.00011362,0.00015699,-0.00
 010895,-0.00003523,-0.00001696,-0.00002954,-0.00003681,-0.00000884,0.0
 0002754,0.00000781,-0.00001938,-0.00000585,-0.12710955,0.12270779,0.01
 263460,0.01230549,-0.01637755,-0.00144087,-0.00167421,-0.00311133,0.00
 008017,-0.00019501,-0.00047450,-0.00006497,-0.00510477,-0.00189667,0.0
 0019860,0.13033178,-0.00068337,0.00039322,0.00047034,-0.00097779,-0.00
 032246,-0.00050439,0.00021971,0.00011345,-0.00014102,-0.00239427,0.003
 55900,0.00018898,0.00004587,-0.00000971,0.00001939,-0.00176713,-0.0019
 7546,-0.00132761,-0.00043733,0.00011568,-0.00015822,0.00012349,-0.0000
 8710,0.00002363,0.00010714,-0.00006764,0.00002528,0.00003520,0.0000039
 2,0.00002983,-0.00004084,-0.00003134,-0.00001959,-0.00001808,0.0000416
 8,-0.00000794,0.00000332,0.00000788,-0.00000761,0.00000624,0.00001562,
 0.00000702,0.00000517,-0.00000268,0.00000024,0.12289445,-0.27692465,-0
 .02104176,0.01464054,-0.01660061,-0.00189555,-0.00352284,-0.00296868,-
 0.00080952,-0.00093410,0.00011007,0.00017638,-0.00066480,0.00138581,-0
 .00056691,-0.12733800,0.29286946,0.00020574,-0.00014786,-0.00352087,-0
 .00085739,-0.00116370,0.00277392,0.00051262,0.00009081,0.00007070,0.00
 020026,0.00011975,0.00237645,-0.00019139,0.00043118,-0.00099969,0.0002
 6645,-0.00039726,-0.00127535,0.00003264,-0.00051292,-0.00022688,-0.000
 00340,-0.00004318,0.00006576,0.00003524,0.00005958,-0.00001653,-0.0000
 4335,-0.00002596,-0.00004517,0.00007773,-0.00019076,0.00018086,-0.0000
 0584,0.00005700,-0.00004944,-0.00002859,0.00002816,0.00002632,-0.00004
 512,-0.00000715,0.00001046,0.00001501,0.00003956,0.00000215,0.01263012
 ,-0.02207929,-0.03988388,0.00099347,-0.00094625,0.00652595,0.00011584,
 -0.00087752,0.00737238,-0.00035173,0.00011554,-0.00105380,0.00028539,-
 0.00004824,0.00541380,-0.01372230,0.02512638,0.02691654,-0.00031328,0.
 00027803,0.00002974,-0.00012264,0.00009819,0.00013480,-0.00011428,-0.0
 0015652,-0.00002066,0.00080746,-0.00233152,0.00003199,0.00004217,-0.00
 004088,-0.00002296,0.00007678,-0.00000794,-0.00007622,-0.00001111,0.00
 000729,0.00001512,0.00000234,-0.00000969,-0.00000049,0.00000589,-0.000
 00228,-0.00000305,-0.00000132,-0.00000852,-0.00000648,0.00000719,0.000
 03778,0.00002887,0.00000725,-0.00001812,-0.00001840,-0.00000275,0.0000
 0099,-0.00000042,-0.00001165,-0.00000744,-0.00000480,-0.00000617,-0.00
 001227,0.00000006,-0.00983368,0.00268266,0.00074148,-0.34724084,0.0080
 1807,0.01032443,-0.00819812,-0.00226335,0.00025879,0.00061476,0.002265
 92,0.00033667,0.00082321,0.00012314,-0.00004625,0.00075345,0.00018955,
 -0.00019482,0.36245132,-0.00124830,0.00044572,-0.00001257,-0.00024165,
 0.00021710,0.00014252,-0.00021002,-0.00048284,0.00007760,-0.00198821,-
 0.00403297,-0.00090752,0.00009311,-0.00008962,-0.00002194,0.00016921,-
 0.00005242,-0.00010851,-0.00005700,0.00005623,0.00002110,-0.00000193,-
 0.00003192,0.00000464,0.00001802,-0.00001060,-0.00000390,-0.00000492,-
 0.00001187,-0.00001462,-0.00000321,0.00005558,0.00010045,0.00000754,-0
 .00002572,-0.00003921,-0.00000140,0.00000418,-0.00000428,-0.00002941,-
 0.00001914,-0.00000438,-0.00001380,-0.00002206,0.00000283,-0.02782630,
 0.00411367,0.00088709,0.00839379,-0.05809237,-0.00152676,0.02834120,0.
 00349126,-0.00103324,0.00199307,-0.00451183,-0.00088453,0.00001772,-0.
 00107186,-0.00006932,0.00013438,0.00096528,0.00039224,-0.00848050,0.05
 788866,-0.00013964,-0.00016310,0.00068921,-0.00001825,-0.00006319,0.00
 012371,0.00003607,-0.00001130,-0.00026877,-0.00010774,-0.00045149,0.00
 723025,0.00000861,0.00003743,-0.00005207,-0.00001259,-0.00003301,-0.00
 011897,-0.00002218,0.00001336,0.00003175,0.00000028,-0.00001107,0.0000
 0971,0.00001266,-0.00000716,-0.00000650,-0.00000969,-0.00001066,-0.000
 01133,-0.00006959,-0.00000554,-0.00009620,0.00002584,-0.00005174,0.000
 03220,-0.00000381,-0.00000491,0.00000683,0.00002081,0.00002301,0.00000
 452,-0.00000783,-0.00000858,0.00000075,-0.00162261,-0.00001600,0.00434
 197,0.01051786,-0.00145141,-0.04115952,0.00262301,-0.00004887,0.004646
 10,0.00038197,-0.00101138,0.00691915,-0.00004603,-0.00018359,-0.000788
 40,-0.00016656,0.00043555,-0.00434264,-0.01134307,0.00259731,0.0278041
 5,-0.00029003,-0.00024394,-0.00003702,-0.00011678,-0.00004294,-0.00001
 445,0.00020469,-0.00009206,0.00000676,-0.00035744,0.00111924,0.0001340
 5,0.00002709,0.00000457,0.00000557,0.00004265,0.00004439,0.00003279,0.
 00001921,-0.00002674,-0.00002638,0.00000011,-0.00000256,-0.00000234,-0
 .00000173,0.00000442,0.00000145,0.00000119,0.00000002,0.00000132,0.000
 02746,0.00000801,-0.00003325,0.00004508,0.00015180,-0.00006809,-0.0000
 0058,-0.00000883,0.00000296,0.00000285,0.00000267,0.00000655,0.0000034
 1,0.00000857,0.00000399,-0.00093682,0.00320964,0.00057923,0.01196670,0
 .01471867,0.00081570,-0.13869049,-0.12833850,-0.00554391,-0.01005751,-
 0.02645208,-0.00112037,-0.00520771,0.00078181,0.00034948,0.00042676,0.
 00072783,0.00002460,0.00068650,-0.00027925,-0.00019774,0.14170848,-0.0
 0024817,-0.00024657,0.00011681,0.00013882,0.00002119,-0.00011522,0.000
 12737,0.00003022,-0.00005704,0.00105360,0.00061848,0.00004785,-0.00003
 135,0.00003053,0.00002551,-0.00008716,-0.00003878,0.00001594,-0.000008
 58,0.00001792,0.00001974,-0.00000057,0.00000790,0.00000165,0.00000021,
 -0.00000405,-0.00000266,-0.00000085,-0.00000055,-0.00000010,-0.0000251
 7,-0.00000822,0.00000881,-0.00001611,-0.00000165,0.00000936,0.00001420
 ,0.00000404,0.00000235,0.00000761,0.00000167,0.00000145,0.00000021,0.0
 0000486,0.00000438,0.00293903,-0.00333730,-0.00081516,-0.01550686,-0.0
 1564708,-0.00095700,-0.12836655,-0.26698351,-0.01053717,0.00389119,0.0
 0600510,-0.00022376,0.00094446,0.00111441,-0.00041728,-0.00072144,-0.0
 0072290,0.00000727,-0.00015638,0.00099940,0.00033121,0.13583349,0.2773
 8411,0.00027252,0.00021014,-0.00124121,0.00009313,-0.00007581,0.000122
 06,0.00003189,0.00020005,0.00028680,-0.00038330,0.00007697,-0.00077317
 ,-0.00001621,-0.00003201,-0.00006430,-0.00004531,-0.00000017,-0.000047
 14,-0.00000511,0.00002296,0.00003135,0.00000487,-0.00000322,0.00000252
 ,0.00000427,0.00000031,-0.00000330,0.00000008,-0.00000350,-0.00000227,
 0.00003637,-0.00006823,-0.00005119,0.00002888,-0.00002310,0.00003265,-
 0.00002348,-0.00000145,0.00000773,-0.00000052,0.00001942,0.00001326,0.
 00001122,0.00001612,0.00000853,0.00067195,-0.00105005,0.00732120,-0.00
 124708,-0.00228681,0.00689854,-0.00541349,-0.01048882,-0.04494178,0.00
 035399,0.00101585,0.00673735,0.00068745,-0.00020139,0.00681074,-0.0000
 6161,-0.00009428,-0.00058101,-0.00013888,0.00034388,-0.00397257,0.0052
 1888,0.01220171,0.02764235,0.00068501,-0.00097067,-0.00017707,-0.00037
 984,0.00001722,-0.00000243,-0.00002297,0.00011883,-0.00003142,-0.00134
 187,-0.00311825,0.00028692,0.00010160,-0.00010534,0.00004193,0.0000985
 9,-0.00003530,-0.00007043,-0.00000488,0.00002444,0.00001720,0.00000093
 ,-0.00001079,-0.00000620,0.00000266,-0.00000355,0.00000032,0.00000206,
 -0.00000447,-0.00000362,0.00000935,0.00002409,0.00000843,0.00004419,-0
 .00006210,0.00003481,0.00000326,0.00000002,0.00000119,-0.00000006,-0.0
 0000661,-0.00000654,-0.00000525,-0.00000984,-0.00000012,-0.00080084,-0
 .00078986,-0.00006523,-0.00528944,-0.00097204,0.00025153,-0.00920877,0
 .02783235,0.00186309,-0.12258567,0.12056035,0.00818074,0.01121061,-0.0
 1724177,-0.00107520,0.00007123,0.00005384,-0.00001831,-0.00037639,0.00
 122119,0.00013017,0.00113566,-0.00007873,-0.00006630,0.12571497,0.0007
 9501,-0.00079893,-0.00027640,-0.00037787,0.00004444,0.00010209,-0.0000
 4908,0.00002987,-0.00003195,-0.00341499,-0.00183228,-0.00023646,0.0001
 0429,-0.00013690,0.00002793,0.00007917,-0.00002999,-0.00007217,-0.0000
 0575,0.00002379,0.00001683,0.00000089,-0.00000742,-0.00000630,0.000002
 52,-0.00000317,0.00000039,0.00000340,-0.00000518,-0.00000283,0.0000076
 7,0.00002407,0.00001605,0.00003570,-0.00007646,-0.00000150,-0.00000110
 ,-0.00000032,0.00000260,-0.00000516,-0.00000927,-0.00000886,-0.0000078
 9,-0.00001248,-0.00000217,-0.00064155,0.00049824,0.00011866,-0.0006580
 1,0.00125552,-0.00022108,-0.00285249,0.00461321,0.00011368,0.12008133,
 -0.28189579,-0.01624954,0.01330033,-0.01699052,-0.00151762,0.00004639,
 -0.00003092,0.00003760,-0.00019945,0.00012750,0.00003268,0.00006136,0.
 00055026,0.00020816,-0.12654625,0.29377220,0.00038484,-0.00019485,0.00
 048651,-0.00029776,0.00019226,-0.00019316,-0.00011382,0.00011634,0.000
 03843,-0.00012922,-0.00086311,0.00766223,0.00004582,0.00008961,-0.0000
 0516,0.00011274,-0.00003371,-0.00014457,0.00002107,0.00001050,0.000021
 54,0.00000200,-0.00001292,-0.00001073,0.00000085,0.00000163,0.00000068
 ,0.00000397,-0.00000689,-0.00000223,0.00000846,0.00005434,-0.00002837,
 0.00004644,-0.00001636,0.00013339,0.00000047,-0.00000527,-0.00000537,0
 .00000373,-0.00000081,-0.00000113,-0.00000282,-0.00000685,0.00000684,-
 0.00004152,0.00009680,-0.00079486,0.00041346,-0.00015831,0.00659030,0.
 00073557,-0.00086856,0.00460017,0.00761417,-0.01630073,-0.04166568,0.0
 0036543,-0.00030251,0.00433888,-0.00003249,0.00009369,-0.00087782,-0.0
 0000628,-0.00001432,-0.00007481,-0.00010360,0.00030041,-0.00373234,-0.
 00915362,0.01757837,0.02831990,-0.00293700,-0.00177550,0.00080527,0.00
 005420,-0.00004214,-0.00003920,0.00158265,-0.00269602,0.00014973,-0.00
 880120,-0.00044765,-0.00002510,0.00002884,0.00007700,-0.00006869,0.000
 08086,-0.00000071,-0.00003508,-0.00000949,-0.00000923,-0.00002842,0.00
 000171,-0.00000821,0.00000371,0.00000311,0.00000482,-0.00000156,-0.000
 00278,-0.00000361,-0.00000328,0.00047217,0.00002457,-0.00024215,0.0010
 8891,0.00079160,-0.00054951,-0.00004435,-0.00011322,0.00003490,-0.0000
 1121,-0.00000957,0.00002104,-0.00000266,0.00004621,0.00002284,0.000939
 08,0.00266473,0.00002404,0.00053114,-0.00034448,-0.00008746,-0.0000321
 6,-0.00322153,-0.00026007,-0.01232936,0.00373707,0.00034103,-0.3360462
 6,0.01549654,0.00040451,-0.00045692,-0.00027381,0.00006713,-0.00004607
 ,-0.00000334,0.00001005,-0.00063875,0.00029774,-0.00001422,0.00093587,
 0.00024153,0.00012210,0.35563969,0.00122451,0.00142760,0.00036896,0.00
 035172,-0.00012028,-0.00043149,-0.00088223,-0.00126843,0.00041212,0.02
 525251,0.00383905,-0.00020108,-0.00014179,0.00021458,0.00006816,-0.000
 18351,0.00010259,0.00021632,0.00005423,-0.00006214,-0.00002149,-0.0000
 0525,0.00002100,0.00000113,-0.00001062,0.00000407,0.00000021,-0.000003
 53,0.00000757,0.00000831,-0.00040150,-0.00015343,0.00001375,-0.0006606
 3,-0.00253344,0.00138349,0.00002470,0.00006176,-0.00003007,0.00004757,
 0.00006514,-0.00000433,-0.00001634,-0.00002315,0.00000086,0.00110516,-
 0.00498811,-0.00086641,-0.00007317,-0.00046721,0.00005610,-0.00211816,
 -0.00463723,-0.00051646,-0.02827929,0.00564643,0.00049391,0.01899288,-
 0.05887210,-0.00159144,0.00124862,0.00016308,-0.00006498,-0.00000676,0
 .00009063,0.00006246,-0.00118959,0.00020052,0.00001326,0.00010326,0.00
 089052,0.00025126,-0.01443279,0.06039096,0.00144776,0.00058543,-0.0035
 5703,-0.00028694,0.00014486,0.00025067,-0.00050984,0.00101300,0.000618
 80,0.00192340,-0.00272510,0.00229619,0.00008191,-0.00011729,-0.0000573
 2,0.00012006,-0.00003408,-0.00020847,-0.00001009,0.00002007,0.00002805
 ,-0.00000104,-0.00001143,-0.00000515,0.00000537,-0.00000499,0.00000190
 ,0.00000722,-0.00000781,-0.00000426,0.00016327,-0.00011161,-0.00033493
 ,0.00046458,0.00119433,0.00069034,-0.00007051,-0.00006860,0.00001700,0
 .00000836,0.00008245,0.00004182,0.00001879,0.00004112,0.00006800,0.000
 36429,-0.00095353,0.00525942,-0.00018994,0.00024131,-0.00110078,0.0001
 4007,-0.00030843,0.00781074,-0.00044014,-0.00005190,0.00624756,-0.0025
 2562,0.00023885,-0.03721939,0.00013585,-0.00002234,0.00113779,-0.00001
 917,0.00007545,-0.00094852,-0.00003617,0.00003094,-0.00050482,-0.00013
 984,0.00037185,-0.00466265,-0.00065165,0.00037745,0.02413504\\-0.00000
 252,0.00000028,-0.00000051,0.00000070,-0.00000111,-0.00000031,-0.00000
 341,-0.00000734,-0.00000223,0.00000204,-0.00000014,0.00000230,-0.00000
 028,0.00000172,-0.00000221,-0.00000145,0.00000014,0.00000215,0.0000007
 2,0.00000129,0.00000141,0.00000043,-0.00000047,-0.00000037,0.00000020,
 -0.00000016,0.00000024,-0.00000012,0.00000027,0.00000036,0.00000534,0.
 00000801,0.00000305,0.00000083,-0.00000141,0.00000050,-0.00000087,-0.0
 0000197,0.00000043,0.00000077,-0.00000200,-0.00000065,0.00000043,-0.00
 000117,-0.00000114,-0.00000081,0.00000199,-0.00000083,-0.00000058,-0.0
 0000055,-0.00000090,-0.00000105,0.00000074,0.00000033,-0.00000016,0.00
 000064,0.,0.00000083,-0.00000006,-0.00000153,-0.00000007,-0.00000066,0
 .00000012,-0.00000017,0.00000040,0.00000008,-0.00000048,0.00000017,-0.
 00000093,-0.00000068,-0.00000007,0.00000020,0.00000037,0.00000147,0.00
 000041\\\@
 The archive entry for this job was punched.


 ALL THINGS ARE POSSIBLE EXCEPT SKIING THROUGH A REVOLVING DOOR.
 Job cpu time:       0 days  0 hours 27 minutes 25.6 seconds.
 Elapsed time:       0 days  0 hours  0 minutes 52.0 seconds.
 File lengths (MBytes):  RWF=    247 Int=      0 D2E=      0 Chk=      7 Scr=      2
 Normal termination of Gaussian 16 at Fri Feb 23 23:39:33 2024.
