 Entering Gaussian System, Link 0=g16
 Input=CH3-ccsd-sp.gjf
 Output=CH3-ccsd-sp.log
 Initial command:
 /home/tmj/soft/g16/l1.exe "/home/tmj/soft/g16temp/Gau-1023158.inp" -scrdir="/home/tmj/soft/g16temp/"
 Entering Link 1 = /home/tmj/soft/g16/l1.exe PID=   1023160.
  
 Copyright (c) 1988-2019, Gaussian, Inc.  All Rights Reserved.
  
 This is part of the Gaussian(R) 16 program.  It is based on
 the Gaussian(R) 09 system (copyright 2009, Gaussian, Inc.),
 the Gaussian(R) 03 system (copyright 2003, Gaussian, Inc.),
 the Gaussian(R) 98 system (copyright 1998, Gaussian, Inc.),
 the Gaussian(R) 94 system (copyright 1995, Gaussian, Inc.),
 the Gaussian 92(TM) system (copyright 1992, Gaussian, Inc.),
 the Gaussian 90(TM) system (copyright 1990, Gaussian, Inc.),
 the Gaussian 88(TM) system (copyright 1988, Gaussian, Inc.),
 the Gaussian 86(TM) system (copyright 1986, Carnegie Mellon
 University), and the Gaussian 82(TM) system (copyright 1983,
 Carnegie Mellon University). Gaussian is a federally registered
 trademark of Gaussian, Inc.
  
 This software contains proprietary and confidential information,
 including trade secrets, belonging to Gaussian, Inc.
  
 This software is provided under written license and may be
 used, copied, transmitted, or stored only in accord with that
 written license.
  
 The following legend is applicable only to US Government
 contracts under FAR:
  
                    RESTRICTED RIGHTS LEGEND
  
 Use, reproduction and disclosure by the US Government is
 subject to restrictions as set forth in subparagraphs (a)
 and (c) of the Commercial Computer Software - Restricted
 Rights clause in FAR 52.227-19.
  
 Gaussian, Inc.
 340 Quinnipiac St., Bldg. 40, Wallingford CT 06492
  
  
 ---------------------------------------------------------------
 Warning -- This program may not be used in any manner that
 competes with the business of Gaussian, Inc. or will provide
 assistance to any competitor of Gaussian, Inc.  The licensee
 of this program is prohibited from giving any competitor of
 Gaussian, Inc. access to this program.  By using this program,
 the user acknowledges that Gaussian, Inc. is engaged in the
 business of creating and licensing software in the field of
 computational chemistry and represents and warrants to the
 licensee that it is not a competitor of Gaussian, Inc. and that
 it will not use this program in any manner prohibited above.
 ---------------------------------------------------------------
  

 Cite this work as:
 Gaussian 16, Revision C.01,
 M. J. Frisch, G. W. Trucks, H. B. Schlegel, G. E. Scuseria, 
 M. A. Robb, J. R. Cheeseman, G. Scalmani, V. Barone, 
 G. A. Petersson, H. Nakatsuji, X. Li, M. Caricato, A. V. Marenich, 
 J. Bloino, B. G. Janesko, R. Gomperts, B. Mennucci, H. P. Hratchian, 
 J. V. Ortiz, A. F. Izmaylov, J. L. Sonnenberg, D. Williams-Young, 
 F. Ding, F. Lipparini, F. Egidi, J. Goings, B. Peng, A. Petrone, 
 T. Henderson, D. Ranasinghe, V. G. Zakrzewski, J. Gao, N. Rega, 
 G. Zheng, W. Liang, M. Hada, M. Ehara, K. Toyota, R. Fukuda, 
 J. Hasegawa, M. Ishida, T. Nakajima, Y. Honda, O. Kitao, H. Nakai, 
 T. Vreven, K. Throssell, J. A. Montgomery, Jr., J. E. Peralta, 
 F. Ogliaro, M. J. Bearpark, J. J. Heyd, E. N. Brothers, K. N. Kudin, 
 V. N. Staroverov, T. A. Keith, R. Kobayashi, J. Normand, 
 K. Raghavachari, A. P. Rendell, J. C. Burant, S. S. Iyengar, 
 J. Tomasi, M. Cossi, J. M. Millam, M. Klene, C. Adamo, R. Cammi, 
 J. W. Ochterski, R. L. Martin, K. Morokuma, O. Farkas, 
 J. B. Foresman, and D. J. Fox, Gaussian, Inc., Wallingford CT, 2019.
 
 ******************************************
 Gaussian 16:  ES64L-G16RevC.01  3-Jul-2019
                25-Jun-2024 
 ******************************************
 %mem=60GB
 %nprocshared=32
 Will use up to   32 processors via shared memory.
 %chk=CH3-ccsd-sp.chk
 ------------------
 # ccsd/aug-cc-pvtz
 ------------------
 1/38=1,172=1/1;
 2/12=2,17=6,18=5,40=1/2;
 3/5=16,6=1,7=10,11=9,25=1,30=1/1,2,3;
 4//1;
 5/5=2,38=5/2;
 8/6=4,9=120000,10=1/1,4;
 9/5=7/13;
 6/7=2,8=2,9=2,10=2/1;
 99/5=1,9=1/99;
 -------------------
 Title Card Required
 -------------------
 Symbolic Z-matrix:
 Charge =  0 Multiplicity = 2
 C                    -0.0127    1.0858    0.008 
 H                     0.00215  -0.00603   0.00198 
 H                     1.01173   1.46375   0.00028 
 H                    -0.52381   1.43793   0.9064 
 
                          Input orientation:                          
 ---------------------------------------------------------------------
 Center     Atomic      Atomic             Coordinates (Angstroms)
 Number     Number       Type             X           Y           Z
 ---------------------------------------------------------------------
      1          6           0       -0.012700    1.085800    0.008000
      2          1           0        0.002150   -0.006030    0.001980
      3          1           0        1.011730    1.463750    0.000280
      4          1           0       -0.523810    1.437930    0.906400
 ---------------------------------------------------------------------
                    Distance matrix (angstroms):
                    1          2          3          4
     1  C    0.000000
     2  H    1.091948   0.000000
     3  H    1.091954   1.783117   0.000000
     4  H    1.091949   1.783152   1.783144   0.000000
 Stoichiometry    CH3(2)
 Framework group  C1[X(CH3)]
 Deg. of freedom     6
 Full point group                 C1      NOp   1
 Largest Abelian subgroup         C1      NOp   1
 Largest concise Abelian subgroup C1      NOp   1
                         Standard orientation:                         
 ---------------------------------------------------------------------
 Center     Atomic      Atomic             Coordinates (Angstroms)
 Number     Number       Type             X           Y           Z
 ---------------------------------------------------------------------
      1          6           0       -0.000005   -0.000003   -0.121333
      2          1           0        0.605298   -0.832748    0.242665
      3          1           0        0.418569    0.940565    0.242658
      4          1           0       -1.023837   -0.107799    0.242673
 ---------------------------------------------------------------------
 Rotational constants (GHZ):         262.9214662         262.9112561         157.7110964
 Standard basis: Aug-CC-pVTZ (5D, 7F)
 There are   130 symmetry adapted cartesian basis functions of A   symmetry.
 There are   115 symmetry adapted basis functions of A   symmetry.
   115 basis functions,   153 primitive gaussians,   130 cartesian basis functions
     5 alpha electrons        4 beta electrons
       nuclear repulsion energy         9.6134038706 Hartrees.
 NAtoms=    4 NActive=    4 NUniq=    4 SFac= 1.00D+00 NAtFMM=   60 NAOKFM=F Big=F
 Integral buffers will be    131072 words long.
 Raffenetti 2 integral format.
 Two-electron integral symmetry is turned on.
 One-electron integrals computed using PRISM.
 NBasis=   115 RedAO= T EigKep=  1.32D-04  NBF=   115
 NBsUse=   115 1.00D-06 EigRej= -1.00D+00 NBFU=   115
 ExpMin= 2.53D-02 ExpMax= 8.24D+03 ExpMxC= 2.81D+02 IAcc=3 IRadAn=         5 AccDes= 0.00D+00
 Harris functional with IExCor=  205 and IRadAn=       5 diagonalized for initial guess.
 HarFok:  IExCor=  205 AccDes= 0.00D+00 IRadAn=         5 IDoV= 1 UseB2=F ITyADJ=14
 ICtDFT=  3500011 ScaDFX=  1.000000  1.000000  1.000000  1.000000
 FoFCou: FMM=F IPFlag=           0 FMFlag=      100000 FMFlg1=           0
         NFxFlg=           0 DoJE=T BraDBF=F KetDBF=T FulRan=T
         wScrn=  0.000000 ICntrl=       500 IOpCl=  0 I1Cent=   200000004 NGrid=           0
         NMat0=    1 NMatS0=      1 NMatT0=    0 NMatD0=    1 NMtDS0=    0 NMtDT0=    0
 Petite list used in FoFCou.
 Initial guess <Sx>= 0.0000 <Sy>= 0.0000 <Sz>= 0.5000 <S**2>= 0.7500 S= 0.5000
 Keep R1 and R2 ints in memory in canonical form, NReq=60124875.
 Requested convergence on RMS density matrix=1.00D-08 within 128 cycles.
 Requested convergence on MAX density matrix=1.00D-06.
 Requested convergence on             energy=1.00D-06.
 No special actions if energy rises.
 SCF Done:  E(UHF) =  -39.5670270773     A.U. after   12 cycles
            NFock= 12  Conv=0.25D-08     -V/T= 2.0017
 <Sx>= 0.0000 <Sy>= 0.0000 <Sz>= 0.5000 <S**2>= 0.7584 S= 0.5042
 <L.S>=  0.00000000000    
 Annihilation of the first spin contaminant:
 S**2 before annihilation     0.7584,   after     0.7500
 ExpMin= 2.53D-02 ExpMax= 8.24D+03 ExpMxC= 2.81D+02 IAcc=3 IRadAn=         5 AccDes= 0.00D+00
 HarFok:  IExCor=  205 AccDes= 0.00D+00 IRadAn=         5 IDoV=-2 UseB2=F ITyADJ=14
 ICtDFT= 12500011 ScaDFX=  1.000000  1.000000  1.000000  1.000000
 Range of M.O.s used for correlation:     2   115
 NBasis=   115 NAE=     5 NBE=     4 NFC=     1 NFV=     0
 NROrb=    114 NOA=     4 NOB=     3 NVA=   110 NVB=   111

 **** Warning!!: The largest alpha MO coefficient is  0.33590047D+02


 **** Warning!!: The largest beta MO coefficient is  0.32897909D+02

 Semi-Direct transformation.
 ModeAB=           2 MOrb=             4 LenV=    8052507067
 LASXX=      2870031 LTotXX=     2870031 LenRXX=     2870031
 LTotAB=     2949750 MaxLAS=     3882840 LenRXY=     3882840
 NonZer=     5740062 LenScr=     9388032 LnRSAI=           0
 LnScr1=           0 LExtra=           0 Total=     16140903
 MaxDsk=          -1 SrtSym=           F ITran=            4
 JobTyp=1 Pass  1:  I=   1 to   4.
 (rs|ai) integrals will be sorted in core.
 ModeAB=           2 MOrb=             3 LenV=    8052507067
 LASXX=      2163174 LTotXX=     2163174 LenRXX=     2912130
 LTotAB=     2069595 MaxLAS=     2912130 LenRXY=     2069595
 NonZer=     4326348 LenScr=     7208960 LnRSAI=           0
 LnScr1=           0 LExtra=           0 Total=     12190685
 MaxDsk=          -1 SrtSym=           F ITran=            4
 JobTyp=2 Pass  1:  I=   1 to   3.
 (rs|ai) integrals will be sorted in core.
 SymMOI:  orbitals are not symmetric.
 Spin components of T(2) and E(2):
     alpha-alpha T2 =       0.7492790019D-02 E2=     -0.2188617508D-01
     alpha-beta  T2 =       0.3958615591D-01 E2=     -0.1301681030D+00
     beta-beta   T2 =       0.2772190958D-02 E2=     -0.8223361189D-02
 ANorm=    0.1024622436D+01
 E2 =    -0.1602776392D+00 EUMP2 =    -0.39727304716493D+02
 (S**2,0)=  0.75835D+00           (S**2,1)=  0.75225D+00
 E(PUHF)=      -0.39569263995D+02        E(PMP2)=      -0.39728726894D+02
 Keep R2 and R3 ints in memory in canonical form, NReq=60129022.
 CIDS: In Core Option IDoMem=           1.
 Iterations=  50 Convergence= 0.100D-06
 Produce multiple copies of IABC intergrals
 Iteration Nr.   1
 **********************
 DD1Dir will call FoFMem   1 times, MxPair=        34
 NAB=    12 NAA=     6 NBB=     3.
 E(PMP3)=      -0.39745967814D+02
 MP4(R+Q)=  0.31782789D-02
 E3=       -0.17823364D-01        EUMP3=      -0.39745128080D+02
 E4(DQ)=   -0.12015977D-02        UMP4(DQ)=   -0.39746329678D+02
 E4(SDQ)=  -0.19864349D-02        UMP4(SDQ)=  -0.39747114515D+02
 DE(Corr)= -0.17489106     E(Corr)=     -39.741918138    
 NORM(A)=   0.10312689D+01
 Iteration Nr.   2
 **********************
 DD1Dir will call FoFMem   1 times, MxPair=        34
 NAB=    12 NAA=     6 NBB=     3.
 DE(Corr)= -0.17915740     E(CORR)=     -39.746184472     Delta=-4.27D-03
 NORM(A)=   0.10335167D+01
 Iteration Nr.   3
 **********************
 DD1Dir will call FoFMem   1 times, MxPair=        34
 NAB=    12 NAA=     6 NBB=     3.
 DE(Corr)= -0.18022925     E(CORR)=     -39.747256325     Delta=-1.07D-03
 NORM(A)=   0.10340781D+01
 Iteration Nr.   4
 **********************
 DD1Dir will call FoFMem   1 times, MxPair=        34
 NAB=    12 NAA=     6 NBB=     3.
 DE(Corr)= -0.18055239     E(CORR)=     -39.747579470     Delta=-3.23D-04
 NORM(A)=   0.10342388D+01
 Iteration Nr.   5
 **********************
 DD1Dir will call FoFMem   1 times, MxPair=        34
 NAB=    12 NAA=     6 NBB=     3.
 DE(Corr)= -0.18059776     E(CORR)=     -39.747624834     Delta=-4.54D-05
 NORM(A)=   0.10342544D+01
 Iteration Nr.   6
 **********************
 DD1Dir will call FoFMem   1 times, MxPair=        34
 NAB=    12 NAA=     6 NBB=     3.
 DE(Corr)= -0.18060068     E(CORR)=     -39.747627757     Delta=-2.92D-06
 NORM(A)=   0.10342557D+01
 Iteration Nr.   7
 **********************
 DD1Dir will call FoFMem   1 times, MxPair=        34
 NAB=    12 NAA=     6 NBB=     3.
 DE(Corr)= -0.18060089     E(CORR)=     -39.747627972     Delta=-2.15D-07
 NORM(A)=   0.10342567D+01
 Iteration Nr.   8
 **********************
 DD1Dir will call FoFMem   1 times, MxPair=        34
 NAB=    12 NAA=     6 NBB=     3.
 DE(Corr)= -0.18060111     E(CORR)=     -39.747628186     Delta=-2.15D-07
 NORM(A)=   0.10342564D+01
 Iteration Nr.   9
 **********************
 DD1Dir will call FoFMem   1 times, MxPair=        34
 NAB=    12 NAA=     6 NBB=     3.
 DE(Corr)= -0.18060126     E(CORR)=     -39.747628340     Delta=-1.54D-07
 NORM(A)=   0.10342565D+01
 Iteration Nr.  10
 **********************
 DD1Dir will call FoFMem   1 times, MxPair=        34
 NAB=    12 NAA=     6 NBB=     3.
 DE(Corr)= -0.18060125     E(CORR)=     -39.747628326     Delta= 1.43D-08
 NORM(A)=   0.10342564D+01
 Wavefunction amplitudes converged. E(Corr)=     -39.747628326    
 Largest amplitude= 1.72D-02

 S**2, projected HF & approx projected MPn energies after annihilation of
 unwanted spin states (see manual for definitions):

 spins       (S**2,0) (S**2,1)    PUHF        PMP2        PMP3        PMP4
 annihilated
 s+1         0.74997  0.75001  -39.569264  -39.728727  -39.745968
 s+1,s+2     0.75000  0.75000  -39.569259  -39.728722  -39.745963
 s+1 to s+3  0.75000  0.75000  -39.569259  -39.728722  -39.745963

 Discarding MO integrals.

 **********************************************************************

            Population analysis using the SCF Density.

 **********************************************************************

 Orbital symmetries:
 Alpha Orbitals:
       Occupied  (A) (A) (A) (A) (A)
       Virtual   (A) (A) (A) (A) (A) (A) (A) (A) (A) (A) (A) (A)
                 (A) (A) (A) (A) (A) (A) (A) (A) (A) (A) (A) (A)
                 (A) (A) (A) (A) (A) (A) (A) (A) (A) (A) (A) (A)
                 (A) (A) (A) (A) (A) (A) (A) (A) (A) (A) (A) (A)
                 (A) (A) (A) (A) (A) (A) (A) (A) (A) (A) (A) (A)
                 (A) (A) (A) (A) (A) (A) (A) (A) (A) (A) (A) (A)
                 (A) (A) (A) (A) (A) (A) (A) (A) (A) (A) (A) (A)
                 (A) (A) (A) (A) (A) (A) (A) (A) (A) (A) (A) (A)
                 (A) (A) (A) (A) (A) (A) (A) (A) (A) (A) (A) (A)
                 (A) (A)
 Beta  Orbitals:
       Occupied  (A) (A) (A) (A)
       Virtual   (A) (A) (A) (A) (A) (A) (A) (A) (A) (A) (A) (A)
                 (A) (A) (A) (A) (A) (A) (A) (A) (A) (A) (A) (A)
                 (A) (A) (A) (A) (A) (A) (A) (A) (A) (A) (A) (A)
                 (A) (A) (A) (A) (A) (A) (A) (A) (A) (A) (A) (A)
                 (A) (A) (A) (A) (A) (A) (A) (A) (A) (A) (A) (A)
                 (A) (A) (A) (A) (A) (A) (A) (A) (A) (A) (A) (A)
                 (A) (A) (A) (A) (A) (A) (A) (A) (A) (A) (A) (A)
                 (A) (A) (A) (A) (A) (A) (A) (A) (A) (A) (A) (A)
                 (A) (A) (A) (A) (A) (A) (A) (A) (A) (A) (A) (A)
                 (A) (A) (A)
 The electronic state is 2-A.
 Alpha  occ. eigenvalues --  -11.24588  -0.95089  -0.56284  -0.56283  -0.42763
 Alpha virt. eigenvalues --    0.03039   0.04939   0.04939   0.08756   0.12598
 Alpha virt. eigenvalues --    0.12598   0.14139   0.22421   0.22421   0.24721
 Alpha virt. eigenvalues --    0.24721   0.25166   0.31691   0.33460   0.33460
 Alpha virt. eigenvalues --    0.35195   0.37216   0.37336   0.37336   0.40096
 Alpha virt. eigenvalues --    0.42675   0.42675   0.47038   0.47039   0.61897
 Alpha virt. eigenvalues --    0.66042   0.66043   0.73178   0.83221   0.83221
 Alpha virt. eigenvalues --    0.85558   0.85558   0.88796   0.90350   0.93616
 Alpha virt. eigenvalues --    0.95591   0.95591   1.00560   1.00560   1.00982
 Alpha virt. eigenvalues --    1.08068   1.08261   1.08261   1.10823   1.11246
 Alpha virt. eigenvalues --    1.11247   1.17595   1.17597   1.31833   1.42956
 Alpha virt. eigenvalues --    1.42956   1.50789   1.51117   1.51117   1.61286
 Alpha virt. eigenvalues --    1.62445   1.62445   1.66220   1.85484   1.85484
 Alpha virt. eigenvalues --    1.92380   1.93903   2.00010   2.00011   2.17464
 Alpha virt. eigenvalues --    2.17464   2.25950   2.88819   3.02148   3.02149
 Alpha virt. eigenvalues --    3.05930   3.40081   3.40081   3.42877   3.54747
 Alpha virt. eigenvalues --    3.54747   3.56268   3.61686   3.61686   3.71019
 Alpha virt. eigenvalues --    3.80279   3.80280   3.98130   3.98130   3.98269
 Alpha virt. eigenvalues --    4.05155   4.08730   4.08731   4.38516   4.38517
 Alpha virt. eigenvalues --    4.39159   4.65803   4.71544   4.71545   4.84121
 Alpha virt. eigenvalues --    4.84121   4.84282   5.07237   5.10820   5.10822
 Alpha virt. eigenvalues --    5.36943   5.46660   5.46663   5.61826   5.77685
 Alpha virt. eigenvalues --    6.02235   6.02239   6.53150   6.53152  16.28749
  Beta  occ. eigenvalues --  -11.22066  -0.87022  -0.54474  -0.54473
  Beta virt. eigenvalues --    0.03142   0.04969   0.04969   0.05427   0.12666
  Beta virt. eigenvalues --    0.12666   0.14129   0.15040   0.23057   0.23057
  Beta virt. eigenvalues --    0.25060   0.25060   0.26489   0.33733   0.33733
  Beta virt. eigenvalues --    0.35169   0.35387   0.37694   0.37694   0.38649
  Beta virt. eigenvalues --    0.40994   0.43184   0.43184   0.48692   0.48692
  Beta virt. eigenvalues --    0.66417   0.66418   0.67552   0.75546   0.84051
  Beta virt. eigenvalues --    0.84051   0.87264   0.87264   0.88689   0.91231
  Beta virt. eigenvalues --    0.96362   0.96363   0.96611   1.01079   1.01079
  Beta virt. eigenvalues --    1.02620   1.08176   1.08614   1.08614   1.12157
  Beta virt. eigenvalues --    1.12158   1.12776   1.19358   1.19359   1.32599
  Beta virt. eigenvalues --    1.43892   1.43893   1.52628   1.52629   1.55339
  Beta virt. eigenvalues --    1.61491   1.63695   1.63695   1.67198   1.86465
  Beta virt. eigenvalues --    1.86466   1.92630   1.97235   2.00922   2.00923
  Beta virt. eigenvalues --    2.18739   2.18740   2.27600   2.90257   3.03218
  Beta virt. eigenvalues --    3.03219   3.12309   3.42606   3.42606   3.47023
  Beta virt. eigenvalues --    3.56613   3.56614   3.56742   3.64826   3.64827
  Beta virt. eigenvalues --    3.74056   3.81937   3.81938   3.98761   3.98761
  Beta virt. eigenvalues --    3.99468   4.05385   4.09545   4.09546   4.39689
  Beta virt. eigenvalues --    4.39690   4.39978   4.66253   4.71922   4.71923
  Beta virt. eigenvalues --    4.84204   4.84205   4.84278   5.08347   5.11398
  Beta virt. eigenvalues --    5.11400   5.37692   5.47695   5.47698   5.62510
  Beta virt. eigenvalues --    5.78772   6.02560   6.02565   6.53954   6.53956
  Beta virt. eigenvalues --   16.30535
          Condensed to atoms (all electrons):
               1          2          3          4
     1  C    6.002433   0.352867   0.352871   0.352863
     2  H    0.352867   0.277538   0.007957   0.007958
     3  H    0.352871   0.007957   0.277543   0.007958
     4  H    0.352863   0.007958   0.007958   0.277535
          Atomic-Atomic Spin Densities.
               1          2          3          4
     1  C    1.136688  -0.013335  -0.013336  -0.013335
     2  H   -0.013335  -0.031031   0.006070   0.006069
     3  H   -0.013336   0.006070  -0.031034   0.006069
     4  H   -0.013335   0.006069   0.006069  -0.031028
 Mulliken charges and spin densities:
               1          2
     1  C   -1.061035   1.096682
     2  H    0.353679  -0.032227
     3  H    0.353671  -0.032230
     4  H    0.353685  -0.032225
 Sum of Mulliken charges =  -0.00000   1.00000
 Mulliken charges and spin densities with hydrogens summed into heavy atoms:
               1          2
     1  C   -0.000000   1.000000
 Electronic spatial extent (au):  <R**2>=             29.9440
 Charge=             -0.0000 electrons
 Dipole moment (field-independent basis, Debye):
    X=              0.0000    Y=              0.0000    Z=              0.5967  Tot=              0.5967
 Quadrupole moment (field-independent basis, Debye-Ang):
   XX=             -7.5851   YY=             -7.5853   ZZ=             -8.5604
   XY=             -0.0000   XZ=              0.0000   YZ=              0.0000
 Traceless Quadrupole moment (field-independent basis, Debye-Ang):
   XX=              0.3251   YY=              0.3250   ZZ=             -0.6501
   XY=             -0.0000   XZ=              0.0000   YZ=              0.0000
 Octapole moment (field-independent basis, Debye-Ang**2):
  XXX=             -0.6057  YYY=              0.1972  ZZZ=              1.0190  XYY=              0.6057
  XXY=             -0.1972  XXZ=              0.6455  XZZ=              0.0000  YZZ=             -0.0000
  YYZ=              0.6455  XYZ=             -0.0000
 Hexadecapole moment (field-independent basis, Debye-Ang**3):
 XXXX=            -15.1047 YYYY=            -15.1047 ZZZZ=            -11.6072 XXXY=             -0.0000
 XXXZ=             -0.3346 YYYX=              0.0000 YYYZ=              0.1089 ZZZX=             -0.0000
 ZZZY=             -0.0000 XXYY=             -5.0349 XXZZ=             -4.5409 YYZZ=             -4.5409
 XXYZ=             -0.1089 YYXZ=              0.3345 ZZXY=             -0.0000
 N-N= 9.613403870646D+00 E-N=-1.109311813725D+02  KE= 3.950074368726D+01
 Unable to Open any file for archive entry.
 1\1\GINC-TMJ\SP\UCCSD-FC\Aug-CC-pVTZ\C1H3(2)\TMJ\25-Jun-2024\0\\# ccsd
 /aug-cc-pvtz\\Title Card Required\\0,2\C,0,-0.0127,1.0858,0.008\H,0,0.
 00215,-0.00603,0.00198\H,0,1.01173,1.46375,0.00028\H,0,-0.52381,1.4379
 3,0.9064\\Version=ES64L-G16RevC.01\State=2-A\HF=-39.5670271\MP2=-39.72
 73047\MP3=-39.7451281\MP4D=-39.749508\MP4DQ=-39.7463297\PUHF=-39.56926
 4\PMP2-0=-39.7287269\PMP3-0=-39.7459678\MP4SDQ=-39.7471145\CCSD=-39.74
 76283\S2=0.758351\S2-1=0.752247\S2A=0.750048\RMSD=2.542e-09\PG=C01 [X(
 C1H3)]\\@
 The archive entry for this job was punched.


 AND HERE I AM, FOR ALL MY LORE,
 THE WRETCHED FOOL I WAS BEFORE.
 CALLED MASTER OF ARTS, AND DOCTOR TO BOOT,
 FOR TEN YEARS ALMOST I CONFUTE
 AND UP AND DOWN, WHEREVER IT GOES
 I DRAG MY STUDENTS BY THE NOSE --
 AND SEE THAT FOR ALL OUR SCIENCE AND ART
 WE CAN KNOW NOTHING.  IT BURNS MY HEART.

                                       -- FAUST
 Job cpu time:       0 days  2 hours  7 minutes 46.6 seconds.
 Elapsed time:       0 days  0 hours  4 minutes 35.6 seconds.
 File lengths (MBytes):  RWF=    480 Int=      0 D2E=      0 Chk=      2 Scr=      1
 Normal termination of Gaussian 16 at Tue Jun 25 16:35:46 2024.
