 Entering Gaussian System, Link 0=/public3/home/scg5914/software-scg5914/g16/g16
 Input=dsgdb9nsd_004669-4.gjf
 Output=dsgdb9nsd_004669-4.log
 Initial command:
 /public3/home/scg5914/software-scg5914/g16/l1.exe "/public3/home/scg5914/software-scg5914/test/tmp/dsgdb9nsd_004669-4/Gau-123004.inp" -scrdir="/public3/home/scg5914/software-scg5914/test/tmp/dsgdb9nsd_004669-4/"
 Entering Link 1 = /public3/home/scg5914/software-scg5914/g16/l1.exe PID=    123005.
  
 Copyright (c) 1988-2019, Gaussian, Inc.  All Rights Reserved.
  
 This is part of the Gaussian(R) 16 program.  It is based on
 the Gaussian(R) 09 system (copyright 2009, Gaussian, Inc.),
 the Gaussian(R) 03 system (copyright 2003, Gaussian, Inc.),
 the Gaussian(R) 98 system (copyright 1998, Gaussian, Inc.),
 the Gaussian(R) 94 system (copyright 1995, Gaussian, Inc.),
 the Gaussian 92(TM) system (copyright 1992, Gaussian, Inc.),
 the Gaussian 90(TM) system (copyright 1990, Gaussian, Inc.),
 the Gaussian 88(TM) system (copyright 1988, Gaussian, Inc.),
 the Gaussian 86(TM) system (copyright 1986, Carnegie Mellon
 University), and the Gaussian 82(TM) system (copyright 1983,
 Carnegie Mellon University). Gaussian is a federally registered
 trademark of Gaussian, Inc.
  
 This software contains proprietary and confidential information,
 including trade secrets, belonging to Gaussian, Inc.
  
 This software is provided under written license and may be
 used, copied, transmitted, or stored only in accord with that
 written license.
  
 The following legend is applicable only to US Government
 contracts under FAR:
  
                    RESTRICTED RIGHTS LEGEND
  
 Use, reproduction and disclosure by the US Government is
 subject to restrictions as set forth in subparagraphs (a)
 and (c) of the Commercial Computer Software - Restricted
 Rights clause in FAR 52.227-19.
  
 Gaussian, Inc.
 340 Quinnipiac St., Bldg. 40, Wallingford CT 06492
  
  
 ---------------------------------------------------------------
 Warning -- This program may not be used in any manner that
 competes with the business of Gaussian, Inc. or will provide
 assistance to any competitor of Gaussian, Inc.  The licensee
 of this program is prohibited from giving any competitor of
 Gaussian, Inc. access to this program.  By using this program,
 the user acknowledges that Gaussian, Inc. is engaged in the
 business of creating and licensing software in the field of
 computational chemistry and represents and warrants to the
 licensee that it is not a competitor of Gaussian, Inc. and that
 it will not use this program in any manner prohibited above.
 ---------------------------------------------------------------
  

 Cite this work as:
 Gaussian 16, Revision C.01,
 M. J. Frisch, G. W. Trucks, H. B. Schlegel, G. E. Scuseria, 
 M. A. Robb, J. R. Cheeseman, G. Scalmani, V. Barone, 
 G. A. Petersson, H. Nakatsuji, X. Li, M. Caricato, A. V. Marenich, 
 J. Bloino, B. G. Janesko, R. Gomperts, B. Mennucci, H. P. Hratchian, 
 J. V. Ortiz, A. F. Izmaylov, J. L. Sonnenberg, D. Williams-Young, 
 F. Ding, F. Lipparini, F. Egidi, J. Goings, B. Peng, A. Petrone, 
 T. Henderson, D. Ranasinghe, V. G. Zakrzewski, J. Gao, N. Rega, 
 G. Zheng, W. Liang, M. Hada, M. Ehara, K. Toyota, R. Fukuda, 
 J. Hasegawa, M. Ishida, T. Nakajima, Y. Honda, O. Kitao, H. Nakai, 
 T. Vreven, K. Throssell, J. A. Montgomery, Jr., J. E. Peralta, 
 F. Ogliaro, M. J. Bearpark, J. J. Heyd, E. N. Brothers, K. N. Kudin, 
 V. N. Staroverov, T. A. Keith, R. Kobayashi, J. Normand, 
 K. Raghavachari, A. P. Rendell, J. C. Burant, S. S. Iyengar, 
 J. Tomasi, M. Cossi, J. M. Millam, M. Klene, C. Adamo, R. Cammi, 
 J. W. Ochterski, R. L. Martin, K. Morokuma, O. Farkas, 
 J. B. Foresman, and D. J. Fox, Gaussian, Inc., Wallingford CT, 2019.
 
 ******************************************
 Gaussian 16:  ES64L-G16RevC.01  3-Jul-2019
                27-Aug-2022 
 ******************************************
 %chk=dsgdb9nsd_004669-4.chk
 %mem=60GB
 %nprocshared=32
 Will use up to   32 processors via shared memory.
 ------------------------------------
 #p opt freq b3lyp/6-311+g** em=gd3bj
 ------------------------------------
 1/18=20,19=15,26=3,38=1/1,3;
 2/9=110,12=2,17=6,18=5,40=1/2;
 3/5=4,6=6,7=111,11=2,25=1,30=1,71=1,74=-5,124=41/1,2,3;
 4//1;
 5/5=2,38=5/2;
 6/7=2,8=2,9=2,10=2,28=1/1;
 7//1,2,3,16;
 1/18=20,19=15,26=3/3(2);
 2/9=110/2;
 99//99;
 2/9=110/2;
 3/5=4,6=6,7=111,11=2,25=1,30=1,71=1,74=-5,124=41/1,2,3;
 4/5=5,16=3,69=1/1;
 5/5=2,38=5/2;
 7//1,2,3,16;
 1/18=20,19=15,26=3/3(-5);
 2/9=110/2;
 6/7=2,8=2,9=2,10=2,19=2,28=1/1;
 99/9=1/99;
 Leave Link    1 at Sat Aug 27 16:04:13 2022, MaxMem=  8053063680 cpu:               1.0 elap:               0.0
 (Enter /public3/home/scg5914/software-scg5914/g16/l101.exe)
 ------------------
 dsgdb9nsd_004669-4
 ------------------
 Symbolic Z-matrix:
 Charge =  0 Multiplicity = 2
 O                     0.10582   1.30738   0.17228 
 C                     0.07212  -0.02232   0.02006 
 N                     0.09562  -0.69434  -1.09084 
 C                     0.03981  -2.02694  -0.69308 
 C                     0.04209  -3.16583  -1.60643 
 O                     0.09236  -3.11037  -2.81268 
 C                    -0.01592  -2.11584   0.67836 
 N                     0.00453  -0.81653   1.13156 
 H                     0.15159   1.68368  -0.71659 
 H                    -0.00878  -4.14442  -1.0735 
 H                    -0.06667  -2.95801   1.34837 
 
 ITRead=  0  0  0  0  0  0  0  0  0  0  0
 MicOpt= -1 -1 -1 -1 -1 -1 -1 -1 -1 -1 -1
 NAtoms=     11 NQM=       11 NQMF=       0 NMMI=      0 NMMIF=      0
                NMic=       0 NMicF=      0.
                    Isotopes and Nuclear Properties:
 (Nuclear quadrupole moments (NQMom) in fm**2, nuclear magnetic moments (NMagM)
  in nuclear magnetons)

  Atom         1           2           3           4           5           6           7           8           9          10
 IAtWgt=          16          12          14          12          12          16          12          14           1           1
 AtmWgt=  15.9949146  12.0000000  14.0030740  12.0000000  12.0000000  15.9949146  12.0000000  14.0030740   1.0078250   1.0078250
 NucSpn=           0           0           2           0           0           0           0           2           1           1
 AtZEff=  -0.0000000  -0.0000000  -0.0000000  -0.0000000  -0.0000000  -0.0000000  -0.0000000  -0.0000000  -0.0000000  -0.0000000
 NQMom=    0.0000000   0.0000000   2.0440000   0.0000000   0.0000000   0.0000000   0.0000000   2.0440000   0.0000000   0.0000000
 NMagM=    0.0000000   0.0000000   0.4037610   0.0000000   0.0000000   0.0000000   0.0000000   0.4037610   2.7928460   2.7928460
 AtZNuc=   8.0000000   6.0000000   7.0000000   6.0000000   6.0000000   8.0000000   6.0000000   7.0000000   1.0000000   1.0000000

  Atom        11
 IAtWgt=           1
 AtmWgt=   1.0078250
 NucSpn=           1
 AtZEff=  -0.0000000
 NQMom=    0.0000000
 NMagM=    2.7928460
 AtZNuc=   1.0000000
 Leave Link  101 at Sat Aug 27 16:04:13 2022, MaxMem=  8053063680 cpu:               4.7 elap:               0.2
 (Enter /public3/home/scg5914/software-scg5914/g16/l103.exe)

 GradGradGradGradGradGradGradGradGradGradGradGradGradGradGradGradGradGrad
 Berny optimization.
 Initialization pass.
                           ----------------------------
                           !    Initial Parameters    !
                           ! (Angstroms and Degrees)  !
 --------------------------                            --------------------------
 ! Name  Definition              Value          Derivative Info.                !
 --------------------------------------------------------------------------------
 ! R1    R(1,2)                  1.3388         estimate D2E/DX2                !
 ! R2    R(1,9)                  0.9663         estimate D2E/DX2                !
 ! R3    R(2,3)                  1.2986         estimate D2E/DX2                !
 ! R4    R(2,8)                  1.3678         estimate D2E/DX2                !
 ! R5    R(3,4)                  1.3918         estimate D2E/DX2                !
 ! R6    R(4,5)                  1.4599         estimate D2E/DX2                !
 ! R7    R(4,7)                  1.3754         estimate D2E/DX2                !
 ! R8    R(5,6)                  1.2086         estimate D2E/DX2                !
 ! R9    R(5,10)                 1.1155         estimate D2E/DX2                !
 ! R10   R(7,8)                  1.3762         estimate D2E/DX2                !
 ! R11   R(7,11)                 1.0774         estimate D2E/DX2                !
 ! A1    A(2,1,9)              106.4614         estimate D2E/DX2                !
 ! A2    A(1,2,3)              127.6478         estimate D2E/DX2                !
 ! A3    A(1,2,8)              119.0491         estimate D2E/DX2                !
 ! A4    A(3,2,8)              113.3031         estimate D2E/DX2                !
 ! A5    A(2,3,4)              104.4946         estimate D2E/DX2                !
 ! A6    A(3,4,5)              124.6158         estimate D2E/DX2                !
 ! A7    A(3,4,7)              110.3927         estimate D2E/DX2                !
 ! A8    A(5,4,7)              124.9914         estimate D2E/DX2                !
 ! A9    A(4,5,6)              126.0645         estimate D2E/DX2                !
 ! A10   A(4,5,10)             112.6697         estimate D2E/DX2                !
 ! A11   A(6,5,10)             121.2658         estimate D2E/DX2                !
 ! A12   A(4,7,8)              105.4696         estimate D2E/DX2                !
 ! A13   A(4,7,11)             132.2605         estimate D2E/DX2                !
 ! A14   A(8,7,11)             122.2699         estimate D2E/DX2                !
 ! A15   A(2,8,7)              106.34           estimate D2E/DX2                !
 ! D1    D(9,1,2,3)              0.018          estimate D2E/DX2                !
 ! D2    D(9,1,2,8)           -179.9661         estimate D2E/DX2                !
 ! D3    D(1,2,3,4)           -179.9799         estimate D2E/DX2                !
 ! D4    D(8,2,3,4)              0.005          estimate D2E/DX2                !
 ! D5    D(1,2,8,7)           -179.9804         estimate D2E/DX2                !
 ! D6    D(3,2,8,7)              0.0332         estimate D2E/DX2                !
 ! D7    D(2,3,4,5)           -179.9703         estimate D2E/DX2                !
 ! D8    D(2,3,4,7)             -0.0423         estimate D2E/DX2                !
 ! D9    D(3,4,5,6)              0.0299         estimate D2E/DX2                !
 ! D10   D(3,4,5,10)          -179.9845         estimate D2E/DX2                !
 ! D11   D(7,4,5,6)           -179.8877         estimate D2E/DX2                !
 ! D12   D(7,4,5,10)             0.0979         estimate D2E/DX2                !
 ! D13   D(3,4,7,8)              0.0621         estimate D2E/DX2                !
 ! D14   D(3,4,7,11)          -179.949          estimate D2E/DX2                !
 ! D15   D(5,4,7,8)            179.9898         estimate D2E/DX2                !
 ! D16   D(5,4,7,11)            -0.0213         estimate D2E/DX2                !
 ! D17   D(4,7,8,2)             -0.0564         estimate D2E/DX2                !
 ! D18   D(11,7,8,2)           179.9533         estimate D2E/DX2                !
 --------------------------------------------------------------------------------
 Trust Radius=3.00D-01 FncErr=1.00D-07 GrdErr=1.00D-06 EigMax=2.50D+02 EigMin=1.00D-04
 Number of steps in this run=     54 maximum allowed number of steps=    100.
 GradGradGradGradGradGradGradGradGradGradGradGradGradGradGradGradGradGrad

 Leave Link  103 at Sat Aug 27 16:04:13 2022, MaxMem=  8053063680 cpu:               0.2 elap:               0.0
 (Enter /public3/home/scg5914/software-scg5914/g16/l202.exe)
                          Input orientation:                          
 ---------------------------------------------------------------------
 Center     Atomic      Atomic             Coordinates (Angstroms)
 Number     Number       Type             X           Y           Z
 ---------------------------------------------------------------------
      1          8           0        0.105816    1.307379    0.172284
      2          6           0        0.072122   -0.022323    0.020059
      3          7           0        0.095622   -0.694343   -1.090836
      4          6           0        0.039811   -2.026945   -0.693080
      5          6           0        0.042089   -3.165828   -1.606431
      6          8           0        0.092364   -3.110367   -2.812684
      7          6           0       -0.015921   -2.115837    0.678357
      8          7           0        0.004534   -0.816531    1.131556
      9          1           0        0.151590    1.683683   -0.716591
     10          1           0       -0.008779   -4.144420   -1.073498
     11          1           0       -0.066670   -2.958013    1.348365
 ---------------------------------------------------------------------
                    Distance matrix (angstroms):
                    1          2          3          4          5
     1  O    0.000000
     2  C    1.338811   0.000000
     3  N    2.366953   1.298557   0.000000
     4  C    3.445421   2.127938   1.391816   0.000000
     5  C    4.814299   3.539491   2.525261   1.459887   0.000000
     6  O    5.331669   4.190568   2.966807   2.381026   1.208574
     7  C    3.462563   2.196340   2.272253   1.375445   2.515174
     8  N    2.332693   1.367758   2.227612   2.189896   3.607933
     9  H    0.966332   1.859952   2.407945   3.712385   4.931690
    10  H    5.593498   4.265454   3.451700   2.151925   1.115458
    11  H    4.427922   3.225204   3.331703   2.246269   2.964091
                    6          7          8          9         10
     6  O    0.000000
     7  C    3.631554   0.000000
     8  N    4.563598   1.376228   0.000000
     9  H    5.232593   4.050962   3.112610   0.000000
    10  H    2.025898   2.680335   3.992153   5.841223   0.000000
    11  H    4.166873   1.077379   2.153607   5.084980   2.697468
                   11
    11  H    0.000000
 Stoichiometry    C4H3N2O2(2)
 Framework group  C1[X(C4H3N2O2)]
 Deg. of freedom    27
 Full point group                 C1      NOp   1
 Largest Abelian subgroup         C1      NOp   1
 Largest concise Abelian subgroup C1      NOp   1
                         Standard orientation:                         
 ---------------------------------------------------------------------
 Center     Atomic      Atomic             Coordinates (Angstroms)
 Number     Number       Type             X           Y           Z
 ---------------------------------------------------------------------
      1          8           0       -2.581449   -0.821533   -0.000140
      2          6           0       -1.382434   -0.225901   -0.000066
      3          7           0       -0.214658   -0.793837    0.000227
      4          6           0        0.687961    0.265612    0.000637
      5          6           0        2.140338    0.117721    0.000447
      6          8           0        2.749191   -0.926284   -0.000593
      7          6           0        0.017414    1.466534   -0.000376
      8          7           0       -1.319616    1.140413    0.000012
      9          1           0       -2.414390   -1.773315    0.000361
     10          1           0        2.672313    1.098154    0.001131
     11          1           0        0.360381    2.487866   -0.001151
 ---------------------------------------------------------------------
 Rotational constants (GHZ):           5.6572722           1.4458106           1.1515204
 Leave Link  202 at Sat Aug 27 16:04:13 2022, MaxMem=  8053063680 cpu:               0.2 elap:               0.0
 (Enter /public3/home/scg5914/software-scg5914/g16/l301.exe)
 Standard basis: 6-311+G(d,p) (5D, 7F)
 Ernie: Thresh=  0.10000D-02 Tol=  0.10000D-05 Strict=F.
 There are   202 symmetry adapted cartesian basis functions of A   symmetry.
 There are   194 symmetry adapted basis functions of A   symmetry.
   194 basis functions,   312 primitive gaussians,   202 cartesian basis functions
    29 alpha electrons       28 beta electrons
       nuclear repulsion energy       335.8695376852 Hartrees.
 IExCor=  402 DFT=T Ex+Corr=B3LYP ExCW=0 ScaHFX=  0.200000
 ScaDFX=  0.800000  0.720000  1.000000  0.810000 ScalE2=  1.000000  1.000000
 IRadAn=      5 IRanWt=     -1 IRanGd=            0 ICorTp=0 IEmpDi=141
 NAtoms=   11 NActive=   11 NUniq=   11 SFac= 1.00D+00 NAtFMM=   60 NAOKFM=F Big=F
 Integral buffers will be    131072 words long.
 Raffenetti 2 integral format.
 Two-electron integral symmetry is turned on.
 R6Disp:  Grimme-D3(BJ) Dispersion energy=       -0.0166423811 Hartrees.
 Nuclear repulsion after empirical dispersion term =      335.8528953041 Hartrees.
 Leave Link  301 at Sat Aug 27 16:04:13 2022, MaxMem=  8053063680 cpu:               1.0 elap:               0.0
 (Enter /public3/home/scg5914/software-scg5914/g16/l302.exe)
 NPDir=0 NMtPBC=     1 NCelOv=     1 NCel=       1 NClECP=     1 NCelD=      1
         NCelK=      1 NCelE2=     1 NClLst=     1 CellRange=     0.0.
 One-electron integrals computed using PRISM.
 One-electron integral symmetry used in STVInt
 NBasis=   194 RedAO= T EigKep=  1.21D-05  NBF=   194
 NBsUse=   194 1.00D-06 EigRej= -1.00D+00 NBFU=   194
 Precomputing XC quadrature grid using
 IXCGrd= 4 IRadAn=           5 IRanWt=          -1 IRanGd=           0 AccXCQ= 0.00D+00.
 Generated NRdTot=       0 NPtTot=           0 NUsed=           0 NTot=          32
 NSgBfM=   202   202   202   202   202 MxSgAt=    11 MxSgA2=    11.
 Leave Link  302 at Sat Aug 27 16:04:14 2022, MaxMem=  8053063680 cpu:               3.5 elap:               0.1
 (Enter /public3/home/scg5914/software-scg5914/g16/l303.exe)
 DipDrv:  MaxL=1.
 Leave Link  303 at Sat Aug 27 16:04:14 2022, MaxMem=  8053063680 cpu:               0.5 elap:               0.0
 (Enter /public3/home/scg5914/software-scg5914/g16/l401.exe)
 ExpMin= 4.38D-02 ExpMax= 8.59D+03 ExpMxC= 1.30D+03 IAcc=3 IRadAn=         5 AccDes= 0.00D+00
 Harris functional with IExCor=  402 and IRadAn=       5 diagonalized for initial guess.
 HarFok:  IExCor=  402 AccDes= 0.00D+00 IRadAn=         5 IDoV= 1 UseB2=F ITyADJ=14
 ICtDFT=  3500011 ScaDFX=  1.000000  1.000000  1.000000  1.000000
 FoFCou: FMM=F IPFlag=           0 FMFlag=      100000 FMFlg1=           0
         NFxFlg=           0 DoJE=T BraDBF=F KetDBF=T FulRan=T
         wScrn=  0.000000 ICntrl=       500 IOpCl=  0 I1Cent=   200000004 NGrid=           0
         NMat0=    1 NMatS0=      1 NMatT0=    0 NMatD0=    1 NMtDS0=    0 NMtDT0=    0
 Petite list used in FoFCou.
 Harris En= -414.218316388364    
 JPrj=0 DoOrth=F DoCkMO=F.
 Initial guess <Sx>= 0.0000 <Sy>= 0.0000 <Sz>= 0.5000 <S**2>= 0.7500 S= 0.5000
 Leave Link  401 at Sat Aug 27 16:04:14 2022, MaxMem=  8053063680 cpu:               8.7 elap:               0.3
 (Enter /public3/home/scg5914/software-scg5914/g16/l502.exe)
 Keep R1 and R2 ints in memory in canonical form, NReq=390765352.
 FoFCou: FMM=F IPFlag=           0 FMFlag=           0 FMFlg1=           0
         NFxFlg=           0 DoJE=F BraDBF=F KetDBF=F FulRan=T
         wScrn=  0.000000 ICntrl=       600 IOpCl=  0 I1Cent=           0 NGrid=           0
         NMat0=    1 NMatS0=  18915 NMatT0=    0 NMatD0=    1 NMtDS0=    0 NMtDT0=    0
 Symmetry not used in FoFCou.
 Two-electron integral symmetry not used.
 UHF open shell SCF:
 Using DIIS extrapolation, IDIIS=  1040.
 NGot=  8053063680 LenX=  7695177264 LenY=  7695136019
 Requested convergence on RMS density matrix=1.00D-08 within 128 cycles.
 Requested convergence on MAX density matrix=1.00D-06.
 Requested convergence on             energy=1.00D-06.
 No special actions if energy rises.

 Cycle   1  Pass 1  IDiag  1:
 E= -414.075049227587    
 DIIS: error= 4.55D-02 at cycle   1 NSaved=   1.
 NSaved= 1 IEnMin= 1 EnMin= -414.075049227587     IErMin= 1 ErrMin= 4.55D-02
 ErrMax= 4.55D-02  0.00D+00 EMaxC= 1.00D-01 BMatC= 9.27D-01 BMatP= 9.27D-01
 IDIUse=3 WtCom= 5.45D-01 WtEn= 4.55D-01
 Coeff-Com:  0.100D+01
 Coeff-En:   0.100D+01
 Coeff:      0.100D+01
 Gap=     0.213 Goal=   None    Shift=    0.000
 Gap=     0.015 Goal=   None    Shift=    0.000
 GapD=    0.015 DampG=0.250 DampE=0.500 DampFc=0.2500 IDamp=-1.
 Damping current iteration by 2.50D-01
 RMSDP=1.48D-02 MaxDP=1.22D+00              OVMax= 9.51D-01

 Cycle   2  Pass 1  IDiag  1:
 E= -414.107367274788     Delta-E=       -0.032318047200 Rises=F Damp=T
 DIIS: error= 2.28D-02 at cycle   2 NSaved=   2.
 NSaved= 2 IEnMin= 2 EnMin= -414.107367274788     IErMin= 2 ErrMin= 2.28D-02
 ErrMax= 2.28D-02  0.00D+00 EMaxC= 1.00D-01 BMatC= 1.93D-01 BMatP= 9.27D-01
 IDIUse=3 WtCom= 7.72D-01 WtEn= 2.28D-01
 Coeff-Com: -0.247D+00 0.125D+01
 Coeff-En:   0.278D+00 0.722D+00
 Coeff:     -0.127D+00 0.113D+01
 Gap=     0.356 Goal=   None    Shift=    0.000
 Gap=    -0.127 Goal=   None    Shift=    0.000
 RMSDP=4.97D-03 MaxDP=2.68D-01 DE=-3.23D-02 OVMax= 8.33D-01

 Cycle   3  Pass 1  IDiag  1:
 E= -414.127384949419     Delta-E=       -0.020017674631 Rises=F Damp=F
 DIIS: error= 3.59D-02 at cycle   3 NSaved=   3.
 NSaved= 3 IEnMin= 3 EnMin= -414.127384949419     IErMin= 2 ErrMin= 2.28D-02
 ErrMax= 3.59D-02  0.00D+00 EMaxC= 1.00D-01 BMatC= 4.55D-01 BMatP= 1.93D-01
 IDIUse=2 WtCom= 0.00D+00 WtEn= 1.00D+00
 Coeff-En:   0.000D+00 0.432D+00 0.568D+00
 Coeff:      0.000D+00 0.432D+00 0.568D+00
 Gap=     0.246 Goal=   None    Shift=    0.000
 Gap=     0.100 Goal=   None    Shift=    0.000
 RMSDP=5.77D-03 MaxDP=2.68D-01 DE=-2.00D-02 OVMax= 9.60D-01

 Cycle   4  Pass 1  IDiag  1:
 E= -413.779552633259     Delta-E=        0.347832316160 Rises=F Damp=F
 DIIS: error= 7.19D-02 at cycle   4 NSaved=   4.
 NSaved= 4 IEnMin= 3 EnMin= -414.127384949419     IErMin= 2 ErrMin= 2.28D-02
 ErrMax= 7.19D-02  0.00D+00 EMaxC= 1.00D-01 BMatC= 1.59D+00 BMatP= 1.93D-01
 IDIUse=2 WtCom= 0.00D+00 WtEn= 1.00D+00
 EnCoef did     2 forward-backward iterations
 Coeff-En:   0.354D-01 0.000D+00 0.704D+00 0.261D+00
 Coeff:      0.354D-01 0.000D+00 0.704D+00 0.261D+00
 Gap=     0.218 Goal=   None    Shift=    0.000
 Gap=    -0.028 Goal=   None    Shift=    0.000
 RMSDP=4.96D-03 MaxDP=2.47D-01 DE= 3.48D-01 OVMax= 9.91D-01

 Cycle   5  Pass 1  IDiag  1:
 E= -414.224233558623     Delta-E=       -0.444680925365 Rises=F Damp=F
 DIIS: error= 1.11D-02 at cycle   5 NSaved=   5.
 NSaved= 5 IEnMin= 5 EnMin= -414.224233558623     IErMin= 5 ErrMin= 1.11D-02
 ErrMax= 1.11D-02  0.00D+00 EMaxC= 1.00D-01 BMatC= 6.48D-02 BMatP= 1.93D-01
 IDIUse=3 WtCom= 8.89D-01 WtEn= 1.11D-01
 Coeff-Com: -0.206D+00 0.360D+00 0.276D+00 0.681D-02 0.563D+00
 Coeff-En:   0.000D+00 0.000D+00 0.738D-02 0.000D+00 0.993D+00
 Coeff:     -0.184D+00 0.320D+00 0.246D+00 0.606D-02 0.611D+00
 Gap=     0.198 Goal=   None    Shift=    0.000
 Gap=     0.068 Goal=   None    Shift=    0.000
 RMSDP=1.14D-03 MaxDP=3.99D-02 DE=-4.45D-01 OVMax= 3.72D-02

 Cycle   6  Pass 1  IDiag  1:
 E= -414.233825895307     Delta-E=       -0.009592336684 Rises=F Damp=F
 DIIS: error= 5.48D-03 at cycle   6 NSaved=   6.
 NSaved= 6 IEnMin= 6 EnMin= -414.233825895307     IErMin= 6 ErrMin= 5.48D-03
 ErrMax= 5.48D-03  0.00D+00 EMaxC= 1.00D-01 BMatC= 1.15D-02 BMatP= 6.48D-02
 IDIUse=3 WtCom= 9.45D-01 WtEn= 5.48D-02
 Coeff-Com: -0.128D+00 0.185D+00 0.984D-01-0.370D-02 0.374D+00 0.474D+00
 Coeff-En:   0.000D+00 0.000D+00 0.000D+00 0.000D+00 0.815D-01 0.919D+00
 Coeff:     -0.121D+00 0.175D+00 0.930D-01-0.350D-02 0.358D+00 0.498D+00
 Gap=     0.198 Goal=   None    Shift=    0.000
 Gap=     0.071 Goal=   None    Shift=    0.000
 RMSDP=3.79D-04 MaxDP=2.07D-02 DE=-9.59D-03 OVMax= 2.46D-02

 Cycle   7  Pass 1  IDiag  1:
 E= -414.236145423500     Delta-E=       -0.002319528193 Rises=F Damp=F
 DIIS: error= 1.40D-03 at cycle   7 NSaved=   7.
 NSaved= 7 IEnMin= 7 EnMin= -414.236145423500     IErMin= 7 ErrMin= 1.40D-03
 ErrMax= 1.40D-03  0.00D+00 EMaxC= 1.00D-01 BMatC= 7.53D-04 BMatP= 1.15D-02
 IDIUse=3 WtCom= 9.86D-01 WtEn= 1.40D-02
 Coeff-Com: -0.131D-01 0.166D-01-0.101D-01 0.509D-02 0.102D-01 0.214D+00
 Coeff-Com:  0.777D+00
 Coeff-En:   0.000D+00 0.000D+00 0.000D+00 0.000D+00 0.000D+00 0.000D+00
 Coeff-En:   0.100D+01
 Coeff:     -0.129D-01 0.163D-01-0.999D-02 0.502D-02 0.101D-01 0.211D+00
 Coeff:      0.780D+00
 Gap=     0.200 Goal=   None    Shift=    0.000
 Gap=     0.077 Goal=   None    Shift=    0.000
 RMSDP=2.14D-04 MaxDP=1.20D-02 DE=-2.32D-03 OVMax= 1.09D-02

 Cycle   8  Pass 1  IDiag  1:
 E= -414.236405281243     Delta-E=       -0.000259857742 Rises=F Damp=F
 DIIS: error= 1.07D-03 at cycle   8 NSaved=   8.
 NSaved= 8 IEnMin= 8 EnMin= -414.236405281243     IErMin= 8 ErrMin= 1.07D-03
 ErrMax= 1.07D-03  0.00D+00 EMaxC= 1.00D-01 BMatC= 1.54D-04 BMatP= 7.53D-04
 IDIUse=3 WtCom= 9.89D-01 WtEn= 1.07D-02
 Coeff-Com:  0.117D-01-0.167D-01-0.222D-01 0.332D-02-0.547D-01 0.419D-01
 Coeff-Com:  0.400D+00 0.636D+00
 Coeff-En:   0.000D+00 0.000D+00 0.000D+00 0.000D+00 0.000D+00 0.000D+00
 Coeff-En:   0.000D+00 0.100D+01
 Coeff:      0.116D-01-0.165D-01-0.219D-01 0.329D-02-0.542D-01 0.415D-01
 Coeff:      0.396D+00 0.640D+00
 Gap=     0.201 Goal=   None    Shift=    0.000
 Gap=     0.078 Goal=   None    Shift=    0.000
 RMSDP=9.49D-05 MaxDP=4.76D-03 DE=-2.60D-04 OVMax= 1.62D-02

 Cycle   9  Pass 1  IDiag  1:
 E= -414.236488460193     Delta-E=       -0.000083178950 Rises=F Damp=F
 DIIS: error= 5.88D-04 at cycle   9 NSaved=   9.
 NSaved= 9 IEnMin= 9 EnMin= -414.236488460193     IErMin= 9 ErrMin= 5.88D-04
 ErrMax= 5.88D-04  0.00D+00 EMaxC= 1.00D-01 BMatC= 9.00D-05 BMatP= 1.54D-04
 IDIUse=3 WtCom= 9.94D-01 WtEn= 5.88D-03
 Coeff-Com:  0.780D-02-0.107D-01-0.113D-02 0.420D-03-0.124D-01-0.538D-01
 Coeff-Com: -0.200D+00 0.446D+00 0.824D+00
 Coeff-En:   0.000D+00 0.000D+00 0.000D+00 0.000D+00 0.000D+00 0.000D+00
 Coeff-En:   0.000D+00 0.000D+00 0.100D+01
 Coeff:      0.776D-02-0.107D-01-0.113D-02 0.418D-03-0.123D-01-0.535D-01
 Coeff:     -0.199D+00 0.443D+00 0.825D+00
 Gap=     0.201 Goal=   None    Shift=    0.000
 Gap=     0.079 Goal=   None    Shift=    0.000
 RMSDP=8.91D-05 MaxDP=4.02D-03 DE=-8.32D-05 OVMax= 1.00D-02

 Cycle  10  Pass 1  IDiag  1:
 E= -414.236539102928     Delta-E=       -0.000050642735 Rises=F Damp=F
 DIIS: error= 2.54D-04 at cycle  10 NSaved=  10.
 NSaved=10 IEnMin=10 EnMin= -414.236539102928     IErMin=10 ErrMin= 2.54D-04
 ErrMax= 2.54D-04  0.00D+00 EMaxC= 1.00D-01 BMatC= 1.70D-05 BMatP= 9.00D-05
 IDIUse=3 WtCom= 9.97D-01 WtEn= 2.54D-03
 Coeff-Com:  0.824D-03-0.356D-03 0.446D-02-0.933D-03 0.505D-02-0.316D-01
 Coeff-Com: -0.174D+00 0.180D+00 0.326D+00 0.691D+00
 Coeff-En:   0.000D+00 0.000D+00 0.000D+00 0.000D+00 0.000D+00 0.000D+00
 Coeff-En:   0.000D+00 0.000D+00 0.000D+00 0.100D+01
 Coeff:      0.822D-03-0.355D-03 0.445D-02-0.930D-03 0.504D-02-0.315D-01
 Coeff:     -0.173D+00 0.179D+00 0.325D+00 0.692D+00
 Gap=     0.201 Goal=   None    Shift=    0.000
 Gap=     0.079 Goal=   None    Shift=    0.000
 RMSDP=3.55D-05 MaxDP=1.72D-03 DE=-5.06D-05 OVMax= 6.30D-03

 Cycle  11  Pass 1  IDiag  1:
 E= -414.236551843332     Delta-E=       -0.000012740404 Rises=F Damp=F
 DIIS: error= 2.76D-04 at cycle  11 NSaved=  11.
 NSaved=11 IEnMin=11 EnMin= -414.236551843332     IErMin=10 ErrMin= 2.54D-04
 ErrMax= 2.76D-04  0.00D+00 EMaxC= 1.00D-01 BMatC= 1.56D-05 BMatP= 1.70D-05
 IDIUse=3 WtCom= 9.97D-01 WtEn= 2.54D-03
 Coeff-Com: -0.151D-02 0.177D-02 0.392D-02-0.650D-03 0.980D-02 0.445D-02
 Coeff-Com: -0.349D-01-0.391D-01-0.265D+00 0.589D+00 0.732D+00
 Coeff-En:   0.000D+00 0.000D+00 0.000D+00 0.000D+00 0.000D+00 0.000D+00
 Coeff-En:   0.000D+00 0.000D+00 0.000D+00 0.000D+00 0.100D+01
 Coeff:     -0.150D-02 0.177D-02 0.391D-02-0.648D-03 0.978D-02 0.444D-02
 Coeff:     -0.348D-01-0.390D-01-0.264D+00 0.587D+00 0.733D+00
 Gap=     0.201 Goal=   None    Shift=    0.000
 Gap=     0.079 Goal=   None    Shift=    0.000
 RMSDP=3.29D-05 MaxDP=1.17D-03 DE=-1.27D-05 OVMax= 6.02D-03

 Cycle  12  Pass 1  IDiag  1:
 E= -414.236562997767     Delta-E=       -0.000011154434 Rises=F Damp=F
 DIIS: error= 1.36D-04 at cycle  12 NSaved=  12.
 NSaved=12 IEnMin=12 EnMin= -414.236562997767     IErMin=12 ErrMin= 1.36D-04
 ErrMax= 1.36D-04  0.00D+00 EMaxC= 1.00D-01 BMatC= 3.47D-06 BMatP= 1.56D-05
 IDIUse=3 WtCom= 9.99D-01 WtEn= 1.36D-03
 Coeff-Com: -0.279D-03-0.228D-03 0.164D-03-0.131D-03 0.253D-02 0.138D-01
 Coeff-Com:  0.379D-01-0.592D-01-0.315D+00 0.123D+00 0.275D+00 0.923D+00
 Coeff-En:   0.000D+00 0.000D+00 0.000D+00 0.000D+00 0.000D+00 0.000D+00
 Coeff-En:   0.000D+00 0.000D+00 0.000D+00 0.000D+00 0.000D+00 0.100D+01
 Coeff:     -0.278D-03-0.227D-03 0.163D-03-0.131D-03 0.253D-02 0.138D-01
 Coeff:      0.379D-01-0.591D-01-0.315D+00 0.123D+00 0.275D+00 0.923D+00
 Gap=     0.201 Goal=   None    Shift=    0.000
 Gap=     0.080 Goal=   None    Shift=    0.000
 RMSDP=2.40D-05 MaxDP=9.74D-04 DE=-1.12D-05 OVMax= 5.13D-03

 Cycle  13  Pass 1  IDiag  1:
 E= -414.236567642428     Delta-E=       -0.000004644662 Rises=F Damp=F
 DIIS: error= 7.19D-05 at cycle  13 NSaved=  13.
 NSaved=13 IEnMin=13 EnMin= -414.236567642428     IErMin=13 ErrMin= 7.19D-05
 ErrMax= 7.19D-05  0.00D+00 EMaxC= 1.00D-01 BMatC= 1.27D-06 BMatP= 3.47D-06
 IDIUse=1 WtCom= 1.00D+00 WtEn= 0.00D+00
 Coeff-Com:  0.568D-03-0.881D-03-0.117D-02 0.166D-03-0.187D-02 0.552D-02
 Coeff-Com:  0.253D-01 0.113D-01-0.603D-01-0.101D+00-0.233D+00 0.429D+00
 Coeff-Com:  0.926D+00
 Coeff:      0.568D-03-0.881D-03-0.117D-02 0.166D-03-0.187D-02 0.552D-02
 Coeff:      0.253D-01 0.113D-01-0.603D-01-0.101D+00-0.233D+00 0.429D+00
 Coeff:      0.926D+00
 Gap=     0.201 Goal=   None    Shift=    0.000
 Gap=     0.080 Goal=   None    Shift=    0.000
 RMSDP=1.64D-05 MaxDP=1.35D-03 DE=-4.64D-06 OVMax= 2.92D-03

 Cycle  14  Pass 1  IDiag  1:
 E= -414.236569173368     Delta-E=       -0.000001530940 Rises=F Damp=F
 DIIS: error= 3.66D-05 at cycle  14 NSaved=  14.
 NSaved=14 IEnMin=14 EnMin= -414.236569173368     IErMin=14 ErrMin= 3.66D-05
 ErrMax= 3.66D-05  0.00D+00 EMaxC= 1.00D-01 BMatC= 2.75D-07 BMatP= 1.27D-06
 IDIUse=1 WtCom= 1.00D+00 WtEn= 0.00D+00
 Coeff-Com:  0.225D-03-0.115D-03-0.334D-03 0.101D-03-0.119D-02-0.268D-02
 Coeff-Com: -0.428D-02 0.302D-01 0.610D-01-0.372D-01-0.184D+00-0.165D+00
 Coeff-Com:  0.295D+00 0.101D+01
 Coeff:      0.225D-03-0.115D-03-0.334D-03 0.101D-03-0.119D-02-0.268D-02
 Coeff:     -0.428D-02 0.302D-01 0.610D-01-0.372D-01-0.184D+00-0.165D+00
 Coeff:      0.295D+00 0.101D+01
 Gap=     0.201 Goal=   None    Shift=    0.000
 Gap=     0.080 Goal=   None    Shift=    0.000
 RMSDP=8.78D-06 MaxDP=5.53D-04 DE=-1.53D-06 OVMax= 1.61D-03

 Cycle  15  Pass 1  IDiag  1:
 E= -414.236569601372     Delta-E=       -0.000000428004 Rises=F Damp=F
 DIIS: error= 1.79D-05 at cycle  15 NSaved=  15.
 NSaved=15 IEnMin=15 EnMin= -414.236569601372     IErMin=15 ErrMin= 1.79D-05
 ErrMax= 1.79D-05  0.00D+00 EMaxC= 1.00D-01 BMatC= 1.04D-07 BMatP= 2.75D-07
 IDIUse=1 WtCom= 1.00D+00 WtEn= 0.00D+00
 Coeff-Com: -0.100D-03 0.233D-03 0.149D-03 0.427D-04-0.342D-04-0.328D-02
 Coeff-Com: -0.975D-02 0.148D-01 0.454D-01 0.210D-01-0.409D-01-0.232D+00
 Coeff-Com: -0.100D+00 0.551D+00 0.753D+00
 Coeff:     -0.100D-03 0.233D-03 0.149D-03 0.427D-04-0.342D-04-0.328D-02
 Coeff:     -0.975D-02 0.148D-01 0.454D-01 0.210D-01-0.409D-01-0.232D+00
 Coeff:     -0.100D+00 0.551D+00 0.753D+00
 Gap=     0.201 Goal=   None    Shift=    0.000
 Gap=     0.080 Goal=   None    Shift=    0.000
 RMSDP=4.55D-06 MaxDP=2.80D-04 DE=-4.28D-07 OVMax= 7.99D-04

 Cycle  16  Pass 1  IDiag  1:
 E= -414.236569697965     Delta-E=       -0.000000096593 Rises=F Damp=F
 DIIS: error= 1.67D-05 at cycle  16 NSaved=  16.
 NSaved=16 IEnMin=16 EnMin= -414.236569697965     IErMin=16 ErrMin= 1.67D-05
 ErrMax= 1.67D-05  0.00D+00 EMaxC= 1.00D-01 BMatC= 4.16D-08 BMatP= 1.04D-07
 IDIUse=1 WtCom= 1.00D+00 WtEn= 0.00D+00
 Coeff-Com: -0.127D-03 0.130D-03 0.174D-03 0.337D-04 0.378D-03-0.148D-02
 Coeff-Com: -0.564D-02 0.289D-02 0.115D-01 0.302D-01 0.217D-01-0.110D+00
 Coeff-Com: -0.135D+00 0.747D-01 0.473D+00 0.637D+00
 Coeff:     -0.127D-03 0.130D-03 0.174D-03 0.337D-04 0.378D-03-0.148D-02
 Coeff:     -0.564D-02 0.289D-02 0.115D-01 0.302D-01 0.217D-01-0.110D+00
 Coeff:     -0.135D+00 0.747D-01 0.473D+00 0.637D+00
 Gap=     0.201 Goal=   None    Shift=    0.000
 Gap=     0.080 Goal=   None    Shift=    0.000
 RMSDP=1.86D-06 MaxDP=1.75D-04 DE=-9.66D-08 OVMax= 2.47D-04

 Cycle  17  Pass 1  IDiag  1:
 E= -414.236569719144     Delta-E=       -0.000000021178 Rises=F Damp=F
 DIIS: error= 5.06D-06 at cycle  17 NSaved=  17.
 NSaved=17 IEnMin=17 EnMin= -414.236569719144     IErMin=17 ErrMin= 5.06D-06
 ErrMax= 5.06D-06  0.00D+00 EMaxC= 1.00D-01 BMatC= 7.89D-09 BMatP= 4.16D-08
 IDIUse=1 WtCom= 1.00D+00 WtEn= 0.00D+00
 Coeff-Com: -0.552D-04 0.736D-04-0.209D-05 0.161D-05 0.571D-04 0.267D-03
 Coeff-Com:  0.595D-03-0.264D-02-0.108D-01 0.754D-02 0.183D-01 0.244D-01
 Coeff-Com: -0.102D-01-0.154D+00-0.509D-01 0.273D+00 0.905D+00
 Coeff:     -0.552D-04 0.736D-04-0.209D-05 0.161D-05 0.571D-04 0.267D-03
 Coeff:      0.595D-03-0.264D-02-0.108D-01 0.754D-02 0.183D-01 0.244D-01
 Coeff:     -0.102D-01-0.154D+00-0.509D-01 0.273D+00 0.905D+00
 Gap=     0.201 Goal=   None    Shift=    0.000
 Gap=     0.080 Goal=   None    Shift=    0.000
 RMSDP=9.34D-07 MaxDP=5.46D-05 DE=-2.12D-08 OVMax= 1.69D-04

 Cycle  18  Pass 1  IDiag  1:
 E= -414.236569724832     Delta-E=       -0.000000005688 Rises=F Damp=F
 DIIS: error= 1.91D-06 at cycle  18 NSaved=  18.
 NSaved=18 IEnMin=18 EnMin= -414.236569724832     IErMin=18 ErrMin= 1.91D-06
 ErrMax= 1.91D-06  0.00D+00 EMaxC= 1.00D-01 BMatC= 8.26D-10 BMatP= 7.89D-09
 IDIUse=1 WtCom= 1.00D+00 WtEn= 0.00D+00
 Coeff-Com:  0.203D-04-0.248D-04-0.384D-04 0.155D-05-0.471D-04 0.251D-03
 Coeff-Com:  0.790D-03-0.757D-05-0.264D-02-0.400D-02-0.534D-02 0.180D-01
 Coeff-Com:  0.260D-01-0.115D-01-0.847D-01-0.121D+00-0.192D-02 0.119D+01
 Coeff:      0.203D-04-0.248D-04-0.384D-04 0.155D-05-0.471D-04 0.251D-03
 Coeff:      0.790D-03-0.757D-05-0.264D-02-0.400D-02-0.534D-02 0.180D-01
 Coeff:      0.260D-01-0.115D-01-0.847D-01-0.121D+00-0.192D-02 0.119D+01
 Gap=     0.201 Goal=   None    Shift=    0.000
 Gap=     0.080 Goal=   None    Shift=    0.000
 RMSDP=4.40D-07 MaxDP=2.16D-05 DE=-5.69D-09 OVMax= 6.21D-05

 Cycle  19  Pass 1  IDiag  1:
 E= -414.236569725718     Delta-E=       -0.000000000886 Rises=F Damp=F
 DIIS: error= 4.86D-07 at cycle  19 NSaved=  19.
 NSaved=19 IEnMin=19 EnMin= -414.236569725718     IErMin=19 ErrMin= 4.86D-07
 ErrMax= 4.86D-07  0.00D+00 EMaxC= 1.00D-01 BMatC= 6.05D-11 BMatP= 8.26D-10
 IDIUse=1 WtCom= 1.00D+00 WtEn= 0.00D+00
 Coeff-Com:  0.451D-05-0.604D-05 0.653D-05-0.244D-06 0.864D-05-0.209D-04
 Coeff-Com: -0.261D-04 0.498D-03 0.137D-02-0.135D-02-0.258D-02-0.411D-02
 Coeff-Com:  0.284D-02 0.231D-01 0.796D-02-0.433D-01-0.148D+00-0.208D-01
 Coeff-Com:  0.118D+01
 Coeff:      0.451D-05-0.604D-05 0.653D-05-0.244D-06 0.864D-05-0.209D-04
 Coeff:     -0.261D-04 0.498D-03 0.137D-02-0.135D-02-0.258D-02-0.411D-02
 Coeff:      0.284D-02 0.231D-01 0.796D-02-0.433D-01-0.148D+00-0.208D-01
 Coeff:      0.118D+01
 Gap=     0.201 Goal=   None    Shift=    0.000
 Gap=     0.080 Goal=   None    Shift=    0.000
 RMSDP=1.24D-07 MaxDP=6.63D-06 DE=-8.86D-10 OVMax= 1.68D-05

 Cycle  20  Pass 1  IDiag  1:
 E= -414.236569725817     Delta-E=       -0.000000000099 Rises=F Damp=F
 DIIS: error= 1.39D-07 at cycle  20 NSaved=  20.
 NSaved=20 IEnMin=20 EnMin= -414.236569725817     IErMin=20 ErrMin= 1.39D-07
 ErrMax= 1.39D-07  0.00D+00 EMaxC= 1.00D-01 BMatC= 4.34D-12 BMatP= 6.05D-11
 IDIUse=1 WtCom= 1.00D+00 WtEn= 0.00D+00
 Coeff-Com: -0.160D-05 0.152D-05 0.336D-05-0.241D-06 0.245D-05-0.141D-04
 Coeff-Com: -0.300D-04-0.779D-05 0.908D-05 0.357D-03 0.536D-03-0.832D-03
 Coeff-Com: -0.175D-02-0.500D-03 0.442D-02 0.138D-01 0.196D-02-0.936D-01
 Coeff-Com: -0.842D-01 0.116D+01
 Coeff:     -0.160D-05 0.152D-05 0.336D-05-0.241D-06 0.245D-05-0.141D-04
 Coeff:     -0.300D-04-0.779D-05 0.908D-05 0.357D-03 0.536D-03-0.832D-03
 Coeff:     -0.175D-02-0.500D-03 0.442D-02 0.138D-01 0.196D-02-0.936D-01
 Coeff:     -0.842D-01 0.116D+01
 Gap=     0.201 Goal=   None    Shift=    0.000
 Gap=     0.080 Goal=   None    Shift=    0.000
 RMSDP=2.84D-08 MaxDP=1.55D-06 DE=-9.89D-11 OVMax= 2.88D-06

 Cycle  21  Pass 1  IDiag  1:
 E= -414.236569725823     Delta-E=       -0.000000000006 Rises=F Damp=F
 DIIS: error= 1.87D-08 at cycle  21 NSaved=  20.
 NSaved=20 IEnMin=20 EnMin= -414.236569725823     IErMin=20 ErrMin= 1.87D-08
 ErrMax= 1.87D-08  0.00D+00 EMaxC= 1.00D-01 BMatC= 1.55D-13 BMatP= 4.34D-12
 IDIUse=1 WtCom= 1.00D+00 WtEn= 0.00D+00
 Coeff-Com:  0.290D-06-0.365D-06-0.671D-06-0.127D-05 0.554D-06-0.335D-05
 Coeff-Com: -0.130D-04-0.563D-04 0.418D-04 0.969D-04 0.190D-03-0.512D-04
 Coeff-Com: -0.103D-02-0.458D-03 0.160D-02 0.618D-02 0.440D-03-0.635D-01
 Coeff-Com:  0.348D-01 0.102D+01
 Coeff:      0.290D-06-0.365D-06-0.671D-06-0.127D-05 0.554D-06-0.335D-05
 Coeff:     -0.130D-04-0.563D-04 0.418D-04 0.969D-04 0.190D-03-0.512D-04
 Coeff:     -0.103D-02-0.458D-03 0.160D-02 0.618D-02 0.440D-03-0.635D-01
 Coeff:      0.348D-01 0.102D+01
 Gap=     0.201 Goal=   None    Shift=    0.000
 Gap=     0.080 Goal=   None    Shift=    0.000
 RMSDP=6.32D-09 MaxDP=3.32D-07 DE=-5.91D-12 OVMax= 7.07D-07

 SCF Done:  E(UB3LYP) =  -414.236569726     A.U. after   21 cycles
            NFock= 21  Conv=0.63D-08     -V/T= 2.0035
 <Sx>= 0.0000 <Sy>= 0.0000 <Sz>= 0.5000 <S**2>= 0.7612 S= 0.5056
 <L.S>=  0.00000000000    
 KE= 4.128067180952D+02 PE=-1.641040879736D+03 EE= 4.781446966106D+02
 Annihilation of the first spin contaminant:
 S**2 before annihilation     0.7612,   after     0.7501
 Leave Link  502 at Sat Aug 27 16:04:28 2022, MaxMem=  8053063680 cpu:             308.0 elap:              14.1
 (Enter /public3/home/scg5914/software-scg5914/g16/l601.exe)
 Copying SCF densities to generalized density rwf, IOpCl= 1 IROHF=0.

 **********************************************************************

            Population analysis using the SCF Density.

 **********************************************************************

 Orbital symmetries:
 Alpha Orbitals:
       Occupied  (A) (A) (A) (A) (A) (A) (A) (A) (A) (A) (A) (A)
                 (A) (A) (A) (A) (A) (A) (A) (A) (A) (A) (A) (A)
                 (A) (A) (A) (A) (A)
       Virtual   (A) (A) (A) (A) (A) (A) (A) (A) (A) (A) (A) (A)
                 (A) (A) (A) (A) (A) (A) (A) (A) (A) (A) (A) (A)
                 (A) (A) (A) (A) (A) (A) (A) (A) (A) (A) (A) (A)
                 (A) (A) (A) (A) (A) (A) (A) (A) (A) (A) (A) (A)
                 (A) (A) (A) (A) (A) (A) (A) (A) (A) (A) (A) (A)
                 (A) (A) (A) (A) (A) (A) (A) (A) (A) (A) (A) (A)
                 (A) (A) (A) (A) (A) (A) (A) (A) (A) (A) (A) (A)
                 (A) (A) (A) (A) (A) (A) (A) (A) (A) (A) (A) (A)
                 (A) (A) (A) (A) (A) (A) (A) (A) (A) (A) (A) (A)
                 (A) (A) (A) (A) (A) (A) (A) (A) (A) (A) (A) (A)
                 (A) (A) (A) (A) (A) (A) (A) (A) (A) (A) (A) (A)
                 (A) (A) (A) (A) (A) (A) (A) (A) (A) (A) (A) (A)
                 (A) (A) (A) (A) (A) (A) (A) (A) (A) (A) (A) (A)
                 (A) (A) (A) (A) (A) (A) (A) (A) (A)
 Beta  Orbitals:
       Occupied  (A) (A) (A) (A) (A) (A) (A) (A) (A) (A) (A) (A)
                 (A) (A) (A) (A) (A) (A) (A) (A) (A) (A) (A) (A)
                 (A) (A) (A) (A)
       Virtual   (A) (A) (A) (A) (A) (A) (A) (A) (A) (A) (A) (A)
                 (A) (A) (A) (A) (A) (A) (A) (A) (A) (A) (A) (A)
                 (A) (A) (A) (A) (A) (A) (A) (A) (A) (A) (A) (A)
                 (A) (A) (A) (A) (A) (A) (A) (A) (A) (A) (A) (A)
                 (A) (A) (A) (A) (A) (A) (A) (A) (A) (A) (A) (A)
                 (A) (A) (A) (A) (A) (A) (A) (A) (A) (A) (A) (A)
                 (A) (A) (A) (A) (A) (A) (A) (A) (A) (A) (A) (A)
                 (A) (A) (A) (A) (A) (A) (A) (A) (A) (A) (A) (A)
                 (A) (A) (A) (A) (A) (A) (A) (A) (A) (A) (A) (A)
                 (A) (A) (A) (A) (A) (A) (A) (A) (A) (A) (A) (A)
                 (A) (A) (A) (A) (A) (A) (A) (A) (A) (A) (A) (A)
                 (A) (A) (A) (A) (A) (A) (A) (A) (A) (A) (A) (A)
                 (A) (A) (A) (A) (A) (A) (A) (A) (A) (A) (A) (A)
                 (A) (A) (A) (A) (A) (A) (A) (A) (A) (A)
 The electronic state is 2-A.
 Alpha  occ. eigenvalues --  -19.23072 -19.15758 -14.34660 -14.33327 -10.33406
 Alpha  occ. eigenvalues --  -10.29013 -10.26768 -10.25528  -1.15097  -1.08660
 Alpha  occ. eigenvalues --   -1.04158  -0.88806  -0.81584  -0.70186  -0.64046
 Alpha  occ. eigenvalues --   -0.61340  -0.56552  -0.51828  -0.51312  -0.49573
 Alpha  occ. eigenvalues --   -0.47228  -0.44976  -0.44701  -0.40795  -0.35474
 Alpha  occ. eigenvalues --   -0.31096  -0.30190  -0.28603  -0.28497
 Alpha virt. eigenvalues --   -0.08412  -0.01700  -0.00207   0.00428   0.02795
 Alpha virt. eigenvalues --    0.02902   0.03228   0.05560   0.05563   0.06026
 Alpha virt. eigenvalues --    0.08072   0.08853   0.09319   0.10202   0.11999
 Alpha virt. eigenvalues --    0.12520   0.13006   0.13345   0.14881   0.16228
 Alpha virt. eigenvalues --    0.16555   0.17764   0.18680   0.19629   0.20630
 Alpha virt. eigenvalues --    0.21545   0.22474   0.23156   0.23852   0.24503
 Alpha virt. eigenvalues --    0.25651   0.26476   0.26565   0.27068   0.27358
 Alpha virt. eigenvalues --    0.28890   0.30499   0.31132   0.31347   0.32574
 Alpha virt. eigenvalues --    0.35116   0.38812   0.41430   0.41898   0.45688
 Alpha virt. eigenvalues --    0.46317   0.50235   0.52298   0.52971   0.53671
 Alpha virt. eigenvalues --    0.54625   0.56258   0.58586   0.61999   0.65089
 Alpha virt. eigenvalues --    0.69434   0.71240   0.73942   0.75741   0.78441
 Alpha virt. eigenvalues --    0.80149   0.83107   0.83871   0.85190   0.86539
 Alpha virt. eigenvalues --    0.88725   0.91250   0.93514   0.94111   0.95949
 Alpha virt. eigenvalues --    1.00635   1.03293   1.06461   1.07183   1.08062
 Alpha virt. eigenvalues --    1.10848   1.13758   1.14431   1.15708   1.19176
 Alpha virt. eigenvalues --    1.21626   1.23055   1.23970   1.29954   1.35207
 Alpha virt. eigenvalues --    1.39092   1.39398   1.43278   1.53328   1.56974
 Alpha virt. eigenvalues --    1.60670   1.62468   1.64772   1.65871   1.66312
 Alpha virt. eigenvalues --    1.68600   1.69987   1.78227   1.80420   1.82237
 Alpha virt. eigenvalues --    1.88302   1.91463   2.00873   2.01459   2.06920
 Alpha virt. eigenvalues --    2.13492   2.18972   2.20371   2.29304   2.33475
 Alpha virt. eigenvalues --    2.33705   2.34290   2.50261   2.53346   2.54445
 Alpha virt. eigenvalues --    2.59648   2.65215   2.65364   2.67436   2.72330
 Alpha virt. eigenvalues --    2.74815   2.76801   2.80041   2.84267   2.85312
 Alpha virt. eigenvalues --    2.90157   2.90504   2.95840   3.03308   3.08504
 Alpha virt. eigenvalues --    3.12186   3.13014   3.21129   3.31672   3.31763
 Alpha virt. eigenvalues --    3.38603   3.46713   3.50155   3.53812   3.60810
 Alpha virt. eigenvalues --    3.70497   3.77907   3.86078   3.89484   3.90116
 Alpha virt. eigenvalues --    3.91894   4.23093   4.42906   4.47618   4.73444
 Alpha virt. eigenvalues --    4.91017   4.97882   5.11939   5.21027   5.41429
 Alpha virt. eigenvalues --    5.68378   5.71519  23.68185  23.80417  23.88166
 Alpha virt. eigenvalues --   24.05875  35.48511  35.67753  49.86485  49.94117
  Beta  occ. eigenvalues --  -19.22674 -19.15320 -14.34351 -14.33440 -10.33029
  Beta  occ. eigenvalues --  -10.29143 -10.26178 -10.25410  -1.14290  -1.07883
  Beta  occ. eigenvalues --   -1.03393  -0.88344  -0.80123  -0.69708  -0.63514
  Beta  occ. eigenvalues --   -0.61003  -0.56183  -0.51536  -0.49260  -0.48929
  Beta  occ. eigenvalues --   -0.46808  -0.44344  -0.42783  -0.38216  -0.35168
  Beta  occ. eigenvalues --   -0.30006  -0.29836  -0.28261
  Beta virt. eigenvalues --   -0.20300  -0.06734  -0.01582  -0.00181   0.02163
  Beta virt. eigenvalues --    0.02924   0.03312   0.04315   0.05609   0.06095
  Beta virt. eigenvalues --    0.06361   0.08380   0.08882   0.09786   0.10303
  Beta virt. eigenvalues --    0.12054   0.12679   0.13272   0.13445   0.15116
  Beta virt. eigenvalues --    0.16245   0.16729   0.17854   0.18981   0.19882
  Beta virt. eigenvalues --    0.20736   0.21723   0.22613   0.23259   0.24042
  Beta virt. eigenvalues --    0.24757   0.25805   0.26712   0.26765   0.27309
  Beta virt. eigenvalues --    0.27486   0.29214   0.30654   0.31284   0.31591
  Beta virt. eigenvalues --    0.33231   0.35242   0.39117   0.41690   0.42040
  Beta virt. eigenvalues --    0.45929   0.46449   0.50462   0.52470   0.53357
  Beta virt. eigenvalues --    0.54443   0.55385   0.56333   0.60293   0.62111
  Beta virt. eigenvalues --    0.65242   0.69747   0.71630   0.74183   0.75994
  Beta virt. eigenvalues --    0.78871   0.80342   0.83479   0.84877   0.85489
  Beta virt. eigenvalues --    0.86612   0.88965   0.91443   0.93745   0.94487
  Beta virt. eigenvalues --    0.96940   1.00959   1.04268   1.07352   1.07508
  Beta virt. eigenvalues --    1.08222   1.11981   1.13940   1.15482   1.15904
  Beta virt. eigenvalues --    1.19410   1.22387   1.23485   1.24329   1.30983
  Beta virt. eigenvalues --    1.35426   1.39411   1.39956   1.43752   1.53569
  Beta virt. eigenvalues --    1.57824   1.61117   1.62716   1.65643   1.66087
  Beta virt. eigenvalues --    1.66641   1.69432   1.70297   1.78257   1.80600
  Beta virt. eigenvalues --    1.82569   1.89226   1.91668   2.01399   2.02468
  Beta virt. eigenvalues --    2.07362   2.14347   2.20054   2.20686   2.30172
  Beta virt. eigenvalues --    2.33934   2.34406   2.34420   2.50351   2.54275
  Beta virt. eigenvalues --    2.54604   2.60150   2.65503   2.65632   2.67942
  Beta virt. eigenvalues --    2.72454   2.75961   2.77007   2.81664   2.84876
  Beta virt. eigenvalues --    2.86598   2.91093   2.92188   2.96011   3.04420
  Beta virt. eigenvalues --    3.08960   3.13470   3.13483   3.21540   3.32218
  Beta virt. eigenvalues --    3.32691   3.38850   3.47050   3.50325   3.54081
  Beta virt. eigenvalues --    3.61145   3.70957   3.78430   3.87637   3.89746
  Beta virt. eigenvalues --    3.89902   3.92194   4.23834   4.43247   4.47844
  Beta virt. eigenvalues --    4.73770   4.92641   4.99753   5.12307   5.21608
  Beta virt. eigenvalues --    5.41803   5.68755   5.71856  23.68614  23.80841
  Beta virt. eigenvalues --   23.88093  24.06241  35.48712  35.67778  49.86878
  Beta virt. eigenvalues --   49.94560
          Condensed to atoms (all electrons):
               1          2          3          4          5          6
     1  O    7.961381   0.226373  -0.201295   0.142687   0.070563  -0.000517
     2  C    0.226373   5.345581   0.298790   0.008330  -0.113950   0.016226
     3  N   -0.201295   0.298790   7.010336   0.373721  -0.693660   0.032890
     4  C    0.142687   0.008330   0.373721   8.542297  -2.004373  -0.195000
     5  C    0.070563  -0.113950  -0.693660  -2.004373   9.021819   0.450104
     6  O   -0.000517   0.016226   0.032890  -0.195000   0.450104   7.924383
     7  C   -0.064115  -0.396684   0.292458  -0.717486  -0.729777   0.032119
     8  N   -0.148523   0.401490   0.094338  -0.510061  -0.254429   0.002199
     9  H    0.211118   0.038956   0.023685  -0.029544  -0.013551   0.000205
    10  H   -0.000023   0.010565   0.007512  -0.200687   0.414439  -0.046885
    11  H    0.000503   0.007048  -0.001750  -0.037990   0.024645  -0.000214
               7          8          9         10         11
     1  O   -0.064115  -0.148523   0.211118  -0.000023   0.000503
     2  C   -0.396684   0.401490   0.038956   0.010565   0.007048
     3  N    0.292458   0.094338   0.023685   0.007512  -0.001750
     4  C   -0.717486  -0.510061  -0.029544  -0.200687  -0.037990
     5  C   -0.729777  -0.254429  -0.013551   0.414439   0.024645
     6  O    0.032119   0.002199   0.000205  -0.046885  -0.000214
     7  C    6.613283   0.846171   0.008405   0.067445   0.412794
     8  N    0.846171   6.760739   0.016743   0.001634  -0.054719
     9  H    0.008405   0.016743   0.455077   0.000010  -0.000037
    10  H    0.067445   0.001634   0.000010   0.634222  -0.000868
    11  H    0.412794  -0.054719  -0.000037  -0.000868   0.494824
          Atomic-Atomic Spin Densities.
               1          2          3          4          5          6
     1  O    0.204897  -0.077904  -0.002659   0.005663   0.002672  -0.000057
     2  C   -0.077904   0.279798   0.033337  -0.029291  -0.003661   0.000016
     3  N   -0.002659   0.033337  -0.068479  -0.026767   0.008745   0.000258
     4  C    0.005663  -0.029291  -0.026767   0.420309  -0.009728  -0.011103
     5  C    0.002672  -0.003661   0.008745  -0.009728  -0.107341  -0.013292
     6  O   -0.000057   0.000016   0.000258  -0.011103  -0.013292   0.190923
     7  C    0.005911  -0.023740  -0.016451   0.090162   0.036518  -0.003176
     8  N   -0.014524   0.054520   0.010222  -0.025430  -0.016865   0.000399
     9  H    0.000014   0.000314   0.000139  -0.000118  -0.000215  -0.000003
    10  H   -0.000004  -0.000402  -0.000249  -0.003493   0.005302   0.001441
    11  H    0.000057  -0.001312  -0.000276  -0.000173   0.003776   0.000025
               7          8          9         10         11
     1  O    0.005911  -0.014524   0.000014  -0.000004   0.000057
     2  C   -0.023740   0.054520   0.000314  -0.000402  -0.001312
     3  N   -0.016451   0.010222   0.000139  -0.000249  -0.000276
     4  C    0.090162  -0.025430  -0.000118  -0.003493  -0.000173
     5  C    0.036518  -0.016865  -0.000215   0.005302   0.003776
     6  O   -0.003176   0.000399  -0.000003   0.001441   0.000025
     7  C    0.038987  -0.049891  -0.000285   0.000556   0.000402
     8  N   -0.049891   0.196986   0.000066   0.000096  -0.000088
     9  H   -0.000285   0.000066  -0.003948   0.000000  -0.000001
    10  H    0.000556   0.000096   0.000000  -0.002068  -0.000139
    11  H    0.000402  -0.000088  -0.000001  -0.000139  -0.008693
 Mulliken charges and spin densities:
               1          2
     1  O   -0.198152   0.124066
     2  C    0.157274   0.231675
     3  N   -0.237025  -0.062180
     4  C    0.628107   0.410031
     5  C   -0.171831  -0.094087
     6  O   -0.215510   0.165430
     7  C   -0.364614   0.078992
     8  N   -0.155582   0.155492
     9  H    0.288934  -0.004036
    10  H    0.112636   0.001040
    11  H    0.155764  -0.006422
 Sum of Mulliken charges =  -0.00000   1.00000
 Mulliken charges and spin densities with hydrogens summed into heavy atoms:
               1          2
     1  O    0.090782   0.120030
     2  C    0.157274   0.231675
     3  N   -0.237025  -0.062180
     4  C    0.628107   0.410031
     5  C   -0.059195  -0.093048
     6  O   -0.215510   0.165430
     7  C   -0.208850   0.072570
     8  N   -0.155582   0.155492
 Electronic spatial extent (au):  <R**2>=            929.3044
 Charge=             -0.0000 electrons
 Dipole moment (field-independent basis, Debye):
    X=             -0.4084    Y=              1.2657    Z=              0.0016  Tot=              1.3300
 Quadrupole moment (field-independent basis, Debye-Ang):
   XX=            -51.8299   YY=            -42.8732   ZZ=            -44.6553
   XY=             14.9588   XZ=              0.0032   YZ=             -0.0046
 Traceless Quadrupole moment (field-independent basis, Debye-Ang):
   XX=             -5.3771   YY=              3.5796   ZZ=              1.7975
   XY=             14.9588   XZ=              0.0032   YZ=             -0.0046
 Octapole moment (field-independent basis, Debye-Ang**2):
  XXX=            -12.6274  YYY=             -5.9702  ZZZ=             -0.0031  XYY=             -9.1657
  XXY=             -5.5878  XXZ=              0.0206  XZZ=              0.2691  YZZ=             -3.3033
  YYZ=             -0.0046  XYZ=             -0.0000
 Hexadecapole moment (field-independent basis, Debye-Ang**3):
 XXXX=           -943.1788 YYYY=           -240.5074 ZZZZ=            -44.1750 XXXY=             87.2247
 XXXZ=              0.0232 YYYX=             53.3269 YYYZ=             -0.0248 ZZZX=             -0.0066
 ZZZY=              0.0013 XXYY=           -176.2894 XXZZ=           -145.8763 YYZZ=            -55.9709
 XXYZ=             -0.0186 YYXZ=             -0.0058 ZZXY=              1.5984
 N-N= 3.358528953041D+02 E-N=-1.641040880879D+03  KE= 4.128067180952D+02
                          Isotropic Fermi Contact Couplings
        Atom                 a.u.       MegaHertz       Gauss      10(-4) cm-1
     1  O(17)              0.01666     -10.09668      -3.60275      -3.36789
     2  C(13)              0.00948      10.66094       3.80409       3.55611
     3  N(14)             -0.01283      -4.14523      -1.47912      -1.38270
     4  C(13)              0.02167      24.35612       8.69087       8.12433
     5  C(13)             -0.01994     -22.41701      -7.99895      -7.47751
     6  O(17)              0.01202      -7.28893      -2.60087      -2.43133
     7  C(13)             -0.00838      -9.41918      -3.36100      -3.14190
     8  N(14)              0.00963       3.11026       1.10982       1.03747
     9  H(1)              -0.00223      -9.95381      -3.55177      -3.32023
    10  H(1)               0.00005       0.23135       0.08255       0.07717
    11  H(1)              -0.00211      -9.42332      -3.36247      -3.14328
 --------------------------------------------------------
       Center         ----  Spin Dipole Couplings  ----
                      3XX-RR        3YY-RR        3ZZ-RR
 --------------------------------------------------------
     1   Atom       -0.328181     -0.313654      0.641835
     2   Atom       -0.158948     -0.153404      0.312352
     3   Atom        0.043579      0.040033     -0.083611
     4   Atom       -0.240157     -0.247576      0.487732
     5   Atom        0.042591      0.037374     -0.079965
     6   Atom       -0.336303     -0.334318      0.670621
     7   Atom       -0.064937     -0.057429      0.122366
     8   Atom       -0.189039     -0.196668      0.385707
     9   Atom       -0.017795      0.028592     -0.010797
    10   Atom        0.010578     -0.004562     -0.006016
    11   Atom       -0.010863      0.016874     -0.006011
 --------------------------------------------------------
                        XY            XZ            YZ
 --------------------------------------------------------
     1   Atom        0.002937     -0.000155      0.000150
     2   Atom        0.008447     -0.000058      0.000000
     3   Atom       -0.004398      0.000046     -0.000170
     4   Atom       -0.006330     -0.000505      0.000330
     5   Atom       -0.018489      0.000048      0.000086
     6   Atom       -0.001355      0.001767     -0.000466
     7   Atom       -0.003185      0.000124      0.000169
     8   Atom        0.000023      0.000768     -0.000357
     9   Atom       -0.002702     -0.000003     -0.000011
    10   Atom        0.001101     -0.000005     -0.000000
    11   Atom        0.003562     -0.000001     -0.000017
 --------------------------------------------------------


 ---------------------------------------------------------------------------------
              Anisotropic Spin Dipole Couplings in Principal Axis System
 ---------------------------------------------------------------------------------

       Atom             a.u.   MegaHertz   Gauss  10(-4) cm-1        Axes

              Baa    -0.3288    23.788     8.488     7.935  0.9816 -0.1909  0.0002
     1 O(17)  Bbb    -0.3131    22.654     8.084     7.557  0.1909  0.9816 -0.0001
              Bcc     0.6418   -46.443   -16.572   -15.492 -0.0002  0.0002  1.0000
 
              Baa    -0.1651   -22.150    -7.904    -7.389  0.8099 -0.5866  0.0001
     2 C(13)  Bbb    -0.1473   -19.764    -7.052    -6.593  0.5866  0.8099  0.0001
              Bcc     0.3124    41.915    14.956    13.981 -0.0001 -0.0000  1.0000
 
              Baa    -0.0836    -3.225    -1.151    -1.076 -0.0003  0.0014  1.0000
     3 N(14)  Bbb     0.0371     1.429     0.510     0.477  0.5595  0.8288 -0.0010
              Bcc     0.0465     1.795     0.641     0.599  0.8288 -0.5595  0.0010
 
              Baa    -0.2512   -33.709   -12.028   -11.244  0.4972  0.8676 -0.0000
     4 C(13)  Bbb    -0.2365   -31.740   -11.326   -10.587  0.8676 -0.4972  0.0008
              Bcc     0.4877    65.449    23.354    21.831 -0.0007  0.0005  1.0000
 
              Baa    -0.0800   -10.731    -3.829    -3.579 -0.0005 -0.0008  1.0000
     5 C(13)  Bbb     0.0213     2.860     1.020     0.954  0.6559  0.7549  0.0010
              Bcc     0.0587     7.871     2.809     2.625  0.7549 -0.6559 -0.0001
 
              Baa    -0.3370    24.384     8.701     8.134  0.8921  0.4518 -0.0014
     6 O(17)  Bbb    -0.3336    24.141     8.614     8.053 -0.4518  0.8921  0.0012
              Bcc     0.6706   -48.526   -17.315   -16.186  0.0018 -0.0005  1.0000
 
              Baa    -0.0661    -8.871    -3.165    -2.959  0.9388  0.3446 -0.0009
     7 C(13)  Bbb    -0.0563    -7.550    -2.694    -2.518 -0.3446  0.9388 -0.0006
              Bcc     0.1224    16.420     5.859     5.477  0.0006  0.0009  1.0000
 
              Baa    -0.1967    -7.585    -2.707    -2.530 -0.0031  1.0000  0.0006
     8 N(14)  Bbb    -0.1890    -7.291    -2.602    -2.432  1.0000  0.0031 -0.0013
              Bcc     0.3857    14.876     5.308     4.962  0.0013 -0.0006  1.0000
 
              Baa    -0.0180    -9.578    -3.418    -3.195  0.9983  0.0580  0.0005
     9 H(1)   Bbb    -0.0108    -5.761    -2.056    -1.922 -0.0005  0.0003  1.0000
              Bcc     0.0287    15.339     5.473     5.117 -0.0580  0.9983 -0.0003
 
              Baa    -0.0060    -3.210    -1.145    -1.071  0.0003 -0.0002  1.0000
    10 H(1)   Bbb    -0.0046    -2.477    -0.884    -0.826 -0.0721  0.9974  0.0002
              Bcc     0.0107     5.687     2.029     1.897  0.9974  0.0721 -0.0003
 
              Baa    -0.0113    -6.036    -2.154    -2.013  0.9921 -0.1254 -0.0002
    11 H(1)   Bbb    -0.0060    -3.207    -1.144    -1.070  0.0003  0.0007  1.0000
              Bcc     0.0173     9.243     3.298     3.083  0.1254  0.9921 -0.0007
 

 ---------------------------------------------------------------------------------

 No NMR shielding tensors so no spin-rotation constants.
 Leave Link  601 at Sat Aug 27 16:04:29 2022, MaxMem=  8053063680 cpu:               4.5 elap:               0.2
 (Enter /public3/home/scg5914/software-scg5914/g16/l701.exe)
 ... and contract with generalized density number  0.
 Compute integral first derivatives.
 R6Disp: Adding Grimme-D3(BJ) dispersion energy 1st derivatives to the gradient.
 Leave Link  701 at Sat Aug 27 16:04:29 2022, MaxMem=  8053063680 cpu:               2.6 elap:               0.1
 (Enter /public3/home/scg5914/software-scg5914/g16/l702.exe)
 L702 exits ... SP integral derivatives will be done elsewhere.
 Leave Link  702 at Sat Aug 27 16:04:29 2022, MaxMem=  8053063680 cpu:               0.3 elap:               0.0
 (Enter /public3/home/scg5914/software-scg5914/g16/l703.exe)
 Integral derivatives from FoFJK, PRISM(SPDF).
 Compute integral first derivatives, UseDBF=F ICtDFT=           0.
 Calling FoFJK, ICntrl=      2127 FMM=F ISym2X=0 I1Cent= 0 IOpClX= 1 NMat=1 NMatS=1 NMatT=0.
 FoFJK:  IHMeth= 1 ICntrl=    2127 DoSepK=F KAlg= 0 I1Cent=           0 FoldK=F
 IRaf=         0 NMat=       1 IRICut=       1 DoRegI=T DoRafI=F ISym2E= 0 IDoP0=0 IntGTp=1.
 FoFCou: FMM=F IPFlag=           0 FMFlag=      100000 FMFlg1=         800
         NFxFlg=           0 DoJE=F BraDBF=F KetDBF=F FulRan=T
         wScrn=  0.000000 ICntrl=      2127 IOpCl=  1 I1Cent=           0 NGrid=           0
         NMat0=    1 NMatS0=      1 NMatT0=    0 NMatD0=    1 NMtDS0=    0 NMtDT0=    0
 Symmetry not used in FoFCou.
 Leave Link  703 at Sat Aug 27 16:04:30 2022, MaxMem=  8053063680 cpu:              33.3 elap:               1.1
 (Enter /public3/home/scg5914/software-scg5914/g16/l716.exe)
 Dipole        =-1.60688196D-01 4.97971491D-01 6.28035648D-04
 ***** Axes restored to original set *****
 -------------------------------------------------------------------
 Center     Atomic                   Forces (Hartrees/Bohr)
 Number     Number              X              Y              Z
 -------------------------------------------------------------------
      1        8          -0.000546550   -0.025956838   -0.005909769
      2        6          -0.000879394   -0.002907891    0.018903561
      3        7           0.000899852   -0.026399517   -0.044368970
      4        6           0.003526100    0.029920198   -0.064208276
      5        6          -0.000220958   -0.007042099   -0.000086542
      6        8           0.000118941    0.001036519   -0.002412715
      7        6          -0.000136763    0.075867467    0.059137165
      8        7          -0.003115990   -0.049312092    0.044634982
      9        1           0.000253746    0.003493403   -0.003581394
     10        1           0.000163731    0.001892960   -0.002568582
     11        1          -0.000062714   -0.000592110    0.000460540
 -------------------------------------------------------------------
 Cartesian Forces:  Max     0.075867467 RMS     0.026141488
 Leave Link  716 at Sat Aug 27 16:04:30 2022, MaxMem=  8053063680 cpu:               0.4 elap:               0.0
 (Enter /public3/home/scg5914/software-scg5914/g16/l103.exe)

 GradGradGradGradGradGradGradGradGradGradGradGradGradGradGradGradGradGrad
 Berny optimization.
 FormGI is forming the generalized inverse of G from B-inverse, IUseBI=4.
 Internal  Forces:  Max     0.066588689 RMS     0.019115723
 Search for a local minimum.
 Step number   1 out of a maximum of   54
 All quantities printed in internal units (Hartrees-Bohrs-Radians)
 RMS Force = .19116D-01 SwitMx=.10000D-02 MixMth= 1
 Mixed Optimization -- RFO/linear search
 Second derivative matrix not updated -- first step.
 ITU=  0
     Eigenvalues ---    0.01297   0.01297   0.01819   0.02163   0.02282
     Eigenvalues ---    0.02374   0.02501   0.02612   0.16000   0.16000
     Eigenvalues ---    0.16000   0.22000   0.23679   0.25000   0.25000
     Eigenvalues ---    0.25000   0.32029   0.36313   0.36978   0.43704
     Eigenvalues ---    0.45800   0.48794   0.50736   0.54133   0.57472
     Eigenvalues ---    0.64568   1.00630
 RFO step:  Lambda=-3.77056407D-02 EMin= 1.29656504D-02
 Linear search not attempted -- first point.
 Maximum step size (   0.300) exceeded in Quadratic search.
    -- Step size scaled by   0.955
 Iteration  1 RMS(Cart)=  0.05974369 RMS(Int)=  0.00139100
 Iteration  2 RMS(Cart)=  0.00154536 RMS(Int)=  0.00017103
 Iteration  3 RMS(Cart)=  0.00000072 RMS(Int)=  0.00017103
 ITry= 1 IFail=0 DXMaxC= 1.65D-01 DCOld= 1.00D+10 DXMaxT= 3.00D-01 DXLimC= 3.00D+00 Rises=F
 Variable       Old X    -DE/DX   Delta X   Delta X   Delta X     New X
                                 (Linear)    (Quad)   (Total)
    R1        2.52999  -0.02340   0.00000  -0.03647  -0.03647   2.49352
    R2        1.82610   0.00467   0.00000   0.00769   0.00769   1.83380
    R3        2.45392   0.03238   0.00000   0.04575   0.04550   2.49941
    R4        2.58469   0.02298   0.00000   0.04030   0.03996   2.62464
    R5        2.63015  -0.03883   0.00000  -0.07134  -0.07114   2.55901
    R6        2.75879   0.00638   0.00000   0.01494   0.01494   2.77373
    R7        2.59921   0.06659   0.00000   0.11614   0.11648   2.71569
    R8        2.28387   0.00246   0.00000   0.00225   0.00225   2.28612
    R9        2.10791  -0.00290   0.00000  -0.00772  -0.00772   2.10019
   R10        2.60069  -0.05505   0.00000  -0.10112  -0.10108   2.49961
   R11        2.03595   0.00075   0.00000   0.00179   0.00179   2.03774
    A1        1.85810   0.00333   0.00000   0.01606   0.01606   1.87416
    A2        2.22788  -0.02502   0.00000  -0.08519  -0.08498   2.14289
    A3        2.07780  -0.01094   0.00000  -0.03846  -0.03824   2.03955
    A4        1.97751   0.03596   0.00000   0.12365   0.12323   2.10074
    A5        1.82377  -0.02614   0.00000  -0.07664  -0.07666   1.74712
    A6        2.17496  -0.00284   0.00000  -0.00799  -0.00824   2.16672
    A7        1.92672  -0.00308   0.00000  -0.01310  -0.01261   1.91410
    A8        2.18151   0.00592   0.00000   0.02109   0.02085   2.20236
    A9        2.20024  -0.00236   0.00000  -0.00873  -0.00873   2.19151
   A10        1.96646   0.00260   0.00000   0.01124   0.01124   1.97769
   A11        2.11649  -0.00025   0.00000  -0.00251  -0.00251   2.11398
   A12        1.84079   0.02613   0.00000   0.08455   0.08488   1.92567
   A13        2.30838  -0.01307   0.00000  -0.04231  -0.04248   2.26590
   A14        2.13401  -0.01306   0.00000  -0.04224  -0.04240   2.09161
   A15        1.85598  -0.03287   0.00000  -0.11845  -0.11884   1.73714
    D1        0.00031   0.00000   0.00000   0.00002   0.00001   0.00033
    D2       -3.14100  -0.00002   0.00000  -0.00030  -0.00029  -3.14129
    D3       -3.14124  -0.00002   0.00000  -0.00029  -0.00029  -3.14153
    D4        0.00009   0.00000   0.00000  -0.00001   0.00000   0.00009
    D5       -3.14125  -0.00001   0.00000  -0.00022  -0.00021  -3.14146
    D6        0.00058  -0.00003   0.00000  -0.00047  -0.00047   0.00011
    D7       -3.14107   0.00001   0.00000  -0.00003  -0.00006  -3.14113
    D8       -0.00074   0.00005   0.00000   0.00053   0.00050  -0.00024
    D9        0.00052   0.00001   0.00000   0.00014   0.00014   0.00066
   D10       -3.14132   0.00001   0.00000   0.00024   0.00024  -3.14108
   D11       -3.13963  -0.00003   0.00000  -0.00047  -0.00048  -3.14011
   D12        0.00171  -0.00002   0.00000  -0.00037  -0.00038   0.00133
   D13        0.00108  -0.00003   0.00000  -0.00070  -0.00074   0.00034
   D14       -3.14070  -0.00001   0.00000  -0.00038  -0.00040  -3.14111
   D15        3.14141   0.00000   0.00000  -0.00017  -0.00020   3.14122
   D16       -0.00037   0.00001   0.00000   0.00015   0.00014  -0.00023
   D17       -0.00098   0.00006   0.00000   0.00076   0.00073  -0.00025
   D18        3.14078   0.00005   0.00000   0.00048   0.00043   3.14121
         Item               Value     Threshold  Converged?
 Maximum Force            0.066589     0.000450     NO 
 RMS     Force            0.019116     0.000300     NO 
 Maximum Displacement     0.165108     0.001800     NO 
 RMS     Displacement     0.060360     0.001200     NO 
 Predicted change in Energy=-2.051324D-02
 Lowest energy point so far.  Saving SCF results.
 GradGradGradGradGradGradGradGradGradGradGradGradGradGradGradGradGradGrad

 Leave Link  103 at Sat Aug 27 16:04:30 2022, MaxMem=  8053063680 cpu:               1.2 elap:               0.1
 (Enter /public3/home/scg5914/software-scg5914/g16/l202.exe)
                          Input orientation:                          
 ---------------------------------------------------------------------
 Center     Atomic      Atomic             Coordinates (Angstroms)
 Number     Number       Type             X           Y           Z
 ---------------------------------------------------------------------
      1          8           0        0.104042    1.227873    0.157964
      2          6           0        0.069343   -0.086003    0.041188
      3          7           0        0.096710   -0.701860   -1.128995
      4          6           0        0.042080   -1.991619   -0.719962
      5          6           0        0.043666   -3.144690   -1.628173
      6          8           0        0.093769   -3.089244   -2.835627
      7          6           0       -0.015278   -2.041963    0.715093
      8          7           0        0.001395   -0.819052    1.218928
      9          1           0        0.149837    1.597440   -0.738142
     10          1           0       -0.006882   -4.120999   -1.099575
     11          1           0       -0.066105   -2.893427    1.374801
 ---------------------------------------------------------------------
                    Distance matrix (angstroms):
                    1          2          3          4          5
     1  O    0.000000
     2  C    1.319512   0.000000
     3  N    2.319524   1.322633   0.000000
     4  C    3.337623   2.052186   1.354168   0.000000
     5  C    4.723690   3.484680   2.493875   1.467795   0.000000
     6  O    5.253494   4.158860   2.934655   2.384007   1.209764
     7  C    3.319105   2.070528   2.282340   1.437083   2.590439
     8  N    2.307831   1.388902   2.352777   2.266244   3.676460
     9  H    0.970404   1.856829   2.332889   3.590723   4.826099
    10  H    5.495830   4.193846   3.420834   2.163507   1.111372
    11  H    4.300553   3.111029   3.331436   2.283198   3.015466
                    6          7          8          9         10
     6  O    0.000000
     7  C    3.703552   0.000000
     8  N    4.647765   1.322739   0.000000
     9  H    5.134939   3.922296   3.113132   0.000000
    10  H    2.022010   2.759616   4.034647   5.731993   0.000000
    11  H    4.218009   1.078327   2.081318   4.967801   2.762784
                   11
    11  H    0.000000
 Stoichiometry    C4H3N2O2(2)
 Framework group  C1[X(C4H3N2O2)]
 Deg. of freedom    27
 Full point group                 C1      NOp   1
 RotChk:  IX=0 Diff= 5.82D-02
 Largest Abelian subgroup         C1      NOp   1
 Largest concise Abelian subgroup C1      NOp   1
                         Standard orientation:                         
 ---------------------------------------------------------------------
 Center     Atomic      Atomic             Coordinates (Angstroms)
 Number     Number       Type             X           Y           Z
 ---------------------------------------------------------------------
      1          8           0       -2.473438   -0.895231   -0.000161
      2          6           0       -1.333314   -0.230982    0.000014
      3          7           0       -0.154794   -0.831356    0.000374
      4          6           0        0.662016    0.248733    0.000498
      5          6           0        2.127860    0.173084    0.000332
      6          8           0        2.779824   -0.845971   -0.000586
      7          6           0       -0.125543    1.450796   -0.000134
      8          7           0       -1.414904    1.155522   -0.000229
      9          1           0       -2.257716   -1.841353    0.000324
     10          1           0        2.619718    1.169690    0.001000
     11          1           0        0.188678    2.482327   -0.000630
 ---------------------------------------------------------------------
 Rotational constants (GHZ):           5.5912395           1.4723077           1.1654238
 Leave Link  202 at Sat Aug 27 16:04:30 2022, MaxMem=  8053063680 cpu:               0.1 elap:               0.0
 (Enter /public3/home/scg5914/software-scg5914/g16/l301.exe)
 Standard basis: 6-311+G(d,p) (5D, 7F)
 Ernie: Thresh=  0.10000D-02 Tol=  0.10000D-05 Strict=F.
 There are   202 symmetry adapted cartesian basis functions of A   symmetry.
 There are   194 symmetry adapted basis functions of A   symmetry.
   194 basis functions,   312 primitive gaussians,   202 cartesian basis functions
    29 alpha electrons       28 beta electrons
       nuclear repulsion energy       336.9306040795 Hartrees.
 IExCor=  402 DFT=T Ex+Corr=B3LYP ExCW=0 ScaHFX=  0.200000
 ScaDFX=  0.800000  0.720000  1.000000  0.810000 ScalE2=  1.000000  1.000000
 IRadAn=      5 IRanWt=     -1 IRanGd=            0 ICorTp=0 IEmpDi=141
 NAtoms=   11 NActive=   11 NUniq=   11 SFac= 1.00D+00 NAtFMM=   60 NAOKFM=F Big=F
 Integral buffers will be    131072 words long.
 Raffenetti 2 integral format.
 Two-electron integral symmetry is turned on.
 R6Disp:  Grimme-D3(BJ) Dispersion energy=       -0.0161837667 Hartrees.
 Nuclear repulsion after empirical dispersion term =      336.9144203128 Hartrees.
 Leave Link  301 at Sat Aug 27 16:04:30 2022, MaxMem=  8053063680 cpu:               0.7 elap:               0.0
 (Enter /public3/home/scg5914/software-scg5914/g16/l302.exe)
 NPDir=0 NMtPBC=     1 NCelOv=     1 NCel=       1 NClECP=     1 NCelD=      1
         NCelK=      1 NCelE2=     1 NClLst=     1 CellRange=     0.0.
 One-electron integrals computed using PRISM.
 One-electron integral symmetry used in STVInt
 NBasis=   194 RedAO= T EigKep=  1.16D-05  NBF=   194
 NBsUse=   194 1.00D-06 EigRej= -1.00D+00 NBFU=   194
 Precomputing XC quadrature grid using
 IXCGrd= 4 IRadAn=           5 IRanWt=          -1 IRanGd=           0 AccXCQ= 0.00D+00.
 Generated NRdTot=       0 NPtTot=           0 NUsed=           0 NTot=          32
 NSgBfM=   202   202   202   202   202 MxSgAt=    11 MxSgA2=    11.
 Leave Link  302 at Sat Aug 27 16:04:30 2022, MaxMem=  8053063680 cpu:               3.3 elap:               0.1
 (Enter /public3/home/scg5914/software-scg5914/g16/l303.exe)
 DipDrv:  MaxL=1.
 Leave Link  303 at Sat Aug 27 16:04:30 2022, MaxMem=  8053063680 cpu:               0.4 elap:               0.0
 (Enter /public3/home/scg5914/software-scg5914/g16/l401.exe)
 Initial guess from the checkpoint file:  "dsgdb9nsd_004669-4.chk"
 B after Tr=     0.000000   -0.000000    0.000000
         Rot=    0.999832   -0.000004   -0.000001   -0.018312 Ang=  -2.10 deg.
 Guess basis will be translated and rotated to current coordinates.
 JPrj=2 DoOrth=T DoCkMO=T.
 Initial guess <Sx>= 0.0000 <Sy>= 0.0000 <Sz>= 0.5000 <S**2>= 0.7612 S= 0.5056
 Generating alternative initial guess.
 ExpMin= 4.38D-02 ExpMax= 8.59D+03 ExpMxC= 1.30D+03 IAcc=3 IRadAn=         5 AccDes= 0.00D+00
 Harris functional with IExCor=  402 and IRadAn=       5 diagonalized for initial guess.
 HarFok:  IExCor=  402 AccDes= 0.00D+00 IRadAn=         5 IDoV= 1 UseB2=F ITyADJ=14
 ICtDFT=  3500011 ScaDFX=  1.000000  1.000000  1.000000  1.000000
 FoFCou: FMM=F IPFlag=           0 FMFlag=      100000 FMFlg1=           0
         NFxFlg=           0 DoJE=T BraDBF=F KetDBF=T FulRan=T
         wScrn=  0.000000 ICntrl=       500 IOpCl=  0 I1Cent=   200000004 NGrid=           0
         NMat0=    1 NMatS0=      1 NMatT0=    0 NMatD0=    1 NMtDS0=    0 NMtDT0=    0
 Petite list used in FoFCou.
 Harris En= -414.231065374350    
 Leave Link  401 at Sat Aug 27 16:04:31 2022, MaxMem=  8053063680 cpu:               9.7 elap:               0.3
 (Enter /public3/home/scg5914/software-scg5914/g16/l502.exe)
 Keep R1 and R2 ints in memory in canonical form, NReq=390765352.
 FoFCou: FMM=F IPFlag=           0 FMFlag=           0 FMFlg1=           0
         NFxFlg=           0 DoJE=F BraDBF=F KetDBF=F FulRan=T
         wScrn=  0.000000 ICntrl=       600 IOpCl=  0 I1Cent=           0 NGrid=           0
         NMat0=    1 NMatS0=  18915 NMatT0=    0 NMatD0=    1 NMtDS0=    0 NMtDT0=    0
 Symmetry not used in FoFCou.
 Two-electron integral symmetry not used.
 UHF open shell SCF:
 Using DIIS extrapolation, IDIIS=  1040.
 NGot=  8053063680 LenX=  7695177264 LenY=  7695136019
 Requested convergence on RMS density matrix=1.00D-08 within 128 cycles.
 Requested convergence on MAX density matrix=1.00D-06.
 Requested convergence on             energy=1.00D-06.
 No special actions if energy rises.

 Cycle   1  Pass 1  IDiag  1:
 E= -414.243040044510    
 DIIS: error= 4.45D-03 at cycle   1 NSaved=   1.
 NSaved= 1 IEnMin= 1 EnMin= -414.243040044510     IErMin= 1 ErrMin= 4.45D-03
 ErrMax= 4.45D-03  0.00D+00 EMaxC= 1.00D-01 BMatC= 3.03D-02 BMatP= 3.03D-02
 IDIUse=3 WtCom= 9.55D-01 WtEn= 4.45D-02
 Coeff-Com:  0.100D+01
 Coeff-En:   0.100D+01
 Coeff:      0.100D+01
 Gap=     0.444 Goal=   None    Shift=    0.000
 Gap=     0.480 Goal=   None    Shift=    0.000
 GapD=    0.444 DampG=2.000 DampE=1.000 DampFc=2.0000 IDamp=-1.
 RMSDP=4.85D-03 MaxDP=3.21D-01              OVMax= 8.06D-02

 Cycle   2  Pass 1  IDiag  1:
 E= -414.252102578466     Delta-E=       -0.009062533956 Rises=F Damp=F
 DIIS: error= 2.97D-03 at cycle   2 NSaved=   2.
 NSaved= 2 IEnMin= 2 EnMin= -414.252102578466     IErMin= 2 ErrMin= 2.97D-03
 ErrMax= 2.97D-03  0.00D+00 EMaxC= 1.00D-01 BMatC= 5.96D-03 BMatP= 3.03D-02
 IDIUse=3 WtCom= 9.70D-01 WtEn= 2.97D-02
 Coeff-Com:  0.188D+00 0.812D+00
 Coeff-En:   0.000D+00 0.100D+01
 Coeff:      0.183D+00 0.817D+00
 Gap=     0.186 Goal=   None    Shift=    0.000
 Gap=     0.099 Goal=   None    Shift=    0.000
 RMSDP=4.95D-04 MaxDP=1.37D-02 DE=-9.06D-03 OVMax= 3.38D-02

 Cycle   3  Pass 1  IDiag  1:
 E= -414.251047418822     Delta-E=        0.001055159644 Rises=F Damp=F
 DIIS: error= 4.43D-03 at cycle   3 NSaved=   3.
 NSaved= 3 IEnMin= 2 EnMin= -414.252102578466     IErMin= 2 ErrMin= 2.97D-03
 ErrMax= 4.43D-03  0.00D+00 EMaxC= 1.00D-01 BMatC= 1.10D-02 BMatP= 5.96D-03
 IDIUse=3 WtCom= 1.31D-01 WtEn= 8.69D-01
 Coeff-Com: -0.108D-01 0.583D+00 0.428D+00
 Coeff-En:   0.000D+00 0.621D+00 0.379D+00
 Coeff:     -0.141D-02 0.616D+00 0.386D+00
 Gap=     0.186 Goal=   None    Shift=    0.000
 Gap=     0.099 Goal=   None    Shift=    0.000
 RMSDP=3.71D-04 MaxDP=2.11D-02 DE= 1.06D-03 OVMax= 2.91D-02

 Cycle   4  Pass 1  IDiag  1:
 E= -414.253467483731     Delta-E=       -0.002420064909 Rises=F Damp=F
 DIIS: error= 6.92D-04 at cycle   4 NSaved=   4.
 NSaved= 4 IEnMin= 4 EnMin= -414.253467483731     IErMin= 4 ErrMin= 6.92D-04
 ErrMax= 6.92D-04  0.00D+00 EMaxC= 1.00D-01 BMatC= 2.06D-04 BMatP= 5.96D-03
 IDIUse=3 WtCom= 9.93D-01 WtEn= 6.92D-03
 Coeff-Com: -0.128D-01 0.280D+00 0.196D+00 0.537D+00
 Coeff-En:   0.000D+00 0.000D+00 0.000D+00 0.100D+01
 Coeff:     -0.127D-01 0.278D+00 0.194D+00 0.540D+00
 Gap=     0.186 Goal=   None    Shift=    0.000
 Gap=     0.099 Goal=   None    Shift=    0.000
 RMSDP=7.12D-05 MaxDP=2.27D-03 DE=-2.42D-03 OVMax= 7.88D-03

 Cycle   5  Pass 1  IDiag  1:
 E= -414.253534419317     Delta-E=       -0.000066935586 Rises=F Damp=F
 DIIS: error= 4.49D-04 at cycle   5 NSaved=   5.
 NSaved= 5 IEnMin= 5 EnMin= -414.253534419317     IErMin= 5 ErrMin= 4.49D-04
 ErrMax= 4.49D-04  0.00D+00 EMaxC= 1.00D-01 BMatC= 6.99D-05 BMatP= 2.06D-04
 IDIUse=3 WtCom= 9.96D-01 WtEn= 4.49D-03
 Coeff-Com: -0.439D-02 0.146D-01 0.307D-01 0.293D+00 0.666D+00
 Coeff-En:   0.000D+00 0.000D+00 0.000D+00 0.000D+00 0.100D+01
 Coeff:     -0.437D-02 0.145D-01 0.305D-01 0.292D+00 0.668D+00
 Gap=     0.186 Goal=   None    Shift=    0.000
 Gap=     0.099 Goal=   None    Shift=    0.000
 RMSDP=4.43D-05 MaxDP=1.65D-03 DE=-6.69D-05 OVMax= 7.55D-03

 Cycle   6  Pass 1  IDiag  1:
 E= -414.253574364983     Delta-E=       -0.000039945666 Rises=F Damp=F
 DIIS: error= 2.96D-04 at cycle   6 NSaved=   6.
 NSaved= 6 IEnMin= 6 EnMin= -414.253574364983     IErMin= 6 ErrMin= 2.96D-04
 ErrMax= 2.96D-04  0.00D+00 EMaxC= 1.00D-01 BMatC= 2.28D-05 BMatP= 6.99D-05
 IDIUse=3 WtCom= 9.97D-01 WtEn= 2.96D-03
 Coeff-Com:  0.176D-02-0.708D-01-0.238D-01-0.533D-01 0.322D+00 0.825D+00
 Coeff-En:   0.000D+00 0.000D+00 0.000D+00 0.000D+00 0.000D+00 0.100D+01
 Coeff:      0.175D-02-0.706D-01-0.237D-01-0.532D-01 0.321D+00 0.825D+00
 Gap=     0.186 Goal=   None    Shift=    0.000
 Gap=     0.098 Goal=   None    Shift=    0.000
 RMSDP=4.07D-05 MaxDP=1.15D-03 DE=-3.99D-05 OVMax= 7.13D-03

 Cycle   7  Pass 1  IDiag  1:
 E= -414.253595369957     Delta-E=       -0.000021004974 Rises=F Damp=F
 DIIS: error= 1.84D-04 at cycle   7 NSaved=   7.
 NSaved= 7 IEnMin= 7 EnMin= -414.253595369957     IErMin= 7 ErrMin= 1.84D-04
 ErrMax= 1.84D-04  0.00D+00 EMaxC= 1.00D-01 BMatC= 1.33D-05 BMatP= 2.28D-05
 IDIUse=3 WtCom= 9.98D-01 WtEn= 1.84D-03
 Coeff-Com:  0.420D-02-0.665D-01-0.305D-01-0.244D+00-0.121D+00 0.680D+00
 Coeff-Com:  0.778D+00
 Coeff-En:   0.000D+00 0.000D+00 0.000D+00 0.000D+00 0.000D+00 0.000D+00
 Coeff-En:   0.100D+01
 Coeff:      0.419D-02-0.663D-01-0.304D-01-0.243D+00-0.121D+00 0.678D+00
 Coeff:      0.778D+00
 Gap=     0.186 Goal=   None    Shift=    0.000
 Gap=     0.099 Goal=   None    Shift=    0.000
 RMSDP=3.74D-05 MaxDP=1.28D-03 DE=-2.10D-05 OVMax= 6.88D-03

 Cycle   8  Pass 1  IDiag  1:
 E= -414.253606711333     Delta-E=       -0.000011341375 Rises=F Damp=F
 DIIS: error= 8.69D-05 at cycle   8 NSaved=   8.
 NSaved= 8 IEnMin= 8 EnMin= -414.253606711333     IErMin= 8 ErrMin= 8.69D-05
 ErrMax= 8.69D-05  0.00D+00 EMaxC= 1.00D-01 BMatC= 2.30D-06 BMatP= 1.33D-05
[...]
  26. LP (   1) N   3                / 81. RY*(   1) C   4                    1.76    1.50    0.066
  26. LP (   1) N   3                / 82. RY*(   2) C   4                    0.59    2.07    0.045
  26. LP (   1) N   3                /181. BD*(   1) O   1 - C   2            1.38    0.78    0.042
  26. LP (   1) N   3                /184. BD*(   1) C   2 - N   8            4.34    0.84    0.077
  26. LP (   1) N   3                /187. BD*(   1) C   4 - C   5            0.51    0.84    0.026
  26. LP (   1) N   3                /188. BD*(   1) C   4 - C   7            3.04    0.84    0.064
  27. LP (   1) O   6                / 98. RY*(   1) C   5                    6.77    1.82    0.140
  27. LP (   1) O   6                /107. RY*(  10) C   5                    0.35    2.31    0.036
  27. LP (   1) O   6                /116. RY*(   2) O   6                    0.27    1.65    0.027
  27. LP (   1) O   6                /187. BD*(   1) C   4 - C   5            0.59    1.15    0.033
  27. LP (   1) O   6                /191. BD*(   1) C   5 - H  10            0.33    1.05    0.024
  28. LP (   2) O   6                / 99. RY*(   2) C   5                    1.72    1.82    0.073
  28. LP (   2) O   6                /102. RY*(   5) C   5                    0.25    2.08    0.030
  28. LP (   2) O   6                /105. RY*(   8) C   5                    0.36    1.39    0.029
  28. LP (   2) O   6                /187. BD*(   1) C   4 - C   5            9.17    0.71    0.103
  28. LP (   2) O   6                /191. BD*(   1) C   5 - H  10           11.50    0.61    0.107
  29. LP (   1) N   8                / 47. RY*(   1) C   2                    1.69    1.43    0.063
  29. LP (   1) N   8                / 48. RY*(   2) C   2                    0.57    1.90    0.042
  29. LP (   1) N   8                / 49. RY*(   3) C   2                    0.26    1.48    0.025
  29. LP (   1) N   8                /132. RY*(   1) C   7                    2.31    1.33    0.071
  29. LP (   1) N   8                /181. BD*(   1) O   1 - C   2            1.14    0.78    0.038
  29. LP (   1) N   8                /183. BD*(   1) C   2 - N   3            3.78    0.88    0.073
  29. LP (   1) N   8                /188. BD*(   1) C   4 - C   7            2.77    0.84    0.061
  29. LP (   1) N   8                /194. BD*(   1) C   7 - H  11            1.04    0.80    0.037
 186. BD*(   2) N   3 - C   4        / 67. RY*(   4) N   3                    0.43    0.47    0.078
 186. BD*(   2) N   3 - C   4        / 88. RY*(   8) C   4                    0.37    0.96    0.104
 187. BD*(   1) C   4 - C   5        / 83. RY*(   3) C   4                    0.56    0.72    0.141
 187. BD*(   1) C   4 - C   5        / 99. RY*(   2) C   5                    0.54    1.11    0.165
 187. BD*(   1) C   4 - C   5        /183. BD*(   1) C   2 - N   3            1.48    0.03    0.039
 187. BD*(   1) C   4 - C   5        /185. BD*(   1) N   3 - C   4            0.32    0.08    0.032
 187. BD*(   1) C   4 - C   5        /192. BD*(   1) C   7 - N   8            0.48    0.11    0.049
 191. BD*(   1) C   5 - H  10        /171. RY*(   1) H  10                    6.59    0.17    0.229
 191. BD*(   1) C   5 - H  10        /173. RY*(   3) H  10                    0.36    2.03    0.188
 191. BD*(   1) C   5 - H  10        /185. BD*(   1) N   3 - C   4            0.34    0.18    0.048
 191. BD*(   1) C   5 - H  10        /188. BD*(   1) C   4 - C   7            0.89    0.09    0.049


 Natural Bond Orbitals (Summary):

                                                            Principal Delocalizations
           NBO                        Occupancy    Energy   (geminal,vicinal,remote)
 ====================================================================================
 Molecular unit  1  (C4H3N2O2)
     1. BD (   1) O   1 - C   2          0.99794    -1.04059  185(v),192(v),49(g),169(v)
     2. BD (   1) O   1 - H   9          0.99080    -0.79335  184(v),49(v),47(v),183(v)
                                                    65(r)
     3. BD (   1) C   2 - N   3          0.99220    -0.84500  187(v),82(v),81(v),184(g)
                                                    185(g),150(v)
     4. BD (   1) C   2 - N   8          0.99051    -0.81918  194(v),133(v),182(v),187(r)
                                                    183(g)
     5. BD (   1) N   3 - C   4          0.98988    -0.86070  181(v),194(v),47(v),187(g)
                                                    51(v),183(g),188(g),98(v)
                                                    191(v)
     6. BD (   2) N   3 - C   4          0.89260    -0.33382  25(v),193(v),190(v),50(v)
                                                    52(v),186(g)
     7. BD (   1) C   4 - C   5          0.99416    -0.72270  183(v),185(g),115(v),189(g)
                                                    188(g),64(v)
     8. BD (   1) C   4 - C   7          0.99403    -0.70250  181(r),189(v),100(v),64(v)
                                                    187(g),149(v),150(v),194(g)
     9. BD (   1) C   5 - O   6          0.99823    -1.09706  98(g),81(v),188(v),187(g)
    10. BD (   2) C   5 - O   6          0.96810    -0.39869  186(v)
    11. BD (   1) C   5 - H  10          0.99312    -0.56418  185(v),115(v),82(v),81(v)
    12. BD (   1) C   7 - N   8          0.99164    -0.87835  181(v),187(v),47(v),194(g)
                                                    48(v),188(g),184(g)
    13. BD (   2) C   7 - N   8          0.92389    -0.34330  25(v),186(v),52(v),50(v)
                                                    193(g)
    14. BD (   1) C   7 - H  11          0.99371    -0.58827  184(v),185(v),82(v),149(v)
    15. CR (   1) O   1                  0.99985   -18.99824  49(v),169(v)
    16. CR (   1) C   2                  0.99964   -10.22122  185(v),192(v)
    17. CR (   1) N   3                  0.99967   -14.14860  47(v),81(v),187(v),84(v)
                                                    181(v)
    18. CR (   1) C   4                  0.99960   -10.13004  133(v),183(v),102(v)
    19. CR (   1) C   5                  0.99969   -10.16391  83(v),185(v),188(v)
    20. CR (   1) O   6                  0.99988   -18.88735  98(v),187(v)
    21. CR (   1) C   7                  0.99964   -10.12621  150(v),81(v),184(v),187(v)
                                                    82(v)
    22. CR (   1) N   8                  0.99970   -14.15382  132(v),47(v),49(v),181(v)
    23. LP (   1) O   1                  0.98636    -0.65668  183(v),49(v),47(v),166(v)
                                                    184(v),51(v)
    24. LP (   2) O   1                  0.81701    -0.36598  25(v),50(v),167(v),62(v)
                                                    31(g)
    25. LP*(   1) C   2                  0.30474    -0.15338  186(v),193(v),31(v),62(g)
                                                    152(v),70(v)
    26. LP (   1) N   3                  0.96068    -0.42004  184(v),188(v),47(v),81(v)
                                                    181(v),48(v),82(v),187(v)
    27. LP (   1) O   6                  0.99299    -0.72355  98(v),187(v),107(v),191(v)
                                                    116(g)
    28. LP (   2) O   6                  0.94014    -0.28926  191(v),187(v),99(v),105(v)
                                                    102(v)
    29. LP (   1) N   8                  0.96491    -0.41924  183(v),188(v),132(v),47(v)
                                                    181(v),194(v),48(v),49(v)
    30. RY*(   1) O   1                  0.00131     0.51086   
    31. RY*(   2) O   1                  0.00042     0.55706   
    32. RY*(   3) O   1                  0.00032     1.17174   
    33. RY*(   4) O   1                  0.00016     1.90223   
    34. RY*(   5) O   1                  0.00008     1.63455   
    35. RY*(   6) O   1                  0.00005     1.29157   
    36. RY*(   7) O   1                  0.00003     1.08339   
    37. RY*(   8) O   1                  0.00000     4.10084   
    38. RY*(   9) O   1                  0.00000     5.06806   
    39. RY*(  10) O   1                  0.00000    49.66450   
    40. RY*(  11) O   1                  0.00000     0.81782   
    41. RY*(  12) O   1                  0.00000     4.79065   
    42. RY*(  13) O   1                  0.00000     3.07799   
    43. RY*(  14) O   1                  0.00000     2.88850   
    44. RY*(  15) O   1                  0.00001     2.89391   
    45. RY*(  16) O   1                  0.00000     2.80645   
    46. RY*(  17) O   1                  0.00000     3.19792   
    47. RY*(   1) C   2                  0.00710     1.01198   
    48. RY*(   2) C   2                  0.00345     1.48518   
    49. RY*(   3) C   2                  0.00258     1.06164   
    50. RY*(   4) C   2                  0.00193     1.50314   
    51. RY*(   5) C   2                  0.00151     1.56126   
    52. RY*(   6) C   2                  0.00116     1.53843   
    53. RY*(   7) C   2                  0.00049     1.67187   
    54. RY*(   8) C   2                  0.00010     1.17151   
    55. RY*(   9) C   2                  0.00009     1.08976   
    56. RY*(  10) C   2                  0.00003     3.28036   
    57. RY*(  11) C   2                  0.00000     0.25698   
    58. RY*(  12) C   2                  0.00000     2.50322   
    59. RY*(  13) C   2                  0.00000     2.52464   
    60. RY*(  14) C   2                  0.00001     1.94395   
    61. RY*(  15) C   2                  0.00001    20.20239   
    62. RY*(  16) C   2                  0.00001     0.63964   
    63. RY*(  17) C   2                  0.00001     1.88706   
    64. RY*(   1) N   3                  0.00173     0.78050   
    65. RY*(   2) N   3                  0.00115     0.77299   
    66. RY*(   3) N   3                  0.00062     1.24108   
    67. RY*(   4) N   3                  0.00032     0.45567   
    68. RY*(   5) N   3                  0.00016     1.10835   
    69. RY*(   6) N   3                  0.00011     2.27599   
    70. RY*(   7) N   3                  0.00008     1.17734   
    71. RY*(   8) N   3                  0.00005     1.82282   
    72. RY*(   9) N   3                  0.00002     1.86220   
    73. RY*(  10) N   3                  0.00001     3.41781   
    74. RY*(  11) N   3                  0.00002     1.86542   
    75. RY*(  12) N   3                  0.00001     2.42498   
    76. RY*(  13) N   3                  0.00000    35.13544   
    77. RY*(  14) N   3                  0.00001     3.81236   
    78. RY*(  15) N   3                  0.00001     2.52165   
    79. RY*(  16) N   3                  0.00000     3.82444   
    80. RY*(  17) N   3                  0.00000     1.97861   
    81. RY*(   1) C   4                  0.00383     1.07829   
    82. RY*(   2) C   4                  0.00265     1.64982   
    83. RY*(   3) C   4                  0.00067     1.14344   
    84. RY*(   4) C   4                  0.00043     0.99235   
    85. RY*(   5) C   4                  0.00034     1.31128   
    86. RY*(   6) C   4                  0.00023     1.40167   
    87. RY*(   7) C   4                  0.00016     1.98849   
    88. RY*(   8) C   4                  0.00010     0.94431   
    89. RY*(   9) C   4                  0.00007     0.55518   
    90. RY*(  10) C   4                  0.00007     2.50078   
    91. RY*(  11) C   4                  0.00004     4.65134   
    92. RY*(  12) C   4                  0.00001     2.61756   
    93. RY*(  13) C   4                  0.00000    19.69204   
    94. RY*(  14) C   4                  0.00001     2.24149   
    95. RY*(  15) C   4                  0.00000     0.38255   
    96. RY*(  16) C   4                  0.00000     2.62383   
    97. RY*(  17) C   4                  0.00000     1.35537   
    98. RY*(   1) C   5                  0.00565     1.09745   
    99. RY*(   2) C   5                  0.00355     1.53571   
   100. RY*(   3) C   5                  0.00104     1.11726   
   101. RY*(   4) C   5                  0.00036     1.08459   
   102. RY*(   5) C   5                  0.00034     1.78833   
   103. RY*(   6) C   5                  0.00006     5.07019   
   104. RY*(   7) C   5                  0.00005     0.95911   
   105. RY*(   8) C   5                  0.00002     1.09956   
   106. RY*(   9) C   5                  0.00002     1.19995   
   107. RY*(  10) C   5                  0.00000     1.58415   
   108. RY*(  11) C   5                  0.00000     0.53424   
   109. RY*(  12) C   5                  0.00000     2.24181   
   110. RY*(  13) C   5                  0.00001     2.29008   
   111. RY*(  14) C   5                  0.00000    19.01199   
   112. RY*(  15) C   5                  0.00000     1.34906   
   113. RY*(  16) C   5                  0.00001     1.33690   
   114. RY*(  17) C   5                  0.00001     2.05170   
   115. RY*(   1) O   6                  0.00226     0.64708   
   116. RY*(   2) O   6                  0.00043     0.92945   
   117. RY*(   3) O   6                  0.00008     0.76790   
   118. RY*(   4) O   6                  0.00004     1.61879   
   119. RY*(   5) O   6                  0.00000     0.87897   
   120. RY*(   6) O   6                  0.00001     0.55331   
   121. RY*(   7) O   6                  0.00000    49.63918   
   122. RY*(   8) O   6                  0.00000     1.16263   
   123. RY*(   9) O   6                  0.00000     5.19558   
   124. RY*(  10) O   6                  0.00000     5.04528   
   125. RY*(  11) O   6                  0.00001     0.95123   
   126. RY*(  12) O   6                  0.00000     4.83386   
   127. RY*(  13) O   6                  0.00000     3.05939   
   128. RY*(  14) O   6                  0.00000     2.89274   
   129. RY*(  15) O   6                  0.00000     2.98868   
   130. RY*(  16) O   6                  0.00000     3.17797   
   131. RY*(  17) O   6                  0.00000     2.96608   
   132. RY*(   1) C   7                  0.00400     0.91520   
   133. RY*(   2) C   7                  0.00180     1.19803   
   134. RY*(   3) C   7                  0.00050     1.15541   
   135. RY*(   4) C   7                  0.00032     0.47113   
   136. RY*(   5) C   7                  0.00027     1.01586   
   137. RY*(   6) C   7                  0.00007     1.34074   
   138. RY*(   7) C   7                  0.00006     1.09307   
   139. RY*(   8) C   7                  0.00006     2.04975   
   140. RY*(   9) C   7                  0.00003     2.79352   
   141. RY*(  10) C   7                  0.00001     0.58271   
   142. RY*(  11) C   7                  0.00001     2.13300   
   143. RY*(  12) C   7                  0.00001     4.13111   
   144. RY*(  13) C   7                  0.00000    18.72547   
   145. RY*(  14) C   7                  0.00000     2.56377   
   146. RY*(  15) C   7                  0.00000     1.22741   
   147. RY*(  16) C   7                  0.00001     2.35225   
   148. RY*(  17) C   7                  0.00000     2.10569   
   149. RY*(   1) N   8                  0.00151     0.70419   
   150. RY*(   2) N   8                  0.00077     0.97741   
   151. RY*(   3) N   8                  0.00038     1.26631   
   152. RY*(   4) N   8                  0.00031     0.51951   
   153. RY*(   5) N   8                  0.00013     1.26055   
   154. RY*(   6) N   8                  0.00013     1.14709   
   155. RY*(   7) N   8                  0.00005     1.90602   
   156. RY*(   8) N   8                  0.00002     3.78145   
   157. RY*(   9) N   8                  0.00001     0.93393   
   158. RY*(  10) N   8                  0.00002     2.80659   
   159. RY*(  11) N   8                  0.00000     0.96199   
   160. RY*(  12) N   8                  0.00000     3.80637   
   161. RY*(  13) N   8                  0.00000     2.58145   
   162. RY*(  14) N   8                  0.00000    35.17332   
   163. RY*(  15) N   8                  0.00000     2.08202   
   164. RY*(  16) N   8                  0.00001     3.83836   
   165. RY*(  17) N   8                  0.00001     2.42148   
   166. RY*(   1) H   9                  0.00061     1.77256   
   167. RY*(   2) H   9                  0.00056     1.45511   
   168. RY*(   3) H   9                  0.00043     0.62103   
   169. RY*(   4) H   9                  0.00017     2.04864   
   170. RY*(   5) H   9                  0.00001     2.44465   
   171. RY*(   1) H  10                  0.00109     0.49476   
   172. RY*(   2) H  10                  0.00008     2.19861   
   173. RY*(   3) H  10                  0.00006     2.35821   
   174. RY*(   4) H  10                  0.00003     2.04178   
   175. RY*(   5) H  10                  0.00003     1.54536   
   176. RY*(   1) H  11                  0.00026     1.09560   
   177. RY*(   2) H  11                  0.00010     1.82889   
   178. RY*(   3) H  11                  0.00005     2.36153   
   179. RY*(   4) H  11                  0.00003     1.89154   
   180. RY*(   5) H  11                  0.00003     1.54963   
   181. BD*(   1) O   1 - C   2          0.02031     0.36456   
   182. BD*(   1) O   1 - H   9          0.00392     0.34118   
   183. BD*(   1) C   2 - N   3          0.01980     0.45622   
   184. BD*(   1) C   2 - N   8          0.02202     0.41592   
   185. BD*(   1) N   3 - C   4          0.00832     0.50257   
   186. BD*(   2) N   3 - C   4          0.05183    -0.01176   
   187. BD*(   1) C   4 - C   5          0.03176     0.42295   
   188. BD*(   1) C   4 - C   7          0.02155     0.41616   
   189. BD*(   1) C   5 - O   6          0.00192     0.58675   
   190. BD*(   2) C   5 - O   6          0.01624    -0.01172   
   191. BD*(   1) C   5 - H  10          0.03316     0.32401   
   192. BD*(   1) C   7 - N   8          0.00213     0.53037   
   193. BD*(   2) C   7 - N   8          0.01922    -0.01401   
   194. BD*(   1) C   7 - H  11          0.01066     0.37674   
       -------------------------------
              Total Lewis   27.37058  ( 97.7521%)
        Valence non-Lewis    0.56759  (  2.0271%)
        Rydberg non-Lewis    0.06182  (  0.2208%)
       -------------------------------
            Total unit  1   28.00000  (100.0000%)
           Charge unit  1    0.50000
 Leave Link  607 at Sat Aug 27 16:06:45 2022, MaxMem=  8053063680 cpu:              55.4 elap:               1.7
 (Enter /public3/home/scg5914/software-scg5914/g16/l9999.exe)
 Unable to Open any file for archive entry.
 1\1\GINC-G0608\SP\UB3LYP\Gen\C4H3N2O2(2)\SCG5914\27-Aug-2022\0\\#p b3l
 yp/chkbas pop=nbo geom=allcheck guess=tcheck em=gd3bj\\dsgdb9nsd_00466
 9-4\\0,2\O,0,0.1050354628,1.2522784857,0.1473064976\C,0,0.0690464785,-
 0.0577428154,0.069191862\N,0,0.0957318348,-0.7165368809,-1.1101170511\
 C,0,0.0428585166,-1.9958853757,-0.7316355944\C,0,0.0438026108,-3.15404
 25559,-1.6328333443\O,0,0.0929879934,-3.0887522088,-2.841113918\C,0,-0
 .0162244415,-2.0407486136,0.7366775208\N,0,0.0015500847,-0.8185670621,
 1.2157432498\H,0,0.1508935637,1.603660775,-0.7555896761\H,0,-0.0058960
 779,-4.1319697082,-1.1125567254\H,0,-0.0672081786,-2.9152373887,1.3724
 278953\\Version=ES64L-G16RevC.01\State=2-A\HF=-414.2564705\S2=0.758885
 \S2-1=0.\S2A=0.75006\RMSD=8.133e-09\Dipole=-0.0233,-0.020065,0.5773577
 \Quadrupole=1.6486635,7.5959079,-9.2445714,0.4807899,0.1957778,-7.7463
 948\PG=C01 [X(C4H3N2O2)]\\@
 The archive entry for this job was punched.


 TIME IS NATURE'S WAY OF MAKING SURE EVERYTHING
 DOESN'T HAPPEN AT ONCE.
                     - WOODY ALLEN
 Job cpu time:       0 days  0 hours  1 minutes 38.3 seconds.
 Elapsed time:       0 days  0 hours  0 minutes  3.4 seconds.
 File lengths (MBytes):  RWF=     29 Int=      0 D2E=      0 Chk=      5 Scr=      1
 Normal termination of Gaussian 16 at Sat Aug 27 16:06:45 2022.
