 Entering Gaussian System, Link 0=/public3/home/scg5914/software-scg5914/g16/g16
 Input=dsgdb9nsd_126885-6.gjf
 Output=dsgdb9nsd_126885-6.log
 Initial command:
 /public3/home/scg5914/software-scg5914/g16/l1.exe "/public3/home/scg5914/software-scg5914/test/tmp/dsgdb9nsd_126885-6/Gau-124213.inp" -scrdir="/public3/home/scg5914/software-scg5914/test/tmp/dsgdb9nsd_126885-6/"
 Entering Link 1 = /public3/home/scg5914/software-scg5914/g16/l1.exe PID=    124214.
  
 Copyright (c) 1988-2019, Gaussian, Inc.  All Rights Reserved.
  
 This is part of the Gaussian(R) 16 program.  It is based on
 the Gaussian(R) 09 system (copyright 2009, Gaussian, Inc.),
 the Gaussian(R) 03 system (copyright 2003, Gaussian, Inc.),
 the Gaussian(R) 98 system (copyright 1998, Gaussian, Inc.),
 the Gaussian(R) 94 system (copyright 1995, Gaussian, Inc.),
 the Gaussian 92(TM) system (copyright 1992, Gaussian, Inc.),
 the Gaussian 90(TM) system (copyright 1990, Gaussian, Inc.),
 the Gaussian 88(TM) system (copyright 1988, Gaussian, Inc.),
 the Gaussian 86(TM) system (copyright 1986, Carnegie Mellon
 University), and the Gaussian 82(TM) system (copyright 1983,
 Carnegie Mellon University). Gaussian is a federally registered
 trademark of Gaussian, Inc.
  
 This software contains proprietary and confidential information,
 including trade secrets, belonging to Gaussian, Inc.
  
 This software is provided under written license and may be
 used, copied, transmitted, or stored only in accord with that
 written license.
  
 The following legend is applicable only to US Government
 contracts under FAR:
  
                    RESTRICTED RIGHTS LEGEND
  
 Use, reproduction and disclosure by the US Government is
 subject to restrictions as set forth in subparagraphs (a)
 and (c) of the Commercial Computer Software - Restricted
 Rights clause in FAR 52.227-19.
  
 Gaussian, Inc.
 340 Quinnipiac St., Bldg. 40, Wallingford CT 06492
  
  
 ---------------------------------------------------------------
 Warning -- This program may not be used in any manner that
 competes with the business of Gaussian, Inc. or will provide
 assistance to any competitor of Gaussian, Inc.  The licensee
 of this program is prohibited from giving any competitor of
 Gaussian, Inc. access to this program.  By using this program,
 the user acknowledges that Gaussian, Inc. is engaged in the
 business of creating and licensing software in the field of
 computational chemistry and represents and warrants to the
 licensee that it is not a competitor of Gaussian, Inc. and that
 it will not use this program in any manner prohibited above.
 ---------------------------------------------------------------
  

 Cite this work as:
 Gaussian 16, Revision C.01,
 M. J. Frisch, G. W. Trucks, H. B. Schlegel, G. E. Scuseria, 
 M. A. Robb, J. R. Cheeseman, G. Scalmani, V. Barone, 
 G. A. Petersson, H. Nakatsuji, X. Li, M. Caricato, A. V. Marenich, 
 J. Bloino, B. G. Janesko, R. Gomperts, B. Mennucci, H. P. Hratchian, 
 J. V. Ortiz, A. F. Izmaylov, J. L. Sonnenberg, D. Williams-Young, 
 F. Ding, F. Lipparini, F. Egidi, J. Goings, B. Peng, A. Petrone, 
 T. Henderson, D. Ranasinghe, V. G. Zakrzewski, J. Gao, N. Rega, 
 G. Zheng, W. Liang, M. Hada, M. Ehara, K. Toyota, R. Fukuda, 
 J. Hasegawa, M. Ishida, T. Nakajima, Y. Honda, O. Kitao, H. Nakai, 
 T. Vreven, K. Throssell, J. A. Montgomery, Jr., J. E. Peralta, 
 F. Ogliaro, M. J. Bearpark, J. J. Heyd, E. N. Brothers, K. N. Kudin, 
 V. N. Staroverov, T. A. Keith, R. Kobayashi, J. Normand, 
 K. Raghavachari, A. P. Rendell, J. C. Burant, S. S. Iyengar, 
 J. Tomasi, M. Cossi, J. M. Millam, M. Klene, C. Adamo, R. Cammi, 
 J. W. Ochterski, R. L. Martin, K. Morokuma, O. Farkas, 
 J. B. Foresman, and D. J. Fox, Gaussian, Inc., Wallingford CT, 2019.
 
 ******************************************
 Gaussian 16:  ES64L-G16RevC.01  3-Jul-2019
                30-Oct-2022 
 ******************************************
 %chk=dsgdb9nsd_126885-6.chk
 %mem=60GB
 %nprocshared=32
 Will use up to   32 processors via shared memory.
 ------------------------------------
 #p opt freq b3lyp/6-311+g** em=gd3bj
 ------------------------------------
 1/18=20,19=15,26=3,38=1/1,3;
 2/9=110,12=2,17=6,18=5,40=1/2;
 3/5=4,6=6,7=111,11=2,25=1,30=1,71=1,74=-5,124=41/1,2,3;
 4//1;
 5/5=2,38=5/2;
 6/7=2,8=2,9=2,10=2,28=1/1;
 7//1,2,3,16;
 1/18=20,19=15,26=3/3(2);
 2/9=110/2;
 99//99;
 2/9=110/2;
 3/5=4,6=6,7=111,11=2,25=1,30=1,71=1,74=-5,124=41/1,2,3;
 4/5=5,16=3,69=1/1;
 5/5=2,38=5/2;
 7//1,2,3,16;
 1/18=20,19=15,26=3/3(-5);
 2/9=110/2;
 6/7=2,8=2,9=2,10=2,19=2,28=1/1;
 99/9=1/99;
 Leave Link    1 at Sun Oct 30 08:56:19 2022, MaxMem=  8053063680 cpu:               0.9 elap:               0.0
 (Enter /public3/home/scg5914/software-scg5914/g16/l101.exe)
 ------------------
 dsgdb9nsd_126885-6
 ------------------
 Symbolic Z-matrix:
 Charge =  0 Multiplicity = 2
 C                     0.21851   1.43549  -0.29295 
 C                    -0.43659   0.22247   0.36125 
 N                     0.33902  -0.20744   1.51781 
 C                    -0.04808  -1.2089    2.17566 
 O                    -1.17487  -2.00257   1.93497 
 C                    -1.16333  -2.95306   2.90902 
 N                    -0.1858   -2.86836   3.73083 
 N                     0.52892  -1.77737   3.28947 
 C                     1.73048  -1.33207   3.94849 
 H                     1.23412   1.19384  -0.62062 
 H                    -0.35725   1.76732  -1.16293 
 H                     0.28481   2.26575   0.4166 
 H                    -1.46705   0.47383   0.65613 
 H                    -0.52344  -0.59202  -0.37427 
 H                     2.49761  -2.11248   3.92993 
 H                     2.08455  -0.45757   3.4011 
 H                     1.52524  -1.05714   4.98768 
 
 ITRead=  0  0  0  0  0  0  0  0  0  0  0  0  0  0  0  0  0
 MicOpt= -1 -1 -1 -1 -1 -1 -1 -1 -1 -1 -1 -1 -1 -1 -1 -1 -1
 NAtoms=     17 NQM=       17 NQMF=       0 NMMI=      0 NMMIF=      0
                NMic=       0 NMicF=      0.
                    Isotopes and Nuclear Properties:
 (Nuclear quadrupole moments (NQMom) in fm**2, nuclear magnetic moments (NMagM)
  in nuclear magnetons)

  Atom         1           2           3           4           5           6           7           8           9          10
 IAtWgt=          12          12          14          12          16          12          14          14          12           1
 AtmWgt=  12.0000000  12.0000000  14.0030740  12.0000000  15.9949146  12.0000000  14.0030740  14.0030740  12.0000000   1.0078250
 NucSpn=           0           0           2           0           0           0           2           2           0           1
 AtZEff=  -0.0000000  -0.0000000  -0.0000000  -0.0000000  -0.0000000  -0.0000000  -0.0000000  -0.0000000  -0.0000000  -0.0000000
 NQMom=    0.0000000   0.0000000   2.0440000   0.0000000   0.0000000   0.0000000   2.0440000   2.0440000   0.0000000   0.0000000
 NMagM=    0.0000000   0.0000000   0.4037610   0.0000000   0.0000000   0.0000000   0.4037610   0.4037610   0.0000000   2.7928460
 AtZNuc=   6.0000000   6.0000000   7.0000000   6.0000000   8.0000000   6.0000000   7.0000000   7.0000000   6.0000000   1.0000000

  Atom        11          12          13          14          15          16          17
 IAtWgt=           1           1           1           1           1           1           1
 AtmWgt=   1.0078250   1.0078250   1.0078250   1.0078250   1.0078250   1.0078250   1.0078250
 NucSpn=           1           1           1           1           1           1           1
 AtZEff=  -0.0000000  -0.0000000  -0.0000000  -0.0000000  -0.0000000  -0.0000000  -0.0000000
 NQMom=    0.0000000   0.0000000   0.0000000   0.0000000   0.0000000   0.0000000   0.0000000
 NMagM=    2.7928460   2.7928460   2.7928460   2.7928460   2.7928460   2.7928460   2.7928460
 AtZNuc=   1.0000000   1.0000000   1.0000000   1.0000000   1.0000000   1.0000000   1.0000000
 Leave Link  101 at Sun Oct 30 08:56:19 2022, MaxMem=  8053063680 cpu:               4.6 elap:               0.2
 (Enter /public3/home/scg5914/software-scg5914/g16/l103.exe)

 GradGradGradGradGradGradGradGradGradGradGradGradGradGradGradGradGradGrad
 Berny optimization.
 Initialization pass.
                           ----------------------------
                           !    Initial Parameters    !
                           ! (Angstroms and Degrees)  !
 --------------------------                            --------------------------
 ! Name  Definition              Value          Derivative Info.                !
 --------------------------------------------------------------------------------
 ! R1    R(1,2)                  1.526          estimate D2E/DX2                !
 ! R2    R(1,10)                 1.0942         estimate D2E/DX2                !
 ! R3    R(1,11)                 1.0947         estimate D2E/DX2                !
 ! R4    R(1,12)                 1.0942         estimate D2E/DX2                !
 ! R5    R(2,3)                  1.4574         estimate D2E/DX2                !
 ! R6    R(2,13)                 1.1009         estimate D2E/DX2                !
 ! R7    R(2,14)                 1.1009         estimate D2E/DX2                !
 ! R8    R(3,4)                  1.2592         estimate D2E/DX2                !
 ! R9    R(4,5)                  1.3991         estimate D2E/DX2                !
 ! R10   R(4,8)                  1.3772         estimate D2E/DX2                !
 ! R11   R(5,6)                  1.361          estimate D2E/DX2                !
 ! R12   R(6,7)                  1.2799         estimate D2E/DX2                !
 ! R13   R(7,8)                  1.3769         estimate D2E/DX2                !
 ! R14   R(8,9)                  1.441          estimate D2E/DX2                !
 ! R15   R(9,15)                 1.0945         estimate D2E/DX2                !
 ! R16   R(9,16)                 1.0908         estimate D2E/DX2                !
 ! R17   R(9,17)                 1.0944         estimate D2E/DX2                !
 ! A1    A(2,1,10)             110.5673         estimate D2E/DX2                !
 ! A2    A(2,1,11)             110.8461         estimate D2E/DX2                !
 ! A3    A(2,1,12)             110.5602         estimate D2E/DX2                !
 ! A4    A(10,1,11)            108.4893         estimate D2E/DX2                !
 ! A5    A(10,1,12)            107.7904         estimate D2E/DX2                !
 ! A6    A(11,1,12)            108.494          estimate D2E/DX2                !
 ! A7    A(1,2,3)              110.257          estimate D2E/DX2                !
 ! A8    A(1,2,13)             109.5833         estimate D2E/DX2                !
 ! A9    A(1,2,14)             109.6068         estimate D2E/DX2                !
 ! A10   A(3,2,13)             110.6659         estimate D2E/DX2                !
 ! A11   A(3,2,14)             110.7287         estimate D2E/DX2                !
 ! A12   A(13,2,14)            105.9052         estimate D2E/DX2                !
 ! A13   A(2,3,4)              119.0513         estimate D2E/DX2                !
 ! A14   A(3,4,5)              127.5085         estimate D2E/DX2                !
 ! A15   A(3,4,8)              128.4631         estimate D2E/DX2                !
 ! A16   A(5,4,8)              104.0284         estimate D2E/DX2                !
 ! A17   A(4,5,6)              105.4396         estimate D2E/DX2                !
 ! A18   A(5,6,7)              114.8211         estimate D2E/DX2                !
 ! A19   A(6,7,8)              104.0679         estimate D2E/DX2                !
 ! A20   A(4,8,7)              111.643          estimate D2E/DX2                !
 ! A21   A(4,8,9)              126.277          estimate D2E/DX2                !
 ! A22   A(7,8,9)              122.0796         estimate D2E/DX2                !
 ! A23   A(8,9,15)             110.8767         estimate D2E/DX2                !
 ! A24   A(8,9,16)             106.7936         estimate D2E/DX2                !
 ! A25   A(8,9,17)             110.8266         estimate D2E/DX2                !
 ! A26   A(15,9,16)            109.6112         estimate D2E/DX2                !
 ! A27   A(15,9,17)            109.0679         estimate D2E/DX2                !
 ! A28   A(16,9,17)            109.6341         estimate D2E/DX2                !
 ! D1    D(10,1,2,3)            59.7035         estimate D2E/DX2                !
 ! D2    D(10,1,2,13)         -178.2521         estimate D2E/DX2                !
 ! D3    D(10,1,2,14)          -62.4349         estimate D2E/DX2                !
 ! D4    D(11,1,2,3)          -179.9437         estimate D2E/DX2                !
 ! D5    D(11,1,2,13)          -57.8993         estimate D2E/DX2                !
 ! D6    D(11,1,2,14)           57.9179         estimate D2E/DX2                !
 ! D7    D(12,1,2,3)           -59.5897         estimate D2E/DX2                !
 ! D8    D(12,1,2,13)           62.4548         estimate D2E/DX2                !
 ! D9    D(12,1,2,14)          178.272          estimate D2E/DX2                !
 ! D10   D(1,2,3,4)           -179.2882         estimate D2E/DX2                !
 ! D11   D(13,2,3,4)            59.3091         estimate D2E/DX2                !
 ! D12   D(14,2,3,4)           -57.8143         estimate D2E/DX2                !
 ! D13   D(2,3,4,5)              0.0272         estimate D2E/DX2                !
 ! D14   D(2,3,4,8)           -179.9726         estimate D2E/DX2                !
 ! D15   D(3,4,5,6)            179.937          estimate D2E/DX2                !
 ! D16   D(8,4,5,6)             -0.0631         estimate D2E/DX2                !
 ! D17   D(3,4,8,7)           -179.9214         estimate D2E/DX2                !
 ! D18   D(3,4,8,9)             -0.1485         estimate D2E/DX2                !
 ! D19   D(5,4,8,7)              0.0787         estimate D2E/DX2                !
 ! D20   D(5,4,8,9)            179.8516         estimate D2E/DX2                !
 ! D21   D(4,5,6,7)              0.0296         estimate D2E/DX2                !
 ! D22   D(5,6,7,8)              0.0183         estimate D2E/DX2                !
 ! D23   D(6,7,8,4)             -0.0617         estimate D2E/DX2                !
 ! D24   D(6,7,8,9)           -179.8457         estimate D2E/DX2                !
 ! D25   D(4,8,9,15)          -118.8469         estimate D2E/DX2                !
 ! D26   D(4,8,9,16)             0.5152         estimate D2E/DX2                !
 ! D27   D(4,8,9,17)           119.8768         estimate D2E/DX2                !
 ! D28   D(7,8,9,15)            60.9041         estimate D2E/DX2                !
 ! D29   D(7,8,9,16)          -179.7339         estimate D2E/DX2                !
 ! D30   D(7,8,9,17)           -60.3723         estimate D2E/DX2                !
 --------------------------------------------------------------------------------
 Trust Radius=3.00D-01 FncErr=1.00D-07 GrdErr=1.00D-06 EigMax=2.50D+02 EigMin=1.00D-04
 Number of steps in this run=     85 maximum allowed number of steps=    102.
 GradGradGradGradGradGradGradGradGradGradGradGradGradGradGradGradGradGrad

 Leave Link  103 at Sun Oct 30 08:56:19 2022, MaxMem=  8053063680 cpu:               0.2 elap:               0.0
 (Enter /public3/home/scg5914/software-scg5914/g16/l202.exe)
                          Input orientation:                          
 ---------------------------------------------------------------------
 Center     Atomic      Atomic             Coordinates (Angstroms)
 Number     Number       Type             X           Y           Z
 ---------------------------------------------------------------------
      1          6           0        0.218511    1.435490   -0.292951
      2          6           0       -0.436594    0.222473    0.361247
      3          7           0        0.339023   -0.207438    1.517815
      4          6           0       -0.048081   -1.208905    2.175657
      5          8           0       -1.174867   -2.002566    1.934971
      6          6           0       -1.163333   -2.953065    2.909020
      7          7           0       -0.185801   -2.868356    3.730831
      8          7           0        0.528920   -1.777368    3.289469
      9          6           0        1.730479   -1.332071    3.948488
     10          1           0        1.234122    1.193841   -0.620618
     11          1           0       -0.357246    1.767324   -1.162926
     12          1           0        0.284814    2.265753    0.416605
     13          1           0       -1.467051    0.473829    0.656133
     14          1           0       -0.523439   -0.592019   -0.374273
     15          1           0        2.497605   -2.112476    3.929928
     16          1           0        2.084555   -0.457571    3.401096
     17          1           0        1.525236   -1.057143    4.987685
 ---------------------------------------------------------------------
                    Distance matrix (angstroms):
                    1          2          3          4          5
     1  C    0.000000
     2  C    1.525958   0.000000
     3  N    2.447980   1.457413   0.000000
     4  C    3.627384   2.343474   1.259183   0.000000
     5  O    4.327282   2.823553   2.385030   1.399098   0.000000
     6  C    5.605490   4.135618   3.425054   2.196293   1.361012
     7  N    5.905707   4.579325   3.500481   2.278445   2.225524
     8  N    4.822089   3.675060   2.374764   1.377192   2.188212
     9  C    5.285380   4.470024   3.018133   2.514235   3.597895
    10  H    1.094178   2.167696   2.708815   3.903381   4.748819
    11  H    1.094745   2.171627   3.401594   4.483264   4.947478
    12  H    1.094168   2.167599   2.707817   3.908750   4.759690
    13  H    2.160248   1.100899   2.113888   2.674700   2.802379
    14  H    2.160531   1.100877   2.114649   2.666206   2.783273
    15  H    5.967834   5.176582   3.755921   3.220935   4.180788
    16  H    4.551020   4.007410   2.579961   2.571835   3.893631
    17  H    5.983800   5.185568   3.764186   3.225811   4.183711
                    6          7          8          9         10
     6  C    0.000000
     7  N    1.279889   0.000000
     8  N    2.095405   1.376910   0.000000
     9  C    3.475955   2.465700   1.440951   0.000000
    10  H    5.950039   6.119864   4.961268   5.244362   0.000000
    11  H    6.285904   6.742980   5.759684   6.331777   1.776354
    12  H    5.961990   6.129000   4.965860   5.244853   1.768054
    13  H    4.112340   4.718640   3.998280   4.932045   3.073247
    14  H    4.094388   4.706122   3.991932   4.930932   2.517738
    15  H    3.892468   2.794935   2.097190   1.094468   5.765032
    16  H    4.125336   3.327931   2.043116   1.090760   4.429964
    17  H    3.891499   2.790667   2.096499   1.094367   6.050185
                   11         12         13         14         15
    11  H    0.000000
    12  H    1.776398   0.000000
    13  H    2.492744   2.517419   0.000000
    14  H    2.493210   3.073373   1.757320   0.000000
    15  H    7.010006   6.033968   5.755450   5.473997   0.000000
    16  H    5.634079   4.422980   4.584346   4.590547   1.785773
    17  H    7.025053   5.785763   5.482699   5.758819   1.782717
                   16         17
    16  H    0.000000
    17  H    1.785942   0.000000
 Stoichiometry    C5H8N3O(2)
 Framework group  C1[X(C5H8N3O)]
 Deg. of freedom    45
 Full point group                 C1      NOp   1
 Largest Abelian subgroup         C1      NOp   1
 Largest concise Abelian subgroup C1      NOp   1
                         Standard orientation:                         
 ---------------------------------------------------------------------
 Center     Atomic      Atomic             Coordinates (Angstroms)
 Number     Number       Type             X           Y           Z
 ---------------------------------------------------------------------
      1          6           0        3.450400    0.383533    0.007743
      2          6           0        2.174098   -0.452763   -0.006706
      3          7           0        1.002648    0.414276   -0.005326
      4          6           0       -0.143685   -0.106738   -0.002566
      5          8           0       -0.459993   -1.469609   -0.000021
      6          6           0       -1.819832   -1.525961    0.003875
      7          7           0       -2.404751   -0.387548    0.003540
      8          7           0       -1.369734    0.520526   -0.001349
      9          6           0       -1.599671    1.943012   -0.000022
     10          1           0        3.483822    1.018530    0.898185
     11          1           0        4.336997   -0.258658    0.005819
     12          1           0        3.492378    1.035777   -0.869764
     13          1           0        2.171897   -1.107407   -0.891813
     14          1           0        2.162708   -1.124502    0.865400
     15          1           0       -2.148463    2.248552    0.896266
     16          1           0       -0.619146    2.420756   -0.009559
     17          1           0       -2.165253    2.246560   -0.886371
 ---------------------------------------------------------------------
 Rotational constants (GHZ):           3.4763299           1.0943231           0.8455039
 Leave Link  202 at Sun Oct 30 08:56:19 2022, MaxMem=  8053063680 cpu:               0.2 elap:               0.0
 (Enter /public3/home/scg5914/software-scg5914/g16/l301.exe)
 Standard basis: 6-311+G(d,p) (5D, 7F)
 Ernie: Thresh=  0.10000D-02 Tol=  0.10000D-05 Strict=F.
 There are   255 symmetry adapted cartesian basis functions of A   symmetry.
 There are   246 symmetry adapted basis functions of A   symmetry.
   246 basis functions,   388 primitive gaussians,   255 cartesian basis functions
    34 alpha electrons       33 beta electrons
       nuclear repulsion energy       443.4648739244 Hartrees.
 IExCor=  402 DFT=T Ex+Corr=B3LYP ExCW=0 ScaHFX=  0.200000
 ScaDFX=  0.800000  0.720000  1.000000  0.810000 ScalE2=  1.000000  1.000000
 IRadAn=      5 IRanWt=     -1 IRanGd=            0 ICorTp=0 IEmpDi=141
 NAtoms=   17 NActive=   17 NUniq=   17 SFac= 1.00D+00 NAtFMM=   60 NAOKFM=F Big=F
 Integral buffers will be    131072 words long.
 Raffenetti 2 integral format.
 Two-electron integral symmetry is turned on.
 R6Disp:  Grimme-D3(BJ) Dispersion energy=       -0.0244042614 Hartrees.
 Nuclear repulsion after empirical dispersion term =      443.4404696630 Hartrees.
 Leave Link  301 at Sun Oct 30 08:56:20 2022, MaxMem=  8053063680 cpu:               0.9 elap:               0.0
 (Enter /public3/home/scg5914/software-scg5914/g16/l302.exe)
 NPDir=0 NMtPBC=     1 NCelOv=     1 NCel=       1 NClECP=     1 NCelD=      1
         NCelK=      1 NCelE2=     1 NClLst=     1 CellRange=     0.0.
 One-electron integrals computed using PRISM.
 One-electron integral symmetry used in STVInt
 NBasis=   246 RedAO= T EigKep=  4.07D-05  NBF=   246
 NBsUse=   246 1.00D-06 EigRej= -1.00D+00 NBFU=   246
 Precomputing XC quadrature grid using
 IXCGrd= 4 IRadAn=           5 IRanWt=          -1 IRanGd=           0 AccXCQ= 0.00D+00.
 Generated NRdTot=       0 NPtTot=           0 NUsed=           0 NTot=          32
 NSgBfM=   255   255   255   255   255 MxSgAt=    17 MxSgA2=    17.
 Leave Link  302 at Sun Oct 30 08:56:20 2022, MaxMem=  8053063680 cpu:               4.4 elap:               0.2
 (Enter /public3/home/scg5914/software-scg5914/g16/l303.exe)
 DipDrv:  MaxL=1.
 Leave Link  303 at Sun Oct 30 08:56:20 2022, MaxMem=  8053063680 cpu:               0.5 elap:               0.0
 (Enter /public3/home/scg5914/software-scg5914/g16/l401.exe)
 ExpMin= 4.38D-02 ExpMax= 8.59D+03 ExpMxC= 1.30D+03 IAcc=3 IRadAn=         5 AccDes= 0.00D+00
 Harris functional with IExCor=  402 and IRadAn=       5 diagonalized for initial guess.
 HarFok:  IExCor=  402 AccDes= 0.00D+00 IRadAn=         5 IDoV= 1 UseB2=F ITyADJ=14
 ICtDFT=  3500011 ScaDFX=  1.000000  1.000000  1.000000  1.000000
 FoFCou: FMM=F IPFlag=           0 FMFlag=      100000 FMFlg1=           0
         NFxFlg=           0 DoJE=T BraDBF=F KetDBF=T FulRan=T
         wScrn=  0.000000 ICntrl=       500 IOpCl=  0 I1Cent=   200000004 NGrid=           0
         NMat0=    1 NMatS0=      1 NMatT0=    0 NMatD0=    1 NMtDS0=    0 NMtDT0=    0
 Petite list used in FoFCou.
 Harris En= -434.821135513511    
 JPrj=0 DoOrth=F DoCkMO=F.
 Initial guess <Sx>= 0.0000 <Sy>= 0.0000 <Sz>= 0.5000 <S**2>= 0.7500 S= 0.5000
 Leave Link  401 at Sun Oct 30 08:56:20 2022, MaxMem=  8053063680 cpu:              13.3 elap:               0.4
 (Enter /public3/home/scg5914/software-scg5914/g16/l502.exe)
 Integral symmetry usage will be decided dynamically.
 UHF open shell SCF:
 Using DIIS extrapolation, IDIIS=  1040.
 NGot=  8053063680 LenX=  8052922524 LenY=  8052857058
 Requested convergence on RMS density matrix=1.00D-08 within 128 cycles.
 Requested convergence on MAX density matrix=1.00D-06.
 Requested convergence on             energy=1.00D-06.
 No special actions if energy rises.
 Fock matrices will be formed incrementally for  20 cycles.

 Cycle   1  Pass 1  IDiag  1:
 FoFJK:  IHMeth= 1 ICntrl=       0 DoSepK=F KAlg= 0 I1Cent=           0 FoldK=F
 IRaf= 920000000 NMat=       1 IRICut=       1 DoRegI=T DoRafI=F ISym2E= 0 IDoP0=0 IntGTp=1.
 FoFCou: FMM=F IPFlag=           0 FMFlag=      100000 FMFlg1=           0
         NFxFlg=           0 DoJE=F BraDBF=F KetDBF=F FulRan=T
         wScrn=  0.000000 ICntrl=         0 IOpCl=  1 I1Cent=           0 NGrid=           0
         NMat0=    1 NMatS0=      1 NMatT0=    0 NMatD0=    1 NMtDS0=    0 NMtDT0=    0
 Symmetry not used in FoFCou.
 E= -434.576549301660    
 DIIS: error= 3.49D-02 at cycle   1 NSaved=   1.
 NSaved= 1 IEnMin= 1 EnMin= -434.576549301660     IErMin= 1 ErrMin= 3.49D-02
 ErrMax= 3.49D-02  0.00D+00 EMaxC= 1.00D-01 BMatC= 1.16D+00 BMatP= 1.16D+00
 IDIUse=3 WtCom= 6.51D-01 WtEn= 3.49D-01
 Coeff-Com:  0.100D+01
 Coeff-En:   0.100D+01
 Coeff:      0.100D+01
 Gap=     0.343 Goal=   None    Shift=    0.000
 Gap=    -0.048 Goal=   None    Shift=    0.000
 GapD=   -0.048 DampG=0.250 DampE=0.500 DampFc=0.2500 IDamp=-1.
 Damping current iteration by 2.50D-01
 RMSDP=7.93D-03 MaxDP=2.75D-01              OVMax= 9.37D-01

 Cycle   2  Pass 1  IDiag  1:
 RMSU=  1.98D-03    CP:  9.95D-01
 E= -434.660229853815     Delta-E=       -0.083680552155 Rises=F Damp=T
 DIIS: error= 1.74D-02 at cycle   2 NSaved=   2.
 NSaved= 2 IEnMin= 2 EnMin= -434.660229853815     IErMin= 2 ErrMin= 1.74D-02
 ErrMax= 1.74D-02  0.00D+00 EMaxC= 1.00D-01 BMatC= 2.63D-01 BMatP= 1.16D+00
 IDIUse=3 WtCom= 8.26D-01 WtEn= 1.74D-01
 Coeff-Com: -0.465D+00 0.146D+01
 Coeff-En:   0.000D+00 0.100D+01
 Coeff:     -0.384D+00 0.138D+01
 Gap=     0.262 Goal=   None    Shift=    0.000
 Gap=    -0.040 Goal=   None    Shift=    0.000
 RMSDP=2.35D-03 MaxDP=9.99D-02 DE=-8.37D-02 OVMax= 9.77D-01

 Cycle   3  Pass 1  IDiag  1:
 RMSU=  2.35D-03    CP:  9.96D-01  9.40D-01
 E= -434.741010650843     Delta-E=       -0.080780797028 Rises=F Damp=F
 DIIS: error= 2.24D-02 at cycle   3 NSaved=   3.
 NSaved= 3 IEnMin= 3 EnMin= -434.741010650843     IErMin= 2 ErrMin= 1.74D-02
 ErrMax= 2.24D-02  0.00D+00 EMaxC= 1.00D-01 BMatC= 3.38D-01 BMatP= 2.63D-01
 IDIUse=2 WtCom= 0.00D+00 WtEn= 1.00D+00
 Coeff-En:   0.000D+00 0.110D+00 0.890D+00
 Coeff:      0.000D+00 0.110D+00 0.890D+00
 Gap=     0.286 Goal=   None    Shift=    0.000
 Gap=    -0.065 Goal=   None    Shift=    0.000
 RMSDP=6.35D-03 MaxDP=3.27D-01 DE=-8.08D-02 OVMax= 9.65D-01

 Cycle   4  Pass 1  IDiag  1:
 RMSU=  2.49D-03    CP:  9.80D-01  3.00D+00 -7.33D-01
 E= -434.322347709282     Delta-E=        0.418662941561 Rises=F Damp=F
 DIIS: error= 5.35D-02 at cycle   4 NSaved=   4.
 NSaved= 4 IEnMin= 3 EnMin= -434.741010650843     IErMin= 2 ErrMin= 1.74D-02
 ErrMax= 5.35D-02  0.00D+00 EMaxC= 1.00D-01 BMatC= 1.99D+00 BMatP= 2.63D-01
 IDIUse=2 WtCom= 0.00D+00 WtEn= 1.00D+00
 Coeff-En:   0.000D+00 0.000D+00 0.781D+00 0.219D+00
 Coeff:      0.000D+00 0.000D+00 0.781D+00 0.219D+00
 Gap=     0.207 Goal=   None    Shift=    0.000
 Gap=     0.016 Goal=   None    Shift=    0.000
 RMSDP=3.87D-03 MaxDP=2.08D-01 DE= 4.19D-01 OVMax= 1.62D-01

 Cycle   5  Pass 1  IDiag  1:
 RMSU=  2.15D-03    CP:  9.54D-01  1.93D+00 -8.03D-02  3.05D-01
 E= -434.725237299470     Delta-E=       -0.402889590188 Rises=F Damp=F
 DIIS: error= 2.56D-02 at cycle   5 NSaved=   5.
 NSaved= 5 IEnMin= 3 EnMin= -434.741010650843     IErMin= 2 ErrMin= 1.74D-02
 ErrMax= 2.56D-02  0.00D+00 EMaxC= 1.00D-01 BMatC= 3.93D-01 BMatP= 2.63D-01
 IDIUse=2 WtCom= 0.00D+00 WtEn= 1.00D+00
 Coeff-En:   0.000D+00 0.000D+00 0.529D+00 0.000D+00 0.471D+00
 Coeff:      0.000D+00 0.000D+00 0.529D+00 0.000D+00 0.471D+00
 Gap=     0.286 Goal=   None    Shift=    0.000
 Gap=    -0.003 Goal=   None    Shift=    0.000
 RMSDP=4.02D-03 MaxDP=2.99D-01 DE=-4.03D-01 OVMax= 9.87D-01

 Cycle   6  Pass 1  IDiag  1:
 RMSU=  9.95D-04    CP:  1.00D+00  8.59D-01  8.36D-01 -6.18D-02 -1.92D-02
 E= -434.795730616546     Delta-E=       -0.070493317076 Rises=F Damp=F
 DIIS: error= 1.57D-02 at cycle   6 NSaved=   6.
 NSaved= 6 IEnMin= 6 EnMin= -434.795730616546     IErMin= 6 ErrMin= 1.57D-02
 ErrMax= 1.57D-02  0.00D+00 EMaxC= 1.00D-01 BMatC= 9.56D-02 BMatP= 2.63D-01
 IDIUse=3 WtCom= 8.43D-01 WtEn= 1.57D-01
 EnCoef did    13 forward-backward iterations
 Coeff-Com: -0.109D+00 0.251D+00 0.277D+00-0.107D+00 0.476D+00 0.211D+00
 Coeff-En:   0.000D+00 0.000D+00 0.262D-01 0.000D+00 0.287D+00 0.686D+00
 Coeff:     -0.920D-01 0.211D+00 0.238D+00-0.899D-01 0.447D+00 0.286D+00
 Gap=     0.260 Goal=   None    Shift=    0.000
 Gap=    -0.006 Goal=   None    Shift=    0.000
 RMSDP=3.65D-03 MaxDP=2.76D-01 DE=-7.05D-02 OVMax= 9.42D-01

 Cycle   7  Pass 1  IDiag  1:
 RMSU=  8.58D-04    CP:  9.45D-01  1.56D+00  1.44D-01  1.75D-01  1.15D+00
                    CP:  1.25D-01
 E= -434.800263096807     Delta-E=       -0.004532480261 Rises=F Damp=F
 DIIS: error= 1.47D-02 at cycle   7 NSaved=   7.
 NSaved= 7 IEnMin= 7 EnMin= -434.800263096807     IErMin= 7 ErrMin= 1.47D-02
 ErrMax= 1.47D-02  0.00D+00 EMaxC= 1.00D-01 BMatC= 1.13D-01 BMatP= 9.56D-02
 IDIUse=2 WtCom= 0.00D+00 WtEn= 1.00D+00
 Coeff-En:   0.000D+00 0.000D+00 0.000D+00 0.000D+00 0.000D+00 0.470D+00
 Coeff-En:   0.530D+00
 Coeff:      0.000D+00 0.000D+00 0.000D+00 0.000D+00 0.000D+00 0.470D+00
 Coeff:      0.530D+00
 Gap=     0.241 Goal=   None    Shift=    0.000
 Gap=     0.009 Goal=   None    Shift=    0.000
 RMSDP=1.90D-03 MaxDP=1.16D-01 DE=-4.53D-03 OVMax= 4.72D-01

 Cycle   8  Pass 1  IDiag  1:
 RMSU=  6.62D-04    CP:  9.69D-01  1.23D+00  5.00D-01 -4.63D-02  7.31D-01
                    CP:  8.74D-01  1.61D+00
 E= -434.828224599015     Delta-E=       -0.027961502208 Rises=F Damp=F
 DIIS: error= 5.41D-03 at cycle   8 NSaved=   8.
 NSaved= 8 IEnMin= 8 EnMin= -434.828224599015     IErMin= 8 ErrMin= 5.41D-03
 ErrMax= 5.41D-03  0.00D+00 EMaxC= 1.00D-01 BMatC= 1.34D-02 BMatP= 9.56D-02
 IDIUse=3 WtCom= 9.46D-01 WtEn= 5.41D-02
 Coeff-Com: -0.601D-02 0.251D-01-0.408D-01 0.374D-01-0.141D+00 0.282D+00
 Coeff-Com:  0.357D+00 0.486D+00
 Coeff-En:   0.000D+00 0.000D+00 0.000D+00 0.000D+00 0.000D+00 0.000D+00
 Coeff-En:   0.000D+00 0.100D+01
 Coeff:     -0.568D-02 0.238D-01-0.386D-01 0.354D-01-0.133D+00 0.267D+00
 Coeff:      0.338D+00 0.514D+00
 Gap=     0.244 Goal=   None    Shift=    0.000
 Gap=     0.036 Goal=   None    Shift=    0.000
 RMSDP=5.26D-04 MaxDP=2.96D-02 DE=-2.80D-02 OVMax= 9.52D-02

 Cycle   9  Pass 1  IDiag  1:
 RMSU=  2.63D-04    CP:  9.62D-01  1.28D+00  3.75D-01  1.05D-02  8.32D-01
                    CP:  8.34D-01  1.60D+00  7.16D-01
 E= -434.829657422612     Delta-E=       -0.001432823597 Rises=F Damp=F
 DIIS: error= 4.36D-03 at cycle   9 NSaved=   9.
 NSaved= 9 IEnMin= 9 EnMin= -434.829657422612     IErMin= 9 ErrMin= 4.36D-03
 ErrMax= 4.36D-03  0.00D+00 EMaxC= 1.00D-01 BMatC= 8.20D-03 BMatP= 1.34D-02
 IDIUse=3 WtCom= 9.56D-01 WtEn= 4.36D-02
 Coeff-Com: -0.484D-02 0.233D-01 0.196D-01 0.362D-02-0.281D-01 0.315D-01
 Coeff-Com: -0.946D-01 0.229D+00 0.821D+00
 Coeff-En:   0.000D+00 0.000D+00 0.000D+00 0.000D+00 0.000D+00 0.000D+00
 Coeff-En:   0.000D+00 0.365D+00 0.635D+00
 Coeff:     -0.463D-02 0.223D-01 0.187D-01 0.347D-02-0.269D-01 0.301D-01
 Coeff:     -0.905D-01 0.235D+00 0.813D+00
 Gap=     0.243 Goal=   None    Shift=    0.000
 Gap=     0.051 Goal=   None    Shift=    0.000
 RMSDP=2.47D-04 MaxDP=1.26D-02 DE=-1.43D-03 OVMax= 4.19D-02

 Cycle  10  Pass 1  IDiag  1:
 RMSU=  1.39D-04    CP:  9.64D-01  1.23D+00  4.21D-01 -3.39D-02  8.05D-01
                    CP:  8.49D-01  1.62D+00  7.81D-01  1.08D+00
 E= -434.831625367969     Delta-E=       -0.001967945357 Rises=F Damp=F
 DIIS: error= 1.25D-03 at cycle  10 NSaved=  10.
 NSaved=10 IEnMin=10 EnMin= -434.831625367969     IErMin=10 ErrMin= 1.25D-03
 ErrMax= 1.25D-03  0.00D+00 EMaxC= 1.00D-01 BMatC= 1.08D-03 BMatP= 8.20D-03
 IDIUse=3 WtCom= 9.87D-01 WtEn= 1.25D-02
 Coeff-Com:  0.820D-02-0.124D-01 0.117D-01 0.220D-02-0.200D-02 0.135D-01
 Coeff-Com: -0.107D+00 0.188D-01 0.273D+00 0.794D+00
 Coeff-En:   0.000D+00 0.000D+00 0.000D+00 0.000D+00 0.000D+00 0.000D+00
 Coeff-En:   0.000D+00 0.000D+00 0.000D+00 0.100D+01
 Coeff:      0.810D-02-0.123D-01 0.115D-01 0.218D-02-0.198D-02 0.133D-01
 Coeff:     -0.105D+00 0.185D-01 0.269D+00 0.797D+00
 Gap=     0.238 Goal=   None    Shift=    0.000
 Gap=     0.055 Goal=   None    Shift=    0.000
 RMSDP=8.92D-05 MaxDP=2.09D-03 DE=-1.97D-03 OVMax= 1.05D-02

 Cycle  11  Pass 1  IDiag  1:
 RMSU=  6.97D-05    CP:  9.63D-01  1.22D+00  4.13D-01 -4.46D-02  8.17D-01
                    CP:  8.60D-01  1.62D+00  7.83D-01  1.17D+00  1.13D+00
 E= -434.831787532611     Delta-E=       -0.000162164642 Rises=F Damp=F
 DIIS: error= 1.25D-03 at cycle  11 NSaved=  11.
 NSaved=11 IEnMin=11 EnMin= -434.831787532611     IErMin=10 ErrMin= 1.25D-03
 ErrMax= 1.25D-03  0.00D+00 EMaxC= 1.00D-01 BMatC= 7.85D-04 BMatP= 1.08D-03
 IDIUse=3 WtCom= 9.87D-01 WtEn= 1.25D-02
 Coeff-Com:  0.521D-02-0.906D-02-0.118D-03 0.520D-02-0.183D-01 0.277D-01
 Coeff-Com: -0.374D-01-0.272D-01-0.734D-01 0.439D+00 0.689D+00
 Coeff-En:   0.000D+00 0.000D+00 0.000D+00 0.000D+00 0.000D+00 0.000D+00
 Coeff-En:   0.000D+00 0.000D+00 0.000D+00 0.000D+00 0.100D+01
 Coeff:      0.515D-02-0.895D-02-0.117D-03 0.513D-02-0.181D-01 0.274D-01
 Coeff:     -0.369D-01-0.268D-01-0.725D-01 0.433D+00 0.693D+00
 Gap=     0.238 Goal=   None    Shift=    0.000
 Gap=     0.056 Goal=   None    Shift=    0.000
 RMSDP=5.52D-05 MaxDP=1.71D-03 DE=-1.62D-04 OVMax= 1.02D-02

 Cycle  12  Pass 1  IDiag  1:
 RMSU=  2.81D-05    CP:  9.62D-01  1.22D+00  4.13D-01 -5.01D-02  8.31D-01
                    CP:  8.50D-01  1.62D+00  7.64D-01  1.20D+00  1.33D+00
                    CP:  1.06D+00
 E= -434.831891942854     Delta-E=       -0.000104410243 Rises=F Damp=F
 DIIS: error= 1.08D-03 at cycle  12 NSaved=  12.
 NSaved=12 IEnMin=12 EnMin= -434.831891942854     IErMin=12 ErrMin= 1.08D-03
 ErrMax= 1.08D-03  0.00D+00 EMaxC= 1.00D-01 BMatC= 5.80D-04 BMatP= 7.85D-04
 IDIUse=3 WtCom= 9.89D-01 WtEn= 1.08D-02
 Coeff-Com:  0.487D-02-0.721D-02-0.304D-02 0.798D-02-0.281D-01 0.271D-01
 Coeff-Com: -0.139D-01-0.253D-02-0.114D+00 0.504D-01 0.379D+00 0.699D+00
 Coeff-En:   0.000D+00 0.000D+00 0.000D+00 0.000D+00 0.000D+00 0.000D+00
 Coeff-En:   0.000D+00 0.000D+00 0.000D+00 0.000D+00 0.000D+00 0.100D+01
 Coeff:      0.482D-02-0.713D-02-0.300D-02 0.790D-02-0.278D-01 0.268D-01
 Coeff:     -0.137D-01-0.251D-02-0.113D+00 0.499D-01 0.375D+00 0.703D+00
 Gap=     0.236 Goal=   None    Shift=    0.000
 Gap=     0.056 Goal=   None    Shift=    0.000
 RMSDP=5.28D-05 MaxDP=1.77D-03 DE=-1.04D-04 OVMax= 8.52D-03

 Cycle  13  Pass 1  IDiag  1:
 RMSU=  2.01D-05    CP:  9.62D-01  1.21D+00  4.08D-01 -5.85D-02  8.45D-01
                    CP:  8.44D-01  1.62D+00  7.51D-01  1.21D+00  1.48D+00
                    CP:  1.27D+00  1.07D+00
 E= -434.831969019441     Delta-E=       -0.000077076587 Rises=F Damp=F
 DIIS: error= 9.69D-04 at cycle  13 NSaved=  13.
 NSaved=13 IEnMin=13 EnMin= -434.831969019441     IErMin=13 ErrMin= 9.69D-04
 ErrMax= 9.69D-04  0.00D+00 EMaxC= 1.00D-01 BMatC= 4.35D-04 BMatP= 5.80D-04
 IDIUse=3 WtCom= 9.90D-01 WtEn= 9.69D-03
 Coeff-Com:  0.585D-02-0.839D-02-0.176D-02 0.768D-02-0.264D-01 0.212D-01
 Coeff-Com: -0.164D-01 0.212D-01-0.404D-01-0.416D-01 0.371D-01 0.242D+00
 Coeff-Com:  0.800D+00
 Coeff-En:   0.000D+00 0.000D+00 0.000D+00 0.000D+00 0.000D+00 0.000D+00
 Coeff-En:   0.000D+00 0.000D+00 0.000D+00 0.000D+00 0.000D+00 0.000D+00
 Coeff-En:   0.100D+01
 Coeff:      0.579D-02-0.831D-02-0.175D-02 0.761D-02-0.262D-01 0.210D-01
 Coeff:     -0.163D-01 0.210D-01-0.400D-01-0.412D-01 0.368D-01 0.240D+00
 Coeff:      0.801D+00
 Gap=     0.235 Goal=   None    Shift=    0.000
 Gap=     0.056 Goal=   None    Shift=    0.000
 RMSDP=4.91D-05 MaxDP=2.12D-03 DE=-7.71D-05 OVMax= 9.39D-03

 Cycle  14  Pass 1  IDiag  1:
 RMSU=  1.29D-05    CP:  9.61D-01  1.21D+00  4.03D-01 -6.47D-02  8.60D-01
                    CP:  8.35D-01  1.62D+00  7.38D-01  1.20D+00  1.58D+00
                    CP:  1.43D+00  1.30D+00  1.69D+00
 E= -434.832026657093     Delta-E=       -0.000057637652 Rises=F Damp=F
 DIIS: error= 9.05D-04 at cycle  14 NSaved=  14.
 NSaved=14 IEnMin=14 EnMin= -434.832026657093     IErMin=14 ErrMin= 9.05D-04
 ErrMax= 9.05D-04  0.00D+00 EMaxC= 1.00D-01 BMatC= 3.58D-04 BMatP= 4.35D-04
 IDIUse=3 WtCom= 9.91D-01 WtEn= 9.05D-03
 Coeff-Com:  0.586D-02-0.856D-02-0.179D-02 0.621D-02-0.229D-01 0.173D-01
 Coeff-Com: -0.149D-01 0.363D-01 0.394D-01 0.663D-02-0.148D+00-0.408D+00
 Coeff-Com: -0.294D+00 0.179D+01
 Coeff-En:   0.000D+00 0.000D+00 0.000D+00 0.000D+00 0.000D+00 0.000D+00
 Coeff-En:   0.000D+00 0.000D+00 0.000D+00 0.000D+00 0.000D+00 0.000D+00
 Coeff-En:   0.000D+00 0.100D+01
 Coeff:      0.581D-02-0.849D-02-0.177D-02 0.615D-02-0.227D-01 0.171D-01
 Coeff:     -0.147D-01 0.360D-01 0.391D-01 0.657D-02-0.147D+00-0.405D+00
 Coeff:     -0.291D+00 0.178D+01
 Gap=     0.234 Goal=   None    Shift=    0.000
 Gap=     0.056 Goal=   None    Shift=    0.000
 RMSDP=1.05D-04 MaxDP=5.08D-03 DE=-5.76D-05 OVMax= 2.18D-02

 Cycle  15  Pass 1  IDiag  1:
 RMSU=  1.16D-05    CP:  9.60D-01  1.21D+00  3.93D-01 -7.67D-02  8.95D-01
                    CP:  8.14D-01  1.61D+00  7.04D-01  1.17D+00  1.74D+00
                    CP:  1.67D+00  1.73D+00  3.00D+00  2.85D+00
 E= -434.832134707972     Delta-E=       -0.000108050878 Rises=F Damp=F
 DIIS: error= 8.15D-04 at cycle  15 NSaved=  15.
 NSaved=15 IEnMin=15 EnMin= -434.832134707972     IErMin=15 ErrMin= 8.15D-04
 ErrMax= 8.15D-04  0.00D+00 EMaxC= 1.00D-01 BMatC= 2.62D-04 BMatP= 3.58D-04
 IDIUse=3 WtCom= 9.92D-01 WtEn= 8.15D-03
 Coeff-Com:  0.501D-02-0.739D-02-0.151D-02 0.594D-02-0.204D-01 0.139D-01
 Coeff-Com: -0.140D-01 0.283D-01 0.291D-01 0.406D-01-0.317D-01-0.243D+00
 Coeff-Com: -0.632D+00 0.545D+00 0.128D+01
 Coeff-En:   0.000D+00 0.000D+00 0.000D+00 0.000D+00 0.000D+00 0.000D+00
 Coeff-En:   0.000D+00 0.000D+00 0.000D+00 0.000D+00 0.000D+00 0.000D+00
 Coeff-En:   0.000D+00 0.000D+00 0.100D+01
 Coeff:      0.497D-02-0.733D-02-0.149D-02 0.589D-02-0.202D-01 0.138D-01
 Coeff:     -0.139D-01 0.280D-01 0.288D-01 0.402D-01-0.314D-01-0.241D+00
 Coeff:     -0.627D+00 0.540D+00 0.128D+01
 Gap=     0.232 Goal=   None    Shift=    0.000
 Gap=     0.056 Goal=   None    Shift=    0.000
 RMSDP=1.09D-04 MaxDP=5.42D-03 DE=-1.08D-04 OVMax= 2.31D-02

 Cycle  16  Pass 1  IDiag  1:
 RMSU=  3.58D-05    CP:  9.58D-01  1.21D+00  3.82D-01 -8.89D-02  9.30D-01
                    CP:  7.91D-01  1.61D+00  6.67D-01  1.13D+00  1.89D+00
                    CP:  1.91D+00  2.06D+00  3.00D+00  3.00D+00  3.00D+00
 E= -434.832236453311     Delta-E=       -0.000101745340 Rises=F Damp=F
 DIIS: error= 7.02D-04 at cycle  16 NSaved=  16.
 NSaved=16 IEnMin=16 EnMin= -434.832236453311     IErMin=16 ErrMin= 7.02D-04
 ErrMax= 7.02D-04  0.00D+00 EMaxC= 1.00D-01 BMatC= 1.86D-04 BMatP= 2.62D-04
 IDIUse=3 WtCom= 9.93D-01 WtEn= 7.02D-03
 Coeff-Com:  0.242D-02-0.333D-02-0.116D-02 0.440D-02-0.148D-01 0.844D-02
 Coeff-Com: -0.981D-02 0.135D-02-0.403D-01 0.157D-01 0.237D+00 0.530D+00
 Coeff-Com:  0.132D+00-0.256D+01 0.841D+00 0.186D+01
 Coeff-En:   0.000D+00 0.000D+00 0.000D+00 0.000D+00 0.000D+00 0.000D+00
 Coeff-En:   0.000D+00 0.000D+00 0.000D+00 0.000D+00 0.000D+00 0.000D+00
 Coeff-En:   0.000D+00 0.000D+00 0.000D+00 0.100D+01
 Coeff:      0.240D-02-0.331D-02-0.115D-02 0.437D-02-0.147D-01 0.838D-02
 Coeff:     -0.975D-02 0.134D-02-0.401D-01 0.156D-01 0.236D+00 0.526D+00
 Coeff:      0.132D+00-0.254D+01 0.835D+00 0.185D+01
 Gap=     0.228 Goal=   None    Shift=    0.000
 Gap=     0.056 Goal=   None    Shift=    0.000
 RMSDP=2.19D-04 MaxDP=1.10D-02 DE=-1.02D-04 OVMax= 4.82D-02

 Cycle  17  Pass 1  IDiag  1:
 RMSU=  5.25D-05    CP:  9.55D-01  1.20D+00  3.59D-01 -1.12D-01  9.99D-01
                    CP:  7.39D-01  1.58D+00  5.86D-01  1.04D+00  2.15D+00
                    CP:  2.37D+00  2.66D+00  3.00D+00  3.00D+00  3.00D+00
                    CP:  3.00D+00
 E= -434.832406338606     Delta-E=       -0.000169885295 Rises=F Damp=F
 DIIS: error= 5.09D-04 at cycle  17 NSaved=  17.
 NSaved=17 IEnMin=17 EnMin= -434.832406338606     IErMin=17 ErrMin= 5.09D-04
 ErrMax= 5.09D-04  0.00D+00 EMaxC= 1.00D-01 BMatC= 8.75D-05 BMatP= 1.86D-04
 IDIUse=3 WtCom= 9.95D-01 WtEn= 5.09D-03
 Coeff-Com:  0.195D-02-0.245D-02-0.116D-02 0.329D-02-0.109D-01 0.308D-02
 Coeff-Com: -0.356D-02 0.107D-01 0.449D-02-0.756D-01 0.432D-01 0.343D+00
 Coeff-Com:  0.748D+00-0.134D+01-0.890D+00 0.337D+00 0.183D+01
 Coeff-En:   0.000D+00 0.000D+00 0.000D+00 0.000D+00 0.000D+00 0.000D+00
 Coeff-En:   0.000D+00 0.000D+00 0.000D+00 0.000D+00 0.000D+00 0.000D+00
 Coeff-En:   0.000D+00 0.000D+00 0.000D+00 0.000D+00 0.100D+01
 Coeff:      0.194D-02-0.244D-02-0.116D-02 0.328D-02-0.109D-01 0.307D-02
 Coeff:     -0.354D-02 0.106D-01 0.446D-02-0.752D-01 0.430D-01 0.341D+00
 Coeff:      0.744D+00-0.133D+01-0.885D+00 0.335D+00 0.183D+01
 Gap=     0.223 Goal=   None    Shift=    0.000
 Gap=     0.056 Goal=   None    Shift=    0.000
 RMSDP=2.92D-04 MaxDP=1.42D-02 DE=-1.70D-04 OVMax= 6.69D-02

 Cycle  18  Pass 1  IDiag  1:
 RMSU=  9.27D-05    CP:  9.52D-01  1.21D+00  3.29D-01 -1.41D-01  1.09D+00
                    CP:  6.62D-01  1.52D+00  4.62D-01  9.06D-01  2.50D+00
                    CP:  3.00D+00  3.00D+00  3.00D+00  3.00D+00  3.00D+00
                    CP:  3.00D+00  2.73D+00
 E= -434.832573719405     Delta-E=       -0.000167380799 Rises=F Damp=F
 DIIS: error= 1.90D-04 at cycle  18 NSaved=  18.
 NSaved=18 IEnMin=18 EnMin= -434.832573719405     IErMin=18 ErrMin= 1.90D-04
 ErrMax= 1.90D-04  0.00D+00 EMaxC= 1.00D-01 BMatC= 1.38D-05 BMatP= 8.75D-05
 IDIUse=3 WtCom= 9.98D-01 WtEn= 1.90D-03
 Coeff-Com:  0.123D-02-0.140D-02-0.115D-02 0.173D-02-0.659D-02 0.150D-02
 Coeff-Com:  0.533D-03 0.245D-01 0.624D-01-0.851D-01-0.121D+00-0.699D-01
 Coeff-Com:  0.546D+00 0.142D+00-0.792D+00-0.530D+00 0.827D+00 0.100D+01
 Coeff-En:   0.000D+00 0.000D+00 0.000D+00 0.000D+00 0.000D+00 0.000D+00
 Coeff-En:   0.000D+00 0.000D+00 0.000D+00 0.000D+00 0.000D+00 0.000D+00
 Coeff-En:   0.000D+00 0.000D+00 0.000D+00 0.000D+00 0.000D+00 0.100D+01
 Coeff:      0.123D-02-0.140D-02-0.114D-02 0.172D-02-0.658D-02 0.149D-02
 Coeff:      0.532D-03 0.245D-01 0.623D-01-0.850D-01-0.121D+00-0.698D-01
 Coeff:      0.545D+00 0.142D+00-0.791D+00-0.529D+00 0.825D+00 0.100D+01
 Gap=     0.221 Goal=   None    Shift=    0.000
 Gap=     0.056 Goal=   None    Shift=    0.000
 RMSDP=1.78D-04 MaxDP=8.53D-03 DE=-1.67D-04 OVMax= 4.34D-02

 Cycle  19  Pass 1  IDiag  1:
 RMSU=  4.89D-05    CP:  9.50D-01  1.21D+00  3.10D-01 -1.57D-01  1.13D+00
                    CP:  6.09D-01  1.47D+00  3.77D-01  8.03D-01  2.69D+00
                    CP:  3.00D+00  3.00D+00  3.00D+00  3.00D+00  3.00D+00
                    CP:  3.00D+00  3.00D+00  1.59D+00
 E= -434.832644080789     Delta-E=       -0.000070361384 Rises=F Damp=F
 DIIS: error= 1.13D-04 at cycle  19 NSaved=  19.
 NSaved=19 IEnMin=19 EnMin= -434.832644080789     IErMin=19 ErrMin= 1.13D-04
 ErrMax= 1.13D-04  0.00D+00 EMaxC= 1.00D-01 BMatC= 4.94D-06 BMatP= 1.38D-05
 IDIUse=3 WtCom= 9.99D-01 WtEn= 1.13D-03
 Coeff-Com:  0.455D-03-0.333D-03-0.300D-03 0.576D-03-0.219D-02-0.675D-04
 Coeff-Com:  0.894D-04 0.247D-01 0.741D-01-0.540D-01-0.131D+00-0.202D+00
 Coeff-Com:  0.200D+00 0.305D+00 0.158D-01-0.253D+00-0.460D+00 0.307D+00
 Coeff-Com:  0.118D+01
 Coeff-En:   0.000D+00 0.000D+00 0.000D+00 0.000D+00 0.000D+00 0.000D+00
 Coeff-En:   0.000D+00 0.000D+00 0.000D+00 0.000D+00 0.000D+00 0.000D+00
 Coeff-En:   0.000D+00 0.000D+00 0.000D+00 0.000D+00 0.000D+00 0.000D+00
 Coeff-En:   0.100D+01
 Coeff:      0.455D-03-0.333D-03-0.300D-03 0.575D-03-0.218D-02-0.674D-04
 Coeff:      0.893D-04 0.246D-01 0.740D-01-0.540D-01-0.131D+00-0.202D+00
 Coeff:      0.199D+00 0.305D+00 0.158D-01-0.253D+00-0.460D+00 0.306D+00
 Coeff:      0.118D+01
 Gap=     0.218 Goal=   None    Shift=    0.000
 Gap=     0.055 Goal=   None    Shift=    0.000
 RMSDP=1.71D-04 MaxDP=7.81D-03 DE=-7.04D-05 OVMax= 4.32D-02

 Cycle  20  Pass 1  IDiag  1:
 RMSU=  7.14D-06    CP:  9.48D-01  1.21D+00  2.92D-01 -1.70D-01  1.18D+00
                    CP:  5.54D-01  1.41D+00  2.88D-01  6.97D-01  2.86D+00
                    CP:  3.00D+00  3.00D+00  3.00D+00  3.00D+00  3.00D+00
                    CP:  3.00D+00  3.00D+00  2.13D+00  2.17D+00
 E= -434.832695906800     Delta-E=       -0.000051826011 Rises=F Damp=F
 DIIS: error= 9.70D-05 at cycle  20 NSaved=  20.
 NSaved=20 IEnMin=20 EnMin= -434.832695906800     IErMin=20 ErrMin= 9.70D-05
 ErrMax= 9.70D-05  0.00D+00 EMaxC= 1.00D-01 BMatC= 2.31D-06 BMatP= 4.94D-06
 IDIUse=1 WtCom= 1.00D+00 WtEn= 0.00D+00
 Coeff-Com: -0.645D-04 0.225D-03 0.144D-03-0.186D-04-0.435D-03-0.607D-03
 Coeff-Com: -0.416D-03 0.275D-02 0.908D-02-0.244D-02 0.303D-01 0.843D-01
 Coeff-Com:  0.523D-02-0.778D+00 0.481D+00 0.632D+00-0.296D+00-0.114D+01
 Coeff-Com:  0.481D-01 0.193D+01
 Coeff:     -0.645D-04 0.225D-03 0.144D-03-0.186D-04-0.435D-03-0.607D-03
 Coeff:     -0.416D-03 0.275D-02 0.908D-02-0.244D-02 0.303D-01 0.843D-01
 Coeff:      0.523D-02-0.778D+00 0.481D+00 0.632D+00-0.296D+00-0.114D+01
 Coeff:      0.481D-01 0.193D+01
 Gap=     0.215 Goal=   None    Shift=    0.000
 Gap=     0.055 Goal=   None    Shift=    0.000
 RMSDP=2.65D-04 MaxDP=1.08D-02 DE=-5.18D-05 OVMax= 6.85D-02

 Cycle  21  Pass 1  IDiag  1:
 Restarting incremental Fock formation.
 E= -434.832751188898     Delta-E=       -0.000055282098 Rises=F Damp=F
 DIIS: error= 1.01D-04 at cycle  21 NSaved=  20.
 NSaved=20 IEnMin=20 EnMin= -434.832751188898     IErMin=19 ErrMin= 9.70D-05
 ErrMax= 1.01D-04  0.00D+00 EMaxC= 1.00D-01 BMatC= 5.14D-06 BMatP= 2.31D-06
 IDIUse=1 WtCom= 1.00D+00 WtEn= 0.00D+00
 Coeff-Com: -0.201D-03 0.352D-03 0.571D-04-0.235D-04-0.137D-05 0.127D-02
 Coeff-Com:  0.347D-03-0.233D-02 0.276D-03 0.527D-01 0.137D+00 0.409D-01
 Coeff-Com: -0.857D+00 0.356D+00 0.664D+00-0.305D-01-0.101D+01-0.347D+00
 Coeff-Com:  0.133D+01 0.664D+00
 Coeff:     -0.201D-03 0.352D-03 0.571D-04-0.235D-04-0.137D-05 0.127D-02
 Coeff:      0.347D-03-0.233D-02 0.276D-03 0.527D-01 0.137D+00 0.409D-01
 Coeff:     -0.857D+00 0.356D+00 0.664D+00-0.305D-01-0.101D+01-0.347D+00
 Coeff:      0.133D+01 0.664D+00
 Gap=     0.214 Goal=   None    Shift=    0.000
 Gap=     0.055 Goal=   None    Shift=    0.000
 RMSDP=9.29D-05 MaxDP=3.57D-03 DE=-5.53D-05 OVMax= 2.53D-02

 Cycle  22  Pass 1  IDiag  1:
 RMSU=  9.28D-05    CP:  1.00D+00
 E= -434.832767169973     Delta-E=       -0.000015981075 Rises=F Damp=F
 DIIS: error= 7.24D-05 at cycle  22 NSaved=  20.
 NSaved=20 IEnMin=20 EnMin= -434.832767169973     IErMin=20 ErrMin= 7.24D-05
 ErrMax= 7.24D-05  0.00D+00 EMaxC= 1.00D-01 BMatC= 1.44D-06 BMatP= 2.31D-06
 IDIUse=1 WtCom= 1.00D+00 WtEn= 0.00D+00
 Coeff-Com:  0.569D-04-0.272D-03-0.355D-03-0.365D-03 0.520D-03 0.278D-02
 Coeff-Com:  0.827D-02-0.732D-02-0.750D-02 0.106D-01 0.606D-01-0.112D+00
 Coeff-Com: -0.809D-01 0.317D-01 0.163D+00-0.157D-01-0.154D+00-0.182D+00
 Coeff-Com: -0.108D+01 0.236D+01
 Coeff:      0.569D-04-0.272D-03-0.355D-03-0.365D-03 0.520D-03 0.278D-02
 Coeff:      0.827D-02-0.732D-02-0.750D-02 0.106D-01 0.606D-01-0.112D+00
 Coeff:     -0.809D-01 0.317D-01 0.163D+00-0.157D-01-0.154D+00-0.182D+00
 Coeff:     -0.108D+01 0.236D+01
 Gap=     0.212 Goal=   None    Shift=    0.000
 Gap=     0.055 Goal=   None    Shift=    0.000
 RMSDP=2.24D-04 MaxDP=8.77D-03 DE=-1.60D-05 OVMax= 6.00D-02

 Cycle  23  Pass 1  IDiag  1:
 RMSU=  4.47D-05    CP:  9.99D-01  3.00D+00
 E= -434.832788658150     Delta-E=       -0.000021488177 Rises=F Damp=F
 DIIS: error= 2.25D-04 at cycle  23 NSaved=  20.
 NSaved=20 IEnMin=20 EnMin= -434.832788658150     IErMin=19 ErrMin= 7.24D-05
 ErrMax= 2.25D-04  0.00D+00 EMaxC= 1.00D-01 BMatC= 1.79D-05 BMatP= 1.44D-06
 IDIUse=1 WtCom= 1.00D+00 WtEn= 0.00D+00
 Coeff-Com: -0.241D-03-0.164D-04-0.254D-03 0.102D-02 0.352D-02 0.990D-02
 Coeff-Com: -0.108D-01-0.124D-01-0.394D-03 0.723D-01-0.606D-01-0.110D+00
 Coeff-Com: -0.686D-02 0.155D+00 0.804D-01-0.769D-01-0.236D+00-0.137D+01
 Coeff-Com:  0.230D+01 0.261D+00
 Coeff:     -0.241D-03-0.164D-04-0.254D-03 0.102D-02 0.352D-02 0.990D-02
 Coeff:     -0.108D-01-0.124D-01-0.394D-03 0.723D-01-0.606D-01-0.110D+00
 Coeff:     -0.686D-02 0.155D+00 0.804D-01-0.769D-01-0.236D+00-0.137D+01
 Coeff:      0.230D+01 0.261D+00
 Gap=     0.212 Goal=   None    Shift=    0.000
 Gap=     0.055 Goal=   None    Shift=    0.000
 RMSDP=2.69D-05 MaxDP=1.16D-03 DE=-2.15D-05 OVMax= 7.66D-03

 Cycle  24  Pass 1  IDiag  1:
 RMSU=  1.68D-05    CP:  9.99D-01  3.00D+00  1.47D+00
 E= -434.832793714464     Delta-E=       -0.000005056315 Rises=F Damp=F
 DIIS: error= 1.66D-04 at cycle  24 NSaved=  20.
 NSaved=20 IEnMin=20 EnMin= -434.832793714464     IErMin=18 ErrMin= 7.24D-05
 ErrMax= 1.66D-04  0.00D+00 EMaxC= 1.00D-01 BMatC= 9.75D-06 BMatP= 1.44D-06
 IDIUse=1 WtCom= 1.00D+00 WtEn= 0.00D+00
 Coeff-Com: -0.684D-04-0.502D-03 0.677D-04 0.112D-02 0.406D-02-0.447D-02
 Coeff-Com: -0.264D-02-0.869D-02-0.355D-02-0.358D-01 0.286D-01 0.186D-01
 Coeff-Com: -0.615D-01-0.923D-01 0.974D-01 0.297D+00-0.896D+00 0.401D+00
 Coeff-Com: -0.260D+01 0.385D+01
 Coeff:     -0.684D-04-0.502D-03 0.677D-04 0.112D-02 0.406D-02-0.447D-02
 Coeff:     -0.264D-02-0.869D-02-0.355D-02-0.358D-01 0.286D-01 0.186D-01
 Coeff:     -0.615D-01-0.923D-01 0.974D-01 0.297D+00-0.896D+00 0.401D+00
 Coeff:     -0.260D+01 0.385D+01
 Gap=     0.210 Goal=   None    Shift=    0.000
 Gap=     0.055 Goal=   None    Shift=    0.000
 RMSDP=1.89D-04 MaxDP=8.12D-03 DE=-5.06D-06 OVMax= 5.21D-02

 Cycle  25  Pass 1  IDiag  1:
 RMSU=  1.12D-04    CP:  9.98D-01  3.00D+00  3.00D+00  3.00D+00
 E= -434.832802711465     Delta-E=       -0.000008997001 Rises=F Damp=F
 DIIS: error= 2.81D-04 at cycle  25 NSaved=  20.
 NSaved=20 IEnMin=20 EnMin= -434.832802711465     IErMin=17 ErrMin= 7.24D-05
 ErrMax= 2.81D-04  0.00D+00 EMaxC= 1.00D-01 BMatC= 2.74D-05 BMatP= 1.44D-06
 IDIUse=1 WtCom= 1.00D+00 WtEn= 0.00D+00
 Coeff-Com: -0.639D-03 0.199D-03 0.962D-04 0.783D-03-0.116D-02 0.398D-02
 Coeff-Com:  0.105D-02-0.215D-01-0.972D-01 0.780D-01 0.665D-01-0.753D-01
 Coeff-Com: -0.227D+00 0.542D-01 0.495D+00-0.205D+00 0.921D-02-0.400D+01
 Coeff-Com:  0.429D+01 0.628D+00
 Coeff:     -0.639D-03 0.199D-03 0.962D-04 0.783D-03-0.116D-02 0.398D-02
 Coeff:      0.105D-02-0.215D-01-0.972D-01 0.780D-01 0.665D-01-0.753D-01
 Coeff:     -0.227D+00 0.542D-01 0.495D+00-0.205D+00 0.921D-02-0.400D+01
 Coeff:      0.429D+01 0.628D+00
 Gap=     0.210 Goal=   None    Shift=    0.000
 Gap=     0.055 Goal=   None    Shift=    0.000
 RMSDP=3.24D-05 MaxDP=1.47D-03 DE=-9.00D-06 OVMax= 9.24D-03

 Cycle  26  Pass 1  IDiag  1:
 RMSU=  7.14D-06    CP:  9.98D-01  3.00D+00  3.00D+00  3.00D+00  1.28D+00
 E= -434.832807085183     Delta-E=       -0.000004373718 Rises=F Damp=F
 DIIS: error= 2.33D-04 at cycle  26 NSaved=  20.
 NSaved=20 IEnMin=20 EnMin= -434.832807085183     IErMin=16 ErrMin= 7.24D-05
 ErrMax= 2.33D-04  0.00D+00 EMaxC= 1.00D-01 BMatC= 1.93D-05 BMatP= 1.44D-06
 IDIUse=1 WtCom= 1.00D+00 WtEn= 0.00D+00
 Coeff-Com:  0.116D-02-0.542D-03-0.404D-02-0.541D-03 0.109D-01 0.172D-01
 Coeff-Com:  0.908D-03-0.987D-01 0.199D-01 0.468D-01 0.208D-01-0.125D+00
 Coeff-Com: -0.763D-01 0.180D+00-0.616D-01 0.496D+00-0.290D+01 0.255D+01
 Coeff-Com: -0.469D+00 0.140D+01
 Coeff:      0.116D-02-0.542D-03-0.404D-02-0.541D-03 0.109D-01 0.172D-01
 Coeff:      0.908D-03-0.987D-01 0.199D-01 0.468D-01 0.208D-01-0.125D+00
 Coeff:     -0.763D-01 0.180D+00-0.616D-01 0.496D+00-0.290D+01 0.255D+01
 Coeff:     -0.469D+00 0.140D+01
 Gap=     0.210 Goal=   None    Shift=    0.000
 Gap=     0.055 Goal=   None    Shift=    0.000
 RMSDP=3.36D-05 MaxDP=1.54D-03 DE=-4.37D-06 OVMax= 9.61D-03

 Cycle  27  Pass 1  IDiag  1:
 RMSU=  1.48D-06    CP:  9.97D-01  3.00D+00  3.00D+00  3.00D+00  1.56D+00
                    CP:  2.43D+00
 E= -434.832812131623     Delta-E=       -0.000005046440 Rises=F Damp=F
 DIIS: error= 1.55D-04 at cycle  27 NSaved=  20.
 NSaved=20 IEnMin=20 EnMin= -434.832812131623     IErMin=15 ErrMin= 7.24D-05
 ErrMax= 1.55D-04  0.00D+00 EMaxC= 1.00D-01 BMatC= 8.56D-06 BMatP= 1.44D-06
 IDIUse=1 WtCom= 1.00D+00 WtEn= 0.00D+00
 Coeff-Com:  0.448D-03 0.620D-03-0.978D-03-0.614D-02-0.140D-01 0.650D-02
 Coeff-Com:  0.702D-01-0.492D-01-0.651D-01 0.213D-01 0.106D+00-0.214D-01
 Coeff-Com: -0.223D+00-0.341D+00 0.589D+00-0.383D+00 0.403D+00-0.126D+01
 Coeff-Com:  0.278D+00 0.189D+01
 Coeff:      0.448D-03 0.620D-03-0.978D-03-0.614D-02-0.140D-01 0.650D-02
 Coeff:      0.702D-01-0.492D-01-0.651D-01 0.213D-01 0.106D+00-0.214D-01
 Coeff:     -0.223D+00-0.341D+00 0.589D+00-0.383D+00 0.403D+00-0.126D+01
 Coeff:      0.278D+00 0.189D+01
 Gap=     0.209 Goal=   None    Shift=    0.000
 Gap=     0.055 Goal=   None    Shift=    0.000
 RMSDP=1.25D-04 MaxDP=5.71D-03 DE=-5.05D-06 OVMax= 3.51D-02

 Cycle  28  Pass 1  IDiag  1:
 RMSU=  1.80D-05    CP:  9.97D-01  3.00D+00  3.00D+00  3.00D+00  2.66D+00
                    CP:  3.00D+00 -2.89D+00
 E= -434.832813634946     Delta-E=       -0.000001503323 Rises=F Damp=F
 DIIS: error= 2.51D-04 at cycle  28 NSaved=  20.
 NSaved=20 IEnMin=20 EnMin= -434.832813634946     IErMin=14 ErrMin= 7.24D-05
 ErrMax= 2.51D-04  0.00D+00 EMaxC= 1.00D-01 BMatC= 2.16D-05 BMatP= 1.44D-06
 IDIUse=1 WtCom= 1.00D+00 WtEn= 0.00D+00
 Coeff-Com: -0.830D-03-0.314D-04-0.217D-02-0.646D-02 0.552D-02 0.428D-01
 Coeff-Com: -0.418D-01-0.473D-01 0.263D-01 0.818D-01-0.393D-01-0.199D+00
 Coeff-Com: -0.300D+00 0.566D+00-0.500D+00 0.485D+00-0.123D+01 0.334D+00
 Coeff-Com:  0.185D+01-0.225D-01
 Coeff:     -0.830D-03-0.314D-04-0.217D-02-0.646D-02 0.552D-02 0.428D-01
 Coeff:     -0.418D-01-0.473D-01 0.263D-01 0.818D-01-0.393D-01-0.199D+00
 Coeff:     -0.300D+00 0.566D+00-0.500D+00 0.485D+00-0.123D+01 0.334D+00
 Coeff:      0.185D+01-0.225D-01
 Gap=     0.209 Goal=   None    Shift=    0.000
 Gap=     0.055 Goal=   None    Shift=    0.000
 RMSDP=8.96D-07 MaxDP=3.18D-05 DE=-1.50D-06 OVMax= 8.91D-05

 Cycle  29  Pass 1  IDiag  1:
 RMSU=  7.02D-07    CP:  9.97D-01  3.00D+00  3.00D+00  3.00D+00  2.66D+00
                    CP:  3.00D+00 -3.00D+00  9.89D-01
 E= -434.832813106500     Delta-E=        0.000000528446 Rises=F Damp=F
 DIIS: error= 2.62D-04 at cycle  29 NSaved=  20.
 NSaved=20 IEnMin=19 EnMin= -434.832813634946     IErMin=13 ErrMin= 7.24D-05
 ErrMax= 2.62D-04  0.00D+00 EMaxC= 1.00D-01 BMatC= 2.34D-05 BMatP= 1.44D-06
 IDIUse=1 WtCom= 1.00D+00 WtEn= 0.00D+00
 Coeff-Com:  0.307D-03-0.309D-02-0.105D-01 0.587D-02 0.582D-01-0.543D-01
 Coeff-Com: -0.600D-01 0.395D-01 0.960D-01-0.378D-01-0.206D+00-0.297D+00
 Coeff-Com:  0.527D+00-0.348D+00 0.321D+00-0.103D+01 0.341D+00 0.137D+01
 Coeff-Com:  0.650D+01-0.621D+01
 Coeff:      0.307D-03-0.309D-02-0.105D-01 0.587D-02 0.582D-01-0.543D-01
 Coeff:     -0.600D-01 0.395D-01 0.960D-01-0.378D-01-0.206D+00-0.297D+00
 Coeff:      0.527D+00-0.348D+00 0.321D+00-0.103D+01 0.341D+00 0.137D+01
 Coeff:      0.650D+01-0.621D+01
 Gap=     0.209 Goal=   None    Shift=    0.000
 Gap=     0.055 Goal=   None    Shift=    0.000
 RMSDP=2.96D-05 MaxDP=1.38D-03 DE= 5.28D-07 OVMax= 8.42D-03

 Cycle  30  Pass 1  IDiag  1:
 RMSU=  1.67D-06    CP:  9.97D-01  3.00D+00  3.00D+00  3.00D+00  2.91D+00
                    CP:  3.00D+00 -3.00D+00  1.37D+00 -2.27D+00
 E= -434.832813956569     Delta-E=       -0.000000850069 Rises=F Damp=F
 DIIS: error= 2.66D-04 at cycle  30 NSaved=  20.
 NSaved=20 IEnMin=20 EnMin= -434.832813956569     IErMin=12 ErrMin= 7.24D-05
 ErrMax= 2.66D-04  0.00D+00 EMaxC= 1.00D-01 BMatC= 2.39D-05 BMatP= 1.44D-06
 IDIUse=1 WtCom= 1.00D+00 WtEn= 0.00D+00
 Large coefficients: NSaved= 20 BigCof=   13.29 CofMax=   10.00 Det=-8.39D-12
 Inversion failed.  Reducing to 19 matrices.
 Large coefficients: NSaved= 19 BigCof=   13.88 CofMax=   10.00 Det=-8.57D-12
 Inversion failed.  Reducing to 18 matrices.
 Large coefficients: NSaved= 18 BigCof=   13.60 CofMax=   10.00 Det=-8.60D-12
 Inversion failed.  Reducing to 17 matrices.
 Large coefficients: NSaved= 17 BigCof=   12.22 CofMax=   10.00 Det=-8.98D-12
 Inversion failed.  Reducing to 16 matrices.
 Large coefficients: NSaved= 16 BigCof=   12.20 CofMax=   10.00 Det=-8.99D-12
 Inversion failed.  Reducing to 15 matrices.
 Large coefficients: NSaved= 15 BigCof=   12.92 CofMax=   10.00 Det=-9.23D-12
 Inversion failed.  Reducing to 14 matrices.
 Large coefficients: NSaved= 14 BigCof=   14.15 CofMax=   10.00 Det=-9.89D-12
 Inversion failed.  Reducing to 13 matrices.
 Large coefficients: NSaved= 13 BigCof=   15.37 CofMax=   10.00 Det=-1.25D-11
 Inversion failed.  Reducing to 12 matrices.
 Large coefficients: NSaved= 12 BigCof=   14.98 CofMax=   10.00 Det=-1.29D-11
 Inversion failed.  Reducing to 11 matrices.
 Large coefficients: NSaved= 11 BigCof=   16.51 CofMax=   10.00 Det=-1.33D-11
 Inversion failed.  Reducing to 10 matrices.
 Large coefficients: NSaved= 10 BigCof=   17.77 CofMax=   10.00 Det=-1.34D-11
 Inversion failed.  Reducing to  9 matrices.
 Large coefficients: NSaved=  9 BigCof=   20.56 CofMax=   10.00 Det=-1.40D-11
 Inversion failed.  Reducing to  8 matrices.
 Large coefficients: NSaved=  8 BigCof=   19.40 CofMax=   10.00 Det=-1.43D-11
 Inversion failed.  Reducing to  7 matrices.
 Large coefficients: NSaved=  7 BigCof=   20.56 CofMax=   10.00 Det=-1.67D-11
 Inversion failed.  Reducing to  6 matrices.
 Large coefficients: NSaved=  6 BigCof=   17.17 CofMax=   10.00 Det=-1.90D-11
 Inversion failed.  Reducing to  5 matrices.
 Large coefficients: NSaved=  5 BigCof=   29.28 CofMax=   10.00 Det=-4.62D-11
 Inversion failed.  Reducing to  4 matrices.
 Large coefficients: NSaved=  4 BigCof=   31.38 CofMax=   10.00 Det=-1.82D-10
 Inversion failed.  Reducing to  3 matrices.
 Large coefficients: NSaved=  3 BigCof=   27.13 CofMax=   10.00 Det=-2.47D-09
 Inversion failed.  Reducing to  2 matrices.
 Large coefficients: NSaved=  2 BigCof=   35.47 CofMax=   10.00 Det=-7.21D-09
 Coeff-Com:  0.355D+02-0.345D+02
 Coeff:      0.355D+02-0.345D+02
 Gap=     0.214 Goal=   None    Shift=    0.000
 Gap=     0.055 Goal=   None    Shift=    0.000
 RMSDP=9.29D-04 MaxDP=3.88D-02 DE=-8.50D-07 OVMax= 2.58D-01

 Cycle  31  Pass 1  IDiag  1:
 RMSU=  2.98D-05    CP:  1.00D+00 -1.97D+00  9.16D-01 -3.00D+00 -8.66D-02
                    CP: -3.00D+00  3.00D+00 -3.42D-01  3.00D+00 -3.00D+00
 E= -434.832518736556     Delta-E=        0.000295220013 Rises=F Damp=F
 DIIS: error= 1.33D-03 at cycle  31 NSaved=   3.
 NSaved= 3 IEnMin= 2 EnMin= -434.832813956569     IErMin= 1 ErrMin= 2.62D-04
 ErrMax= 1.33D-03  0.00D+00 EMaxC= 1.00D-01 BMatC= 5.87D-04 BMatP= 2.34D-05
 IDIUse=1 WtCom= 1.00D+00 WtEn= 0.00D+00
 Large coefficients: NSaved=  3 BigCof=   12.65 CofMax=   10.00 Det=-5.54D-09
 Inversion failed.  Reducing to  2 matrices.
 Coeff-Com:  0.123D+01-0.233D+00
 Coeff:      0.123D+01-0.233D+00
 Gap=     0.208 Goal=   None    Shift=    0.000
 Gap=     0.045 Goal=   None    Shift=    0.000
 RMSDP=1.12D-03 MaxDP=4.84D-02 DE= 2.95D-04 OVMax= 3.13D-01

 Cycle  32  Pass 1  IDiag  1:
 RMSU=  1.88D-04    CP:  9.96D-01  3.00D+00  3.00D+00  3.00D+00  3.00D+00
                    CP:  3.00D+00 -3.00D+00  3.00D+00 -3.00D+00  3.00D+00
                    CP: -8.54D-02
 E= -434.832803196785     Delta-E=       -0.000284460229 Rises=F Damp=F
 DIIS: error= 4.87D-04 at cycle  32 NSaved=   3.
 NSaved= 3 IEnMin= 1 EnMin= -434.832813956569     IErMin= 1 ErrMin= 2.66D-04
 ErrMax= 4.87D-04  0.00D+00 EMaxC= 1.00D-01 BMatC= 7.04D-05 BMatP= 2.39D-05
 IDIUse=1 WtCom= 1.00D+00 WtEn= 0.00D+00
 Coeff-Com:  0.183D+01-0.114D+00-0.712D+00
 Coeff:      0.183D+01-0.114D+00-0.712D+00
 Gap=     0.209 Goal=   None    Shift=    0.000
 Gap=     0.055 Goal=   None    Shift=    0.000
 RMSDP=2.43D-04 MaxDP=1.14D-02 DE=-2.84D-04 OVMax= 6.84D-02

 Cycle  33  Pass 1  IDiag  1:
 RMSU=  3.86D-06    CP:  9.97D-01  3.00D+00  3.00D+00  3.00D+00  2.58D+00
                    CP:  3.00D+00 -2.16D+00  9.16D-01  6.08D-01 -2.52D-02
                    CP:  4.36D-02  3.32D-04
 E= -434.832813812705     Delta-E=       -0.000010615920 Rises=F Damp=F
 DIIS: error= 2.65D-04 at cycle  33 NSaved=   4.
 NSaved= 4 IEnMin= 1 EnMin= -434.832813956569     IErMin= 4 ErrMin= 2.65D-04
 ErrMax= 2.65D-04  0.00D+00 EMaxC= 1.00D-01 BMatC= 2.07D-05 BMatP= 2.39D-05
 IDIUse=1 WtCom= 1.00D+00 WtEn= 0.00D+00
 Coeff-Com:  0.131D+01-0.743D-01-0.877D+00 0.642D+00
 Coeff:      0.131D+01-0.743D-01-0.877D+00 0.642D+00
 Gap=     0.210 Goal=   None    Shift=    0.000
 Gap=     0.055 Goal=   None    Shift=    0.000
 RMSDP=9.23D-05 MaxDP=4.26D-03 DE=-1.06D-05 OVMax= 2.61D-02

 Cycle  34  Pass 1  IDiag  1:
 RMSU=  2.22D-06    CP:  9.97D-01  3.00D+00  3.00D+00  3.00D+00  1.78D+00
                    CP:  2.16D+00 -2.94D-01  1.84D-01  3.00D+00 -3.56D-01
                    CP:  2.88D-02  4.31D-07 -4.30D-02
 E= -434.832810359438     Delta-E=        0.000003453267 Rises=F Damp=F
 DIIS: error= 2.24D-04 at cycle  34 NSaved=   5.
 NSaved= 5 IEnMin= 1 EnMin= -434.832813956569     IErMin= 5 ErrMin= 2.24D-04
 ErrMax= 2.24D-04  0.00D+00 EMaxC= 1.00D-01 BMatC= 1.82D-05 BMatP= 2.07D-05
 IDIUse=1 WtCom= 1.00D+00 WtEn= 0.00D+00
 Coeff-Com:  0.223D-01-0.975D-01-0.575D+00 0.621D+00 0.103D+01
 Coeff:      0.223D-01-0.975D-01-0.575D+00 0.621D+00 0.103D+01
 Gap=     0.210 Goal=   None    Shift=    0.000
 Gap=     0.055 Goal=   None    Shift=    0.000
 RMSDP=5.01D-05 MaxDP=2.28D-03 DE= 3.45D-06 OVMax= 1.42D-02

 Cycle  35  Pass 1  IDiag  1:
 RMSU=  1.32D-06    CP:  9.98D-01  3.00D+00  3.00D+00  3.00D+00  1.34D+00
                    CP:  1.07D+00  4.71D-01  5.61D-02  1.22D+00 -1.74D-01
                    CP:  6.87D-03 -2.55D-05  3.51D-02  7.67D-01
 E= -434.832806965305     Delta-E=        0.000003394133 Rises=F Damp=F
 DIIS: error= 2.46D-04 at cycle  35 NSaved=   6.
 NSaved= 6 IEnMin= 1 EnMin= -434.832813956569     IErMin= 5 ErrMin= 2.24D-04
 ErrMax= 2.46D-04  0.00D+00 EMaxC= 1.00D-01 BMatC= 2.14D-05 BMatP= 1.82D-05
 IDIUse=1 WtCom= 1.00D+00 WtEn= 0.00D+00
 Coeff-Com: -0.565D-01-0.995D-01-0.560D+00 0.614D+00 0.103D+01 0.760D-01
 Coeff:     -0.565D-01-0.995D-01-0.560D+00 0.614D+00 0.103D+01 0.760D-01
 Gap=     0.210 Goal=   None    Shift=    0.000
 Gap=     0.055 Goal=   None    Shift=    0.000
 RMSDP=7.89D-06 MaxDP=3.57D-04 DE= 3.39D-06 OVMax= 2.24D-03

 Cycle  36  Pass 1  IDiag  1:
 RMSU=  8.34D-08    CP:  9.98D-01  3.00D+00  3.00D+00  3.00D+00  1.27D+00
                    CP:  8.94D-01  5.01D-01  4.27D-02  9.28D-01 -1.61D-01
                    CP:  6.46D-03 -3.12D-05  3.05D-02  8.02D-01  1.02D+00
 E= -434.832806355380     Delta-E=        0.000000609925 Rises=F Damp=F
 DIIS: error= 2.49D-04 at cycle  36 NSaved=   7.
 NSaved= 7 IEnMin= 1 EnMin= -434.832813956569     IErMin= 5 ErrMin= 2.24D-04
 ErrMax= 2.49D-04  0.00D+00 EMaxC= 1.00D-01 BMatC= 2.19D-05 BMatP= 1.82D-05
 IDIUse=1 WtCom= 1.00D+00 WtEn= 0.00D+00
 Coeff-Com:  0.567D+00-0.679D-01-0.655D+00 0.646D+00 0.112D+01 0.540D+01
 Coeff-Com: -0.601D+01
 Coeff:      0.567D+00-0.679D-01-0.655D+00 0.646D+00 0.112D+01 0.540D+01
 Coeff:     -0.601D+01
 Gap=     0.209 Goal=   None    Shift=    0.000
 Gap=     0.055 Goal=   None    Shift=    0.000
 RMSDP=1.07D-04 MaxDP=4.88D-03 DE= 6.10D-07 OVMax= 3.02D-02

 Cycle  37  Pass 1  IDiag  1:
 RMSU=  6.41D-07    CP:  9.97D-01  3.00D+00  3.00D+00  3.00D+00  2.20D+00
                    CP:  3.00D+00 -9.88D-01  4.54D-01  3.00D+00 -2.72D-01
                    CP:  2.27D-02 -4.80D-05 -4.25D-02  5.03D-01  5.75D-01
                    CP:  2.82D+00
 E= -434.832812700891     Delta-E=       -0.000006345511 Rises=F Damp=F
 DIIS: error= 2.30D-04 at cycle  37 NSaved=   8.
 NSaved= 8 IEnMin= 1 EnMin= -434.832813956569     IErMin= 5 ErrMin= 2.24D-04
 ErrMax= 2.30D-04  0.00D+00 EMaxC= 1.00D-01 BMatC= 1.82D-05 BMatP= 1.82D-05
 IDIUse=1 WtCom= 1.00D+00 WtEn= 0.00D+00
 Large coefficients: NSaved=  8 BigCof=   11.37 CofMax=   10.00 Det=-2.80D-10
 Inversion failed.  Reducing to  7 matrices.
 Large coefficients: NSaved=  7 BigCof=   16.50 CofMax=   10.00 Det=-1.19D-09
 Inversion failed.  Reducing to  6 matrices.
 Large coefficients: NSaved=  6 BigCof=   25.29 CofMax=   10.00 Det=-1.81D-09
 Inversion failed.  Reducing to  5 matrices.
 Coeff-Com: -0.388D+01 0.109D+00 0.868D+00-0.376D+01 0.766D+01
 Coeff:     -0.388D+01 0.109D+00 0.868D+00-0.376D+01 0.766D+01
 Gap=     0.210 Goal=   None    Shift=    0.000
 Gap=     0.055 Goal=   None    Shift=    0.000
 RMSDP=4.76D-05 MaxDP=2.20D-03 DE=-6.35D-06 OVMax= 1.36D-02

 Cycle  38  Pass 1  IDiag  1:
 RMSU=  5.02D-06    CP:  9.97D-01  3.00D+00  3.00D+00  3.00D+00  2.60D+00
                    CP:  3.00D+00  3.63D-01  1.12D+00 -3.00D+00  5.37D-01
                    CP: -9.18D-02  2.89D-04  3.63D-01 -5.06D-01  1.11D+00
                    CP: -3.00D+00 -3.00D+00
 E= -434.832817526607     Delta-E=       -0.000004825716 Rises=F Damp=F
 DIIS: error= 1.17D-04 at cycle  38 NSaved=   6.
 NSaved= 6 IEnMin= 6 EnMin= -434.832817526607     IErMin= 6 ErrMin= 1.17D-04
 ErrMax= 1.17D-04  0.00D+00 EMaxC= 1.00D-01 BMatC= 8.84D-06 BMatP= 1.82D-05
 IDIUse=1 WtCom= 1.00D+00 WtEn= 0.00D+00
 Coeff-Com: -0.244D+01 0.102D+00 0.618D+00-0.428D+01 0.656D+01 0.439D+00
 Coeff:     -0.244D+01 0.102D+00 0.618D+00-0.428D+01 0.656D+01 0.439D+00
 Gap=     0.209 Goal=   None    Shift=    0.000
 Gap=     0.055 Goal=   None    Shift=    0.000
 RMSDP=2.01D-04 MaxDP=9.44D-03 DE=-4.83D-06 OVMax= 5.69D-02

 Cycle  39  Pass 1  IDiag  1:
 RMSU=  7.93D-06    CP:  9.96D-01  3.00D+00  3.00D+00  3.00D+00  3.00D+00
                    CP:  3.00D+00 -3.00D+00  3.00D+00 -3.00D+00  3.00D+00
                    CP: -2.70D-01  7.93D-01 -1.90D-01 -5.94D-01  2.34D+00
                    CP:  3.00D+00 -3.00D+00  1.05D+00
 E= -434.832816159904     Delta-E=        0.000001366703 Rises=F Damp=F
 DIIS: error= 2.96D-04 at cycle  39 NSaved=   7.
 NSaved= 7 IEnMin= 6 EnMin= -434.832817526607     IErMin= 6 ErrMin= 1.17D-04
 ErrMax= 2.96D-04  0.00D+00 EMaxC= 1.00D-01 BMatC= 2.78D-05 BMatP= 8.84D-06
 IDIUse=1 WtCom= 1.00D+00 WtEn= 0.00D+00
 Coeff-Com: -0.350D+00 0.750D-01 0.527D+00-0.484D+01 0.629D+01 0.421D+00
 Coeff-Com: -0.112D+01
 Coeff:     -0.350D+00 0.750D-01 0.527D+00-0.484D+01 0.629D+01 0.421D+00
 Coeff:     -0.112D+01
 Gap=     0.208 Goal=   None    Shift=    0.000
 Gap=     0.056 Goal=   None    Shift=    0.000
 RMSDP=4.66D-05 MaxDP=2.21D-03 DE= 1.37D-06 OVMax= 1.33D-02

 Cycle  40  Pass 1  IDiag  1:
 RMSU=  1.26D-05    CP:  9.96D-01  3.00D+00  3.00D+00  3.00D+00  3.00D+00
                    CP:  3.00D+00 -3.00D+00  3.00D+00 -3.00D+00  3.00D+00
                    CP: -5.12D-02  5.60D-01 -4.28D-01  2.18D-01  7.45D-01
                    CP:  3.00D+00 -2.88D-01  1.43D-01  7.77D-01
 E= -434.832809403875     Delta-E=        0.000006756030 Rises=F Damp=F
 DIIS: error= 3.85D-04 at cycle  40 NSaved=   8.
 NSaved= 8 IEnMin= 6 EnMin= -434.832817526607     IErMin= 6 ErrMin= 1.17D-04
 ErrMax= 3.85D-04  0.00D+00 EMaxC= 1.00D-01 BMatC= 4.83D-05 BMatP= 8.84D-06
 IDIUse=1 WtCom= 1.00D+00 WtEn= 0.00D+00
 Coeff-Com: -0.204D+00 0.610D-01 0.369D+00-0.347D+01 0.465D+01 0.320D+00
 Coeff-Com:  0.259D-01-0.758D+00
 Coeff:     -0.204D+00 0.610D-01 0.369D+00-0.347D+01 0.465D+01 0.320D+00
 Coeff:      0.259D-01-0.758D+00
 Gap=     0.209 Goal=   None    Shift=    0.000
 Gap=     0.055 Goal=   None    Shift=    0.000
 RMSDP=1.04D-05 MaxDP=3.52D-04 DE= 6.76D-06 OVMax= 1.04D-03

 Cycle  41  Pass 1  IDiag  1:
 Restarting incremental Fock formation.
 E= -434.832817513631     Delta-E=       -0.000008109756 Rises=F Damp=F
 DIIS: error= 2.57D-04 at cycle  41 NSaved=   9.
 NSaved= 9 IEnMin= 6 EnMin= -434.832817526607     IErMin= 6 ErrMin= 1.17D-04
 ErrMax= 2.57D-04  0.00D+00 EMaxC= 1.00D-01 BMatC= 2.16D-05 BMatP= 8.84D-06
 IDIUse=1 WtCom= 1.00D+00 WtEn= 0.00D+00
 Coeff-Com:  0.718D+00 0.175D-01 0.568D-01-0.119D+01 0.131D+01 0.106D+00
 Coeff-Com:  0.559D+00-0.188D+01 0.131D+01
 Coeff:      0.718D+00 0.175D-01 0.568D-01-0.119D+01 0.131D+01 0.106D+00
 Coeff:      0.559D+00-0.188D+01 0.131D+01
 Gap=     0.209 Goal=   None    Shift=    0.000
 Gap=     0.055 Goal=   None    Shift=    0.000
 RMSDP=1.65D-05 MaxDP=5.43D-04 DE=-8.11D-06 OVMax= 3.30D-03

 Cycle  42  Pass 1  IDiag  1:
 RMSU=  1.65D-05    CP:  1.00D+00
 E= -434.832823289972     Delta-E=       -0.000005776341 Rises=F Damp=F
 DIIS: error= 9.91D-05 at cycle  42 NSaved=  10.
 NSaved=10 IEnMin=10 EnMin= -434.832823289972     IErMin=10 ErrMin= 9.91D-05
 ErrMax= 9.91D-05  0.00D+00 EMaxC= 1.00D-01 BMatC= 3.13D-06 BMatP= 8.84D-06
 IDIUse=1 WtCom= 1.00D+00 WtEn= 0.00D+00
 Coeff-Com:  0.423D+00 0.473D-02 0.923D-02-0.662D+00 0.590D+00 0.439D-01
 Coeff-Com: -0.285D-01-0.989D+00 0.882D+00 0.727D+00
 Coeff:      0.423D+00 0.473D-02 0.923D-02-0.662D+00 0.590D+00 0.439D-01
 Coeff:     -0.285D-01-0.989D+00 0.882D+00 0.727D+00
 Gap=     0.209 Goal=   None    Shift=    0.000
 Gap=     0.055 Goal=   None    Shift=    0.000
 RMSDP=2.20D-05 MaxDP=1.05D-03 DE=-5.78D-06 OVMax= 6.30D-03

 Cycle  43  Pass 1  IDiag  1:
 RMSU=  1.53D-05    CP:  1.00D+00  1.96D+00
 E= -434.832824001907     Delta-E=       -0.000000711935 Rises=F Damp=F
 DIIS: error= 7.57D-05 at cycle  43 NSaved=  11.
 NSaved=11 IEnMin=11 EnMin= -434.832824001907     IErMin=11 ErrMin= 7.57D-05
 ErrMax= 7.57D-05  0.00D+00 EMaxC= 1.00D-01 BMatC= 1.82D-06 BMatP= 3.13D-06
 IDIUse=1 WtCom= 1.00D+00 WtEn= 0.00D+00
 Coeff-Com:  0.870D-01-0.297D-02-0.237D-01-0.391D-01-0.127D+00-0.132D-01
 Coeff-Com: -0.277D+00-0.126D+00 0.192D+00 0.213D+00 0.112D+01
 Coeff:      0.870D-01-0.297D-02-0.237D-01-0.391D-01-0.127D+00-0.132D-01
 Coeff:     -0.277D+00-0.126D+00 0.192D+00 0.213D+00 0.112D+01
 Gap=     0.209 Goal=   None    Shift=    0.000
 Gap=     0.054 Goal=   None    Shift=    0.000
 RMSDP=3.11D-05 MaxDP=1.48D-03 DE=-7.12D-07 OVMax= 8.90D-03

 Cycle  44  Pass 1  IDiag  1:
 RMSU=  6.02D-06    CP:  1.00D+00  3.00D+00  2.35D+00
 E= -434.832824820258     Delta-E=       -0.000000818351 Rises=F Damp=F
 DIIS: error= 3.08D-05 at cycle  44 NSaved=  12.
 NSaved=12 IEnMin=12 EnMin= -434.832824820258     IErMin=12 ErrMin= 3.08D-05
 ErrMax= 3.08D-05  0.00D+00 EMaxC= 1.00D-01 BMatC= 2.97D-07 BMatP= 1.82D-06
 IDIUse=1 WtCom= 1.00D+00 WtEn= 0.00D+00
 Coeff-Com: -0.680D-03-0.339D-02-0.241D-01 0.161D+00-0.282D+00-0.209D-01
 Coeff-Com: -0.101D+00 0.208D+00-0.199D+00-0.279D+00 0.343D+00 0.120D+01
 Coeff:     -0.680D-03-0.339D-02-0.241D-01 0.161D+00-0.282D+00-0.209D-01
 Coeff:     -0.101D+00 0.208D+00-0.199D+00-0.279D+00 0.343D+00 0.120D+01
 Gap=     0.209 Goal=   None    Shift=    0.000
 Gap=     0.054 Goal=   None    Shift=    0.000
 RMSDP=3.40D-05 MaxDP=1.63D-03 DE=-8.18D-07 OVMax= 9.77D-03

 Cycle  45  Pass 1  IDiag  1:
 RMSU=  1.86D-05    CP:  1.00D+00  3.00D+00  3.00D+00  3.00D+00
 E= -434.832825161097     Delta-E=       -0.000000340840 Rises=F Damp=F
 DIIS: error= 7.43D-06 at cycle  45 NSaved=  13.
 NSaved=13 IEnMin=13 EnMin= -434.832825161097     IErMin=13 ErrMin= 7.43D-06
 ErrMax= 7.43D-06  0.00D+00 EMaxC= 1.00D-01 BMatC= 1.55D-08 BMatP= 2.97D-07
 IDIUse=1 WtCom= 1.00D+00 WtEn= 0.00D+00
 Coeff-Com:  0.363D-01-0.171D-02-0.948D-02-0.288D-01 0.217D-01 0.332D-02
 Coeff-Com:  0.391D-01 0.910D-01-0.119D+00-0.205D+00-0.305D+00 0.501D+00
 Coeff-Com:  0.976D+00
 Coeff:      0.363D-01-0.171D-02-0.948D-02-0.288D-01 0.217D-01 0.332D-02
 Coeff:      0.391D-01 0.910D-01-0.119D+00-0.205D+00-0.305D+00 0.501D+00
 Coeff:      0.976D+00
 Gap=     0.209 Goal=   None    Shift=    0.000
 Gap=     0.054 Goal=   None    Shift=    0.000
 RMSDP=2.13D-05 MaxDP=1.02D-03 DE=-3.41D-07 OVMax= 6.10D-03

 Cycle  46  Pass 1  IDiag  1:
 RMSU=  1.23D-06    CP:  1.00D+00  3.00D+00  3.00D+00  3.00D+00  2.14D+00
 E= -434.832825242356     Delta-E=       -0.000000081258 Rises=F Damp=F
 DIIS: error= 1.19D-05 at cycle  46 NSaved=  14.
 NSaved=14 IEnMin=14 EnMin= -434.832825242356     IErMin=13 ErrMin= 7.43D-06
 ErrMax= 1.19D-05  0.00D+00 EMaxC= 1.00D-01 BMatC= 4.44D-08 BMatP= 1.55D-08
 IDIUse=1 WtCom= 1.00D+00 WtEn= 0.00D+00
 Coeff-Com:  0.442D-01-0.479D-03-0.198D-03-0.684D-01 0.913D-01 0.735D-02
 Coeff-Com:  0.576D-01-0.793D-01 0.466D-01-0.105D-01-0.296D+00-0.198D+00
 Coeff-Com:  0.430D+00 0.976D+00
 Coeff:      0.442D-01-0.479D-03-0.198D-03-0.684D-01 0.913D-01 0.735D-02
 Coeff:      0.576D-01-0.793D-01 0.466D-01-0.105D-01-0.296D+00-0.198D+00
 Coeff:      0.430D+00 0.976D+00
 Gap=     0.209 Goal=   None    Shift=    0.000
 Gap=     0.054 Goal=   None    Shift=    0.000
 RMSDP=1.56D-05 MaxDP=7.48D-04 DE=-8.13D-08 OVMax= 4.47D-03

 Cycle  47  Pass 1  IDiag  1:
 RMSU=  6.91D-07    CP:  1.00D+00  3.00D+00  3.00D+00  3.00D+00  2.98D+00
                    CP:  1.95D+00
 E= -434.832825283191     Delta-E=       -0.000000040835 Rises=F Damp=F
 DIIS: error= 7.50D-06 at cycle  47 NSaved=  15.
 NSaved=15 IEnMin=15 EnMin= -434.832825283191     IErMin=13 ErrMin= 7.43D-06
 ErrMax= 7.50D-06  0.00D+00 EMaxC= 1.00D-01 BMatC= 1.77D-08 BMatP= 1.55D-08
 IDIUse=1 WtCom= 1.00D+00 WtEn= 0.00D+00
 Coeff-Com:  0.234D-01 0.125D-03 0.710D-03-0.611D-02 0.361D-02 0.256D-03
 Coeff-Com:  0.200D-01-0.806D-01 0.623D-01 0.340D-01-0.689D-01-0.178D+00
 Coeff-Com: -0.133D-01 0.410D+00 0.792D+00
 Coeff:      0.234D-01 0.125D-03 0.710D-03-0.611D-02 0.361D-02 0.256D-03
 Coeff:      0.200D-01-0.806D-01 0.623D-01 0.340D-01-0.689D-01-0.178D+00
 Coeff:     -0.133D-01 0.410D+00 0.792D+00
 Gap=     0.209 Goal=   None    Shift=    0.000
 Gap=     0.054 Goal=   None    Shift=    0.000
 RMSDP=5.55D-06 MaxDP=2.66D-04 DE=-4.08D-08 OVMax= 1.59D-03

 Cycle  48  Pass 1  IDiag  1:
 RMSU=  5.07D-06    CP:  1.00D+00  3.00D+00  3.00D+00  3.00D+00  3.00D+00
                    CP:  2.37D+00  1.94D+00
 E= -434.832825293332     Delta-E=       -0.000000010141 Rises=F Damp=F
 DIIS: error= 9.03D-07 at cycle  48 NSaved=  16.
 NSaved=16 IEnMin=16 EnMin= -434.832825293332     IErMin=16 ErrMin= 9.03D-07
 ErrMax= 9.03D-07  0.00D+00 EMaxC= 1.00D-01 BMatC= 2.56D-10 BMatP= 1.55D-08
 IDIUse=1 WtCom= 1.00D+00 WtEn= 0.00D+00
 Coeff-Com: -0.261D-02 0.140D-03 0.506D-03 0.132D-02-0.939D-02-0.901D-03
 Coeff-Com: -0.199D-01 0.498D-02 0.352D-02 0.116D-01 0.669D-01 0.229D-01
 Coeff-Com: -0.125D+00-0.248D+00 0.199D+00 0.110D+01
 Coeff:     -0.261D-02 0.140D-03 0.506D-03 0.132D-02-0.939D-02-0.901D-03
 Coeff:     -0.199D-01 0.498D-02 0.352D-02 0.116D-01 0.669D-01 0.229D-01
 Coeff:     -0.125D+00-0.248D+00 0.199D+00 0.110D+01
 Gap=     0.209 Goal=   None    Shift=    0.000
 Gap=     0.054 Goal=   None    Shift=    0.000
 RMSDP=3.07D-06 MaxDP=1.47D-04 DE=-1.01D-08 OVMax= 8.79D-04

 Cycle  49  Pass 1  IDiag  1:
 RMSU=  5.63D-08    CP:  1.00D+00  3.00D+00  3.00D+00  3.00D+00  3.00D+00
                    CP:  2.56D+00  2.09D+00  1.60D+00
 E= -434.832825294511     Delta-E=       -0.000000001180 Rises=F Damp=F
 DIIS: error= 5.85D-07 at cycle  49 NSaved=  17.
 NSaved=17 IEnMin=17 EnMin= -434.832825294511     IErMin=17 ErrMin= 5.85D-07
 ErrMax= 5.85D-07  0.00D+00 EMaxC= 1.00D-01 BMatC= 1.19D-10 BMatP= 2.56D-10
 IDIUse=1 WtCom= 1.00D+00 WtEn= 0.00D+00
 Coeff-Com: -0.176D-02-0.123D-04-0.190D-03-0.364D-02 0.174D-02 0.865D-04
 Coeff-Com: -0.731D-02 0.146D-01-0.102D-01-0.557D-02 0.183D-01 0.421D-01
 Coeff-Com: -0.506D-02-0.138D+00-0.149D+00 0.318D+00 0.926D+00
 Coeff:     -0.176D-02-0.123D-04-0.190D-03-0.364D-02 0.174D-02 0.865D-04
 Coeff:     -0.731D-02 0.146D-01-0.102D-01-0.557D-02 0.183D-01 0.421D-01
 Coeff:     -0.506D-02-0.138D+00-0.149D+00 0.318D+00 0.926D+00
 Gap=     0.209 Goal=   None    Shift=    0.000
 Gap=     0.054 Goal=   None    Shift=    0.000
 RMSDP=8.56D-07 MaxDP=4.11D-05 DE=-1.18D-09 OVMax= 2.46D-04

 Cycle  50  Pass 1  IDiag  1:
 RMSU=  6.48D-09    CP:  1.00D+00  3.00D+00  3.00D+00  3.00D+00  3.00D+00
                    CP:  2.62D+00  2.10D+00  1.77D+00  1.35D+00
 E= -434.832825294597     Delta-E=       -0.000000000086 Rises=F Damp=F
 DIIS: error= 8.41D-07 at cycle  50 NSaved=  18.
 NSaved=18 IEnMin=18 EnMin= -434.832825294597     IErMin=17 ErrMin= 5.85D-07
 ErrMax= 8.41D-07  0.00D+00 EMaxC= 1.00D-01 BMatC= 2.33D-10 BMatP= 1.19D-10
 IDIUse=1 WtCom= 1.00D+00 WtEn= 0.00D+00
 Coeff-Com:  0.874D-03-0.417D-04-0.254D-03 0.939D-03-0.170D-02-0.839D-04
 Coeff-Com:  0.204D-02 0.266D-02-0.397D-02-0.609D-02-0.647D-02 0.168D-01
 Coeff-Com:  0.264D-01-0.165D-01-0.115D+00-0.625D-01 0.373D+00 0.789D+00
 Coeff:      0.874D-03-0.417D-04-0.254D-03 0.939D-03-0.170D-02-0.839D-04
 Coeff:      0.204D-02 0.266D-02-0.397D-02-0.609D-02-0.647D-02 0.168D-01
 Coeff:      0.264D-01-0.165D-01-0.115D+00-0.625D-01 0.373D+00 0.789D+00
 Gap=     0.209 Goal=   None    Shift=    0.000
 Gap=     0.054 Goal=   None    Shift=    0.000
 RMSDP=4.40D-07 MaxDP=2.10D-05 DE=-8.56D-11 OVMax= 1.26D-04

 Cycle  51  Pass 1  IDiag  1:
 RMSU=  3.20D-09    CP:  1.00D+00  3.00D+00  3.00D+00  3.00D+00  3.00D+00
                    CP:  2.65D+00  2.20D+00  1.86D+00  1.33D+00  1.20D+00
 E= -434.832825294697     Delta-E=       -0.000000000100 Rises=F Damp=F
 DIIS: error= 1.21D-07 at cycle  51 NSaved=  19.
 NSaved=19 IEnMin=19 EnMin= -434.832825294697     IErMin=19 ErrMin= 1.21D-07
 ErrMax= 1.21D-07  0.00D+00 EMaxC= 1.00D-01 BMatC= 4.97D-12 BMatP= 1.19D-10
 IDIUse=1 WtCom= 1.00D+00 WtEn= 0.00D+00
 Coeff-Com:  0.130D-02-0.354D-04 0.194D-04-0.148D-02 0.215D-02 0.182D-03
 Coeff-Com:  0.192D-02-0.217D-02 0.103D-02-0.134D-02-0.878D-02-0.309D-02
 Coeff-Com:  0.131D-01 0.214D-01-0.119D-01-0.757D-01-0.752D-01 0.165D+00
 Coeff-Com:  0.973D+00
 Coeff:      0.130D-02-0.354D-04 0.194D-04-0.148D-02 0.215D-02 0.182D-03
 Coeff:      0.192D-02-0.217D-02 0.103D-02-0.134D-02-0.878D-02-0.309D-02
 Coeff:      0.131D-01 0.214D-01-0.119D-01-0.757D-01-0.752D-01 0.165D+00
 Coeff:      0.973D+00
 Gap=     0.209 Goal=   None    Shift=    0.000
 Gap=     0.054 Goal=   None    Shift=    0.000
 RMSDP=2.28D-07 MaxDP=1.10D-05 DE=-9.99D-11 OVMax= 6.56D-05

 Cycle  52  Pass 1  IDiag  1:
 RMSU=  1.17D-09    CP:  1.00D+00  3.00D+00  3.00D+00  3.00D+00  3.00D+00
                    CP:  2.67D+00  2.20D+00  1.90D+00  1.41D+00  1.34D+00
                    CP:  1.09D+00
 E= -434.832825294701     Delta-E=       -0.000000000004 Rises=F Damp=F
 DIIS: error= 1.32D-07 at cycle  52 NSaved=  20.
 NSaved=20 IEnMin=20 EnMin= -434.832825294701     IErMin=19 ErrMin= 1.21D-07
 ErrMax= 1.32D-07  0.00D+00 EMaxC= 1.00D-01 BMatC= 5.87D-12 BMatP= 4.97D-12
 IDIUse=1 WtCom= 1.00D+00 WtEn= 0.00D+00
 Coeff-Com:  0.302D-03-0.776D-05 0.262D-05-0.231D-03 0.308D-03 0.284D-04
 Coeff-Com:  0.282D-03-0.845D-03 0.614D-03 0.733D-04-0.140D-02-0.110D-02
 Coeff-Com:  0.120D-02 0.312D-02 0.296D-02-0.152D-02-0.396D-01-0.827D-01
 Coeff-Com:  0.189D+00 0.929D+00
 Coeff:      0.302D-03-0.776D-05 0.262D-05-0.231D-03 0.308D-03 0.284D-04
 Coeff:      0.282D-03-0.845D-03 0.614D-03 0.733D-04-0.140D-02-0.110D-02
 Coeff:      0.120D-02 0.312D-02 0.296D-02-0.152D-02-0.396D-01-0.827D-01
 Coeff:      0.189D+00 0.929D+00
 Gap=     0.209 Goal=   None    Shift=    0.000
 Gap=     0.054 Goal=   None    Shift=    0.000
 RMSDP=6.72D-08 MaxDP=3.20D-06 DE=-4.32D-12 OVMax= 1.92D-05

 Cycle  53  Pass 1  IDiag  1:
 RMSU=  3.82D-10    CP:  1.00D+00  3.00D+00  3.00D+00  3.00D+00  3.00D+00
                    CP:  2.67D+00  2.22D+00  1.91D+00  1.41D+00  1.37D+00
                    CP:  1.21D+00  1.13D+00
 E= -434.832825294705     Delta-E=       -0.000000000003 Rises=F Damp=F
 DIIS: error= 1.74D-08 at cycle  53 NSaved=  20.
[...]
                                                    234(g)
     2. BD (   1) C   1 - H  10          0.99486    -0.51383  233(v)
     3. BD (   1) C   1 - H  11          0.99036    -0.51337  232(v)
     4. BD (   1) C   1 - H  12          0.99427    -0.51381  234(v),52(v)
     5. BD (   1) C   2 - N   3          0.98814    -0.74005  238(v),87(v),230(v),88(v)
                                                    235(g),35(v),96(v)
     6. BD (   1) C   2 - H  13          0.99223    -0.52346  229(v)
     7. BD (   1) C   2 - H  14          0.98135    -0.51433  236(v),231(v),235(v),70(v)
     8. BD (   1) N   3 - C   4          0.99303    -0.93624  238(g),237(g),52(v),239(v)
                                                    241(v),53(v),157(v),232(g)
     9. BD (   2) N   3 - C   4          0.85926    -0.35217  242(v),228(v),234(v),105(v)
                                                    156(v),236(g)
    10. BD (   1) C   4 - O   5          0.99395    -0.94032  243(v),120(v),235(g),240(v)
    11. BD (   1) C   4 - N   8          0.99364    -0.87176  232(v),235(g),137(v),243(g)
                                                    171(v)
    12. BD (   1) O   5 - C   6          0.98952    -0.86116  235(v),88(v),238(v),86(v)
                                                    240(g),241(v),243(r)
    13. BD (   1) C   6 - N   7          0.98818    -0.81296  243(v),239(g),154(v),155(v)
                                                    235(r),103(v)
    14. BD (   1) N   7 - N   8          0.99340    -0.91474  235(v),239(v),238(g),237(v)
                                                    243(g),120(v),171(v),87(v)
                                                    121(v)
    15. BD (   2) N   7 - N   8          0.92302    -0.38689  33(v),236(v),244(v),242(g)
                                                    246(v),172(v),92(v),124(v)
    16. BD (   1) N   8 - C   9          0.99459    -0.81231  240(v),237(v),238(g),241(g)
                                                    137(v),87(v)
    17. BD (   1) C   9 - H  15          0.98545    -0.55503  242(v),238(v),156(v)
    18. BD (   1) C   9 - H  16          0.99340    -0.55810  241(v)
    19. BD (   1) C   9 - H  17          0.98612    -0.55522  242(v),238(v),156(v)
    20. CR (   1) C   1                  0.99966   -10.04107   
    21. CR (   1) C   2                  0.99964   -10.09048  38(v),235(v)
    22. CR (   1) N   3                  0.99965   -14.15875  237(v),87(v),53(v),91(v)
                                                    89(v),238(v),86(v)
    23. CR (   1) C   4                  0.99954   -10.20317  232(v),243(v),71(v),239(v)
                                                    155(v),235(g),237(g)
    24. CR (   1) O   5                  0.99986   -19.00063  87(v),120(v),235(v),121(v)
    25. CR (   1) C   6                  0.99979   -10.13525  237(v),137(v),239(g),141(v)
    26. CR (   1) N   7                  0.99975   -14.19526  120(v),243(v),155(v),238(v)
    27. CR (   1) N   8                  0.99962   -14.27965  173(v),89(v),88(v),235(v)
                                                    90(v),138(v)
    28. CR (   1) C   9                  0.99966   -10.10773  238(v),241(v),223(v),213(v)
                                                    218(v)
    29. LP (   1) N   3                  0.94096    -0.38112  237(v),233(v),238(v),87(v)
                                                    86(v),234(v),53(v),88(v)
                                                    52(v),102(v)
    30. LP (   1) O   5                  0.98361    -0.61027  238(v),87(v),121(v),240(v)
                                                    120(v)
    31. LP (   2) O   5                  0.84753    -0.35744  33(v),236(v),90(v),122(v)
                                                    89(v)
    32. LP (   1) C   6                  0.95249    -0.31771  237(v),241(v),242(v),137(v)
                                                    103(v)
    33. LP*(   2) C   6                  0.20144    -0.07416  242(v),124(g),125(g),143(v)
    34. LP (   1) N   7                  0.96972    -0.43343  238(v),239(v),120(v),154(v)
                                                    121(v),155(v)
    35. RY*(   1) C   1                  0.00136     0.64655   
    36. RY*(   2) C   1                  0.00041     0.84355   
    37. RY*(   3) C   1                  0.00019     1.48830   
    38. RY*(   4) C   1                  0.00019     0.83691   
    39. RY*(   5) C   1                  0.00008     1.21014   
    40. RY*(   6) C   1                  0.00003     0.96838   
    41. RY*(   7) C   1                  0.00003     0.54873   
    42. RY*(   8) C   1                  0.00001     1.27711   
    43. RY*(   9) C   1                  0.00000     3.10675   
    44. RY*(  10) C   1                  0.00000    23.15532   
    45. RY*(  11) C   1                  0.00001     0.57032   
    46. RY*(  12) C   1                  0.00000     2.15191   
    47. RY*(  13) C   1                  0.00000     1.89160   
    48. RY*(  14) C   1                  0.00001     1.88220   
    49. RY*(  15) C   1                  0.00001     1.71833   
    50. RY*(  16) C   1                  0.00000     1.98888   
    51. RY*(  17) C   1                  0.00000     2.28848   
    52. RY*(   1) C   2                  0.00240     0.84633   
    53. RY*(   2) C   2                  0.00145     1.14399   
    54. RY*(   3) C   2                  0.00070     1.01039   
    55. RY*(   4) C   2                  0.00031     1.24601   
    56. RY*(   5) C   2                  0.00023     1.34578   
    57. RY*(   6) C   2                  0.00018     1.48522   
    58. RY*(   7) C   2                  0.00014     1.75928   
    59. RY*(   8) C   2                  0.00009     1.82936   
    60. RY*(   9) C   2                  0.00007     0.62276   
    61. RY*(  10) C   2                  0.00004     0.46292   
    62. RY*(  11) C   2                  0.00001     2.63086   
    63. RY*(  12) C   2                  0.00000     1.90410   
    64. RY*(  13) C   2                  0.00000     2.89921   
    65. RY*(  14) C   2                  0.00001     1.40009   
    66. RY*(  15) C   2                  0.00000    23.12041   
    67. RY*(  16) C   2                  0.00001     1.27216   
    68. RY*(  17) C   2                  0.00000     1.94947   
    69. RY*(   1) N   3                  0.00195     0.75549   
    70. RY*(   2) N   3                  0.00110     0.87524   
    71. RY*(   3) N   3                  0.00047     1.38207   
    72. RY*(   4) N   3                  0.00024     1.38725   
    73. RY*(   5) N   3                  0.00017     2.00533   
    74. RY*(   6) N   3                  0.00011     1.08199   
    75. RY*(   7) N   3                  0.00009     0.95254   
    76. RY*(   8) N   3                  0.00004     1.01191   
    77. RY*(   9) N   3                  0.00005     2.49771   
    78. RY*(  10) N   3                  0.00003     2.33842   
    79. RY*(  11) N   3                  0.00001     3.58588   
    80. RY*(  12) N   3                  0.00000     3.87000   
    81. RY*(  13) N   3                  0.00001     3.57287   
    82. RY*(  14) N   3                  0.00000    34.99505   
    83. RY*(  15) N   3                  0.00000     1.96639   
    84. RY*(  16) N   3                  0.00001     2.39308   
    85. RY*(  17) N   3                  0.00001     2.44770   
    86. RY*(   1) C   4                  0.00606     0.61783   
    87. RY*(   2) C   4                  0.00477     1.48741   
    88. RY*(   3) C   4                  0.00213     1.74057   
    89. RY*(   4) C   4                  0.00163     1.40286   
    90. RY*(   5) C   4                  0.00138     1.47758   
    91. RY*(   6) C   4                  0.00072     0.84184   
    92. RY*(   7) C   4                  0.00064     1.19367   
    93. RY*(   8) C   4                  0.00041     2.04675   
    94. RY*(   9) C   4                  0.00032     1.06631   
    95. RY*(  10) C   4                  0.00012     2.13171   
    96. RY*(  11) C   4                  0.00007     3.98310   
    97. RY*(  12) C   4                  0.00003     0.87185   
    98. RY*(  13) C   4                  0.00004    10.09886   
    99. RY*(  14) C   4                  0.00000    10.37178   
   100. RY*(  15) C   4                  0.00000     1.61247   
   101. RY*(  16) C   4                  0.00000     2.66369   
   102. RY*(  17) C   4                  0.00000     1.86730   
   103. RY*(   1) O   5                  0.00164     1.13732   
   104. RY*(   2) O   5                  0.00094     1.09379   
   105. RY*(   3) O   5                  0.00059     0.78488   
   106. RY*(   4) O   5                  0.00022     1.08476   
   107. RY*(   5) O   5                  0.00011     2.05691   
   108. RY*(   6) O   5                  0.00008     1.59449   
   109. RY*(   7) O   5                  0.00004     2.24600   
   110. RY*(   8) O   5                  0.00004     2.11591   
   111. RY*(   9) O   5                  0.00001     3.13826   
   112. RY*(  10) O   5                  0.00002     3.10516   
   113. RY*(  11) O   5                  0.00001     2.40143   
   114. RY*(  12) O   5                  0.00000     4.89445   
   115. RY*(  13) O   5                  0.00000    49.48144   
   116. RY*(  14) O   5                  0.00001     4.21454   
   117. RY*(  15) O   5                  0.00000     2.68345   
   118. RY*(  16) O   5                  0.00000     2.85495   
   119. RY*(  17) O   5                  0.00000     2.92151   
   120. RY*(   1) C   6                  0.00346     0.99858   
   121. RY*(   2) C   6                  0.00233     1.06693   
   122. RY*(   3) C   6                  0.00046     1.51076   
   123. RY*(   4) C   6                  0.00033     0.89019   
   124. RY*(   5) C   6                  0.00021     0.82165   
   125. RY*(   6) C   6                  0.00016     0.93889   
   126. RY*(   7) C   6                  0.00007     1.37396   
   127. RY*(   8) C   6                  0.00002     1.17610   
   128. RY*(   9) C   6                  0.00002     0.94363   
   129. RY*(  10) C   6                  0.00000     2.82500   
   130. RY*(  11) C   6                  0.00000     0.50935   
   131. RY*(  12) C   6                  0.00000     2.52608   
   132. RY*(  13) C   6                  0.00000     1.89288   
   133. RY*(  14) C   6                  0.00000    22.92039   
   134. RY*(  15) C   6                  0.00000     1.21866   
   135. RY*(  16) C   6                  0.00000     1.51258   
   136. RY*(  17) C   6                  0.00000     1.92728   
   137. RY*(   1) N   7                  0.00262     0.99629   
   138. RY*(   2) N   7                  0.00071     1.16443   
   139. RY*(   3) N   7                  0.00042     1.08440   
   140. RY*(   4) N   7                  0.00022     1.37717   
   141. RY*(   5) N   7                  0.00011     1.41364   
   142. RY*(   6) N   7                  0.00007     0.74511   
   143. RY*(   7) N   7                  0.00007     1.10424   
   144. RY*(   8) N   7                  0.00001     3.15703   
   145. RY*(   9) N   7                  0.00002     1.93668   
   146. RY*(  10) N   7                  0.00000     3.70400   
   147. RY*(  11) N   7                  0.00001     0.76363   
   148. RY*(  12) N   7                  0.00001     2.64226   
   149. RY*(  13) N   7                  0.00000    34.22529   
   150. RY*(  14) N   7                  0.00000     1.63689   
   151. RY*(  15) N   7                  0.00000     1.64977   
   152. RY*(  16) N   7                  0.00001     4.07063   
   153. RY*(  17) N   7                  0.00000     3.80416   
   154. RY*(   1) N   8                  0.00644     0.63825   
   155. RY*(   2) N   8                  0.00126     1.09197   
   156. RY*(   3) N   8                  0.00122     1.09070   
   157. RY*(   4) N   8                  0.00099     1.28168   
   158. RY*(   5) N   8                  0.00045     1.49836   
   159. RY*(   6) N   8                  0.00030     2.00095   
   160. RY*(   7) N   8                  0.00021     2.54266   
   161. RY*(   8) N   8                  0.00010     1.92111   
   162. RY*(   9) N   8                  0.00008     2.11016   
   163. RY*(  10) N   8                  0.00003     2.17942   
   164. RY*(  11) N   8                  0.00002     3.63730   
   165. RY*(  12) N   8                  0.00003     1.17667   
   166. RY*(  13) N   8                  0.00000     4.21602   
   167. RY*(  14) N   8                  0.00001     2.40356   
   168. RY*(  15) N   8                  0.00000     0.79770   
   169. RY*(  16) N   8                  0.00000     3.52810   
   170. RY*(  17) N   8                  0.00000    34.63837   
   171. RY*(   1) C   9                  0.00186     0.66855   
   172. RY*(   2) C   9                  0.00070     0.63594   
   173. RY*(   3) C   9                  0.00041     0.85698   
   174. RY*(   4) C   9                  0.00016     1.27981   
   175. RY*(   5) C   9                  0.00013     1.01196   
   176. RY*(   6) C   9                  0.00009     1.49646   
   177. RY*(   7) C   9                  0.00004     2.52084   
   178. RY*(   8) C   9                  0.00003     2.12651   
   179. RY*(   9) C   9                  0.00002     1.13712   
   180. RY*(  10) C   9                  0.00000     2.82171   
   181. RY*(  11) C   9                  0.00000     0.67769   
   182. RY*(  12) C   9                  0.00000     3.04130   
   183. RY*(  13) C   9                  0.00001     0.36484   
   184. RY*(  14) C   9                  0.00000     1.83006   
   185. RY*(  15) C   9                  0.00000    22.05198   
   186. RY*(  16) C   9                  0.00000     1.36136   
   187. RY*(  17) C   9                  0.00000     2.14818   
   188. RY*(   1) H  10                  0.00055     0.79629   
   189. RY*(   2) H  10                  0.00008     1.84980   
   190. RY*(   3) H  10                  0.00005     1.78119   
   191. RY*(   4) H  10                  0.00003     1.83018   
   192. RY*(   5) H  10                  0.00002     2.63011   
   193. RY*(   1) H  11                  0.00027     0.76925   
   194. RY*(   2) H  11                  0.00007     1.66343   
   195. RY*(   3) H  11                  0.00005     1.79120   
   196. RY*(   4) H  11                  0.00004     2.00158   
   197. RY*(   5) H  11                  0.00001     2.63539   
   198. RY*(   1) H  12                  0.00045     0.74376   
   199. RY*(   2) H  12                  0.00013     1.88453   
   200. RY*(   3) H  12                  0.00006     1.77667   
   201. RY*(   4) H  12                  0.00004     1.79425   
   202. RY*(   5) H  12                  0.00002     2.69456   
   203. RY*(   1) H  13                  0.00072     0.91529   
   204. RY*(   2) H  13                  0.00009     1.86275   
   205. RY*(   3) H  13                  0.00009     1.86276   
   206. RY*(   4) H  13                  0.00004     1.89962   
   207. RY*(   5) H  13                  0.00001     2.47744   
   208. RY*(   1) H  14                  0.00044     0.71110   
   209. RY*(   2) H  14                  0.00011     1.81451   
   210. RY*(   3) H  14                  0.00006     1.92117   
   211. RY*(   4) H  14                  0.00004     2.29401   
   212. RY*(   5) H  14                  0.00002     2.26516   
   213. RY*(   1) H  15                  0.00022     1.24903   
   214. RY*(   2) H  15                  0.00010     1.61107   
   215. RY*(   3) H  15                  0.00006     1.77990   
   216. RY*(   4) H  15                  0.00005     1.64813   
   217. RY*(   5) H  15                  0.00002     2.46942   
   218. RY*(   1) H  16                  0.00076     0.86381   
   219. RY*(   2) H  16                  0.00007     1.98917   
   220. RY*(   3) H  16                  0.00004     1.70914   
   221. RY*(   4) H  16                  0.00003     2.09055   
   222. RY*(   5) H  16                  0.00003     2.13920   
   223. RY*(   1) H  17                  0.00022     1.30408   
   224. RY*(   2) H  17                  0.00010     1.55979   
   225. RY*(   3) H  17                  0.00005     1.77975   
   226. RY*(   4) H  17                  0.00005     1.63390   
   227. RY*(   5) H  17                  0.00002     2.46956   
   228. BD*(   1) C   1 - C   2          0.00346     0.36095   
   229. BD*(   1) C   1 - H  10          0.00400     0.38866   
   230. BD*(   1) C   1 - H  11          0.00234     0.38691   
   231. BD*(   1) C   1 - H  12          0.00400     0.38903   
   232. BD*(   1) C   2 - N   3          0.00911     0.34845   
   233. BD*(   1) C   2 - H  13          0.01111     0.37600   
   234. BD*(   1) C   2 - H  14          0.00900     0.37436   
   235. BD*(   1) N   3 - C   4          0.00865     0.58858   
   236. BD*(   2) N   3 - C   4          0.07300    -0.00730   
   237. BD*(   1) C   4 - O   5          0.04788     0.30634   
   238. BD*(   1) C   4 - N   8          0.03953     0.38840   
   239. BD*(   1) O   5 - C   6          0.01536     0.31776   
   240. BD*(   1) C   6 - N   7          0.00667     0.48473   
   241. BD*(   1) N   7 - N   8          0.02074     0.37226   
   242. BD*(   2) N   7 - N   8          0.15384    -0.08583  33(v),236(v),139(g),244(v)
                                                    246(v),161(g)
   243. BD*(   1) N   8 - C   9          0.01008     0.29758   
   244. BD*(   1) C   9 - H  15          0.00329     0.35403   
   245. BD*(   1) C   9 - H  16          0.00311     0.36390   
   246. BD*(   1) C   9 - H  17          0.00291     0.35550   
       -------------------------------
              Total Lewis   32.30495  ( 97.8938%)
        Valence non-Lewis    0.62954  (  1.9077%)
        Rydberg non-Lewis    0.06552  (  0.1985%)
       -------------------------------
            Total unit  1   33.00000  (100.0000%)
           Charge unit  1    0.50000
 Leave Link  607 at Sun Oct 30 09:18:37 2022, MaxMem=  8053063680 cpu:              51.5 elap:               1.6
 (Enter /public3/home/scg5914/software-scg5914/g16/l9999.exe)
 Unable to Open any file for archive entry.
 1\1\GINC-E0506\SP\UB3LYP\Gen\C5H8N3O1(2)\SCG5914\30-Oct-2022\0\\#p b3l
 yp/chkbas pop=nbo geom=allcheck guess=tcheck em=gd3bj\\dsgdb9nsd_12688
 5-6\\0,2\C,0,-0.1931605458,1.4078255815,0.0449244573\C,0,0.0479768194,
 -0.1057400571,-0.0058416079\N,0,0.7108787844,-0.5489625028,1.214842004
 7\C,0,0.0058736666,-1.0987336743,2.1254152247\O,0,-1.3352044225,-1.318
 8309644,2.1761712617\C,0,-1.6737538836,-1.9162426188,3.3996909261\N,0,
 -0.4980063474,-2.115564322,4.0570625716\N,0,0.486273832,-1.5899509061,
 3.3174601486\C,0,1.869846619,-1.5781826558,3.7512712522\H,0,0.74302707
 97,1.942444179,0.2176430805\H,0,-0.619489808,1.7460824639,-0.902495154
 5\H,0,-0.8915552023,1.660193535,0.8457994436\H,0,-0.897632565,-0.63047
 96151,-0.172088793\H,0,0.7233988776,-0.3364842513,-0.8337167285\H,0,2.
 2220079994,-2.6050826323,3.8584490446\H,0,2.4527032131,-1.0508908886,2
 .999132451\H,0,1.9336691384,-1.0716687196,4.7144587277\\Version=ES64L-
 G16RevC.01\State=2-A\HF=-434.8390739\S2=0.768388\S2-1=0.\S2A=0.75019\R
 MSD=2.741e-09\Dipole=1.7203846,0.6491671,-0.789529\Quadrupole=-2.67327
 49,1.0019971,1.6712778,-4.4979964,6.963079,1.313602\PG=C01 [X(C5H8N3O1
 )]\\@
 The archive entry for this job was punched.


 In the race for quality, there is no finish line.
                               -- David T. Kearns
 Job cpu time:       0 days  0 hours  1 minutes 52.1 seconds.
 Elapsed time:       0 days  0 hours  0 minutes  3.6 seconds.
 File lengths (MBytes):  RWF=     61 Int=      0 D2E=      0 Chk=      7 Scr=      1
 Normal termination of Gaussian 16 at Sun Oct 30 09:18:37 2022.
