 Entering Gaussian System, Link 0=/public3/home/scg5914/software-scg5914/g16/g16
 Input=dsgdb9nsd_130472-1.gjf
 Output=dsgdb9nsd_130472-1.log
 Initial command:
 /public3/home/scg5914/software-scg5914/g16/l1.exe "/public3/home/scg5914/software-scg5914/test/tmp/dsgdb9nsd_130472-1/Gau-10021.inp" -scrdir="/public3/home/scg5914/software-scg5914/test/tmp/dsgdb9nsd_130472-1/"
 Entering Link 1 = /public3/home/scg5914/software-scg5914/g16/l1.exe PID=     10022.
  
 Copyright (c) 1988-2019, Gaussian, Inc.  All Rights Reserved.
  
 This is part of the Gaussian(R) 16 program.  It is based on
 the Gaussian(R) 09 system (copyright 2009, Gaussian, Inc.),
 the Gaussian(R) 03 system (copyright 2003, Gaussian, Inc.),
 the Gaussian(R) 98 system (copyright 1998, Gaussian, Inc.),
 the Gaussian(R) 94 system (copyright 1995, Gaussian, Inc.),
 the Gaussian 92(TM) system (copyright 1992, Gaussian, Inc.),
 the Gaussian 90(TM) system (copyright 1990, Gaussian, Inc.),
 the Gaussian 88(TM) system (copyright 1988, Gaussian, Inc.),
 the Gaussian 86(TM) system (copyright 1986, Carnegie Mellon
 University), and the Gaussian 82(TM) system (copyright 1983,
 Carnegie Mellon University). Gaussian is a federally registered
 trademark of Gaussian, Inc.
  
 This software contains proprietary and confidential information,
 including trade secrets, belonging to Gaussian, Inc.
  
 This software is provided under written license and may be
 used, copied, transmitted, or stored only in accord with that
 written license.
  
 The following legend is applicable only to US Government
 contracts under FAR:
  
                    RESTRICTED RIGHTS LEGEND
  
 Use, reproduction and disclosure by the US Government is
 subject to restrictions as set forth in subparagraphs (a)
 and (c) of the Commercial Computer Software - Restricted
 Rights clause in FAR 52.227-19.
  
 Gaussian, Inc.
 340 Quinnipiac St., Bldg. 40, Wallingford CT 06492
  
  
 ---------------------------------------------------------------
 Warning -- This program may not be used in any manner that
 competes with the business of Gaussian, Inc. or will provide
 assistance to any competitor of Gaussian, Inc.  The licensee
 of this program is prohibited from giving any competitor of
 Gaussian, Inc. access to this program.  By using this program,
 the user acknowledges that Gaussian, Inc. is engaged in the
 business of creating and licensing software in the field of
 computational chemistry and represents and warrants to the
 licensee that it is not a competitor of Gaussian, Inc. and that
 it will not use this program in any manner prohibited above.
 ---------------------------------------------------------------
  

 Cite this work as:
 Gaussian 16, Revision C.01,
 M. J. Frisch, G. W. Trucks, H. B. Schlegel, G. E. Scuseria, 
 M. A. Robb, J. R. Cheeseman, G. Scalmani, V. Barone, 
 G. A. Petersson, H. Nakatsuji, X. Li, M. Caricato, A. V. Marenich, 
 J. Bloino, B. G. Janesko, R. Gomperts, B. Mennucci, H. P. Hratchian, 
 J. V. Ortiz, A. F. Izmaylov, J. L. Sonnenberg, D. Williams-Young, 
 F. Ding, F. Lipparini, F. Egidi, J. Goings, B. Peng, A. Petrone, 
 T. Henderson, D. Ranasinghe, V. G. Zakrzewski, J. Gao, N. Rega, 
 G. Zheng, W. Liang, M. Hada, M. Ehara, K. Toyota, R. Fukuda, 
 J. Hasegawa, M. Ishida, T. Nakajima, Y. Honda, O. Kitao, H. Nakai, 
 T. Vreven, K. Throssell, J. A. Montgomery, Jr., J. E. Peralta, 
 F. Ogliaro, M. J. Bearpark, J. J. Heyd, E. N. Brothers, K. N. Kudin, 
 V. N. Staroverov, T. A. Keith, R. Kobayashi, J. Normand, 
 K. Raghavachari, A. P. Rendell, J. C. Burant, S. S. Iyengar, 
 J. Tomasi, M. Cossi, J. M. Millam, M. Klene, C. Adamo, R. Cammi, 
 J. W. Ochterski, R. L. Martin, K. Morokuma, O. Farkas, 
 J. B. Foresman, and D. J. Fox, Gaussian, Inc., Wallingford CT, 2019.
 
 ******************************************
 Gaussian 16:  ES64L-G16RevC.01  3-Jul-2019
                 3-Nov-2022 
 ******************************************
 %chk=dsgdb9nsd_130472-1.chk
 %mem=60GB
 %nprocshared=32
 Will use up to   32 processors via shared memory.
 ------------------------------------
 #p opt freq b3lyp/6-311+g** em=gd3bj
 ------------------------------------
 1/18=20,19=15,26=3,38=1/1,3;
 2/9=110,12=2,17=6,18=5,40=1/2;
 3/5=4,6=6,7=111,11=2,25=1,30=1,71=1,74=-5,124=41/1,2,3;
 4//1;
 5/5=2,38=5/2;
 6/7=2,8=2,9=2,10=2,28=1/1;
 7//1,2,3,16;
 1/18=20,19=15,26=3/3(2);
 2/9=110/2;
 99//99;
 2/9=110/2;
 3/5=4,6=6,7=111,11=2,25=1,30=1,71=1,74=-5,124=41/1,2,3;
 4/5=5,16=3,69=1/1;
 5/5=2,38=5/2;
 7//1,2,3,16;
 1/18=20,19=15,26=3/3(-5);
 2/9=110/2;
 6/7=2,8=2,9=2,10=2,19=2,28=1/1;
 99/9=1/99;
 Leave Link    1 at Thu Nov  3 03:51:12 2022, MaxMem=  8053063680 cpu:               0.9 elap:               0.0
 (Enter /public3/home/scg5914/software-scg5914/g16/l101.exe)
 ------------------
 dsgdb9nsd_130472-1
 ------------------
 Symbolic Z-matrix:
 Charge =  0 Multiplicity = 2
 O                    -0.01664   1.26536   0.00923 
 C                     1.21628   1.75913  -0.00005 
 C                     2.11454   0.72243  -0.01449 
 C                     3.51405   0.49969  -0.02934 
 N                     3.98824  -0.71739  -0.04059 
 C                     3.07844  -1.75698  -0.0374 
 N                     1.77373  -1.70895  -0.02448 
 C                     1.27403  -0.44202  -0.01269 
 N                    -0.01327  -0.12889   0.00152 
 H                     4.22678   1.32276  -0.03174 
 H                     3.53222  -2.7447   -0.0473 
 
 ITRead=  0  0  0  0  0  0  0  0  0  0  0
 MicOpt= -1 -1 -1 -1 -1 -1 -1 -1 -1 -1 -1
 NAtoms=     11 NQM=       11 NQMF=       0 NMMI=      0 NMMIF=      0
                NMic=       0 NMicF=      0.
                    Isotopes and Nuclear Properties:
 (Nuclear quadrupole moments (NQMom) in fm**2, nuclear magnetic moments (NMagM)
  in nuclear magnetons)

  Atom         1           2           3           4           5           6           7           8           9          10
 IAtWgt=          16          12          12          12          14          12          14          12          14           1
 AtmWgt=  15.9949146  12.0000000  12.0000000  12.0000000  14.0030740  12.0000000  14.0030740  12.0000000  14.0030740   1.0078250
 NucSpn=           0           0           0           0           2           0           2           0           2           1
 AtZEff=  -0.0000000  -0.0000000  -0.0000000  -0.0000000  -0.0000000  -0.0000000  -0.0000000  -0.0000000  -0.0000000  -0.0000000
 NQMom=    0.0000000   0.0000000   0.0000000   0.0000000   2.0440000   0.0000000   2.0440000   0.0000000   2.0440000   0.0000000
 NMagM=    0.0000000   0.0000000   0.0000000   0.0000000   0.4037610   0.0000000   0.4037610   0.0000000   0.4037610   2.7928460
 AtZNuc=   8.0000000   6.0000000   6.0000000   6.0000000   7.0000000   6.0000000   7.0000000   6.0000000   7.0000000   1.0000000

  Atom        11
 IAtWgt=           1
 AtmWgt=   1.0078250
 NucSpn=           1
 AtZEff=  -0.0000000
 NQMom=    0.0000000
 NMagM=    2.7928460
 AtZNuc=   1.0000000
 Leave Link  101 at Thu Nov  3 03:51:12 2022, MaxMem=  8053063680 cpu:               4.2 elap:               0.1
 (Enter /public3/home/scg5914/software-scg5914/g16/l103.exe)

 GradGradGradGradGradGradGradGradGradGradGradGradGradGradGradGradGradGrad
 Berny optimization.
 Initialization pass.
                           ----------------------------
                           !    Initial Parameters    !
                           ! (Angstroms and Degrees)  !
 --------------------------                            --------------------------
 ! Name  Definition              Value          Derivative Info.                !
 --------------------------------------------------------------------------------
 ! R1    R(1,2)                  1.3282         estimate D2E/DX2                !
 ! R2    R(1,9)                  1.3943         estimate D2E/DX2                !
 ! R3    R(2,3)                  1.3718         estimate D2E/DX2                !
 ! R4    R(3,4)                  1.4172         estimate D2E/DX2                !
 ! R5    R(3,8)                  1.4361         estimate D2E/DX2                !
 ! R6    R(4,5)                  1.3062         estimate D2E/DX2                !
 ! R7    R(4,10)                 1.0888         estimate D2E/DX2                !
 ! R8    R(5,6)                  1.3815         estimate D2E/DX2                !
 ! R9    R(6,7)                  1.3057         estimate D2E/DX2                !
 ! R10   R(6,11)                 1.087          estimate D2E/DX2                !
 ! R11   R(7,8)                  1.362          estimate D2E/DX2                !
 ! R12   R(8,9)                  1.3249         estimate D2E/DX2                !
 ! A1    A(2,1,9)              111.6835         estimate D2E/DX2                !
 ! A2    A(1,2,3)              109.0849         estimate D2E/DX2                !
 ! A3    A(2,3,4)              139.9529         estimate D2E/DX2                !
 ! A4    A(2,3,8)              103.2691         estimate D2E/DX2                !
 ! A5    A(4,3,8)              116.7781         estimate D2E/DX2                !
 ! A6    A(3,4,5)              120.3323         estimate D2E/DX2                !
 ! A7    A(3,4,10)             121.8468         estimate D2E/DX2                !
 ! A8    A(5,4,10)             117.8209         estimate D2E/DX2                !
 ! A9    A(4,5,6)              117.5204         estimate D2E/DX2                !
 ! A10   A(5,6,7)              129.0815         estimate D2E/DX2                !
 ! A11   A(5,6,11)             114.1318         estimate D2E/DX2                !
 ! A12   A(7,6,11)             116.7867         estimate D2E/DX2                !
 ! A13   A(6,7,8)              113.637          estimate D2E/DX2                !
 ! A14   A(3,8,7)              122.6507         estimate D2E/DX2                !
 ! A15   A(3,8,9)              112.1498         estimate D2E/DX2                !
 ! A16   A(7,8,9)              125.1995         estimate D2E/DX2                !
 ! A17   A(1,9,8)              103.8127         estimate D2E/DX2                !
 ! D1    D(9,1,2,3)             -0.0004         estimate D2E/DX2                !
 ! D2    D(2,1,9,8)              0.0015         estimate D2E/DX2                !
 ! D3    D(1,2,3,4)            179.9991         estimate D2E/DX2                !
 ! D4    D(1,2,3,8)             -0.0007         estimate D2E/DX2                !
 ! D5    D(2,3,4,5)            179.9982         estimate D2E/DX2                !
 ! D6    D(2,3,4,10)             0.0014         estimate D2E/DX2                !
 ! D7    D(8,3,4,5)             -0.0021         estimate D2E/DX2                !
 ! D8    D(8,3,4,10)          -179.9988         estimate D2E/DX2                !
 ! D9    D(2,3,8,7)           -179.9984         estimate D2E/DX2                !
 ! D10   D(2,3,8,9)              0.0017         estimate D2E/DX2                !
 ! D11   D(4,3,8,7)              0.0018         estimate D2E/DX2                !
 ! D12   D(4,3,8,9)           -179.9982         estimate D2E/DX2                !
 ! D13   D(3,4,5,6)              0.0001         estimate D2E/DX2                !
 ! D14   D(10,4,5,6)           179.997          estimate D2E/DX2                !
 ! D15   D(4,5,6,7)              0.0028         estimate D2E/DX2                !
 ! D16   D(4,5,6,11)           179.9946         estimate D2E/DX2                !
 ! D17   D(5,6,7,8)             -0.0031         estimate D2E/DX2                !
 ! D18   D(11,6,7,8)          -179.9947         estimate D2E/DX2                !
 ! D19   D(6,7,8,3)              0.0006         estimate D2E/DX2                !
 ! D20   D(6,7,8,9)           -179.9995         estimate D2E/DX2                !
 ! D21   D(3,8,9,1)             -0.0019         estimate D2E/DX2                !
 ! D22   D(7,8,9,1)            179.9982         estimate D2E/DX2                !
 --------------------------------------------------------------------------------
 Trust Radius=3.00D-01 FncErr=1.00D-07 GrdErr=1.00D-06 EigMax=2.50D+02 EigMin=1.00D-04
 Number of steps in this run=     61 maximum allowed number of steps=    100.
 GradGradGradGradGradGradGradGradGradGradGradGradGradGradGradGradGradGrad

 Leave Link  103 at Thu Nov  3 03:51:12 2022, MaxMem=  8053063680 cpu:               0.2 elap:               0.0
 (Enter /public3/home/scg5914/software-scg5914/g16/l202.exe)
                          Input orientation:                          
 ---------------------------------------------------------------------
 Center     Atomic      Atomic             Coordinates (Angstroms)
 Number     Number       Type             X           Y           Z
 ---------------------------------------------------------------------
      1          8           0       -0.016643    1.265360    0.009227
      2          6           0        1.216281    1.759130   -0.000052
      3          6           0        2.114536    0.722429   -0.014485
      4          6           0        3.514052    0.499688   -0.029336
      5          7           0        3.988238   -0.717395   -0.040593
      6          6           0        3.078440   -1.756985   -0.037399
      7          7           0        1.773730   -1.708947   -0.024477
      8          6           0        1.274031   -0.442022   -0.012693
      9          7           0       -0.013269   -0.128888    0.001522
     10          1           0        4.226775    1.322758   -0.031739
     11          1           0        3.532216   -2.744703   -0.047300
 ---------------------------------------------------------------------
                    Distance matrix (angstroms):
                    1          2          3          4          5
     1  O    0.000000
     2  C    1.328156   0.000000
     3  C    2.199377   1.371794   0.000000
     4  C    3.612970   2.620458   1.417208   0.000000
     5  N    4.469102   3.717333   2.363162   1.306243   0.000000
     6  C    4.326231   3.978956   2.660287   2.298346   1.381481
     7  N    3.471753   3.512677   2.455166   2.811906   2.426414
     8  C    2.140437   2.201945   1.436105   2.429978   2.728284
     9  N    1.394273   2.253088   2.291845   3.583023   4.044771
    10  H    4.244004   3.042120   2.195961   1.088772   2.054070
    11  H    5.355203   5.064612   3.745917   3.244491   2.077975
                    6          7          8          9         10
     6  C    0.000000
     7  N    1.305658   0.000000
     8  C    2.232853   1.361961   0.000000
     9  N    3.494407   2.385503   1.324913   0.000000
    10  H    3.286871   3.899836   3.439987   4.481781   0.000000
    11  H    1.087013   2.040977   3.225359   4.406284   4.126366
                   11
    11  H    0.000000
 Stoichiometry    C5H2N3O(2)
 Framework group  C1[X(C5H2N3O)]
 Deg. of freedom    27
 Full point group                 C1      NOp   1
 Largest Abelian subgroup         C1      NOp   1
 Largest concise Abelian subgroup C1      NOp   1
                         Standard orientation:                         
 ---------------------------------------------------------------------
 Center     Atomic      Atomic             Coordinates (Angstroms)
 Number     Number       Type             X           Y           Z
 ---------------------------------------------------------------------
      1          8           0        2.325819    0.067145   -0.000011
      2          6           0        1.569822    1.159146   -0.000019
      3          6           0        0.248627    0.790008    0.000002
      4          6           0       -1.041624    1.376296    0.000023
      5          7           0       -2.108609    0.622763    0.000004
      6          6           0       -1.923263   -0.746228   -0.000034
      7          7           0       -0.808475   -1.425928   -0.000005
      8          6           0        0.307290   -0.644898    0.000007
      9          7           0        1.553807   -1.093886    0.000026
     10          1           0       -1.182038    2.455975    0.000002
     11          1           0       -2.846686   -1.319715    0.000045
 ---------------------------------------------------------------------
 Rotational constants (GHZ):           4.3355344           1.7424094           1.2428999
 Leave Link  202 at Thu Nov  3 03:51:12 2022, MaxMem=  8053063680 cpu:               0.2 elap:               0.0
 (Enter /public3/home/scg5914/software-scg5914/g16/l301.exe)
 Standard basis: 6-311+G(d,p) (5D, 7F)
 Ernie: Thresh=  0.10000D-02 Tol=  0.10000D-05 Strict=F.
 There are   219 symmetry adapted cartesian basis functions of A   symmetry.
 There are   210 symmetry adapted basis functions of A   symmetry.
   210 basis functions,   340 primitive gaussians,   219 cartesian basis functions
    31 alpha electrons       30 beta electrons
       nuclear repulsion energy       398.7005852715 Hartrees.
 IExCor=  402 DFT=T Ex+Corr=B3LYP ExCW=0 ScaHFX=  0.200000
 ScaDFX=  0.800000  0.720000  1.000000  0.810000 ScalE2=  1.000000  1.000000
 IRadAn=      5 IRanWt=     -1 IRanGd=            0 ICorTp=0 IEmpDi=141
 NAtoms=   11 NActive=   11 NUniq=   11 SFac= 1.00D+00 NAtFMM=   60 NAOKFM=F Big=F
 Integral buffers will be    131072 words long.
 Raffenetti 2 integral format.
 Two-electron integral symmetry is turned on.
 R6Disp:  Grimme-D3(BJ) Dispersion energy=       -0.0212823320 Hartrees.
 Nuclear repulsion after empirical dispersion term =      398.6793029395 Hartrees.
 Leave Link  301 at Thu Nov  3 03:51:13 2022, MaxMem=  8053063680 cpu:               0.9 elap:               0.0
 (Enter /public3/home/scg5914/software-scg5914/g16/l302.exe)
 NPDir=0 NMtPBC=     1 NCelOv=     1 NCel=       1 NClECP=     1 NCelD=      1
         NCelK=      1 NCelE2=     1 NClLst=     1 CellRange=     0.0.
 One-electron integrals computed using PRISM.
 One-electron integral symmetry used in STVInt
 NBasis=   210 RedAO= T EigKep=  6.84D-06  NBF=   210
 NBsUse=   210 1.00D-06 EigRej= -1.00D+00 NBFU=   210
 Precomputing XC quadrature grid using
 IXCGrd= 4 IRadAn=           5 IRanWt=          -1 IRanGd=           0 AccXCQ= 0.00D+00.
 Generated NRdTot=       0 NPtTot=           0 NUsed=           0 NTot=          32
 NSgBfM=   219   219   219   219   219 MxSgAt=    11 MxSgA2=    11.
 Leave Link  302 at Thu Nov  3 03:51:13 2022, MaxMem=  8053063680 cpu:               3.6 elap:               0.1
 (Enter /public3/home/scg5914/software-scg5914/g16/l303.exe)
 DipDrv:  MaxL=1.
 Leave Link  303 at Thu Nov  3 03:51:13 2022, MaxMem=  8053063680 cpu:               1.1 elap:               0.1
 (Enter /public3/home/scg5914/software-scg5914/g16/l401.exe)
 ExpMin= 4.38D-02 ExpMax= 8.59D+03 ExpMxC= 1.30D+03 IAcc=3 IRadAn=         5 AccDes= 0.00D+00
 Harris functional with IExCor=  402 and IRadAn=       5 diagonalized for initial guess.
 HarFok:  IExCor=  402 AccDes= 0.00D+00 IRadAn=         5 IDoV= 1 UseB2=F ITyADJ=14
 ICtDFT=  3500011 ScaDFX=  1.000000  1.000000  1.000000  1.000000
 FoFCou: FMM=F IPFlag=           0 FMFlag=      100000 FMFlg1=           0
         NFxFlg=           0 DoJE=T BraDBF=F KetDBF=T FulRan=T
         wScrn=  0.000000 ICntrl=       500 IOpCl=  0 I1Cent=   200000004 NGrid=           0
         NMat0=    1 NMatS0=      1 NMatT0=    0 NMatD0=    1 NMtDS0=    0 NMtDT0=    0
 Petite list used in FoFCou.
 Harris En= -431.097389444262    
 JPrj=0 DoOrth=F DoCkMO=F.
 Initial guess <Sx>= 0.0000 <Sy>= 0.0000 <Sz>= 0.5000 <S**2>= 0.7500 S= 0.5000
 Leave Link  401 at Thu Nov  3 03:51:13 2022, MaxMem=  8053063680 cpu:               9.6 elap:               0.3
 (Enter /public3/home/scg5914/software-scg5914/g16/l502.exe)
 Keep R1 and R2 ints in memory in canonical form, NReq=524366968.
 FoFCou: FMM=F IPFlag=           0 FMFlag=           0 FMFlg1=           0
         NFxFlg=           0 DoJE=F BraDBF=F KetDBF=F FulRan=T
         wScrn=  0.000000 ICntrl=       600 IOpCl=  0 I1Cent=           0 NGrid=           0
         NMat0=    1 NMatS0=  22155 NMatT0=    0 NMatD0=    1 NMtDS0=    0 NMtDT0=    0
 Symmetry not used in FoFCou.
 Two-electron integral symmetry not used.
 UHF open shell SCF:
 Using DIIS extrapolation, IDIIS=  1040.
 NGot=  8053063680 LenX=  7562092246 LenY=  7562043844
 Requested convergence on RMS density matrix=1.00D-08 within 128 cycles.
 Requested convergence on MAX density matrix=1.00D-06.
 Requested convergence on             energy=1.00D-06.
 No special actions if energy rises.

 Cycle   1  Pass 1  IDiag  1:
 E= -431.056354498926    
 DIIS: error= 2.41D-02 at cycle   1 NSaved=   1.
 NSaved= 1 IEnMin= 1 EnMin= -431.056354498926     IErMin= 1 ErrMin= 2.41D-02
 ErrMax= 2.41D-02  0.00D+00 EMaxC= 1.00D-01 BMatC= 5.84D-01 BMatP= 5.84D-01
 IDIUse=3 WtCom= 7.59D-01 WtEn= 2.41D-01
 Coeff-Com:  0.100D+01
 Coeff-En:   0.100D+01
 Coeff:      0.100D+01
 Gap=     0.309 Goal=   None    Shift=    0.000
 Gap=     0.027 Goal=   None    Shift=    0.000
 GapD=    0.027 DampG=0.250 DampE=0.500 DampFc=0.2500 IDamp=-1.
 Damping current iteration by 2.50D-01
 RMSDP=1.38D-02 MaxDP=9.86D-01              OVMax= 6.36D-01

 Cycle   2  Pass 1  IDiag  1:
 E= -431.073721242742     Delta-E=       -0.017366743815 Rises=F Damp=T
 DIIS: error= 1.22D-02 at cycle   2 NSaved=   2.
 NSaved= 2 IEnMin= 2 EnMin= -431.073721242742     IErMin= 2 ErrMin= 1.22D-02
 ErrMax= 1.22D-02  0.00D+00 EMaxC= 1.00D-01 BMatC= 1.72D-01 BMatP= 5.84D-01
 IDIUse=3 WtCom= 8.78D-01 WtEn= 1.22D-01
 Coeff-Com: -0.236D+00 0.124D+01
 Coeff-En:   0.341D+00 0.659D+00
 Coeff:     -0.165D+00 0.117D+01
 Gap=     0.237 Goal=   None    Shift=    0.000
 Gap=     0.007 Goal=   None    Shift=    0.000
 RMSDP=9.36D-03 MaxDP=9.26D-01 DE=-1.74D-02 OVMax= 7.77D-01

 Cycle   3  Pass 1  IDiag  1:
 E= -431.074969335305     Delta-E=       -0.001248092563 Rises=F Damp=F
 DIIS: error= 3.31D-02 at cycle   3 NSaved=   3.
 NSaved= 3 IEnMin= 3 EnMin= -431.074969335305     IErMin= 2 ErrMin= 1.22D-02
 ErrMax= 3.31D-02  0.00D+00 EMaxC= 1.00D-01 BMatC= 3.01D-01 BMatP= 1.72D-01
 IDIUse=2 WtCom= 0.00D+00 WtEn= 1.00D+00
 Coeff-En:   0.000D+00 0.495D+00 0.505D+00
 Coeff:      0.000D+00 0.495D+00 0.505D+00
 Gap=     0.275 Goal=   None    Shift=    0.000
 Gap=     0.049 Goal=   None    Shift=    0.000
 RMSDP=5.36D-03 MaxDP=2.51D-01 DE=-1.25D-03 OVMax= 5.92D-01

 Cycle   4  Pass 1  IDiag  1:
 E= -430.954778454426     Delta-E=        0.120190880879 Rises=F Damp=F
 DIIS: error= 4.10D-02 at cycle   4 NSaved=   4.
 NSaved= 4 IEnMin= 3 EnMin= -431.074969335305     IErMin= 2 ErrMin= 1.22D-02
 ErrMax= 4.10D-02  0.00D+00 EMaxC= 1.00D-01 BMatC= 7.30D-01 BMatP= 1.72D-01
 IDIUse=2 WtCom= 0.00D+00 WtEn= 1.00D+00
 Coeff-En:   0.000D+00 0.000D+00 0.641D+00 0.359D+00
 Coeff:      0.000D+00 0.000D+00 0.641D+00 0.359D+00
 Gap=     0.182 Goal=   None    Shift=    0.000
 Gap=     0.037 Goal=   None    Shift=    0.000
 RMSDP=3.18D-03 MaxDP=1.95D-01 DE= 1.20D-01 OVMax= 4.96D-01

 Cycle   5  Pass 1  IDiag  1:
 E= -431.161213482562     Delta-E=       -0.206435028137 Rises=F Damp=F
 DIIS: error= 5.21D-03 at cycle   5 NSaved=   5.
 NSaved= 5 IEnMin= 5 EnMin= -431.161213482562     IErMin= 5 ErrMin= 5.21D-03
 ErrMax= 5.21D-03  0.00D+00 EMaxC= 1.00D-01 BMatC= 2.51D-02 BMatP= 1.72D-01
 IDIUse=3 WtCom= 9.48D-01 WtEn= 5.21D-02
 Coeff-Com: -0.261D+00 0.420D+00 0.294D+00 0.707D-02 0.540D+00
 Coeff-En:   0.000D+00 0.000D+00 0.000D+00 0.000D+00 0.100D+01
 Coeff:     -0.247D+00 0.398D+00 0.278D+00 0.670D-02 0.564D+00
 Gap=     0.168 Goal=   None    Shift=    0.000
 Gap=     0.097 Goal=   None    Shift=    0.000
 RMSDP=8.45D-04 MaxDP=2.47D-02 DE=-2.06D-01 OVMax= 5.55D-02

 Cycle   6  Pass 1  IDiag  1:
 E= -431.164016108616     Delta-E=       -0.002802626053 Rises=F Damp=F
 DIIS: error= 5.68D-03 at cycle   6 NSaved=   6.
 NSaved= 6 IEnMin= 6 EnMin= -431.164016108616     IErMin= 5 ErrMin= 5.21D-03
 ErrMax= 5.68D-03  0.00D+00 EMaxC= 1.00D-01 BMatC= 1.34D-02 BMatP= 2.51D-02
 IDIUse=3 WtCom= 9.48D-01 WtEn= 5.21D-02
 Coeff-Com: -0.250D+00 0.351D+00 0.110D+00-0.627D-01 0.433D+00 0.419D+00
 Coeff-En:   0.000D+00 0.000D+00 0.000D+00 0.000D+00 0.340D+00 0.660D+00
 Coeff:     -0.237D+00 0.332D+00 0.104D+00-0.595D-01 0.428D+00 0.432D+00
 Gap=     0.171 Goal=   None    Shift=    0.000
 Gap=     0.090 Goal=   None    Shift=    0.000
 RMSDP=4.57D-04 MaxDP=2.79D-02 DE=-2.80D-03 OVMax= 2.30D-02

 Cycle   7  Pass 1  IDiag  1:
 E= -431.167136065591     Delta-E=       -0.003119956975 Rises=F Damp=F
 DIIS: error= 1.87D-03 at cycle   7 NSaved=   7.
 NSaved= 7 IEnMin= 7 EnMin= -431.167136065591     IErMin= 7 ErrMin= 1.87D-03
 ErrMax= 1.87D-03  0.00D+00 EMaxC= 1.00D-01 BMatC= 1.59D-03 BMatP= 1.34D-02
 IDIUse=3 WtCom= 9.81D-01 WtEn= 1.87D-02
 Coeff-Com: -0.732D-01 0.946D-01-0.181D-01-0.117D-01 0.881D-01 0.171D+00
 Coeff-Com:  0.749D+00
 Coeff-En:   0.000D+00 0.000D+00 0.000D+00 0.000D+00 0.000D+00 0.000D+00
 Coeff-En:   0.100D+01
 Coeff:     -0.718D-01 0.928D-01-0.177D-01-0.114D-01 0.865D-01 0.168D+00
 Coeff:      0.754D+00
 Gap=     0.170 Goal=   None    Shift=    0.000
 Gap=     0.092 Goal=   None    Shift=    0.000
 RMSDP=2.14D-04 MaxDP=7.47D-03 DE=-3.12D-03 OVMax= 1.45D-02

 Cycle   8  Pass 1  IDiag  1:
 E= -431.167581300917     Delta-E=       -0.000445235326 Rises=F Damp=F
 DIIS: error= 1.00D-03 at cycle   8 NSaved=   8.
 NSaved= 8 IEnMin= 8 EnMin= -431.167581300917     IErMin= 8 ErrMin= 1.00D-03
 ErrMax= 1.00D-03  0.00D+00 EMaxC= 1.00D-01 BMatC= 3.07D-04 BMatP= 1.59D-03
 IDIUse=3 WtCom= 9.90D-01 WtEn= 1.00D-02
 Coeff-Com: -0.285D-02-0.116D-02-0.432D-01 0.508D-02-0.411D-01 0.265D-01
 Coeff-Com:  0.506D+00 0.550D+00
 Coeff-En:   0.000D+00 0.000D+00 0.000D+00 0.000D+00 0.000D+00 0.000D+00
 Coeff-En:   0.000D+00 0.100D+01
 Coeff:     -0.282D-02-0.115D-02-0.428D-01 0.503D-02-0.406D-01 0.262D-01
 Coeff:      0.501D+00 0.555D+00
 Gap=     0.171 Goal=   None    Shift=    0.000
 Gap=     0.094 Goal=   None    Shift=    0.000
 RMSDP=1.12D-04 MaxDP=5.07D-03 DE=-4.45D-04 OVMax= 5.84D-03

 Cycle   9  Pass 1  IDiag  1:
 E= -431.167687163877     Delta-E=       -0.000105862960 Rises=F Damp=F
 DIIS: error= 6.43D-04 at cycle   9 NSaved=   9.
 NSaved= 9 IEnMin= 9 EnMin= -431.167687163877     IErMin= 9 ErrMin= 6.43D-04
 ErrMax= 6.43D-04  0.00D+00 EMaxC= 1.00D-01 BMatC= 5.16D-05 BMatP= 3.07D-04
 IDIUse=3 WtCom= 9.94D-01 WtEn= 6.43D-03
 Coeff-Com:  0.126D-01-0.174D-01-0.181D-01 0.493D-02-0.443D-01-0.211D-01
 Coeff-Com:  0.290D-01 0.340D+00 0.714D+00
 Coeff-En:   0.000D+00 0.000D+00 0.000D+00 0.000D+00 0.000D+00 0.000D+00
 Coeff-En:   0.000D+00 0.000D+00 0.100D+01
 Coeff:      0.125D-01-0.173D-01-0.180D-01 0.489D-02-0.440D-01-0.210D-01
 Coeff:      0.288D-01 0.338D+00 0.716D+00
 Gap=     0.171 Goal=   None    Shift=    0.000
 Gap=     0.095 Goal=   None    Shift=    0.000
 RMSDP=6.46D-05 MaxDP=2.76D-03 DE=-1.06D-04 OVMax= 5.98D-03

 Cycle  10  Pass 1  IDiag  1:
 E= -431.167712065686     Delta-E=       -0.000024901809 Rises=F Damp=F
 DIIS: error= 3.11D-04 at cycle  10 NSaved=  10.
 NSaved=10 IEnMin=10 EnMin= -431.167712065686     IErMin=10 ErrMin= 3.11D-04
 ErrMax= 3.11D-04  0.00D+00 EMaxC= 1.00D-01 BMatC= 1.73D-05 BMatP= 5.16D-05
 IDIUse=3 WtCom= 9.97D-01 WtEn= 3.11D-03
 Coeff-Com:  0.280D-02-0.234D-02 0.496D-03-0.357D-03-0.115D-01-0.899D-02
 Coeff-Com: -0.980D-01 0.665D-01 0.474D+00 0.578D+00
 Coeff-En:   0.000D+00 0.000D+00 0.000D+00 0.000D+00 0.000D+00 0.000D+00
 Coeff-En:   0.000D+00 0.000D+00 0.000D+00 0.100D+01
 Coeff:      0.279D-02-0.234D-02 0.494D-03-0.356D-03-0.115D-01-0.897D-02
 Coeff:     -0.977D-01 0.663D-01 0.472D+00 0.579D+00
 Gap=     0.171 Goal=   None    Shift=    0.000
 Gap=     0.095 Goal=   None    Shift=    0.000
 RMSDP=2.86D-05 MaxDP=2.59D-03 DE=-2.49D-05 OVMax= 2.17D-03

 Cycle  11  Pass 1  IDiag  1:
 E= -431.167720505661     Delta-E=       -0.000008439974 Rises=F Damp=F
 DIIS: error= 1.06D-04 at cycle  11 NSaved=  11.
 NSaved=11 IEnMin=11 EnMin= -431.167720505661     IErMin=11 ErrMin= 1.06D-04
 ErrMax= 1.06D-04  0.00D+00 EMaxC= 1.00D-01 BMatC= 2.50D-06 BMatP= 1.73D-05
 IDIUse=3 WtCom= 9.99D-01 WtEn= 1.06D-03
 Coeff-Com:  0.175D-02-0.261D-02 0.335D-02 0.150D-04 0.335D-02-0.186D-02
 Coeff-Com: -0.312D-01-0.814D-01-0.327D-01 0.156D+00 0.986D+00
 Coeff-En:   0.000D+00 0.000D+00 0.000D+00 0.000D+00 0.000D+00 0.000D+00
 Coeff-En:   0.000D+00 0.000D+00 0.000D+00 0.000D+00 0.100D+01
 Coeff:      0.175D-02-0.260D-02 0.334D-02 0.150D-04 0.334D-02-0.186D-02
 Coeff:     -0.312D-01-0.813D-01-0.327D-01 0.155D+00 0.986D+00
 Gap=     0.171 Goal=   None    Shift=    0.000
 Gap=     0.095 Goal=   None    Shift=    0.000
 RMSDP=2.43D-05 MaxDP=1.29D-03 DE=-8.44D-06 OVMax= 2.58D-03

 Cycle  12  Pass 1  IDiag  1:
 E= -431.167724474840     Delta-E=       -0.000003969180 Rises=F Damp=F
 DIIS: error= 8.03D-05 at cycle  12 NSaved=  12.
 NSaved=12 IEnMin=12 EnMin= -431.167724474840     IErMin=12 ErrMin= 8.03D-05
 ErrMax= 8.03D-05  0.00D+00 EMaxC= 1.00D-01 BMatC= 2.01D-06 BMatP= 2.50D-06
 IDIUse=1 WtCom= 1.00D+00 WtEn= 0.00D+00
 Coeff-Com: -0.666D-03 0.547D-03 0.268D-02-0.184D-03 0.726D-02 0.346D-02
 Coeff-Com:  0.143D-01-0.750D-01-0.175D+00-0.837D-01 0.668D+00 0.639D+00
 Coeff:     -0.666D-03 0.547D-03 0.268D-02-0.184D-03 0.726D-02 0.346D-02
 Coeff:      0.143D-01-0.750D-01-0.175D+00-0.837D-01 0.668D+00 0.639D+00
 Gap=     0.170 Goal=   None    Shift=    0.000
 Gap=     0.095 Goal=   None    Shift=    0.000
 RMSDP=1.37D-05 MaxDP=7.71D-04 DE=-3.97D-06 OVMax= 1.29D-03

 Cycle  13  Pass 1  IDiag  1:
 E= -431.167726080200     Delta-E=       -0.000001605360 Rises=F Damp=F
 DIIS: error= 3.98D-05 at cycle  13 NSaved=  13.
 NSaved=13 IEnMin=13 EnMin= -431.167726080200     IErMin=13 ErrMin= 3.98D-05
 ErrMax= 3.98D-05  0.00D+00 EMaxC= 1.00D-01 BMatC= 5.68D-07 BMatP= 2.01D-06
 IDIUse=1 WtCom= 1.00D+00 WtEn= 0.00D+00
 Coeff-Com: -0.805D-03 0.104D-02-0.637D-03-0.237D-04 0.101D-02 0.243D-02
 Coeff-Com:  0.276D-01 0.110D-01-0.831D-01-0.143D+00-0.229D+00 0.395D+00
 Coeff-Com:  0.102D+01
 Coeff:     -0.805D-03 0.104D-02-0.637D-03-0.237D-04 0.101D-02 0.243D-02
 Coeff:      0.276D-01 0.110D-01-0.831D-01-0.143D+00-0.229D+00 0.395D+00
 Coeff:      0.102D+01
 Gap=     0.170 Goal=   None    Shift=    0.000
 Gap=     0.095 Goal=   None    Shift=    0.000
 RMSDP=1.51D-05 MaxDP=1.21D-03 DE=-1.61D-06 OVMax= 1.42D-03

 Cycle  14  Pass 1  IDiag  1:
 E= -431.167726956353     Delta-E=       -0.000000876153 Rises=F Damp=F
 DIIS: error= 1.61D-05 at cycle  14 NSaved=  14.
 NSaved=14 IEnMin=14 EnMin= -431.167726956353     IErMin=14 ErrMin= 1.61D-05
 ErrMax= 1.61D-05  0.00D+00 EMaxC= 1.00D-01 BMatC= 9.00D-08 BMatP= 5.68D-07
 IDIUse=1 WtCom= 1.00D+00 WtEn= 0.00D+00
 Coeff-Com: -0.311D-03 0.448D-03-0.564D-03 0.169D-04-0.384D-03 0.147D-03
 Coeff-Com:  0.538D-02 0.164D-01 0.205D-02-0.304D-01-0.221D+00 0.108D-01
 Coeff-Com:  0.365D+00 0.852D+00
 Coeff:     -0.311D-03 0.448D-03-0.564D-03 0.169D-04-0.384D-03 0.147D-03
 Coeff:      0.538D-02 0.164D-01 0.205D-02-0.304D-01-0.221D+00 0.108D-01
 Coeff:      0.365D+00 0.852D+00
 Gap=     0.170 Goal=   None    Shift=    0.000
 Gap=     0.095 Goal=   None    Shift=    0.000
 RMSDP=5.62D-06 MaxDP=4.83D-04 DE=-8.76D-07 OVMax= 5.23D-04

 Cycle  15  Pass 1  IDiag  1:
 E= -431.167727075843     Delta-E=       -0.000000119489 Rises=F Damp=F
 DIIS: error= 8.72D-06 at cycle  15 NSaved=  15.
 NSaved=15 IEnMin=15 EnMin= -431.167727075843     IErMin=15 ErrMin= 8.72D-06
 ErrMax= 8.72D-06  0.00D+00 EMaxC= 1.00D-01 BMatC= 2.15D-08 BMatP= 9.00D-08
 IDIUse=1 WtCom= 1.00D+00 WtEn= 0.00D+00
 Coeff-Com: -0.532D-04 0.950D-04-0.532D-04-0.473D-05-0.204D-03-0.546D-03
 Coeff-Com: -0.463D-02 0.444D-02 0.201D-01 0.245D-01-0.353D-01-0.822D-01
 Coeff-Com: -0.101D+00 0.305D+00 0.870D+00
 Coeff:     -0.532D-04 0.950D-04-0.532D-04-0.473D-05-0.204D-03-0.546D-03
 Coeff:     -0.463D-02 0.444D-02 0.201D-01 0.245D-01-0.353D-01-0.822D-01
 Coeff:     -0.101D+00 0.305D+00 0.870D+00
 Gap=     0.170 Goal=   None    Shift=    0.000
 Gap=     0.095 Goal=   None    Shift=    0.000
 RMSDP=2.08D-06 MaxDP=9.93D-05 DE=-1.19D-07 OVMax= 1.81D-04

 Cycle  16  Pass 1  IDiag  1:
 E= -431.167727092370     Delta-E=       -0.000000016528 Rises=F Damp=F
 DIIS: error= 6.86D-06 at cycle  16 NSaved=  16.
 NSaved=16 IEnMin=16 EnMin= -431.167727092370     IErMin=16 ErrMin= 6.86D-06
 ErrMax= 6.86D-06  0.00D+00 EMaxC= 1.00D-01 BMatC= 7.69D-09 BMatP= 2.15D-08
 IDIUse=1 WtCom= 1.00D+00 WtEn= 0.00D+00
 Coeff-Com:  0.420D-05 0.143D-04 0.137D-03-0.292D-04 0.178D-04-0.418D-03
 Coeff-Com: -0.435D-02-0.114D-02 0.105D-01 0.213D-01 0.243D-01-0.483D-01
 Coeff-Com: -0.134D+00 0.114D-01 0.523D+00 0.598D+00
 Coeff:      0.420D-05 0.143D-04 0.137D-03-0.292D-04 0.178D-04-0.418D-03
 Coeff:     -0.435D-02-0.114D-02 0.105D-01 0.213D-01 0.243D-01-0.483D-01
 Coeff:     -0.134D+00 0.114D-01 0.523D+00 0.598D+00
 Gap=     0.170 Goal=   None    Shift=    0.000
 Gap=     0.095 Goal=   None    Shift=    0.000
 RMSDP=8.14D-07 MaxDP=8.31D-05 DE=-1.65D-08 OVMax= 5.00D-05

 Cycle  17  Pass 1  IDiag  1:
 E= -431.167727095438     Delta-E=       -0.000000003068 Rises=F Damp=F
 DIIS: error= 1.73D-06 at cycle  17 NSaved=  17.
 NSaved=17 IEnMin=17 EnMin= -431.167727095438     IErMin=17 ErrMin= 1.73D-06
 ErrMax= 1.73D-06  0.00D+00 EMaxC= 1.00D-01 BMatC= 7.25D-10 BMatP= 7.69D-09
 IDIUse=1 WtCom= 1.00D+00 WtEn= 0.00D+00
 Coeff-Com: -0.370D-05 0.412D-05 0.584D-04-0.107D-04 0.864D-04 0.306D-04
 Coeff-Com: -0.350D-03-0.876D-03-0.805D-03 0.171D-02 0.119D-01 0.261D-02
 Coeff-Com: -0.203D-01-0.555D-01-0.805D-03 0.198D+00 0.864D+00
 Coeff:     -0.370D-05 0.412D-05 0.584D-04-0.107D-04 0.864D-04 0.306D-04
 Coeff:     -0.350D-03-0.876D-03-0.805D-03 0.171D-02 0.119D-01 0.261D-02
 Coeff:     -0.203D-01-0.555D-01-0.805D-03 0.198D+00 0.864D+00
 Gap=     0.170 Goal=   None    Shift=    0.000
 Gap=     0.095 Goal=   None    Shift=    0.000
 RMSDP=2.76D-07 MaxDP=1.26D-05 DE=-3.07D-09 OVMax= 1.58D-05

 Cycle  18  Pass 1  IDiag  1:
 E= -431.167727095886     Delta-E=       -0.000000000448 Rises=F Damp=F
 DIIS: error= 6.10D-07 at cycle  18 NSaved=  18.
 NSaved=18 IEnMin=18 EnMin= -431.167727095886     IErMin=18 ErrMin= 6.10D-07
 ErrMax= 6.10D-07  0.00D+00 EMaxC= 1.00D-01 BMatC= 2.28D-10 BMatP= 7.25D-10
 IDIUse=1 WtCom= 1.00D+00 WtEn= 0.00D+00
 Coeff-Com:  0.310D-05-0.759D-05 0.500D-05 0.193D-05 0.348D-04 0.860D-04
 Coeff-Com:  0.625D-03-0.269D-03-0.240D-02-0.322D-02 0.211D-02 0.991D-02
 Coeff-Com:  0.154D-01-0.315D-01-0.959D-01-0.111D-01 0.445D+00 0.671D+00
 Coeff:      0.310D-05-0.759D-05 0.500D-05 0.193D-05 0.348D-04 0.860D-04
 Coeff:      0.625D-03-0.269D-03-0.240D-02-0.322D-02 0.211D-02 0.991D-02
 Coeff:      0.154D-01-0.315D-01-0.959D-01-0.111D-01 0.445D+00 0.671D+00
 Gap=     0.170 Goal=   None    Shift=    0.000
 Gap=     0.095 Goal=   None    Shift=    0.000
 RMSDP=1.48D-07 MaxDP=1.44D-05 DE=-4.48D-10 OVMax= 6.05D-06

 Cycle  19  Pass 1  IDiag  1:
 E= -431.167727095989     Delta-E=       -0.000000000103 Rises=F Damp=F
 DIIS: error= 3.67D-07 at cycle  19 NSaved=  19.
 NSaved=19 IEnMin=19 EnMin= -431.167727095989     IErMin=19 ErrMin= 3.67D-07
 ErrMax= 3.67D-07  0.00D+00 EMaxC= 1.00D-01 BMatC= 5.16D-11 BMatP= 2.28D-10
 IDIUse=1 WtCom= 1.00D+00 WtEn= 0.00D+00
 Coeff-Com: -0.663D-06 0.381D-06-0.166D-04 0.302D-05-0.113D-04 0.323D-04
 Coeff-Com:  0.419D-03 0.123D-03-0.791D-03-0.215D-02-0.275D-02 0.356D-02
 Coeff-Com:  0.145D-01 0.253D-02-0.451D-01-0.731D-01-0.648D-01 0.334D+00
 Coeff-Com:  0.834D+00
 Coeff:     -0.663D-06 0.381D-06-0.166D-04 0.302D-05-0.113D-04 0.323D-04
 Coeff:      0.419D-03 0.123D-03-0.791D-03-0.215D-02-0.275D-02 0.356D-02
 Coeff:      0.145D-01 0.253D-02-0.451D-01-0.731D-01-0.648D-01 0.334D+00
 Coeff:      0.834D+00
 Gap=     0.170 Goal=   None    Shift=    0.000
 Gap=     0.095 Goal=   None    Shift=    0.000
 RMSDP=6.97D-08 MaxDP=2.79D-06 DE=-1.03D-10 OVMax= 4.16D-06

 Cycle  20  Pass 1  IDiag  1:
 E= -431.167727096021     Delta-E=       -0.000000000032 Rises=F Damp=F
 DIIS: error= 1.57D-07 at cycle  20 NSaved=  20.
 NSaved=20 IEnMin=20 EnMin= -431.167727096021     IErMin=20 ErrMin= 1.57D-07
 ErrMax= 1.57D-07  0.00D+00 EMaxC= 1.00D-01 BMatC= 6.08D-12 BMatP= 5.16D-11
 IDIUse=1 WtCom= 1.00D+00 WtEn= 0.00D+00
 Coeff-Com: -0.379D-05 0.588D-05-0.136D-05-0.643D-06-0.479D-05-0.108D-04
 Coeff-Com: -0.114D-03 0.152D-04 0.438D-03 0.615D-03-0.157D-03-0.167D-02
 Coeff-Com: -0.340D-02 0.461D-02 0.170D-01 0.745D-02-0.599D-01-0.120D+00
 Coeff-Com: -0.117D-01 0.117D+01
 Coeff:     -0.379D-05 0.588D-05-0.136D-05-0.643D-06-0.479D-05-0.108D-04
 Coeff:     -0.114D-03 0.152D-04 0.438D-03 0.615D-03-0.157D-03-0.167D-02
 Coeff:     -0.340D-02 0.461D-02 0.170D-01 0.745D-02-0.599D-01-0.120D+00
 Coeff:     -0.117D-01 0.117D+01
 Gap=     0.170 Goal=   None    Shift=    0.000
 Gap=     0.095 Goal=   None    Shift=    0.000
 RMSDP=2.40D-08 MaxDP=8.93D-07 DE=-3.18D-11 OVMax= 1.82D-06

 Cycle  21  Pass 1  IDiag  1:
 E= -431.167727096025     Delta-E=       -0.000000000004 Rises=F Damp=F
 DIIS: error= 5.73D-08 at cycle  21 NSaved=  20.
 NSaved=20 IEnMin=20 EnMin= -431.167727096025     IErMin=20 ErrMin= 5.73D-08
 ErrMax= 5.73D-08  0.00D+00 EMaxC= 1.00D-01 BMatC= 8.92D-13 BMatP= 6.08D-12
 IDIUse=1 WtCom= 1.00D+00 WtEn= 0.00D+00
 Coeff-Com:  0.468D-06-0.703D-06 0.126D-05-0.470D-07-0.470D-05-0.543D-04
 Coeff-Com: -0.104D-04 0.803D-04 0.269D-03 0.232D-03-0.279D-03-0.164D-02
 Coeff-Com: -0.225D-03 0.491D-02 0.726D-02 0.984D-02-0.424D-01-0.950D-01
 Coeff-Com: -0.308D-01 0.115D+01
 Coeff:      0.468D-06-0.703D-06 0.126D-05-0.470D-07-0.470D-05-0.543D-04
 Coeff:     -0.104D-04 0.803D-04 0.269D-03 0.232D-03-0.279D-03-0.164D-02
 Coeff:     -0.225D-03 0.491D-02 0.726D-02 0.984D-02-0.424D-01-0.950D-01
 Coeff:     -0.308D-01 0.115D+01
 Gap=     0.170 Goal=   None    Shift=    0.000
 Gap=     0.095 Goal=   None    Shift=    0.000
 RMSDP=1.04D-08 MaxDP=4.25D-07 DE=-3.64D-12 OVMax= 7.66D-07

 Cycle  22  Pass 1  IDiag  1:
 E= -431.167727096026     Delta-E=       -0.000000000002 Rises=F Damp=F
 DIIS: error= 1.74D-08 at cycle  22 NSaved=  20.
 NSaved=20 IEnMin=20 EnMin= -431.167727096026     IErMin=20 ErrMin= 1.74D-08
 ErrMax= 1.74D-08  0.00D+00 EMaxC= 1.00D-01 BMatC= 9.14D-14 BMatP= 8.92D-13
 IDIUse=1 WtCom= 1.00D+00 WtEn= 0.00D+00
 Coeff-Com: -0.213D-07 0.293D-06 0.115D-05 0.235D-05 0.209D-04 0.281D-05
 Coeff-Com: -0.570D-04-0.995D-04-0.178D-04 0.198D-03 0.537D-03-0.428D-03
 Coeff-Com: -0.229D-02-0.177D-02 0.571D-02 0.172D-01 0.683D-02-0.130D+00
 Coeff-Com: -0.272D-01 0.113D+01
 Coeff:     -0.213D-07 0.293D-06 0.115D-05 0.235D-05 0.209D-04 0.281D-05
 Coeff:     -0.570D-04-0.995D-04-0.178D-04 0.198D-03 0.537D-03-0.428D-03
 Coeff:     -0.229D-02-0.177D-02 0.571D-02 0.172D-01 0.683D-02-0.130D+00
 Coeff:     -0.272D-01 0.113D+01
 Gap=     0.170 Goal=   None    Shift=    0.000
 Gap=     0.095 Goal=   None    Shift=    0.000
 RMSDP=3.82D-09 MaxDP=1.95D-07 DE=-1.71D-12 OVMax= 2.41D-07

 SCF Done:  E(UB3LYP) =  -431.167727096     A.U. after   22 cycles
            NFock= 22  Conv=0.38D-08     -V/T= 2.0036
 <Sx>= 0.0000 <Sy>= 0.0000 <Sz>= 0.5000 <S**2>= 0.7637 S= 0.5068
 <L.S>=  0.00000000000    
 KE= 4.296223247891D+02 PE=-1.803116967352D+03 EE= 5.436476125272D+02
 Annihilation of the first spin contaminant:
 S**2 before annihilation     0.7637,   after     0.7501
 Leave Link  502 at Thu Nov  3 03:51:30 2022, MaxMem=  8053063680 cpu:             334.0 elap:              16.5
 (Enter /public3/home/scg5914/software-scg5914/g16/l601.exe)
 Copying SCF densities to generalized density rwf, IOpCl= 1 IROHF=0.

 **********************************************************************

            Population analysis using the SCF Density.

 **********************************************************************

 Orbital symmetries:
 Alpha Orbitals:
       Occupied  (A) (A) (A) (A) (A) (A) (A) (A) (A) (A) (A) (A)
                 (A) (A) (A) (A) (A) (A) (A) (A) (A) (A) (A) (A)
                 (A) (A) (A) (A) (A) (A) (A)
       Virtual   (A) (A) (A) (A) (A) (A) (A) (A) (A) (A) (A) (A)
                 (A) (A) (A) (A) (A) (A) (A) (A) (A) (A) (A) (A)
                 (A) (A) (A) (A) (A) (A) (A) (A) (A) (A) (A) (A)
                 (A) (A) (A) (A) (A) (A) (A) (A) (A) (A) (A) (A)
                 (A) (A) (A) (A) (A) (A) (A) (A) (A) (A) (A) (A)
                 (A) (A) (A) (A) (A) (A) (A) (A) (A) (A) (A) (A)
                 (A) (A) (A) (A) (A) (A) (A) (A) (A) (A) (A) (A)
                 (A) (A) (A) (A) (A) (A) (A) (A) (A) (A) (A) (A)
                 (A) (A) (A) (A) (A) (A) (A) (A) (A) (A) (A) (A)
                 (A) (A) (A) (A) (A) (A) (A) (A) (A) (A) (A) (A)
                 (A) (A) (A) (A) (A) (A) (A) (A) (A) (A) (A) (A)
                 (A) (A) (A) (A) (A) (A) (A) (A) (A) (A) (A) (A)
                 (A) (A) (A) (A) (A) (A) (A) (A) (A) (A) (A) (A)
                 (A) (A) (A) (A) (A) (A) (A) (A) (A) (A) (A) (A)
                 (A) (A) (A) (A) (A) (A) (A) (A) (A) (A) (A)
 Beta  Orbitals:
       Occupied  (A) (A) (A) (A) (A) (A) (A) (A) (A) (A) (A) (A)
                 (A) (A) (A) (A) (A) (A) (A) (A) (A) (A) (A) (A)
                 (A) (A) (A) (A) (A) (A)
       Virtual   (A) (A) (A) (A) (A) (A) (A) (A) (A) (A) (A) (A)
                 (A) (A) (A) (A) (A) (A) (A) (A) (A) (A) (A) (A)
                 (A) (A) (A) (A) (A) (A) (A) (A) (A) (A) (A) (A)
                 (A) (A) (A) (A) (A) (A) (A) (A) (A) (A) (A) (A)
                 (A) (A) (A) (A) (A) (A) (A) (A) (A) (A) (A) (A)
                 (A) (A) (A) (A) (A) (A) (A) (A) (A) (A) (A) (A)
                 (A) (A) (A) (A) (A) (A) (A) (A) (A) (A) (A) (A)
                 (A) (A) (A) (A) (A) (A) (A) (A) (A) (A) (A) (A)
                 (A) (A) (A) (A) (A) (A) (A) (A) (A) (A) (A) (A)
                 (A) (A) (A) (A) (A) (A) (A) (A) (A) (A) (A) (A)
                 (A) (A) (A) (A) (A) (A) (A) (A) (A) (A) (A) (A)
                 (A) (A) (A) (A) (A) (A) (A) (A) (A) (A) (A) (A)
                 (A) (A) (A) (A) (A) (A) (A) (A) (A) (A) (A) (A)
                 (A) (A) (A) (A) (A) (A) (A) (A) (A) (A) (A) (A)
                 (A) (A) (A) (A) (A) (A) (A) (A) (A) (A) (A) (A)
 The electronic state is 2-A.
 Alpha  occ. eigenvalues --  -19.26971 -14.39683 -14.35971 -14.35307 -10.32392
 Alpha  occ. eigenvalues --  -10.27948 -10.27865 -10.27511 -10.24155  -1.20361
 Alpha  occ. eigenvalues --   -1.02820  -0.94636  -0.89442  -0.85729  -0.73353
 Alpha  occ. eigenvalues --   -0.69655  -0.63720  -0.58679  -0.56989  -0.52710
 Alpha  occ. eigenvalues --   -0.51597  -0.47642  -0.45338  -0.44851  -0.38514
 Alpha  occ. eigenvalues --   -0.37854  -0.34385  -0.33580  -0.33351  -0.29374
 Alpha  occ. eigenvalues --   -0.29148
 Alpha virt. eigenvalues --   -0.12116  -0.03790  -0.03046  -0.00194   0.01745
 Alpha virt. eigenvalues --    0.02088   0.03311   0.03714   0.04378   0.06052
 Alpha virt. eigenvalues --    0.07220   0.07291   0.07997   0.08266   0.09748
 Alpha virt. eigenvalues --    0.10963   0.11744   0.12349   0.12435   0.13175
 Alpha virt. eigenvalues --    0.14050   0.14407   0.15867   0.16752   0.18417
 Alpha virt. eigenvalues --    0.18500   0.19046   0.19119   0.20712   0.22071
 Alpha virt. eigenvalues --    0.22127   0.22777   0.22978   0.23700   0.24247
 Alpha virt. eigenvalues --    0.25059   0.25938   0.26316   0.26520   0.27342
 Alpha virt. eigenvalues --    0.28657   0.29740   0.32211   0.32854   0.34876
 Alpha virt. eigenvalues --    0.35368   0.36796   0.38760   0.39521   0.43738
 Alpha virt. eigenvalues --    0.48563   0.50843   0.52173   0.52927   0.53625
 Alpha virt. eigenvalues --    0.54796   0.55963   0.56001   0.57390   0.60593
 Alpha virt. eigenvalues --    0.62872   0.66197   0.69259   0.70009   0.72970
 Alpha virt. eigenvalues --    0.76325   0.78548   0.78634   0.82178   0.83606
 Alpha virt. eigenvalues --    0.84532   0.85017   0.87018   0.88966   0.89382
 Alpha virt. eigenvalues --    0.91512   0.92188   0.94390   0.94961   0.95943
 Alpha virt. eigenvalues --    0.96765   0.98560   0.99695   1.05430   1.07129
 Alpha virt. eigenvalues --    1.09317   1.10519   1.13363   1.15815   1.17614
 Alpha virt. eigenvalues --    1.22413   1.27625   1.29155   1.31367   1.35937
 Alpha virt. eigenvalues --    1.36603   1.44205   1.48360   1.51946   1.53574
 Alpha virt. eigenvalues --    1.53706   1.65795   1.67389   1.68081   1.69573
 Alpha virt. eigenvalues --    1.71902   1.74734   1.77337   1.79808   1.83230
 Alpha virt. eigenvalues --    1.89041   1.90845   1.91585   1.93680   1.98750
 Alpha virt. eigenvalues --    2.06951   2.08550   2.13434   2.19277   2.21382
 Alpha virt. eigenvalues --    2.24719   2.27254   2.30223   2.33738   2.38651
 Alpha virt. eigenvalues --    2.49104   2.52587   2.59304   2.60071   2.65784
 Alpha virt. eigenvalues --    2.67466   2.68699   2.74793   2.77272   2.77898
 Alpha virt. eigenvalues --    2.81860   2.82145   2.83486   2.84367   2.88134
 Alpha virt. eigenvalues --    2.93093   2.93225   2.96592   2.98653   3.06674
 Alpha virt. eigenvalues --    3.13970   3.19630   3.28886   3.34530   3.40632
 Alpha virt. eigenvalues --    3.45214   3.52664   3.55515   3.63344   3.69684
 Alpha virt. eigenvalues --    3.71428   3.84932   3.86720   3.88786   4.05439
 Alpha virt. eigenvalues --    4.16405   4.28462   4.32143   4.47189   4.62562
 Alpha virt. eigenvalues --    4.90227   4.92973   5.20469   5.37806   5.78219
 Alpha virt. eigenvalues --   23.55839  23.83560  23.89626  23.90811  24.09328
 Alpha virt. eigenvalues --   35.48237  35.58767  35.64779  49.79658
  Beta  occ. eigenvalues --  -19.26936 -14.39612 -14.35898 -14.35345 -10.30707
  Beta  occ. eigenvalues --  -10.27844 -10.27839 -10.27495 -10.24029  -1.19956
  Beta  occ. eigenvalues --   -1.02742  -0.94504  -0.89023  -0.84722  -0.72992
  Beta  occ. eigenvalues --   -0.69202  -0.63012  -0.58138  -0.55974  -0.52468
  Beta  occ. eigenvalues --   -0.50843  -0.47231  -0.45352  -0.44416  -0.37745
  Beta  occ. eigenvalues --   -0.36279  -0.33618  -0.33323  -0.29397  -0.28631
  Beta virt. eigenvalues --   -0.19097  -0.11364  -0.03847  -0.01900  -0.00017
  Beta virt. eigenvalues --    0.01810   0.02399   0.03343   0.04102   0.04617
  Beta virt. eigenvalues --    0.06168   0.07431   0.07585   0.08049   0.08408
  Beta virt. eigenvalues --    0.09983   0.11132   0.11917   0.12556   0.12573
  Beta virt. eigenvalues --    0.13692   0.14122   0.14409   0.16102   0.16877
  Beta virt. eigenvalues --    0.18479   0.18557   0.19233   0.19281   0.20811
  Beta virt. eigenvalues --    0.22030   0.22184   0.22969   0.23132   0.23820
  Beta virt. eigenvalues --    0.24288   0.25447   0.26048   0.26280   0.26679
  Beta virt. eigenvalues --    0.27614   0.29235   0.29871   0.32404   0.32920
  Beta virt. eigenvalues --    0.35221   0.35751   0.37193   0.39676   0.39894
  Beta virt. eigenvalues --    0.44044   0.49117   0.51648   0.52657   0.53724
  Beta virt. eigenvalues --    0.53950   0.55968   0.56053   0.57357   0.57675
  Beta virt. eigenvalues --    0.60858   0.62971   0.66679   0.69691   0.70151
  Beta virt. eigenvalues --    0.73714   0.76513   0.78797   0.79035   0.82149
  Beta virt. eigenvalues --    0.84111   0.84933   0.85355   0.87245   0.89269
  Beta virt. eigenvalues --    0.89336   0.91703   0.92920   0.94466   0.95220
  Beta virt. eigenvalues --    0.96768   0.97001   0.99248   1.00069   1.05487
  Beta virt. eigenvalues --    1.07272   1.09504   1.10606   1.13956   1.15968
  Beta virt. eigenvalues --    1.18084   1.22810   1.28340   1.30868   1.32113
  Beta virt. eigenvalues --    1.36913   1.37138   1.44575   1.48521   1.53118
  Beta virt. eigenvalues --    1.53776   1.53969   1.66429   1.67925   1.68251
  Beta virt. eigenvalues --    1.70438   1.72529   1.76389   1.77502   1.80743
  Beta virt. eigenvalues --    1.83535   1.90088   1.91770   1.91860   1.95809
  Beta virt. eigenvalues --    1.99376   2.07997   2.08766   2.13908   2.19379
  Beta virt. eigenvalues --    2.21923   2.24745   2.27800   2.30439   2.33685
  Beta virt. eigenvalues --    2.39131   2.49264   2.52790   2.59483   2.61414
  Beta virt. eigenvalues --    2.66706   2.67587   2.69105   2.75004   2.77483
  Beta virt. eigenvalues --    2.78013   2.82228   2.83577   2.84127   2.84639
  Beta virt. eigenvalues --    2.88271   2.93120   2.93514   2.97095   2.98787
  Beta virt. eigenvalues --    3.07458   3.14461   3.20711   3.29659   3.34773
  Beta virt. eigenvalues --    3.41078   3.45870   3.52988   3.56083   3.63407
  Beta virt. eigenvalues --    3.69984   3.71800   3.84630   3.86582   3.88728
  Beta virt. eigenvalues --    4.05658   4.16914   4.28945   4.32316   4.47384
  Beta virt. eigenvalues --    4.62717   4.90089   4.93022   5.20531   5.38028
  Beta virt. eigenvalues --    5.78582  23.57003  23.83919  23.89715  23.90900
  Beta virt. eigenvalues --   24.09871  35.48310  35.58730  35.64853  49.79712
          Condensed to atoms (all electrons):
               1          2          3          4          5          6
     1  O    7.629139   0.168984  -0.074414   0.038354   0.002565  -0.023550
     2  C    0.168984   8.593319  -0.092210  -2.196554  -0.023207   0.109963
     3  C   -0.074414  -0.092210   9.250500  -3.380339   0.179013   0.240868
     4  C    0.038354  -2.196554  -3.380339  11.575607   0.256570  -0.333547
     5  N    0.002565  -0.023207   0.179013   0.256570   6.758219   0.032596
     6  C   -0.023550   0.109963   0.240868  -0.333547   0.032596   5.814127
     7  N    0.003344  -0.099411  -0.000578   0.086227   0.111244   0.078498
     8  C   -0.027759  -0.166109  -1.060778   0.098045  -0.022734  -0.579607
     9  N    0.065794   0.003687   0.227068  -0.093602  -0.012312   0.123991
    10  H   -0.001093   0.043480  -0.069302   0.407468  -0.067936   0.022136
    11  H    0.000015   0.007320   0.028909  -0.019229  -0.108646   0.509589
               7          8          9         10         11
     1  O    0.003344  -0.027759   0.065794  -0.001093   0.000015
     2  C   -0.099411  -0.166109   0.003687   0.043480   0.007320
     3  C   -0.000578  -1.060778   0.227068  -0.069302   0.028909
     4  C    0.086227   0.098045  -0.093602   0.407468  -0.019229
     5  N    0.111244  -0.022734  -0.012312  -0.067936  -0.108646
     6  C    0.078498  -0.579607   0.123991   0.022136   0.509589
     7  N    6.766899   0.311666  -0.080069  -0.004267  -0.108813
     8  C    0.311666   7.620668  -0.117551  -0.012799  -0.000440
     9  N   -0.080069  -0.117551   7.175213   0.000405   0.001106
    10  H   -0.004267  -0.012799   0.000405   0.523481   0.000117
    11  H   -0.108813  -0.000440   0.001106   0.000117   0.528492
          Atomic-Atomic Spin Densities.
               1          2          3          4          5          6
     1  O    0.038480  -0.053565  -0.049094  -0.015707  -0.000355  -0.001393
     2  C   -0.053565   0.844653   0.019630   0.139767   0.003392  -0.015009
     3  C   -0.049094   0.019630  -0.045250   0.080325   0.002504   0.015682
     4  C   -0.015707   0.139767   0.080325  -0.176277  -0.000808   0.008579
     5  N   -0.000355   0.003392   0.002504  -0.000808  -0.028129   0.006571
     6  C   -0.001393  -0.015009   0.015682   0.008579   0.006571   0.015955
     7  N   -0.003173   0.009874   0.017086  -0.019510  -0.002859   0.012228
     8  C    0.012786   0.002768  -0.033524  -0.010351  -0.001452  -0.020988
     9  N    0.028842  -0.063658   0.036208   0.029234   0.001271  -0.003051
    10  H   -0.000212   0.000811   0.001356  -0.000500  -0.000443   0.000382
    11  H    0.000035  -0.000130  -0.002670   0.001825   0.000667  -0.002111
               7          8          9         10         11
     1  O   -0.003173   0.012786   0.028842  -0.000212   0.000035
     2  C    0.009874   0.002768  -0.063658   0.000811  -0.000130
     3  C    0.017086  -0.033524   0.036208   0.001356  -0.002670
     4  C   -0.019510  -0.010351   0.029234  -0.000500   0.001825
     5  N   -0.002859  -0.001452   0.001271  -0.000443   0.000667
     6  C    0.012228  -0.020988  -0.003051   0.000382  -0.002111
     7  N    0.030279  -0.023899   0.008498  -0.000070   0.000415
     8  C   -0.023899   0.084798   0.014173  -0.002331   0.002340
     9  N    0.008498   0.014173  -0.028375   0.000286  -0.000289
    10  H   -0.000070  -0.002331   0.000286   0.003820  -0.000026
    11  H    0.000415   0.002340  -0.000289  -0.000026  -0.000666
 Mulliken charges and spin densities:
               1          2
     1  O    0.218620  -0.043357
     2  C   -0.349263   0.888533
     3  C    0.751262   0.042252
     4  C   -0.438999   0.036578
     5  N   -0.105371  -0.019642
     6  C    0.004936   0.016844
     7  N   -0.064741   0.028869
     8  C   -0.042603   0.024318
     9  N   -0.293729   0.023140
    10  H    0.158309   0.003073
    11  H    0.161580  -0.000610
 Sum of Mulliken charges =  -0.00000   1.00000
 Mulliken charges and spin densities with hydrogens summed into heavy atoms:
               1          2
     1  O    0.218620  -0.043357
     2  C   -0.349263   0.888533
     3  C    0.751262   0.042252
     4  C   -0.280690   0.039651
     5  N   -0.105371  -0.019642
     6  C    0.166516   0.016234
     7  N   -0.064741   0.028869
     8  C   -0.042603   0.024318
     9  N   -0.293729   0.023140
 Electronic spatial extent (au):  <R**2>=            873.3358
 Charge=             -0.0000 electrons
 Dipole moment (field-independent basis, Debye):
    X=             -0.8120    Y=              3.0489    Z=             -0.0000  Tot=              3.1551
 Quadrupole moment (field-independent basis, Debye-Ang):
   XX=            -55.2122   YY=            -51.3997   ZZ=            -50.0444
   XY=              5.4259   XZ=             -0.0001   YZ=             -0.0000
 Traceless Quadrupole moment (field-independent basis, Debye-Ang):
   XX=             -2.9935   YY=              0.8191   ZZ=              2.1744
   XY=              5.4259   XZ=             -0.0001   YZ=             -0.0000
 Octapole moment (field-independent basis, Debye-Ang**2):
  XXX=              3.3894  YYY=             19.9323  ZZZ=              0.0000  XYY=             -3.9340
  XXY=             -6.9691  XXZ=              0.0002  XZZ=              2.5477  YZZ=             -1.0135
  YYZ=              0.0000  XYZ=              0.0002
 Hexadecapole moment (field-independent basis, Debye-Ang**3):
 XXXX=           -799.6908 YYYY=           -363.7338 ZZZZ=            -51.0348 XXXY=             54.9653
 XXXZ=             -0.0013 YYYX=             -7.3927 YYYZ=             -0.0003 ZZZX=             -0.0002
 ZZZY=             -0.0000 XXYY=           -186.2115 XXZZ=           -135.5756 YYZZ=            -71.9625
 XXYZ=             -0.0005 YYXZ=             -0.0005 ZZXY=              0.0889
 N-N= 3.986793029395D+02 E-N=-1.803116967649D+03  KE= 4.296223247891D+02
                          Isotropic Fermi Contact Couplings
        Atom                 a.u.       MegaHertz       Gauss      10(-4) cm-1
     1  O(17)              0.16184     -98.10497     -35.00629     -32.72429
     2  C(13)              0.55379     622.56707     222.14741     207.66602
     3  C(13)              0.07013      78.83943      28.13187      26.29800
     4  C(13)             -0.00121      -1.36512      -0.48711      -0.45535
     5  N(14)             -0.00235      -0.75849      -0.27065      -0.25300
     6  C(13)              0.00659       7.40618       2.64271       2.47043
     7  N(14)              0.01758       5.68139       2.02726       1.89511
     8  C(13)              0.02283      25.66841       9.15913       8.56206
     9  N(14)             -0.03268     -10.56018      -3.76814      -3.52250
    10  H(1)               0.00120       5.35797       1.91186       1.78723
    11  H(1)              -0.00010      -0.43228      -0.15425      -0.14419
 --------------------------------------------------------
       Center         ----  Spin Dipole Couplings  ----
                      3XX-RR        3YY-RR        3ZZ-RR
 --------------------------------------------------------
     1   Atom       -0.008353      0.122652     -0.114299
     2   Atom       -0.098527      0.432044     -0.333517
     3   Atom        0.106665      0.017220     -0.123885
     4   Atom        0.003622     -0.012709      0.009087
     5   Atom        0.021944      0.031525     -0.053469
     6   Atom        0.002284     -0.007189      0.004905
     7   Atom       -0.040466      0.117713     -0.077247
     8   Atom       -0.036559      0.060058     -0.023499
     9   Atom       -0.041684      0.296925     -0.255241
    10   Atom        0.006540     -0.002068     -0.004473
    11   Atom        0.003309     -0.001637     -0.001671
 --------------------------------------------------------
                        XY            XZ            YZ
 --------------------------------------------------------
     1   Atom        0.028880     -0.000002     -0.000004
     2   Atom        0.640858     -0.000011     -0.000018
     3   Atom        0.100333     -0.000006     -0.000003
     4   Atom       -0.000990     -0.000001      0.000000
     5   Atom       -0.002426     -0.000000      0.000003
     6   Atom       -0.002807      0.000001     -0.000000
     7   Atom        0.012927      0.000001     -0.000002
     8   Atom        0.017479     -0.000000     -0.000000
     9   Atom        0.108426     -0.000003     -0.000019
    10   Atom       -0.004172     -0.000000     -0.000000
    11   Atom        0.001529     -0.000000     -0.000000
 --------------------------------------------------------


 ---------------------------------------------------------------------------------
              Anisotropic Spin Dipole Couplings in Principal Axis System
 ---------------------------------------------------------------------------------

       Atom             a.u.   MegaHertz   Gauss  10(-4) cm-1        Axes

              Baa    -0.1143     8.271     2.951     2.759  0.0000  0.0000  1.0000
     1 O(17)  Bbb    -0.0144     1.045     0.373     0.348  0.9785 -0.2061 -0.0000
              Bcc     0.1287    -9.315    -3.324    -3.107  0.2061  0.9785 -0.0000
 
              Baa    -0.5268   -70.697   -25.226   -23.582  0.8314 -0.5557 -0.0000
     2 C(13)  Bbb    -0.3335   -44.755   -15.970   -14.929  0.0000  0.0000  1.0000
              Bcc     0.8604   115.451    41.196    38.510  0.5557  0.8314 -0.0000
 
              Baa    -0.1239   -16.624    -5.932    -5.545  0.0000  0.0000  1.0000
     3 C(13)  Bbb    -0.0479    -6.429    -2.294    -2.144 -0.5445  0.8388  0.0000
              Bcc     0.1718    23.053     8.226     7.690  0.8388  0.5445 -0.0000
 
              Baa    -0.0128    -1.713    -0.611    -0.572  0.0603  0.9982 -0.0000
     4 C(13)  Bbb     0.0037     0.494     0.176     0.165  0.9982 -0.0603  0.0001
              Bcc     0.0091     1.219     0.435     0.407 -0.0001  0.0000  1.0000
 
              Baa    -0.0535    -2.062    -0.736    -0.688  0.0000 -0.0000  1.0000
     5 N(14)  Bbb     0.0214     0.824     0.294     0.275  0.9727  0.2323  0.0000
              Bcc     0.0321     1.238     0.442     0.413 -0.2323  0.9727  0.0000
 
              Baa    -0.0080    -1.068    -0.381    -0.356  0.2643  0.9644  0.0000
     6 C(13)  Bbb     0.0031     0.410     0.146     0.137  0.9644 -0.2643 -0.0005
              Bcc     0.0049     0.658     0.235     0.220  0.0005 -0.0001  1.0000
 
              Baa    -0.0772    -2.979    -1.063    -0.994 -0.0000  0.0000  1.0000
     7 N(14)  Bbb    -0.0415    -1.601    -0.571    -0.534  0.9967 -0.0809  0.0000
              Bcc     0.1188     4.580     1.634     1.528  0.0809  0.9967 -0.0000
 
              Baa    -0.0396    -5.317    -1.897    -1.774  0.9850 -0.1727  0.0000
     8 C(13)  Bbb    -0.0235    -3.153    -1.125    -1.052 -0.0000  0.0000  1.0000
              Bcc     0.0631     8.470     3.022     2.825  0.1727  0.9850 -0.0000
 
              Baa    -0.2552    -9.844    -3.513    -3.284 -0.0000  0.0000  1.0000
     9 N(14)  Bbb    -0.0734    -2.832    -1.011    -0.945  0.9597 -0.2810  0.0000
              Bcc     0.3287    12.676     4.523     4.228  0.2810  0.9597 -0.0000
 
              Baa    -0.0045    -2.386    -0.852    -0.796  0.0000  0.0001  1.0000
    10 H(1)   Bbb    -0.0038    -2.005    -0.715    -0.669  0.3755  0.9268 -0.0001
              Bcc     0.0082     4.391     1.567     1.465  0.9268 -0.3755 -0.0000
 
              Baa    -0.0021    -1.105    -0.394    -0.369 -0.2733  0.9619  0.0000
    11 H(1)   Bbb    -0.0017    -0.892    -0.318    -0.297  0.0000  0.0000  1.0000
              Bcc     0.0037     1.997     0.713     0.666  0.9619  0.2733 -0.0000
 

 ---------------------------------------------------------------------------------

 No NMR shielding tensors so no spin-rotation constants.
 Leave Link  601 at Thu Nov  3 03:51:30 2022, MaxMem=  8053063680 cpu:               4.8 elap:               0.2
 (Enter /public3/home/scg5914/software-scg5914/g16/l701.exe)
 ... and contract with generalized density number  0.
 Compute integral first derivatives.
 R6Disp: Adding Grimme-D3(BJ) dispersion energy 1st derivatives to the gradient.
 Leave Link  701 at Thu Nov  3 03:51:30 2022, MaxMem=  8053063680 cpu:               2.7 elap:               0.1
 (Enter /public3/home/scg5914/software-scg5914/g16/l702.exe)
 L702 exits ... SP integral derivatives will be done elsewhere.
 Leave Link  702 at Thu Nov  3 03:51:30 2022, MaxMem=  8053063680 cpu:               0.2 elap:               0.0
 (Enter /public3/home/scg5914/software-scg5914/g16/l703.exe)
 Integral derivatives from FoFJK, PRISM(SPDF).
 Compute integral first derivatives, UseDBF=F ICtDFT=           0.
 Calling FoFJK, ICntrl=      2127 FMM=F ISym2X=0 I1Cent= 0 IOpClX= 1 NMat=1 NMatS=1 NMatT=0.
 FoFJK:  IHMeth= 1 ICntrl=    2127 DoSepK=F KAlg= 0 I1Cent=           0 FoldK=F
 IRaf=         0 NMat=       1 IRICut=       1 DoRegI=T DoRafI=F ISym2E= 0 IDoP0=0 IntGTp=1.
 FoFCou: FMM=F IPFlag=           0 FMFlag=      100000 FMFlg1=         800
         NFxFlg=           0 DoJE=F BraDBF=F KetDBF=F FulRan=T
         wScrn=  0.000000 ICntrl=      2127 IOpCl=  1 I1Cent=           0 NGrid=           0
         NMat0=    1 NMatS0=      1 NMatT0=    0 NMatD0=    1 NMtDS0=    0 NMtDT0=    0
 Symmetry not used in FoFCou.
 Leave Link  703 at Thu Nov  3 03:51:32 2022, MaxMem=  8053063680 cpu:              51.3 elap:               1.6
 (Enter /public3/home/scg5914/software-scg5914/g16/l716.exe)
 Dipole        =-3.19463467D-01 1.19951815D+00-3.02274053D-06
 ***** Axes restored to original set *****
 -------------------------------------------------------------------
 Center     Atomic                   Forces (Hartrees/Bohr)
 Number     Number              X              Y              Z
 -------------------------------------------------------------------
      1        8           0.010957122    0.029790026    0.000054920
      2        6          -0.021678357   -0.022740239    0.000085187
      3        6           0.014066906    0.004462039   -0.000112374
      4        6           0.002517611    0.001962634   -0.000007108
      5        7          -0.001822548    0.000269958    0.000021925
      6        6           0.003025767   -0.006354101   -0.000079381
      7        7           0.001568979    0.008668634    0.000034150
      8        6          -0.005274260   -0.001775330    0.000041392
      9        7          -0.001321044   -0.014470417   -0.000063073
     10        1          -0.001349004   -0.000843656    0.000005878
     11        1          -0.000691173    0.001030450    0.000018485
 -------------------------------------------------------------------
 Cartesian Forces:  Max     0.029790026 RMS     0.008875057
 Leave Link  716 at Thu Nov  3 03:51:32 2022, MaxMem=  8053063680 cpu:               0.5 elap:               0.0
 (Enter /public3/home/scg5914/software-scg5914/g16/l103.exe)

 GradGradGradGradGradGradGradGradGradGradGradGradGradGradGradGradGradGrad
 Berny optimization.
 FormGI is forming the generalized inverse of G from B-inverse, IUseBI=4.
 Internal  Forces:  Max     0.017938162 RMS     0.004536145
 Search for a local minimum.
 Step number   1 out of a maximum of   61
 All quantities printed in internal units (Hartrees-Bohrs-Radians)
 RMS Force = .45361D-02 SwitMx=.10000D-02 MixMth= 1
 Mixed Optimization -- RFO/linear search
 Second derivative matrix not updated -- first step.
 ITU=  0
     Eigenvalues ---    0.01932   0.01974   0.02012   0.02155   0.02285
     Eigenvalues ---    0.02325   0.02479   0.02591   0.16000   0.16000
     Eigenvalues ---    0.23141   0.23364   0.25000   0.25000   0.25000
     Eigenvalues ---    0.34955   0.35160   0.36279   0.41663   0.44585
     Eigenvalues ---    0.47390   0.48741   0.51106   0.55868   0.59988
     Eigenvalues ---    0.62947   0.64305
 RFO step:  Lambda=-2.91907903D-03 EMin= 1.93189457D-02
 Linear search not attempted -- first point.
 Iteration  1 RMS(Cart)=  0.01194924 RMS(Int)=  0.00020462
 Iteration  2 RMS(Cart)=  0.00019645 RMS(Int)=  0.00008307
 Iteration  3 RMS(Cart)=  0.00000001 RMS(Int)=  0.00008307
 ITry= 1 IFail=0 DXMaxC= 4.76D-02 DCOld= 1.00D+10 DXMaxT= 3.00D-01 DXLimC= 3.00D+00 Rises=F
 Variable       Old X    -DE/DX   Delta X   Delta X   Delta X     New X
                                 (Linear)    (Quad)   (Total)
    R1        2.50985  -0.01794   0.00000  -0.03119  -0.03109   2.47876
    R2        2.63479   0.01452   0.00000   0.03135   0.03128   2.66607
    R3        2.59231  -0.00009   0.00000  -0.00171  -0.00156   2.59075
    R4        2.67814   0.00042   0.00000   0.00091   0.00091   2.67905
    R5        2.71385   0.00090   0.00000   0.00309   0.00307   2.71692
    R6        2.46844   0.00095   0.00000   0.00154   0.00154   2.46998
    R7        2.05748  -0.00152   0.00000  -0.00431  -0.00431   2.05317
    R8        2.61062   0.00052   0.00000   0.00122   0.00122   2.61184
    R9        2.46734   0.00143   0.00000   0.00222   0.00222   2.46955
   R10        2.05416  -0.00123   0.00000  -0.00346  -0.00346   2.05070
   R11        2.57373  -0.00355   0.00000  -0.00683  -0.00683   2.56691
   R12        2.50372   0.00348   0.00000   0.00734   0.00719   2.51091
    A1        1.94925  -0.00765   0.00000  -0.03328  -0.03324   1.91600
    A2        1.90389   0.01562   0.00000   0.05348   0.05381   1.95770
    A3        2.44264   0.00523   0.00000   0.02122   0.02116   2.46379
    A4        1.80239  -0.00842   0.00000  -0.03455  -0.03442   1.76796
    A5        2.03816   0.00319   0.00000   0.01333   0.01327   2.05143
    A6        2.10020  -0.00142   0.00000  -0.00557  -0.00557   2.09462
    A7        2.12663   0.00023   0.00000  -0.00017  -0.00017   2.12646
    A8        2.05636   0.00119   0.00000   0.00574   0.00574   2.06210
    A9        2.05112   0.00037   0.00000   0.00314   0.00313   2.05425
   A10        2.25290  -0.00281   0.00000  -0.01156  -0.01156   2.24133
   A11        1.99198   0.00161   0.00000   0.00703   0.00703   1.99900
   A12        2.03831   0.00120   0.00000   0.00453   0.00453   2.04285
   A13        1.98334   0.00505   0.00000   0.02059   0.02059   2.00393
   A14        2.14066  -0.00438   0.00000  -0.01993  -0.01985   2.12081
   A15        1.95738   0.00228   0.00000   0.01428   0.01412   1.97151
   A16        2.18514   0.00210   0.00000   0.00565   0.00573   2.19087
   A17        1.81187  -0.00182   0.00000   0.00007  -0.00027   1.81160
    D1       -0.00001   0.00000   0.00000   0.00003   0.00003   0.00002
    D2        0.00003  -0.00000   0.00000  -0.00007  -0.00006  -0.00004
    D3        3.14158   0.00000   0.00000   0.00002   0.00002  -3.14158
    D4       -0.00001   0.00000   0.00000   0.00002   0.00002   0.00001
    D5        3.14156   0.00000   0.00000   0.00006   0.00006  -3.14156
    D6        0.00002  -0.00000   0.00000  -0.00003  -0.00003  -0.00001
    D7       -0.00004   0.00000   0.00000   0.00006   0.00006   0.00003
    D8       -3.14157  -0.00000   0.00000  -0.00003  -0.00003   3.14158
    D9       -3.14156  -0.00000   0.00000  -0.00005  -0.00005   3.14157
   D10        0.00003  -0.00000   0.00000  -0.00007  -0.00007  -0.00004
   D11        0.00003  -0.00000   0.00000  -0.00005  -0.00005  -0.00002
   D12       -3.14156  -0.00000   0.00000  -0.00007  -0.00007   3.14156
   D13        0.00000   0.00000   0.00000   0.00001   0.00001   0.00001
   D14        3.14154   0.00000   0.00000   0.00010   0.00010  -3.14154
   D15        0.00005  -0.00000   0.00000  -0.00012  -0.00012  -0.00007
   D16        3.14150   0.00001   0.00000   0.00020   0.00021  -3.14148
   D17       -0.00005   0.00000   0.00000   0.00013   0.00013   0.00008
   D18       -3.14150  -0.00001   0.00000  -0.00020  -0.00020   3.14149
   D19        0.00001  -0.00000   0.00000  -0.00004  -0.00004  -0.00003
   D20       -3.14158  -0.00000   0.00000  -0.00002  -0.00002   3.14158
   D21       -0.00003   0.00000   0.00000   0.00008   0.00008   0.00005
   D22        3.14156   0.00000   0.00000   0.00006   0.00006  -3.14156
         Item               Value     Threshold  Converged?
 Maximum Force            0.017938     0.000450     NO 
 RMS     Force            0.004536     0.000300     NO 
 Maximum Displacement     0.047609     0.001800     NO 
 RMS     Displacement     0.011881     0.001200     NO 
 Predicted change in Energy=-1.475062D-03
 Lowest energy point so far.  Saving SCF results.
 GradGradGradGradGradGradGradGradGradGradGradGradGradGradGradGradGradGrad

 Leave Link  103 at Thu Nov  3 03:51:32 2022, MaxMem=  8053063680 cpu:               4.2 elap:               0.2
 (Enter /public3/home/scg5914/software-scg5914/g16/l202.exe)
                          Input orientation:                          
 ---------------------------------------------------------------------
 Center     Atomic      Atomic             Coordinates (Angstroms)
 Number     Number       Type             X           Y           Z
 ---------------------------------------------------------------------
      1          8           0       -0.030107    1.283360    0.009440
      2          6           0        1.201744    1.733936   -0.000075
      3          6           0        2.123598    0.719279   -0.014586
      4          6           0        3.524119    0.499803   -0.029396
      5          7           0        3.994715   -0.719545   -0.040678
      6          6           0        3.084428   -1.759565   -0.037572
      7          7           0        1.779194   -1.696308   -0.024487
      8          6           0        1.269507   -0.437265   -0.012619
      9          7           0       -0.022500   -0.127421    0.001676
     10          1           0        4.233249    1.322959   -0.031791
     11          1           0        3.530441   -2.748809   -0.047237
 ---------------------------------------------------------------------
                    Distance matrix (angstroms):
                    1          2          3          4          5
     1  O    0.000000
     2  C    1.311704   0.000000
     3  C    2.226479   1.370968   0.000000
     4  C    3.639779   2.630089   1.417691   0.000000
     5  N    4.495924   3.717782   2.360503   1.307058   0.000000
     6  C    4.354530   3.968684   2.658644   2.301768   1.382125
     7  N    3.486136   3.478594   2.440035   2.804940   2.421334
     8  C    2.156393   2.172294   1.437731   2.441649   2.739932
     9  N    1.410823   2.227875   2.307142   3.601788   4.060839
    10  H    4.263739   3.059400   2.194391   1.086488   2.056406
    11  H    5.379508   5.051738   3.742714   3.248668   2.081707
                    6          7          8          9         10
     6  C    0.000000
     7  N    1.306832   0.000000
     8  C    2.245671   1.358349   0.000000
     9  N    3.509763   2.389182   1.328717   0.000000
    10  H    3.289647   3.890811   3.447103   4.496234   0.000000
    11  H    1.085185   2.043316   3.233614   4.415592   4.132007
                   11
    11  H    0.000000
 Stoichiometry    C5H2N3O(2)
 Framework group  C1[X(C5H2N3O)]
 Deg. of freedom    27
 Full point group                 C1      NOp   1
 RotChk:  IX=2 Diff= 8.70D-03
 Largest Abelian subgroup         C1      NOp   1
 Largest concise Abelian subgroup C1      NOp   1
                         Standard orientation:                         
 ---------------------------------------------------------------------
 Center     Atomic      Atomic             Coordinates (Angstroms)
 Number     Number       Type             X           Y           Z
 ---------------------------------------------------------------------
      1          8           0        2.345217    0.088662    0.000016
      2          6           0        1.559810    1.139234    0.000017
      3          6           0        0.233194    0.793338   -0.000004
      4          6           0       -1.059693    1.374964   -0.000022
      5          7           0       -2.120258    0.611025   -0.000005
      6          6           0       -1.926324   -0.757427    0.000042
      7          7           0       -0.798620   -1.417800    0.000002
      8          6           0        0.316378   -0.641984   -0.000004
      9          7           0        1.567777   -1.088627   -0.000031
     10          1           0       -1.203688    2.451868   -0.000012
     11          1           0       -2.840534   -1.342102   -0.000056
 ---------------------------------------------------------------------
 Rotational constants (GHZ):           4.3717690           1.7260822           1.2374905
 Leave Link  202 at Thu Nov  3 03:51:32 2022, MaxMem=  8053063680 cpu:               0.1 elap:               0.0
 (Enter /public3/home/scg5914/software-scg5914/g16/l301.exe)
 Standard basis: 6-311+G(d,p) (5D, 7F)
 Ernie: Thresh=  0.10000D-02 Tol=  0.10000D-05 Strict=F.
 There are   219 symmetry adapted cartesian basis functions of A   symmetry.
 There are   210 symmetry adapted basis functions of A   symmetry.
   210 basis functions,   340 primitive gaussians,   219 cartesian basis functions
    31 alpha electrons       30 beta electrons
       nuclear repulsion energy       398.3231970528 Hartrees.
 IExCor=  402 DFT=T Ex+Corr=B3LYP ExCW=0 ScaHFX=  0.200000
 ScaDFX=  0.800000  0.720000  1.000000  0.810000 ScalE2=  1.000000  1.000000
 IRadAn=      5 IRanWt=     -1 IRanGd=            0 ICorTp=0 IEmpDi=141
 NAtoms=   11 NActive=   11 NUniq=   11 SFac= 1.00D+00 NAtFMM=   60 NAOKFM=F Big=F
 Integral buffers will be    131072 words long.
 Raffenetti 2 integral format.
 Two-electron integral symmetry is turned on.
 R6Disp:  Grimme-D3(BJ) Dispersion energy=       -0.0212455040 Hartrees.
 Nuclear repulsion after empirical dispersion term =      398.3019515488 Hartrees.
 Leave Link  301 at Thu Nov  3 03:51:32 2022, MaxMem=  8053063680 cpu:               0.6 elap:               0.0
 (Enter /public3/home/scg5914/software-scg5914/g16/l302.exe)
 NPDir=0 NMtPBC=     1 NCelOv=     1 NCel=       1 NClECP=     1 NCelD=      1
         NCelK=      1 NCelE2=     1 NClLst=     1 CellRange=     0.0.
 One-electron integrals computed using PRISM.
 One-electron integral symmetry used in STVInt
 NBasis=   210 RedAO= T EigKep=  6.70D-06  NBF=   210
 NBsUse=   210 1.00D-06 EigRej= -1.00D+00 NBFU=   210
 Precomputing XC quadrature grid using
 IXCGrd= 4 IRadAn=           5 IRanWt=          -1 IRanGd=           0 AccXCQ= 0.00D+00.
 Generated NRdTot=       0 NPtTot=           0 NUsed=           0 NTot=          32
 NSgBfM=   219   219   219   219   219 MxSgAt=    11 MxSgA2=    11.
 Leave Link  302 at Thu Nov  3 03:51:33 2022, MaxMem=  8053063680 cpu:               3.3 elap:               0.1
 (Enter /public3/home/scg5914/software-scg5914/g16/l303.exe)
 DipDrv:  MaxL=1.
 Leave Link  303 at Thu Nov  3 03:51:33 2022, MaxMem=  8053063680 cpu:               0.4 elap:               0.0
 (Enter /public3/home/scg5914/software-scg5914/g16/l401.exe)
 Initial guess from the checkpoint file:  "dsgdb9nsd_130472-1.chk"
 B after Tr=    -0.000000   -0.000000   -0.000000
         Rot=    0.999996    0.000000   -0.000000   -0.002905 Ang=  -0.33 deg.
 Guess basis will be translated and rotated to current coordinates.
 JPrj=2 DoOrth=T DoCkMO=T.
 Initial guess <Sx>= 0.0000 <Sy>= 0.0000 <Sz>= 0.5000 <S**2>= 0.7636 S= 0.5068
 Generating alternative initial guess.
 ExpMin= 4.38D-02 ExpMax= 8.59D+03 ExpMxC= 1.30D+03 IAcc=3 IRadAn=         5 AccDes= 0.00D+00
 Harris functional with IExCor=  402 and IRadAn=       5 diagonalized for initial guess.
 HarFok:  IExCor=  402 AccDes= 0.00D+00 IRadAn=         5 IDoV= 1 UseB2=F ITyADJ=14
 ICtDFT=  3500011 ScaDFX=  1.000000  1.000000  1.000000  1.000000
 FoFCou: FMM=F IPFlag=           0 FMFlag=      100000 FMFlg1=           0
         NFxFlg=           0 DoJE=T BraDBF=F KetDBF=T FulRan=T
         wScrn=  0.000000 ICntrl=       500 IOpCl=  0 I1Cent=   200000004 NGrid=           0
         NMat0=    1 NMatS0=      1 NMatT0=    0 NMatD0=    1 NMtDS0=    0 NMtDT0=    0
 Petite list used in FoFCou.
 Harris En= -431.099392510336    
 Leave Link  401 at Thu Nov  3 03:51:33 2022, MaxMem=  8053063680 cpu:              12.3 elap:               0.4
 (Enter /public3/home/scg5914/software-scg5914/g16/l502.exe)
 Keep R1 and R2 ints in memory in canonical form, NReq=524366968.
 FoFCou: FMM=F IPFlag=           0 FMFlag=           0 FMFlg1=           0
         NFxFlg=           0 DoJE=F BraDBF=F KetDBF=F FulRan=T
         wScrn=  0.000000 ICntrl=       600 IOpCl=  0 I1Cent=           0 NGrid=           0
         NMat0=    1 NMatS0=  22155 NMatT0=    0 NMatD0=    1 NMtDS0=    0 NMtDT0=    0
 Symmetry not used in FoFCou.
 Two-electron integral symmetry not used.
 UHF open shell SCF:
 Using DIIS extrapolation, IDIIS=  1040.
 NGot=  8053063680 LenX=  7562092246 LenY=  7562043844
 Requested convergence on RMS density matrix=1.00D-08 within 128 cycles.
 Requested convergence on MAX density matrix=1.00D-06.
 Requested convergence on             energy=1.00D-06.
 No special actions if energy rises.

 Cycle   1  Pass 1  IDiag  1:
 E= -431.168155988274    
 DIIS: error= 1.60D-03 at cycle   1 NSaved=   1.
 NSaved= 1 IEnMin= 1 EnMin= -431.168155988274     IErMin= 1 ErrMin= 1.60D-03
 ErrMax= 1.60D-03  0.00D+00 EMaxC= 1.00D-01 BMatC= 4.23D-03 BMatP= 4.23D-03
 IDIUse=3 WtCom= 9.84D-01 WtEn= 1.60D-02
 Coeff-Com:  0.100D+01
 Coeff-En:   0.100D+01
 Coeff:      0.100D+01
 Gap=     0.465 Goal=   None    Shift=    0.000
 Gap=     0.455 Goal=   None    Shift=    0.000
 GapD=    0.455 DampG=2.000 DampE=1.000 DampFc=2.0000 IDamp=-1.
 RMSDP=2.44D-03 MaxDP=1.72D-01              OVMax= 1.18D-02

 Cycle   2  Pass 1  IDiag  1:
 E= -431.169385690433     Delta-E=       -0.001229702159 Rises=F Damp=F
 DIIS: error= 6.18D-04 at cycle   2 NSaved=   2.
 NSaved= 2 IEnMin= 2 EnMin= -431.169385690433     IErMin= 2 ErrMin= 6.18D-04
 ErrMax= 6.18D-04  0.00D+00 EMaxC= 1.00D-01 BMatC= 2.22D-04 BMatP= 4.23D-03
 IDIUse=3 WtCom= 9.94D-01 WtEn= 6.18D-03
 Coeff-Com:  0.482D-01 0.952D+00
 Coeff-En:   0.000D+00 0.100D+01
 Coeff:      0.479D-01 0.952D+00
 Gap=     0.170 Goal=   None    Shift=    0.000
 Gap=     0.105 Goal=   None    Shift=    0.000
 RMSDP=2.32D-04 MaxDP=1.13D-02 DE=-1.23D-03 OVMax= 1.17D-02

 Cycle   3  Pass 1  IDiag  1:
 E= -431.169230837324     Delta-E=        0.000154853109 Rises=F Damp=F
 DIIS: error= 1.22D-03 at cycle   3 NSaved=   3.
 NSaved= 3 IEnMin= 2 EnMin= -431.169385690433     IErMin= 2 ErrMin= 6.18D-04
 ErrMax= 1.22D-03  0.00D+00 EMaxC= 1.00D-01 BMatC= 9.55D-04 BMatP= 2.22D-04
 IDIUse=3 WtCom= 2.23D-01 WtEn= 7.77D-01
 Coeff-Com: -0.245D-01 0.696D+00 0.328D+00
 Coeff-En:   0.000D+00 0.751D+00 0.249D+00
 Coeff:     -0.546D-02 0.739D+00 0.267D+00
 Gap=     0.169 Goal=   None    Shift=    0.000
 Gap=     0.103 Goal=   None    Shift=    0.000
 RMSDP=1.15D-04 MaxDP=4.70D-03 DE= 1.55D-04 OVMax= 5.81D-03

 Cycle   4  Pass 1  IDiag  1:
 E= -431.169442967848     Delta-E=       -0.000212130524 Rises=F Damp=F
 DIIS: error= 1.70D-04 at cycle   4 NSaved=   4.
 NSaved= 4 IEnMin= 4 EnMin= -431.169442967848     IErMin= 4 ErrMin= 1.70D-04
 ErrMax= 1.70D-04  0.00D+00 EMaxC= 1.00D-01 BMatC= 1.95D-05 BMatP= 2.22D-04
 IDIUse=3 WtCom= 9.98D-01 WtEn= 1.70D-03
 Coeff-Com: -0.105D-01 0.211D+00-0.130D-02 0.801D+00
 Coeff-En:   0.000D+00 0.000D+00 0.000D+00 0.100D+01
 Coeff:     -0.105D-01 0.211D+00-0.130D-02 0.801D+00
 Gap=     0.169 Goal=   None    Shift=    0.000
 Gap=     0.102 Goal=   None    Shift=    0.000
 RMSDP=3.01D-05 MaxDP=2.54D-03 DE=-2.12D-04 OVMax= 1.06D-03

 Cycle   5  Pass 1  IDiag  1:
[...]
 206. BD*(   2) C   6 - N   7        /122. RY*(   6) C   6                    1.01    0.76    0.106
 206. BD*(   2) C   6 - N   7        /140. RY*(   7) N   7                    0.26    1.79    0.082
 206. BD*(   2) C   6 - N   7        /198. BD*(   2) C   2 - C   3            0.84    0.01    0.007
 210. BD*(   2) C   8 - N   9        /136. RY*(   3) N   7                    0.33    0.93    0.050
 210. BD*(   2) C   8 - N   9        /153. RY*(   3) C   8                    0.64    1.45    0.086
 210. BD*(   2) C   8 - N   9        /164. RY*(  14) C   8                    1.09    0.78    0.083
 210. BD*(   2) C   8 - N   9        /170. RY*(   3) N   9                    1.21    0.65    0.079
 210. BD*(   2) C   8 - N   9        /182. RY*(  15) N   9                    0.38    1.28    0.062
 210. BD*(   2) C   8 - N   9        /198. BD*(   2) C   2 - C   3           33.19    0.02    0.058
 210. BD*(   2) C   8 - N   9        /206. BD*(   2) C   6 - N   7           86.41    0.01    0.072


 Natural Bond Orbitals (Summary):

                                                            Principal Delocalizations
           NBO                        Occupancy    Energy   (geminal,vicinal,remote)
 ====================================================================================
 Molecular unit  1  (C5H2N3O)
     1. BD (   1) O   1 - C   2          0.99658    -1.05152  199(v),169(v),208(r),66(v)
                                                    49(g)
     2. BD (   1) O   1 - N   9          0.95661    -0.79327  28(v),208(v),49(v),52(v)
                                                    200(v),154(v)
     3. BD (   1) C   2 - C   3          0.99305    -0.77875  199(g),208(v),201(v),28(g)
                                                    200(g),90(v),151(v),32(v)
     4. BD (   2) C   2 - C   3          0.81358    -0.30990  210(v),202(v),198(g),88(v)
                                                    33(v),155(v),69(g)
     5. BD (   1) C   3 - C   4          0.99081    -0.76771  197(g),200(g),209(v),201(g)
                                                    100(v),52(v),28(v),101(v)
                                                    203(g),55(v)
     6. BD (   1) C   3 - C   8          0.96198    -0.71712  28(v),199(g),197(g),203(v)
                                                    196(v),208(g),86(v),134(v)
                                                    209(g),83(v),195(v),169(v)
                                                    135(v),200(g)
     7. BD (   1) C   4 - N   5          0.99366    -0.90185  197(v),117(v),199(g),207(v)
                                                    118(v),66(v),120(v),204(g)
     8. BD (   2) C   4 - N   5          0.90153    -0.35584  206(v),198(v),119(v),69(v)
                                                    122(v)
     9. BD (   1) C   4 - H  10          0.98951    -0.57807  204(v),200(v),100(v),66(v)
                                                    67(v),201(g)
    10. BD (   1) N   5 - C   6          0.99316    -0.83301  84(v),203(v),135(v),205(g)
                                                    201(g)
    11. BD (   1) C   6 - N   7          0.99265    -0.89791  209(v),151(v),154(v),208(g)
                                                    101(v),204(g)
    12. BD (   2) C   6 - N   7          0.90980    -0.35454  210(v),202(v),153(v),102(v)
                                                    155(v)
    13. BD (   1) C   6 - H  11          0.99013    -0.56166  208(v),201(v),134(v),100(v)
    14. BD (   1) N   7 - C   8          0.98872    -0.85773  207(v),209(g),200(g),117(v)
                                                    118(v),196(v),197(v),205(g)
                                                    121(v)
    15. BD (   1) C   8 - N   9          0.99517    -0.90274  208(g),199(v),205(v),200(g)
                                                    196(g),28(r),67(v),134(v)
    16. BD (   2) C   8 - N   9          0.95592    -0.36167  206(v),198(v),136(v),35(v)
    17. CR (   1) O   1                  0.99983   -19.06936  49(v),28(v)
    18. CR (   1) C   2                  0.99882   -10.19776  28(g),199(v),67(v)
    19. CR (   1) C   3                  0.99937   -10.10021  28(v),151(v),84(v),52(v)
                                                    154(v),200(g),49(v),208(v)
    20. CR (   1) C   4                  0.99959   -10.13554  197(v),204(v),68(v),101(v)
                                                    67(v)
    21. CR (   1) N   5                  0.99972   -14.16913  117(v),83(v),87(v),199(v)
                                                    84(v),205(v)
    22. CR (   1) C   6                  0.99967   -10.15321  208(v),201(v),101(v),135(v)
    23. CR (   1) N   7                  0.99963   -14.16549  117(v),156(v),152(v),200(v)
                                                    204(v),209(v),151(v),120(v)
    24. CR (   1) C   8                  0.99954   -10.14878  66(v),205(v),135(v),171(v)
                                                    169(v),199(v)
    25. CR (   1) N   9                  0.99971   -14.22450  151(v),196(g),152(v),208(v)
                                                    200(v),195(v),157(v)
    26. LP (   1) O   1                  0.97435    -0.66709  49(v),28(v),197(v),209(v)
                                                    168(v)
    27. LP (   2) O   1                  0.83618    -0.39342  198(v),210(v),50(v),53(v)
                                                    172(v),33(g)
    28. LP*(   1) C   2                  0.12474    -0.11871  197(g),196(v),195(g),52(g)
                                                    200(v),199(v),64(g)
    29. LP (   1) N   5                  0.95657    -0.38603  205(v),199(v),83(v),203(v)
                                                    207(v),117(v),118(v),95(v)
    30. LP (   1) N   7                  0.91960    -0.38585  204(v),200(v),207(v),117(v)
                                                    152(v),209(v),118(v),151(v)
                                                    149(g)
    31. LP (   1) N   9                  0.97218    -0.51464  151(v),195(v),200(v),152(v)
                                                    28(r)
    32. RY*(   1) O   1                  0.00113     1.05509   
    33. RY*(   2) O   1                  0.00064     0.76375   
    34. RY*(   3) O   1                  0.00033     1.89990   
    35. RY*(   4) O   1                  0.00021     2.55261   
    36. RY*(   5) O   1                  0.00020     1.82948   
    37. RY*(   6) O   1                  0.00015     0.97536   
    38. RY*(   7) O   1                  0.00003     1.41269   
    39. RY*(   8) O   1                  0.00001     2.77277   
    40. RY*(   9) O   1                  0.00001     1.37417   
    41. RY*(  10) O   1                  0.00000     1.45431   
    42. RY*(  11) O   1                  0.00000     0.97496   
    43. RY*(  12) O   1                  0.00000     4.85455   
    44. RY*(  13) O   1                  0.00000    49.44286   
    45. RY*(  14) O   1                  0.00000     2.68871   
    46. RY*(  15) O   1                  0.00000     4.91106   
    47. RY*(  16) O   1                  0.00000     4.86928   
    48. RY*(  17) O   1                  0.00000     3.13239   
    49. RY*(   1) C   2                  0.00257     0.93578   
    50. RY*(   2) C   2                  0.00132     1.55383   
    51. RY*(   3) C   2                  0.00093     0.72175   
    52. RY*(   4) C   2                  0.00057     1.08826   
    53. RY*(   5) C   2                  0.00036     0.66691   
    54. RY*(   6) C   2                  0.00024     1.00400   
    55. RY*(   7) C   2                  0.00010     2.34043   
    56. RY*(   8) C   2                  0.00007     1.35850   
    57. RY*(   9) C   2                  0.00004     2.04175   
    58. RY*(  10) C   2                  0.00003     1.21757   
    59. RY*(  11) C   2                  0.00000     0.34002   
    60. RY*(  12) C   2                  0.00000     2.61817   
    61. RY*(  13) C   2                  0.00001     1.95903   
    62. RY*(  14) C   2                  0.00000     2.74916   
    63. RY*(  15) C   2                  0.00000    17.96236   
    64. RY*(  16) C   2                  0.00001     1.48709   
    65. RY*(  17) C   2                  0.00000     4.41831   
    66. RY*(   1) C   3                  0.00166     1.24988   
    67. RY*(   2) C   3                  0.00138     1.57206   
    68. RY*(   3) C   3                  0.00086     0.83964   
    69. RY*(   4) C   3                  0.00034     1.16439   
    70. RY*(   5) C   3                  0.00027     1.53807   
    71. RY*(   6) C   3                  0.00017     1.41599   
    72. RY*(   7) C   3                  0.00016     1.39728   
    73. RY*(   8) C   3                  0.00007     1.14874   
    74. RY*(   9) C   3                  0.00008     1.81793   
    75. RY*(  10) C   3                  0.00005     2.47333   
    76. RY*(  11) C   3                  0.00002     1.94878   
    77. RY*(  12) C   3                  0.00002     1.54183   
    78. RY*(  13) C   3                  0.00001     3.07158   
    79. RY*(  14) C   3                  0.00000     0.59671   
    80. RY*(  15) C   3                  0.00000     2.45675   
    81. RY*(  16) C   3                  0.00000    21.54845   
    82. RY*(  17) C   3                  0.00000     2.14705   
    83. RY*(   1) C   4                  0.00384     1.02766   
    84. RY*(   2) C   4                  0.00243     0.98799   
    85. RY*(   3) C   4                  0.00069     1.56309   
    86. RY*(   4) C   4                  0.00065     1.43276   
    87. RY*(   5) C   4                  0.00024     1.02024   
    88. RY*(   6) C   4                  0.00023     0.59329   
    89. RY*(   7) C   4                  0.00006     1.11894   
    90. RY*(   8) C   4                  0.00007     4.32720   
    91. RY*(   9) C   4                  0.00002     1.16126   
    92. RY*(  10) C   4                  0.00003     2.60208   
    93. RY*(  11) C   4                  0.00001     1.34871   
    94. RY*(  12) C   4                  0.00000     2.67338   
    95. RY*(  13) C   4                  0.00000     1.29865   
    96. RY*(  14) C   4                  0.00001     2.88599   
    97. RY*(  15) C   4                  0.00000    19.36495   
    98. RY*(  16) C   4                  0.00000     0.29587   
    99. RY*(  17) C   4                  0.00000     1.92576   
   100. RY*(   1) N   5                  0.00240     0.63187   
   101. RY*(   2) N   5                  0.00060     1.14733   
   102. RY*(   3) N   5                  0.00040     0.52085   
   103. RY*(   4) N   5                  0.00020     1.44441   
   104. RY*(   5) N   5                  0.00017     1.30732   
   105. RY*(   6) N   5                  0.00010     2.22431   
   106. RY*(   7) N   5                  0.00008     1.41198   
   107. RY*(   8) N   5                  0.00002     2.98579   
   108. RY*(   9) N   5                  0.00000     2.36425   
   109. RY*(  10) N   5                  0.00000    34.97445   
   110. RY*(  11) N   5                  0.00000     0.66981   
   111. RY*(  12) N   5                  0.00000     3.76284   
   112. RY*(  13) N   5                  0.00001     2.44686   
   113. RY*(  14) N   5                  0.00000     2.07816   
   114. RY*(  15) N   5                  0.00000     4.01634   
   115. RY*(  16) N   5                  0.00001     1.96230   
   116. RY*(  17) N   5                  0.00001     2.35524   
   117. RY*(   1) C   6                  0.00659     0.83536   
   118. RY*(   2) C   6                  0.00317     1.17847   
   119. RY*(   3) C   6                  0.00106     1.53491   
   120. RY*(   4) C   6                  0.00067     1.96908   
   121. RY*(   5) C   6                  0.00063     1.63635   
   122. RY*(   6) C   6                  0.00034     0.73629   
   123. RY*(   7) C   6                  0.00024     0.69002   
   124. RY*(   8) C   6                  0.00010     0.65349   
   125. RY*(   9) C   6                  0.00003     1.69429   
   126. RY*(  10) C   6                  0.00001     2.93333   
   127. RY*(  11) C   6                  0.00000     0.23800   
   128. RY*(  12) C   6                  0.00001     1.35515   
   129. RY*(  13) C   6                  0.00000    22.62320   
   130. RY*(  14) C   6                  0.00000     2.58199   
   131. RY*(  15) C   6                  0.00000     0.45808   
   132. RY*(  16) C   6                  0.00000     2.52199   
   133. RY*(  17) C   6                  0.00000     1.89094   
   134. RY*(   1) N   7                  0.00268     0.59753   
   135. RY*(   2) N   7                  0.00070     1.25487   
   136. RY*(   3) N   7                  0.00034     0.89136   
   137. RY*(   4) N   7                  0.00031     1.41632   
   138. RY*(   5) N   7                  0.00014     1.39616   
   139. RY*(   6) N   7                  0.00011     1.94309   
   140. RY*(   7) N   7                  0.00009     1.76076   
   141. RY*(   8) N   7                  0.00002     1.22679   
   142. RY*(   9) N   7                  0.00003     2.96023   
   143. RY*(  10) N   7                  0.00002     1.73208   
   144. RY*(  11) N   7                  0.00001     2.87864   
   145. RY*(  12) N   7                  0.00000     3.77612   
   146. RY*(  13) N   7                  0.00001     3.67814   
   147. RY*(  14) N   7                  0.00000    35.15710   
   148. RY*(  15) N   7                  0.00000     1.65781   
   149. RY*(  16) N   7                  0.00000     2.13577   
   150. RY*(  17) N   7                  0.00001     2.26547   
   151. RY*(   1) C   8                  0.00511     0.99332   
   152. RY*(   2) C   8                  0.00328     1.29655   
   153. RY*(   3) C   8                  0.00227     1.40897   
   154. RY*(   4) C   8                  0.00160     1.46537   
   155. RY*(   5) C   8                  0.00052     1.40620   
   156. RY*(   6) C   8                  0.00039     1.13293   
   157. RY*(   7) C   8                  0.00025     0.93735   
   158. RY*(   8) C   8                  0.00015     1.74351   
   159. RY*(   9) C   8                  0.00007     0.41700   
   160. RY*(  10) C   8                  0.00005     2.14916   
   161. RY*(  11) C   8                  0.00004     2.74012   
   162. RY*(  12) C   8                  0.00001     2.41127   
   163. RY*(  13) C   8                  0.00001     1.61625   
   164. RY*(  14) C   8                  0.00000     0.73940   
   165. RY*(  15) C   8                  0.00000     2.61879   
   166. RY*(  16) C   8                  0.00000    21.24154   
   167. RY*(  17) C   8                  0.00001     1.87967   
   168. RY*(   1) N   9                  0.00167     0.89300   
   169. RY*(   2) N   9                  0.00124     0.99382   
   170. RY*(   3) N   9                  0.00063     0.60921   
   171. RY*(   4) N   9                  0.00045     0.82972   
   172. RY*(   5) N   9                  0.00030     1.72551   
   173. RY*(   6) N   9                  0.00024     1.05982   
   174. RY*(   7) N   9                  0.00004     1.91500   
   175. RY*(   8) N   9                  0.00001     0.65186   
   176. RY*(   9) N   9                  0.00001     3.79707   
   177. RY*(  10) N   9                  0.00001     3.97879   
   178. RY*(  11) N   9                  0.00001     1.83560   
   179. RY*(  12) N   9                  0.00000     3.65346   
   180. RY*(  13) N   9                  0.00001     2.25762   
   181. RY*(  14) N   9                  0.00000    34.60320   
   182. RY*(  15) N   9                  0.00000     1.24159   
   183. RY*(  16) N   9                  0.00001     2.29275   
   184. RY*(  17) N   9                  0.00001     2.52138   
   185. RY*(   1) H  10                  0.00026     0.65443   
   186. RY*(   2) H  10                  0.00008     2.22100   
   187. RY*(   3) H  10                  0.00005     1.55825   
   188. RY*(   4) H  10                  0.00004     2.49938   
   189. RY*(   5) H  10                  0.00004     1.84685   
   190. RY*(   1) H  11                  0.00019     1.23486   
   191. RY*(   2) H  11                  0.00005     1.91471   
   192. RY*(   3) H  11                  0.00006     2.20999   
   193. RY*(   4) H  11                  0.00003     1.92348   
   194. RY*(   5) H  11                  0.00004     1.55917   
   195. BD*(   1) O   1 - C   2          0.00825     0.41559   
   196. BD*(   1) O   1 - N   9          0.00915     0.11664   
   197. BD*(   1) C   2 - C   3          0.01170     0.48100   
   198. BD*(   2) C   2 - C   3          0.14654    -0.01610  202(v),210(v),53(g),206(r)
                                                    73(g),33(v)
   199. BD*(   1) C   3 - C   4          0.01829     0.48126   
   200. BD*(   1) C   3 - C   8          0.02457     0.44418   
   201. BD*(   1) C   4 - N   5          0.00558     0.53333   
   202. BD*(   2) C   4 - N   5          0.11735    -0.02994  206(v),198(v),88(g),102(g)
                                                    210(r),85(g)
   203. BD*(   1) C   4 - H  10          0.01301     0.36680   
   204. BD*(   1) N   5 - C   6          0.01839     0.42731   
   205. BD*(   1) C   6 - N   7          0.01220     0.53772   
   206. BD*(   2) C   6 - N   7          0.11032    -0.02634  202(v),210(v),122(g),198(r)
                                                    140(g)
   207. BD*(   1) C   6 - H  11          0.01495     0.37865   
   208. BD*(   1) N   7 - C   8          0.01283     0.46105   
   209. BD*(   1) C   8 - N   9          0.01309     0.48650   
   210. BD*(   2) C   8 - N   9          0.19843    -0.03802  206(v),198(v),170(g),164(g)
                                                    202(r),153(g),182(g),136(v)
       -------------------------------
              Total Lewis   29.07764  ( 96.9255%)
        Valence non-Lewis    0.85938  (  2.8646%)
        Rydberg non-Lewis    0.06298  (  0.2099%)
       -------------------------------
            Total unit  1   30.00000  (100.0000%)
           Charge unit  1    0.50000
 Leave Link  607 at Thu Nov  3 03:53:47 2022, MaxMem=  8053063680 cpu:              52.7 elap:               1.7
 (Enter /public3/home/scg5914/software-scg5914/g16/l9999.exe)
 Unable to Open any file for archive entry.
 1\1\GINC-E0601\SP\UB3LYP\Gen\C5H2N3O1(2)\SCG5914\03-Nov-2022\0\\#p b3l
 yp/chkbas pop=nbo geom=allcheck guess=tcheck em=gd3bj\\dsgdb9nsd_13047
 2-1\\0,2\O,0,-0.0122415891,1.3147965956,0.0093558693\C,0,1.1987247839,
 1.7341547804,-0.0000887807\C,0,2.1245972311,0.71935115,-0.0146003974\C
 ,0,3.5201354792,0.5000700233,-0.0292985705\N,0,3.9936820356,-0.7198052
 132,-0.0407073353\C,0,3.0855694524,-1.7579094444,-0.03796171\N,0,1.780
 0765922,-1.6978613288,-0.0246118849\C,0,1.2667716621,-0.442517247,-0.0
 126488517\N,0,-0.0278262416,-0.1568941786,0.0018115341\H,0,4.227952672
 6,1.3242627143,-0.0316414323\H,0,3.5309457664,-2.7472225551,-0.0469330
 586\\Version=ES64L-G16RevC.01\State=2-A\HF=-431.1705968\S2=0.760973\S2
 -1=0.\S2A=0.750068\RMSD=3.442e-09\Dipole=0.933042,0.8097725,-0.0046898
 \Quadrupole=-5.1245352,3.4822398,1.6422954,-0.2726584,0.0651359,0.0123
 729\PG=C01 [X(C5H2N3O1)]\\@
 The archive entry for this job was punched.


 ERROR IS THE FORCE THAT WELDS MEN TOGETHER....
 TRUTH IS COMMUNICATED TO MEN ONLY BY DEEDS OF TRUTH.
           TOLSTOI,MY RELIGION
 Job cpu time:       0 days  0 hours  1 minutes 45.4 seconds.
 Elapsed time:       0 days  0 hours  0 minutes  3.7 seconds.
 File lengths (MBytes):  RWF=     33 Int=      0 D2E=      0 Chk=      6 Scr=      1
 Normal termination of Gaussian 16 at Thu Nov  3 03:53:48 2022.
