 Entering Gaussian System, Link 0=/public3/home/scg5914/software-scg5914/g16/g16
 Input=dsgdb9nsd_126920-7.gjf
 Output=dsgdb9nsd_126920-7.log
 Initial command:
 /public3/home/scg5914/software-scg5914/g16/l1.exe "/public3/home/scg5914/software-scg5914/test/tmp/dsgdb9nsd_126920-7/Gau-48119.inp" -scrdir="/public3/home/scg5914/software-scg5914/test/tmp/dsgdb9nsd_126920-7/"
 Entering Link 1 = /public3/home/scg5914/software-scg5914/g16/l1.exe PID=     48120.
  
 Copyright (c) 1988-2019, Gaussian, Inc.  All Rights Reserved.
  
 This is part of the Gaussian(R) 16 program.  It is based on
 the Gaussian(R) 09 system (copyright 2009, Gaussian, Inc.),
 the Gaussian(R) 03 system (copyright 2003, Gaussian, Inc.),
 the Gaussian(R) 98 system (copyright 1998, Gaussian, Inc.),
 the Gaussian(R) 94 system (copyright 1995, Gaussian, Inc.),
 the Gaussian 92(TM) system (copyright 1992, Gaussian, Inc.),
 the Gaussian 90(TM) system (copyright 1990, Gaussian, Inc.),
 the Gaussian 88(TM) system (copyright 1988, Gaussian, Inc.),
 the Gaussian 86(TM) system (copyright 1986, Carnegie Mellon
 University), and the Gaussian 82(TM) system (copyright 1983,
 Carnegie Mellon University). Gaussian is a federally registered
 trademark of Gaussian, Inc.
  
 This software contains proprietary and confidential information,
 including trade secrets, belonging to Gaussian, Inc.
  
 This software is provided under written license and may be
 used, copied, transmitted, or stored only in accord with that
 written license.
  
 The following legend is applicable only to US Government
 contracts under FAR:
  
                    RESTRICTED RIGHTS LEGEND
  
 Use, reproduction and disclosure by the US Government is
 subject to restrictions as set forth in subparagraphs (a)
 and (c) of the Commercial Computer Software - Restricted
 Rights clause in FAR 52.227-19.
  
 Gaussian, Inc.
 340 Quinnipiac St., Bldg. 40, Wallingford CT 06492
  
  
 ---------------------------------------------------------------
 Warning -- This program may not be used in any manner that
 competes with the business of Gaussian, Inc. or will provide
 assistance to any competitor of Gaussian, Inc.  The licensee
 of this program is prohibited from giving any competitor of
 Gaussian, Inc. access to this program.  By using this program,
 the user acknowledges that Gaussian, Inc. is engaged in the
 business of creating and licensing software in the field of
 computational chemistry and represents and warrants to the
 licensee that it is not a competitor of Gaussian, Inc. and that
 it will not use this program in any manner prohibited above.
 ---------------------------------------------------------------
  

 Cite this work as:
 Gaussian 16, Revision C.01,
 M. J. Frisch, G. W. Trucks, H. B. Schlegel, G. E. Scuseria, 
 M. A. Robb, J. R. Cheeseman, G. Scalmani, V. Barone, 
 G. A. Petersson, H. Nakatsuji, X. Li, M. Caricato, A. V. Marenich, 
 J. Bloino, B. G. Janesko, R. Gomperts, B. Mennucci, H. P. Hratchian, 
 J. V. Ortiz, A. F. Izmaylov, J. L. Sonnenberg, D. Williams-Young, 
 F. Ding, F. Lipparini, F. Egidi, J. Goings, B. Peng, A. Petrone, 
 T. Henderson, D. Ranasinghe, V. G. Zakrzewski, J. Gao, N. Rega, 
 G. Zheng, W. Liang, M. Hada, M. Ehara, K. Toyota, R. Fukuda, 
 J. Hasegawa, M. Ishida, T. Nakajima, Y. Honda, O. Kitao, H. Nakai, 
 T. Vreven, K. Throssell, J. A. Montgomery, Jr., J. E. Peralta, 
 F. Ogliaro, M. J. Bearpark, J. J. Heyd, E. N. Brothers, K. N. Kudin, 
 V. N. Staroverov, T. A. Keith, R. Kobayashi, J. Normand, 
 K. Raghavachari, A. P. Rendell, J. C. Burant, S. S. Iyengar, 
 J. Tomasi, M. Cossi, J. M. Millam, M. Klene, C. Adamo, R. Cammi, 
 J. W. Ochterski, R. L. Martin, K. Morokuma, O. Farkas, 
 J. B. Foresman, and D. J. Fox, Gaussian, Inc., Wallingford CT, 2019.
 
 ******************************************
 Gaussian 16:  ES64L-G16RevC.01  3-Jul-2019
                19-Mar-2023 
 ******************************************
 %chk=dsgdb9nsd_126920-7.chk
 %mem=60GB
 %nprocshared=32
 Will use up to   32 processors via shared memory.
 ------------------------------------
 #p opt freq b3lyp/6-311+g** em=gd3bj
 ------------------------------------
 1/18=20,19=15,26=3,38=1/1,3;
 2/9=110,12=2,17=6,18=5,40=1/2;
 3/5=4,6=6,7=111,11=2,25=1,30=1,71=1,74=-5,124=41/1,2,3;
 4//1;
 5/5=2,38=5/2;
 6/7=2,8=2,9=2,10=2,28=1/1;
 7//1,2,3,16;
 1/18=20,19=15,26=3/3(2);
 2/9=110/2;
 99//99;
 2/9=110/2;
 3/5=4,6=6,7=111,11=2,25=1,30=1,71=1,74=-5,124=41/1,2,3;
 4/5=5,16=3,69=1/1;
 5/5=2,38=5/2;
 7//1,2,3,16;
 1/18=20,19=15,26=3/3(-5);
 2/9=110/2;
 6/7=2,8=2,9=2,10=2,19=2,28=1/1;
 99/9=1/99;
 Leave Link    1 at Sun Mar 19 23:52:59 2023, MaxMem=  8053063680 cpu:               0.7 elap:               0.0
 (Enter /public3/home/scg5914/software-scg5914/g16/l101.exe)
 ------------------
 dsgdb9nsd_126920-7
 ------------------
 Symbolic Z-matrix:
 Charge =  0 Multiplicity = 2
 C                     0.07699   1.45516   0.10854 
 C                    -0.03921  -0.03747  -0.17927 
 N                    -1.40716  -0.49446   0.0565 
 C                    -1.72005  -1.82453   0.04831 
 C                    -2.91183  -2.49254  -0.04912 
 C                    -2.5259   -3.85406   0.09418 
 N                    -3.37248  -4.9516    0.14839 
 N                    -1.22655  -4.00965   0.24176 
 O                    -0.70822  -2.68315   0.21877 
 H                     1.10245   1.7949   -0.05976 
 H                    -0.57645   2.03973  -0.54991 
 H                    -0.19795   1.6756    1.14389 
 H                     0.28609  -0.2531   -1.20862 
 H                     0.61811  -0.60535   0.48373 
 H                    -2.12887   0.09761  -0.32645 
 H                    -4.1524   -4.89711  -0.49126 
 H                    -2.87354  -5.82599   0.04698 
 
 ITRead=  0  0  0  0  0  0  0  0  0  0  0  0  0  0  0  0  0
 MicOpt= -1 -1 -1 -1 -1 -1 -1 -1 -1 -1 -1 -1 -1 -1 -1 -1 -1
 NAtoms=     17 NQM=       17 NQMF=       0 NMMI=      0 NMMIF=      0
                NMic=       0 NMicF=      0.
                    Isotopes and Nuclear Properties:
 (Nuclear quadrupole moments (NQMom) in fm**2, nuclear magnetic moments (NMagM)
  in nuclear magnetons)

  Atom         1           2           3           4           5           6           7           8           9          10
 IAtWgt=          12          12          14          12          12          12          14          14          16           1
 AtmWgt=  12.0000000  12.0000000  14.0030740  12.0000000  12.0000000  12.0000000  14.0030740  14.0030740  15.9949146   1.0078250
 NucSpn=           0           0           2           0           0           0           2           2           0           1
 AtZEff=  -0.0000000  -0.0000000  -0.0000000  -0.0000000  -0.0000000  -0.0000000  -0.0000000  -0.0000000  -0.0000000  -0.0000000
 NQMom=    0.0000000   0.0000000   2.0440000   0.0000000   0.0000000   0.0000000   2.0440000   2.0440000   0.0000000   0.0000000
 NMagM=    0.0000000   0.0000000   0.4037610   0.0000000   0.0000000   0.0000000   0.4037610   0.4037610   0.0000000   2.7928460
 AtZNuc=   6.0000000   6.0000000   7.0000000   6.0000000   6.0000000   6.0000000   7.0000000   7.0000000   8.0000000   1.0000000

  Atom        11          12          13          14          15          16          17
 IAtWgt=           1           1           1           1           1           1           1
 AtmWgt=   1.0078250   1.0078250   1.0078250   1.0078250   1.0078250   1.0078250   1.0078250
 NucSpn=           1           1           1           1           1           1           1
 AtZEff=  -0.0000000  -0.0000000  -0.0000000  -0.0000000  -0.0000000  -0.0000000  -0.0000000
 NQMom=    0.0000000   0.0000000   0.0000000   0.0000000   0.0000000   0.0000000   0.0000000
 NMagM=    2.7928460   2.7928460   2.7928460   2.7928460   2.7928460   2.7928460   2.7928460
 AtZNuc=   1.0000000   1.0000000   1.0000000   1.0000000   1.0000000   1.0000000   1.0000000
 Leave Link  101 at Sun Mar 19 23:52:59 2023, MaxMem=  8053063680 cpu:               4.5 elap:               0.2
 (Enter /public3/home/scg5914/software-scg5914/g16/l103.exe)

 GradGradGradGradGradGradGradGradGradGradGradGradGradGradGradGradGradGrad
 Berny optimization.
 Initialization pass.
                           ----------------------------
                           !    Initial Parameters    !
                           ! (Angstroms and Degrees)  !
 --------------------------                            --------------------------
 ! Name  Definition              Value          Derivative Info.                !
 --------------------------------------------------------------------------------
 ! R1    R(1,2)                  1.5245         estimate D2E/DX2                !
 ! R2    R(1,10)                 1.0933         estimate D2E/DX2                !
 ! R3    R(1,11)                 1.0965         estimate D2E/DX2                !
 ! R4    R(1,12)                 1.0937         estimate D2E/DX2                !
 ! R5    R(2,3)                  1.4614         estimate D2E/DX2                !
 ! R6    R(2,13)                 1.1009         estimate D2E/DX2                !
 ! R7    R(2,14)                 1.0928         estimate D2E/DX2                !
 ! R8    R(3,4)                  1.3664         estimate D2E/DX2                !
 ! R9    R(3,15)                 1.009          estimate D2E/DX2                !
 ! R10   R(4,5)                  1.3697         estimate D2E/DX2                !
 ! R11   R(4,9)                  1.3379         estimate D2E/DX2                !
 ! R12   R(5,6)                  1.4224         estimate D2E/DX2                !
 ! R13   R(6,7)                  1.3872         estimate D2E/DX2                !
 ! R14   R(6,8)                  1.3169         estimate D2E/DX2                !
 ! R15   R(7,16)                 1.0101         estimate D2E/DX2                !
 ! R16   R(7,17)                 1.0118         estimate D2E/DX2                !
 ! R17   R(8,9)                  1.4244         estimate D2E/DX2                !
 ! A1    A(2,1,10)             110.2839         estimate D2E/DX2                !
 ! A2    A(2,1,11)             111.2956         estimate D2E/DX2                !
 ! A3    A(2,1,12)             110.9096         estimate D2E/DX2                !
 ! A4    A(10,1,11)            107.5087         estimate D2E/DX2                !
 ! A5    A(10,1,12)            108.5953         estimate D2E/DX2                !
 ! A6    A(11,1,12)            108.1321         estimate D2E/DX2                !
 ! A7    A(1,2,3)              110.3068         estimate D2E/DX2                !
 ! A8    A(1,2,13)             110.2294         estimate D2E/DX2                !
 ! A9    A(1,2,14)             110.39           estimate D2E/DX2                !
 ! A10   A(3,2,13)             111.4813         estimate D2E/DX2                !
 ! A11   A(3,2,14)             107.6177         estimate D2E/DX2                !
 ! A12   A(13,2,14)            106.724          estimate D2E/DX2                !
 ! A13   A(2,3,4)              121.1827         estimate D2E/DX2                !
 ! A14   A(2,3,15)             115.1381         estimate D2E/DX2                !
 ! A15   A(4,3,15)             113.8994         estimate D2E/DX2                !
 ! A16   A(3,4,5)              132.4082         estimate D2E/DX2                !
 ! A17   A(3,4,9)              116.7914         estimate D2E/DX2                !
 ! A18   A(5,4,9)              110.7386         estimate D2E/DX2                !
 ! A19   A(4,5,6)              102.9199         estimate D2E/DX2                !
 ! A20   A(5,6,7)              126.5625         estimate D2E/DX2                !
 ! A21   A(5,6,8)              113.0836         estimate D2E/DX2                !
 ! A22   A(7,6,8)              120.2846         estimate D2E/DX2                !
 ! A23   A(6,7,16)             113.8147         estimate D2E/DX2                !
 ! A24   A(6,7,17)             112.2649         estimate D2E/DX2                !
 ! A25   A(16,7,17)            111.3384         estimate D2E/DX2                !
 ! A26   A(6,8,9)              104.3129         estimate D2E/DX2                !
 ! A27   A(4,9,8)              108.9355         estimate D2E/DX2                !
 ! D1    D(10,1,2,3)           179.5192         estimate D2E/DX2                !
 ! D2    D(10,1,2,13)          -56.942          estimate D2E/DX2                !
 ! D3    D(10,1,2,14)           60.7134         estimate D2E/DX2                !
 ! D4    D(11,1,2,3)           -61.2512         estimate D2E/DX2                !
 ! D5    D(11,1,2,13)           62.2876         estimate D2E/DX2                !
 ! D6    D(11,1,2,14)          179.9431         estimate D2E/DX2                !
 ! D7    D(12,1,2,3)            59.1789         estimate D2E/DX2                !
 ! D8    D(12,1,2,13)         -177.2823         estimate D2E/DX2                !
 ! D9    D(12,1,2,14)          -59.6268         estimate D2E/DX2                !
 ! D10   D(1,2,3,4)           -170.7525         estimate D2E/DX2                !
 ! D11   D(1,2,3,15)            45.4354         estimate D2E/DX2                !
 ! D12   D(13,2,3,4)            66.4383         estimate D2E/DX2                !
 ! D13   D(13,2,3,15)          -77.3737         estimate D2E/DX2                !
 ! D14   D(14,2,3,4)           -50.2688         estimate D2E/DX2                !
 ! D15   D(14,2,3,15)          165.9191         estimate D2E/DX2                !
 ! D16   D(2,3,4,5)           -163.7053         estimate D2E/DX2                !
 ! D17   D(2,3,4,9)             19.4636         estimate D2E/DX2                !
 ! D18   D(15,3,4,5)           -19.483          estimate D2E/DX2                !
 ! D19   D(15,3,4,9)           163.6859         estimate D2E/DX2                !
 ! D20   D(3,4,5,6)           -176.3757         estimate D2E/DX2                !
 ! D21   D(9,4,5,6)              0.5997         estimate D2E/DX2                !
 ! D22   D(3,4,9,8)            177.4314         estimate D2E/DX2                !
 ! D23   D(5,4,9,8)             -0.0671         estimate D2E/DX2                !
 ! D24   D(4,5,6,7)            175.9592         estimate D2E/DX2                !
 ! D25   D(4,5,6,8)             -0.9949         estimate D2E/DX2                !
 ! D26   D(5,6,7,16)            39.6911         estimate D2E/DX2                !
 ! D27   D(5,6,7,17)           167.3155         estimate D2E/DX2                !
 ! D28   D(8,6,7,16)          -143.5539         estimate D2E/DX2                !
 ! D29   D(8,6,7,17)           -15.9295         estimate D2E/DX2                !
 ! D30   D(5,6,8,9)              0.9533         estimate D2E/DX2                !
 ! D31   D(7,6,8,9)           -176.2138         estimate D2E/DX2                !
 ! D32   D(6,8,9,4)             -0.5427         estimate D2E/DX2                !
 --------------------------------------------------------------------------------
 Trust Radius=3.00D-01 FncErr=1.00D-07 GrdErr=1.00D-06 EigMax=2.50D+02 EigMin=1.00D-04
 Number of steps in this run=     86 maximum allowed number of steps=    102.
 GradGradGradGradGradGradGradGradGradGradGradGradGradGradGradGradGradGrad

 Leave Link  103 at Sun Mar 19 23:52:59 2023, MaxMem=  8053063680 cpu:               1.4 elap:               0.1
 (Enter /public3/home/scg5914/software-scg5914/g16/l202.exe)
                          Input orientation:                          
 ---------------------------------------------------------------------
 Center     Atomic      Atomic             Coordinates (Angstroms)
 Number     Number       Type             X           Y           Z
 ---------------------------------------------------------------------
      1          6           0        0.076993    1.455155    0.108541
      2          6           0       -0.039208   -0.037465   -0.179268
      3          7           0       -1.407163   -0.494462    0.056505
      4          6           0       -1.720051   -1.824531    0.048305
      5          6           0       -2.911831   -2.492540   -0.049120
      6          6           0       -2.525904   -3.854064    0.094180
      7          7           0       -3.372476   -4.951595    0.148385
      8          7           0       -1.226552   -4.009647    0.241758
      9          8           0       -0.708220   -2.683149    0.218775
     10          1           0        1.102454    1.794901   -0.059759
     11          1           0       -0.576454    2.039731   -0.549914
     12          1           0       -0.197949    1.675600    1.143890
     13          1           0        0.286092   -0.253105   -1.208617
     14          1           0        0.618112   -0.605349    0.483727
     15          1           0       -2.128866    0.097613   -0.326445
     16          1           0       -4.152397   -4.897107   -0.491255
     17          1           0       -2.873535   -5.825994    0.046977
 ---------------------------------------------------------------------
                    Distance matrix (angstroms):
                    1          2          3          4          5
     1  C    0.000000
     2  C    1.524549   0.000000
     3  N    2.450802   1.461416   0.000000
     4  C    3.740232   2.463864   1.366400   0.000000
     5  C    4.954010   3.781044   2.503497   1.369696   0.000000
     6  C    5.912959   4.563426   3.541176   2.184149   1.422400
     7  N    7.276460   5.946991   4.872057   3.538228   2.509613
     8  N    5.619700   4.167166   3.524694   2.248488   2.286130
     9  O    4.213582   2.757836   2.303304   1.337942   2.228005
    10  H    1.093308   2.162231   3.398952   4.591133   5.873393
    11  H    1.096488   2.177328   2.734950   4.074089   5.123110
    12  H    1.093681   2.170377   2.711784   3.970896   5.114862
    13  H    2.167205   1.100855   2.127416   2.841451   4.072617
    14  H    2.163157   1.092759   2.072813   2.672640   4.038058
    15  H    2.626394   2.099184   1.008988   2.000550   2.720080
    16  H    7.654981   6.374307   5.217245   3.955776   2.741612
    17  H    7.856497   6.449160   5.529519   4.164401   3.335059
                    6          7          8          9         10
     6  C    0.000000
     7  N    1.387154   0.000000
     8  N    1.316929   2.345416   0.000000
     9  O    2.165766   3.499866   1.424356   0.000000
    10  H    6.715615   8.098366   6.261626   4.838291   0.000000
    11  H    6.241156   7.562010   6.135498   4.786841   1.766048
    12  H    6.090849   7.415414   5.847555   4.484965   1.775965
    13  H    4.750948   6.107568   4.301544   2.988514   2.486092
    14  H    4.537701   5.909916   3.879507   2.479236   2.508219
    15  H    3.993784   5.221736   4.243419   3.169880   3.659691
    16  H    2.018949   1.010142   3.144116   4.155492   8.519544
    17  H    2.002894   1.011829   2.459596   3.820416   8.596391
                   11         12         13         14         15
    11  H    0.000000
    12  H    1.773367   0.000000
    13  H    2.536725   3.080339   0.000000
    14  H    3.080884   2.510876   1.760210   0.000000
    15  H    2.496346   2.894887   2.594850   2.948969   0.000000
    16  H    7.804520   7.842949   6.463865   6.490573   5.391574
    17  H    8.215990   8.039645   6.528159   6.295831   5.981897
                   16         17
    16  H    0.000000
    17  H    1.669734   0.000000
 Stoichiometry    C5H8N3O(2)
 Framework group  C1[X(C5H8N3O)]
 Deg. of freedom    45
 Full point group                 C1      NOp   1
 Largest Abelian subgroup         C1      NOp   1
 Largest concise Abelian subgroup C1      NOp   1
                         Standard orientation:                         
 ---------------------------------------------------------------------
 Center     Atomic      Atomic             Coordinates (Angstroms)
 Number     Number       Type             X           Y           Z
 ---------------------------------------------------------------------
      1          6           0        3.782103   -0.149080   -0.126909
      2          6           0        2.399609    0.379275    0.238883
      3          7           0        1.376184   -0.613706   -0.081001
      4          6           0        0.046654   -0.304533   -0.019254
      5          6           0       -1.081353   -1.080530    0.019421
      6          6           0       -2.129629   -0.119559   -0.010153
      7          7           0       -3.490372   -0.382611   -0.068286
      8          7           0       -1.691305    1.121907   -0.040738
      9          8           0       -0.272746    0.994251   -0.054340
     10          1           0        4.546619    0.597389    0.104656
     11          1           0        4.024449   -1.056139    0.439479
     12          1           0        3.839299   -0.387843   -1.192676
     13          1           0        2.369090    0.661384    1.302539
     14          1           0        2.173851    1.282851   -0.332699
     15          1           0        1.590165   -1.557280    0.205245
     16          1           0       -3.779062   -1.165821    0.500597
     17          1           0       -4.048284    0.438884    0.125824
 ---------------------------------------------------------------------
 Rotational constants (GHZ):           7.1534056           0.7805545           0.7134374
 Leave Link  202 at Sun Mar 19 23:52:59 2023, MaxMem=  8053063680 cpu:               0.1 elap:               0.0
 (Enter /public3/home/scg5914/software-scg5914/g16/l301.exe)
 Standard basis: 6-311+G(d,p) (5D, 7F)
 Ernie: Thresh=  0.10000D-02 Tol=  0.10000D-05 Strict=F.
 There are   255 symmetry adapted cartesian basis functions of A   symmetry.
 There are   246 symmetry adapted basis functions of A   symmetry.
   246 basis functions,   388 primitive gaussians,   255 cartesian basis functions
    34 alpha electrons       33 beta electrons
       nuclear repulsion energy       431.9169709997 Hartrees.
 IExCor=  402 DFT=T Ex+Corr=B3LYP ExCW=0 ScaHFX=  0.200000
 ScaDFX=  0.800000  0.720000  1.000000  0.810000 ScalE2=  1.000000  1.000000
 IRadAn=      5 IRanWt=     -1 IRanGd=            0 ICorTp=0 IEmpDi=141
 NAtoms=   17 NActive=   17 NUniq=   17 SFac= 1.00D+00 NAtFMM=   60 NAOKFM=F Big=F
 Integral buffers will be    131072 words long.
 Raffenetti 2 integral format.
 Two-electron integral symmetry is turned on.
 R6Disp:  Grimme-D3(BJ) Dispersion energy=       -0.0242485071 Hartrees.
 Nuclear repulsion after empirical dispersion term =      431.8927224926 Hartrees.
 Leave Link  301 at Sun Mar 19 23:52:59 2023, MaxMem=  8053063680 cpu:               0.6 elap:               0.0
 (Enter /public3/home/scg5914/software-scg5914/g16/l302.exe)
 NPDir=0 NMtPBC=     1 NCelOv=     1 NCel=       1 NClECP=     1 NCelD=      1
         NCelK=      1 NCelE2=     1 NClLst=     1 CellRange=     0.0.
 One-electron integrals computed using PRISM.
 One-electron integral symmetry used in STVInt
 NBasis=   246 RedAO= T EigKep=  9.93D-06  NBF=   246
 NBsUse=   246 1.00D-06 EigRej= -1.00D+00 NBFU=   246
 Precomputing XC quadrature grid using
 IXCGrd= 4 IRadAn=           5 IRanWt=          -1 IRanGd=           0 AccXCQ= 0.00D+00.
 Generated NRdTot=       0 NPtTot=           0 NUsed=           0 NTot=          32
 NSgBfM=   255   255   255   255   255 MxSgAt=    17 MxSgA2=    17.
 Leave Link  302 at Sun Mar 19 23:53:00 2023, MaxMem=  8053063680 cpu:              22.1 elap:               0.8
 (Enter /public3/home/scg5914/software-scg5914/g16/l303.exe)
 DipDrv:  MaxL=1.
 Leave Link  303 at Sun Mar 19 23:53:00 2023, MaxMem=  8053063680 cpu:               4.3 elap:               0.2
 (Enter /public3/home/scg5914/software-scg5914/g16/l401.exe)
 ExpMin= 4.38D-02 ExpMax= 8.59D+03 ExpMxC= 1.30D+03 IAcc=3 IRadAn=         5 AccDes= 0.00D+00
 Harris functional with IExCor=  402 and IRadAn=       5 diagonalized for initial guess.
 HarFok:  IExCor=  402 AccDes= 0.00D+00 IRadAn=         5 IDoV= 1 UseB2=F ITyADJ=14
 ICtDFT=  3500011 ScaDFX=  1.000000  1.000000  1.000000  1.000000
 FoFCou: FMM=F IPFlag=           0 FMFlag=      100000 FMFlg1=           0
         NFxFlg=           0 DoJE=T BraDBF=F KetDBF=T FulRan=T
         wScrn=  0.000000 ICntrl=       500 IOpCl=  0 I1Cent=   200000004 NGrid=           0
         NMat0=    1 NMatS0=      1 NMatT0=    0 NMatD0=    1 NMtDS0=    0 NMtDT0=    0
 Petite list used in FoFCou.
 Harris En= -434.820563509473    
 JPrj=0 DoOrth=F DoCkMO=F.
 Initial guess <Sx>= 0.0000 <Sy>= 0.0000 <Sz>= 0.5000 <S**2>= 0.7500 S= 0.5000
 Leave Link  401 at Sun Mar 19 23:53:00 2023, MaxMem=  8053063680 cpu:              16.3 elap:               0.5
 (Enter /public3/home/scg5914/software-scg5914/g16/l502.exe)
 Integral symmetry usage will be decided dynamically.
 UHF open shell SCF:
 Using DIIS extrapolation, IDIIS=  1040.
 NGot=  8053063680 LenX=  8052922524 LenY=  8052857058
 Requested convergence on RMS density matrix=1.00D-08 within 128 cycles.
 Requested convergence on MAX density matrix=1.00D-06.
 Requested convergence on             energy=1.00D-06.
 No special actions if energy rises.
 Fock matrices will be formed incrementally for  20 cycles.

 Cycle   1  Pass 1  IDiag  1:
 FoFJK:  IHMeth= 1 ICntrl=       0 DoSepK=F KAlg= 0 I1Cent=           0 FoldK=F
 IRaf= 890000000 NMat=       1 IRICut=       1 DoRegI=T DoRafI=F ISym2E= 0 IDoP0=0 IntGTp=1.
 FoFCou: FMM=F IPFlag=           0 FMFlag=      100000 FMFlg1=           0
         NFxFlg=           0 DoJE=F BraDBF=F KetDBF=F FulRan=T
         wScrn=  0.000000 ICntrl=         0 IOpCl=  1 I1Cent=           0 NGrid=           0
         NMat0=    1 NMatS0=      1 NMatT0=    0 NMatD0=    1 NMtDS0=    0 NMtDT0=    0
 Symmetry not used in FoFCou.
 E= -434.537857699617    
 DIIS: error= 2.56D-02 at cycle   1 NSaved=   1.
 NSaved= 1 IEnMin= 1 EnMin= -434.537857699617     IErMin= 1 ErrMin= 2.56D-02
 ErrMax= 2.56D-02  0.00D+00 EMaxC= 1.00D-01 BMatC= 1.21D+00 BMatP= 1.21D+00
 IDIUse=3 WtCom= 7.44D-01 WtEn= 2.56D-01
 Coeff-Com:  0.100D+01
 Coeff-En:   0.100D+01
 Coeff:      0.100D+01
 Gap=     0.225 Goal=   None    Shift=    0.000
 Gap=    -0.099 Goal=   None    Shift=    0.000
 GapD=   -0.099 DampG=0.250 DampE=0.500 DampFc=0.2500 IDamp=-1.
 Damping current iteration by 2.50D-01
 RMSDP=4.85D-02 MaxDP=7.33D+00              OVMax= 7.71D-01

 Cycle   2  Pass 1  IDiag  1:
 RMSU=  1.08D-02    CP:  1.29D+00
 E= -434.633994446616     Delta-E=       -0.096136746999 Rises=F Damp=T
 DIIS: error= 1.17D-02 at cycle   2 NSaved=   2.
 NSaved= 2 IEnMin= 2 EnMin= -434.633994446616     IErMin= 2 ErrMin= 1.17D-02
 ErrMax= 1.17D-02  0.00D+00 EMaxC= 1.00D-01 BMatC= 2.76D-01 BMatP= 1.21D+00
 IDIUse=3 WtCom= 8.83D-01 WtEn= 1.17D-01
 Coeff-Com: -0.473D+00 0.147D+01
 Coeff-En:   0.000D+00 0.100D+01
 Coeff:     -0.418D+00 0.142D+01
 Gap=     0.207 Goal=   None    Shift=    0.000
 Gap=    -0.013 Goal=   None    Shift=    0.000
 RMSDP=1.02D-02 MaxDP=6.74D-01 DE=-9.61D-02 OVMax= 9.54D-01

 Cycle   3  Pass 1  IDiag  1:
 RMSU=  7.30D-03    CP:  1.31D+00  3.37D-01
 E= -434.702209526615     Delta-E=       -0.068215080000 Rises=F Damp=F
 DIIS: error= 1.96D-02 at cycle   3 NSaved=   3.
 NSaved= 3 IEnMin= 3 EnMin= -434.702209526615     IErMin= 2 ErrMin= 1.17D-02
 ErrMax= 1.96D-02  0.00D+00 EMaxC= 1.00D-01 BMatC= 4.15D-01 BMatP= 2.76D-01
 IDIUse=2 WtCom= 0.00D+00 WtEn= 1.00D+00
 Coeff-En:   0.000D+00 0.206D+00 0.794D+00
 Coeff:      0.000D+00 0.206D+00 0.794D+00
 Gap=     0.282 Goal=   None    Shift=    0.000
 Gap=    -0.067 Goal=   None    Shift=    0.000
 RMSDP=7.48D-03 MaxDP=6.62D-01 DE=-6.82D-02 OVMax= 8.03D-01

 Cycle   4  Pass 1  IDiag  1:
 RMSU=  6.70D-03    CP:  1.18D+00  2.23D-01  7.43D-01
 E= -434.297016070560     Delta-E=        0.405193456055 Rises=F Damp=F
 DIIS: error= 4.08D-02 at cycle   4 NSaved=   4.
 NSaved= 4 IEnMin= 3 EnMin= -434.702209526615     IErMin= 2 ErrMin= 1.17D-02
 ErrMax= 4.08D-02  0.00D+00 EMaxC= 1.00D-01 BMatC= 1.96D+00 BMatP= 2.76D-01
 IDIUse=2 WtCom= 0.00D+00 WtEn= 1.00D+00
 Coeff-En:   0.000D+00 0.000D+00 0.749D+00 0.251D+00
 Coeff:      0.000D+00 0.000D+00 0.749D+00 0.251D+00
 Gap=     0.207 Goal=   None    Shift=    0.000
 Gap=     0.016 Goal=   None    Shift=    0.000
 RMSDP=3.70D-03 MaxDP=2.29D-01 DE= 4.05D-01 OVMax= 2.24D-01

 Cycle   5  Pass 1  IDiag  1:
 RMSU=  1.95D-03    CP:  1.21D+00  2.36D-01  8.13D-01  5.43D-01
 E= -434.745036374935     Delta-E=       -0.448020304375 Rises=F Damp=F
 DIIS: error= 1.78D-02 at cycle   5 NSaved=   5.
 NSaved= 5 IEnMin= 5 EnMin= -434.745036374935     IErMin= 2 ErrMin= 1.17D-02
 ErrMax= 1.78D-02  0.00D+00 EMaxC= 1.00D-01 BMatC= 3.08D-01 BMatP= 2.76D-01
 IDIUse=2 WtCom= 0.00D+00 WtEn= 1.00D+00
 Coeff-En:   0.000D+00 0.000D+00 0.418D+00 0.000D+00 0.582D+00
 Coeff:      0.000D+00 0.000D+00 0.418D+00 0.000D+00 0.582D+00
 Gap=     0.268 Goal=   None    Shift=    0.000
 Gap=     0.015 Goal=   None    Shift=    0.000
 RMSDP=3.18D-03 MaxDP=2.34D-01 DE=-4.48D-01 OVMax= 3.60D-01

 Cycle   6  Pass 1  IDiag  1:
 RMSU=  1.70D-03    CP:  1.23D+00  2.76D-01  8.46D-01  1.58D-01  8.82D-01
 E= -434.822981722425     Delta-E=       -0.077945347490 Rises=F Damp=F
 DIIS: error= 2.69D-03 at cycle   6 NSaved=   6.
 NSaved= 6 IEnMin= 6 EnMin= -434.822981722425     IErMin= 6 ErrMin= 2.69D-03
 ErrMax= 2.69D-03  0.00D+00 EMaxC= 1.00D-01 BMatC= 9.51D-03 BMatP= 2.76D-01
 IDIUse=3 WtCom= 9.73D-01 WtEn= 2.69D-02
 Coeff-Com: -0.105D+00 0.199D+00 0.126D+00-0.904D-01 0.310D+00 0.560D+00
 Coeff-En:   0.000D+00 0.000D+00 0.000D+00 0.000D+00 0.000D+00 0.100D+01
 Coeff:     -0.102D+00 0.194D+00 0.122D+00-0.880D-01 0.301D+00 0.572D+00
 Gap=     0.228 Goal=   None    Shift=    0.000
 Gap=     0.049 Goal=   None    Shift=    0.000
 RMSDP=1.08D-03 MaxDP=1.21D-01 DE=-7.79D-02 OVMax= 1.13D-01

 Cycle   7  Pass 1  IDiag  1:
 RMSU=  7.63D-04    CP:  1.21D+00  2.45D-01  7.75D-01  1.57D-01  9.32D-01
                    CP:  9.80D-01
 E= -434.824585546620     Delta-E=       -0.001603824195 Rises=F Damp=F
 DIIS: error= 2.92D-03 at cycle   7 NSaved=   7.
 NSaved= 7 IEnMin= 7 EnMin= -434.824585546620     IErMin= 6 ErrMin= 2.69D-03
 ErrMax= 2.92D-03  0.00D+00 EMaxC= 1.00D-01 BMatC= 1.02D-02 BMatP= 9.51D-03
 IDIUse=3 WtCom= 9.73D-01 WtEn= 2.69D-02
 Coeff-Com:  0.119D-02 0.178D-01 0.591D-02 0.107D-01-0.109D+00 0.362D+00
 Coeff-Com:  0.711D+00
 Coeff-En:   0.000D+00 0.000D+00 0.000D+00 0.000D+00 0.000D+00 0.323D+00
 Coeff-En:   0.677D+00
 Coeff:      0.115D-02 0.174D-01 0.575D-02 0.104D-01-0.106D+00 0.361D+00
 Coeff:      0.710D+00
 Gap=     0.223 Goal=   None    Shift=    0.000
 Gap=     0.069 Goal=   None    Shift=    0.000
 RMSDP=6.40D-04 MaxDP=7.52D-02 DE=-1.60D-03 OVMax= 1.66D-02

 Cycle   8  Pass 1  IDiag  1:
 RMSU=  3.11D-04    CP:  1.22D+00  2.64D-01  8.00D-01  1.12D-01  9.12D-01
                    CP:  1.14D+00  1.03D+00
 E= -434.827058428484     Delta-E=       -0.002472881864 Rises=F Damp=F
 DIIS: error= 1.24D-03 at cycle   8 NSaved=   8.
 NSaved= 8 IEnMin= 8 EnMin= -434.827058428484     IErMin= 8 ErrMin= 1.24D-03
 ErrMax= 1.24D-03  0.00D+00 EMaxC= 1.00D-01 BMatC= 1.21D-03 BMatP= 9.51D-03
 IDIUse=3 WtCom= 9.88D-01 WtEn= 1.24D-02
 Coeff-Com:  0.194D-01-0.194D-01-0.107D-01 0.256D-01-0.143D+00 0.870D-01
 Coeff-Com:  0.360D+00 0.682D+00
 Coeff-En:   0.000D+00 0.000D+00 0.000D+00 0.000D+00 0.000D+00 0.000D+00
 Coeff-En:   0.000D+00 0.100D+01
 Coeff:      0.192D-01-0.192D-01-0.106D-01 0.253D-01-0.142D+00 0.859D-01
 Coeff:      0.355D+00 0.686D+00
 Gap=     0.222 Goal=   None    Shift=    0.000
 Gap=     0.074 Goal=   None    Shift=    0.000
 RMSDP=2.89D-04 MaxDP=2.49D-02 DE=-2.47D-03 OVMax= 1.97D-02

 Cycle   9  Pass 1  IDiag  1:
 RMSU=  1.66D-04    CP:  1.22D+00  2.69D-01  7.95D-01  8.82D-02  9.09D-01
                    CP:  1.21D+00  1.15D+00  1.23D+00
 E= -434.827513374528     Delta-E=       -0.000454946044 Rises=F Damp=F
 DIIS: error= 8.30D-04 at cycle   9 NSaved=   9.
 NSaved= 9 IEnMin= 9 EnMin= -434.827513374528     IErMin= 9 ErrMin= 8.30D-04
 ErrMax= 8.30D-04  0.00D+00 EMaxC= 1.00D-01 BMatC= 4.25D-04 BMatP= 1.21D-03
 IDIUse=3 WtCom= 9.92D-01 WtEn= 8.30D-03
 Coeff-Com:  0.116D-01-0.139D-01-0.703D-03 0.852D-02-0.540D-01-0.144D-01
 Coeff-Com:  0.245D-01 0.393D+00 0.645D+00
 Coeff-En:   0.000D+00 0.000D+00 0.000D+00 0.000D+00 0.000D+00 0.000D+00
 Coeff-En:   0.000D+00 0.000D+00 0.100D+01
 Coeff:      0.115D-01-0.137D-01-0.697D-03 0.845D-02-0.536D-01-0.143D-01
 Coeff:      0.243D-01 0.390D+00 0.648D+00
 Gap=     0.221 Goal=   None    Shift=    0.000
 Gap=     0.075 Goal=   None    Shift=    0.000
 RMSDP=1.87D-04 MaxDP=1.61D-02 DE=-4.55D-04 OVMax= 2.52D-02

 Cycle  10  Pass 1  IDiag  1:
 RMSU=  8.42D-05    CP:  1.23D+00  2.74D-01  7.99D-01  7.73D-02  9.08D-01
                    CP:  1.23D+00  1.23D+00  1.54D+00  1.23D+00
 E= -434.827733665395     Delta-E=       -0.000220290867 Rises=F Damp=F
 DIIS: error= 5.19D-04 at cycle  10 NSaved=  10.
 NSaved=10 IEnMin=10 EnMin= -434.827733665395     IErMin=10 ErrMin= 5.19D-04
 ErrMax= 5.19D-04  0.00D+00 EMaxC= 1.00D-01 BMatC= 1.96D-04 BMatP= 4.25D-04
 IDIUse=3 WtCom= 9.95D-01 WtEn= 5.19D-03
 Coeff-Com:  0.720D-02-0.857D-02 0.273D-03 0.360D-02-0.276D-01-0.778D-02
 Coeff-Com: -0.213D-01 0.112D+00 0.364D+00 0.578D+00
 Coeff-En:   0.000D+00 0.000D+00 0.000D+00 0.000D+00 0.000D+00 0.000D+00
 Coeff-En:   0.000D+00 0.000D+00 0.000D+00 0.100D+01
 Coeff:      0.716D-02-0.852D-02 0.272D-03 0.358D-02-0.274D-01-0.774D-02
 Coeff:     -0.212D-01 0.112D+00 0.362D+00 0.580D+00
 Gap=     0.220 Goal=   None    Shift=    0.000
 Gap=     0.075 Goal=   None    Shift=    0.000
 RMSDP=1.26D-04 MaxDP=1.24D-02 DE=-2.20D-04 OVMax= 1.69D-02

 Cycle  11  Pass 1  IDiag  1:
 RMSU=  3.95D-05    CP:  1.23D+00  2.78D-01  8.00D-01  7.08D-02  9.06D-01
                    CP:  1.25D+00  1.28D+00  1.70D+00  1.53D+00  1.31D+00
 E= -434.827845123985     Delta-E=       -0.000111458590 Rises=F Damp=F
 DIIS: error= 4.32D-04 at cycle  11 NSaved=  11.
 NSaved=11 IEnMin=11 EnMin= -434.827845123985     IErMin=11 ErrMin= 4.32D-04
 ErrMax= 4.32D-04  0.00D+00 EMaxC= 1.00D-01 BMatC= 1.22D-04 BMatP= 1.96D-04
 IDIUse=3 WtCom= 9.96D-01 WtEn= 4.32D-03
 Coeff-Com:  0.557D-02-0.700D-02-0.147D-02 0.311D-02-0.183D-01 0.307D-01
 Coeff-Com:  0.239D-01-0.140D+00-0.195D+00 0.169D+00 0.113D+01
 Coeff-En:   0.000D+00 0.000D+00 0.000D+00 0.000D+00 0.000D+00 0.000D+00
 Coeff-En:   0.000D+00 0.000D+00 0.000D+00 0.000D+00 0.100D+01
 Coeff:      0.555D-02-0.697D-02-0.147D-02 0.310D-02-0.182D-01 0.306D-01
 Coeff:      0.238D-01-0.139D+00-0.194D+00 0.169D+00 0.113D+01
 Gap=     0.220 Goal=   None    Shift=    0.000
 Gap=     0.075 Goal=   None    Shift=    0.000
 RMSDP=2.17D-04 MaxDP=1.81D-02 DE=-1.11D-04 OVMax= 3.03D-02

 Cycle  12  Pass 1  IDiag  1:
 RMSU=  3.53D-05    CP:  1.23D+00  2.86D-01  8.02D-01  5.93D-02  9.00D-01
                    CP:  1.29D+00  1.35D+00  2.00D+00  1.95D+00  2.18D+00
                    CP:  2.25D+00
 E= -434.827998815813     Delta-E=       -0.000153691829 Rises=F Damp=F
 DIIS: error= 2.68D-04 at cycle  12 NSaved=  12.
 NSaved=12 IEnMin=12 EnMin= -434.827998815813     IErMin=12 ErrMin= 2.68D-04
 ErrMax= 2.68D-04  0.00D+00 EMaxC= 1.00D-01 BMatC= 5.57D-05 BMatP= 1.22D-04
 IDIUse=3 WtCom= 9.97D-01 WtEn= 2.68D-03
 Coeff-Com:  0.392D-02-0.466D-02-0.236D-02 0.291D-02-0.173D-01 0.436D-01
 Coeff-Com:  0.742D-01-0.113D+00-0.304D+00-0.289D+00 0.629D+00 0.976D+00
 Coeff-En:   0.000D+00 0.000D+00 0.000D+00 0.000D+00 0.000D+00 0.000D+00
 Coeff-En:   0.000D+00 0.000D+00 0.000D+00 0.000D+00 0.000D+00 0.100D+01
 Coeff:      0.391D-02-0.464D-02-0.236D-02 0.290D-02-0.172D-01 0.435D-01
 Coeff:      0.741D-01-0.113D+00-0.303D+00-0.288D+00 0.628D+00 0.976D+00
 Gap=     0.219 Goal=   None    Shift=    0.000
 Gap=     0.076 Goal=   None    Shift=    0.000
 RMSDP=1.80D-04 MaxDP=1.27D-02 DE=-1.54D-04 OVMax= 2.95D-02

 Cycle  13  Pass 1  IDiag  1:
 RMSU=  3.74D-05    CP:  1.23D+00  2.92D-01  8.01D-01  5.03D-02  8.93D-01
                    CP:  1.31D+00  1.40D+00  2.21D+00  2.37D+00  2.98D+00
                    CP:  3.00D+00  2.01D+00
 E= -434.828115190263     Delta-E=       -0.000116374450 Rises=F Damp=F
 DIIS: error= 2.57D-04 at cycle  13 NSaved=  13.
 NSaved=13 IEnMin=13 EnMin= -434.828115190263     IErMin=13 ErrMin= 2.57D-04
 ErrMax= 2.57D-04  0.00D+00 EMaxC= 1.00D-01 BMatC= 2.68D-05 BMatP= 5.57D-05
 IDIUse=3 WtCom= 9.97D-01 WtEn= 2.57D-03
 Coeff-Com:  0.124D-02-0.829D-03-0.130D-02 0.127D-02-0.127D-01 0.290D-01
 Coeff-Com:  0.721D-01-0.583D-02-0.132D+00-0.334D+00-0.889D-01 0.578D+00
 Coeff-Com:  0.895D+00
 Coeff-En:   0.000D+00 0.000D+00 0.000D+00 0.000D+00 0.000D+00 0.000D+00
 Coeff-En:   0.000D+00 0.000D+00 0.000D+00 0.000D+00 0.000D+00 0.000D+00
 Coeff-En:   0.100D+01
 Coeff:      0.124D-02-0.827D-03-0.129D-02 0.127D-02-0.126D-01 0.290D-01
 Coeff:      0.719D-01-0.582D-02-0.132D+00-0.333D+00-0.887D-01 0.576D+00
 Coeff:      0.895D+00
 Gap=     0.219 Goal=   None    Shift=    0.000
 Gap=     0.076 Goal=   None    Shift=    0.000
 RMSDP=1.65D-04 MaxDP=1.44D-02 DE=-1.16D-04 OVMax= 2.77D-02

 Cycle  14  Pass 1  IDiag  1:
 RMSU=  6.59D-05    CP:  1.24D+00  2.99D-01  8.00D-01  4.37D-02  8.86D-01
                    CP:  1.32D+00  1.44D+00  2.39D+00  2.73D+00  3.00D+00
                    CP:  3.00D+00  3.00D+00  2.49D+00
 E= -434.828204109976     Delta-E=       -0.000088919713 Rises=F Damp=F
 DIIS: error= 2.21D-04 at cycle  14 NSaved=  14.
 NSaved=14 IEnMin=14 EnMin= -434.828204109976     IErMin=14 ErrMin= 2.21D-04
 ErrMax= 2.21D-04  0.00D+00 EMaxC= 1.00D-01 BMatC= 1.59D-05 BMatP= 2.68D-05
 IDIUse=3 WtCom= 9.98D-01 WtEn= 2.21D-03
 Coeff-Com:  0.107D-02-0.208D-02-0.715D-03 0.295D-03-0.388D-02 0.104D-02
 Coeff-Com: -0.574D-02 0.381D-01 0.161D+00 0.207D+00-0.181D+00-0.119D+01
 Coeff-Com: -0.152D+00 0.213D+01
 Coeff-En:   0.000D+00 0.000D+00 0.000D+00 0.000D+00 0.000D+00 0.000D+00
 Coeff-En:   0.000D+00 0.000D+00 0.000D+00 0.000D+00 0.000D+00 0.000D+00
 Coeff-En:   0.000D+00 0.100D+01
 Coeff:      0.107D-02-0.208D-02-0.714D-03 0.294D-03-0.388D-02 0.104D-02
 Coeff:     -0.573D-02 0.380D-01 0.161D+00 0.207D+00-0.181D+00-0.119D+01
 Coeff:     -0.152D+00 0.212D+01
 Gap=     0.218 Goal=   None    Shift=    0.000
 Gap=     0.076 Goal=   None    Shift=    0.000
 RMSDP=2.90D-04 MaxDP=2.65D-02 DE=-8.89D-05 OVMax= 5.09D-02

 Cycle  15  Pass 1  IDiag  1:
 RMSU=  1.40D-04    CP:  1.24D+00  3.11D-01  7.97D-01  3.33D-02  8.68D-01
                    CP:  1.34D+00  1.50D+00  2.68D+00  3.00D+00  3.00D+00
                    CP:  3.00D+00  3.00D+00  3.00D+00  2.87D+00
 E= -434.828326622562     Delta-E=       -0.000122512587 Rises=F Damp=F
 DIIS: error= 1.36D-04 at cycle  15 NSaved=  15.
 NSaved=15 IEnMin=15 EnMin= -434.828326622562     IErMin=15 ErrMin= 1.36D-04
 ErrMax= 1.36D-04  0.00D+00 EMaxC= 1.00D-01 BMatC= 4.94D-06 BMatP= 1.59D-05
 IDIUse=3 WtCom= 9.99D-01 WtEn= 1.36D-03
 Coeff-Com: -0.644D-03 0.778D-03 0.226D-03-0.112D-02 0.318D-02 0.381D-02
 Coeff-Com: -0.115D-01-0.113D-01 0.436D-01 0.214D+00 0.126D+00-0.690D+00
 Coeff-Com: -0.647D+00 0.698D+00 0.127D+01
 Coeff-En:   0.000D+00 0.000D+00 0.000D+00 0.000D+00 0.000D+00 0.000D+00
 Coeff-En:   0.000D+00 0.000D+00 0.000D+00 0.000D+00 0.000D+00 0.000D+00
 Coeff-En:   0.000D+00 0.000D+00 0.100D+01
 Coeff:     -0.644D-03 0.777D-03 0.226D-03-0.112D-02 0.317D-02 0.381D-02
 Coeff:     -0.115D-01-0.113D-01 0.436D-01 0.214D+00 0.126D+00-0.689D+00
 Coeff:     -0.646D+00 0.697D+00 0.127D+01
 Gap=     0.218 Goal=   None    Shift=    0.000
 Gap=     0.076 Goal=   None    Shift=    0.000
 RMSDP=2.23D-04 MaxDP=2.29D-02 DE=-1.23D-04 OVMax= 4.04D-02

 Cycle  16  Pass 1  IDiag  1:
 RMSU=  9.56D-05    CP:  1.24D+00  3.20D-01  7.95D-01  2.70D-02  8.50D-01
                    CP:  1.34D+00  1.52D+00  2.89D+00  3.00D+00  3.00D+00
                    CP:  3.00D+00  3.00D+00  3.00D+00  3.00D+00  1.96D+00
 E= -434.828383174172     Delta-E=       -0.000056551609 Rises=F Damp=F
 DIIS: error= 6.95D-05 at cycle  16 NSaved=  16.
 NSaved=16 IEnMin=16 EnMin= -434.828383174172     IErMin=16 ErrMin= 6.95D-05
 ErrMax= 6.95D-05  0.00D+00 EMaxC= 1.00D-01 BMatC= 1.93D-06 BMatP= 4.94D-06
 IDIUse=1 WtCom= 1.00D+00 WtEn= 0.00D+00
 Coeff-Com: -0.140D-02 0.215D-02 0.706D-03-0.147D-02 0.555D-02 0.995D-02
 Coeff-Com:  0.142D-02-0.313D-01-0.729D-01 0.577D-01 0.179D+00 0.754D-01
 Coeff-Com: -0.396D+00-0.422D+00 0.749D+00 0.845D+00
 Coeff:     -0.140D-02 0.215D-02 0.706D-03-0.147D-02 0.555D-02 0.995D-02
 Coeff:      0.142D-02-0.313D-01-0.729D-01 0.577D-01 0.179D+00 0.754D-01
 Coeff:     -0.396D+00-0.422D+00 0.749D+00 0.845D+00
 Gap=     0.218 Goal=   None    Shift=    0.000
 Gap=     0.076 Goal=   None    Shift=    0.000
 RMSDP=1.15D-04 MaxDP=1.10D-02 DE=-5.66D-05 OVMax= 2.36D-02

 Cycle  17  Pass 1  IDiag  1:
 RMSU=  1.01D-05    CP:  1.24D+00  3.24D-01  7.94D-01  2.47D-02  8.41D-01
                    CP:  1.34D+00  1.53D+00  3.00D+00  3.00D+00  3.00D+00
                    CP:  3.00D+00  3.00D+00  3.00D+00  3.00D+00  2.47D+00
                    CP:  1.60D+00
 E= -434.828400582776     Delta-E=       -0.000017408604 Rises=F Damp=F
 DIIS: error= 3.23D-05 at cycle  17 NSaved=  17.
 NSaved=17 IEnMin=17 EnMin= -434.828400582776     IErMin=17 ErrMin= 3.23D-05
 ErrMax= 3.23D-05  0.00D+00 EMaxC= 1.00D-01 BMatC= 6.03D-07 BMatP= 1.93D-06
 IDIUse=1 WtCom= 1.00D+00 WtEn= 0.00D+00
 Coeff-Com: -0.746D-03 0.104D-02 0.332D-03-0.638D-03 0.275D-02 0.764D-02
 Coeff-Com:  0.878D-02-0.622D-02-0.584D-01-0.559D-01-0.142D-01 0.292D+00
 Coeff-Com:  0.629D-01-0.330D+00-0.250D+00 0.234D+00 0.111D+01
 Coeff:     -0.746D-03 0.104D-02 0.332D-03-0.638D-03 0.275D-02 0.764D-02
 Coeff:      0.878D-02-0.622D-02-0.584D-01-0.559D-01-0.142D-01 0.292D+00
 Coeff:      0.629D-01-0.330D+00-0.250D+00 0.234D+00 0.111D+01
 Gap=     0.218 Goal=   None    Shift=    0.000
 Gap=     0.076 Goal=   None    Shift=    0.000
 RMSDP=7.24D-05 MaxDP=6.58D-03 DE=-1.74D-05 OVMax= 1.62D-02

 Cycle  18  Pass 1  IDiag  1:
 RMSU=  2.27D-05    CP:  1.25D+00  3.27D-01  7.94D-01  2.37D-02  8.35D-01
                    CP:  1.33D+00  1.54D+00  3.00D+00  3.00D+00  3.00D+00
                    CP:  3.00D+00  3.00D+00  3.00D+00  3.00D+00  2.77D+00
                    CP:  2.01D+00  1.91D+00
 E= -434.828406014158     Delta-E=       -0.000005431382 Rises=F Damp=F
 DIIS: error= 1.06D-05 at cycle  18 NSaved=  18.
 NSaved=18 IEnMin=18 EnMin= -434.828406014158     IErMin=18 ErrMin= 1.06D-05
 ErrMax= 1.06D-05  0.00D+00 EMaxC= 1.00D-01 BMatC= 1.16D-07 BMatP= 6.03D-07
 IDIUse=1 WtCom= 1.00D+00 WtEn= 0.00D+00
 Coeff-Com: -0.269D-03 0.358D-03 0.137D-03-0.186D-03 0.780D-03 0.145D-02
 Coeff-Com:  0.257D-02 0.385D-02-0.438D-02-0.273D-01-0.495D-01 0.803D-01
 Coeff-Com:  0.774D-01 0.185D-02-0.243D+00-0.133D+00 0.389D+00 0.900D+00
 Coeff:     -0.269D-03 0.358D-03 0.137D-03-0.186D-03 0.780D-03 0.145D-02
 Coeff:      0.257D-02 0.385D-02-0.438D-02-0.273D-01-0.495D-01 0.803D-01
 Coeff:      0.774D-01 0.185D-02-0.243D+00-0.133D+00 0.389D+00 0.900D+00
 Gap=     0.217 Goal=   None    Shift=    0.000
 Gap=     0.076 Goal=   None    Shift=    0.000
 RMSDP=3.20D-05 MaxDP=2.92D-03 DE=-5.43D-06 OVMax= 7.12D-03

 Cycle  19  Pass 1  IDiag  1:
 RMSU=  2.79D-06    CP:  1.25D+00  3.28D-01  7.94D-01  2.32D-02  8.32D-01
                    CP:  1.33D+00  1.54D+00  3.00D+00  3.00D+00  3.00D+00
                    CP:  3.00D+00  3.00D+00  3.00D+00  3.00D+00  2.90D+00
                    CP:  2.19D+00  2.30D+00  1.45D+00
 E= -434.828406796082     Delta-E=       -0.000000781925 Rises=F Damp=F
 DIIS: error= 3.55D-06 at cycle  19 NSaved=  19.
 NSaved=19 IEnMin=19 EnMin= -434.828406796082     IErMin=19 ErrMin= 3.55D-06
 ErrMax= 3.55D-06  0.00D+00 EMaxC= 1.00D-01 BMatC= 1.49D-08 BMatP= 1.16D-07
 IDIUse=1 WtCom= 1.00D+00 WtEn= 0.00D+00
 Coeff-Com:  0.316D-05-0.264D-04-0.886D-05 0.175D-05 0.120D-04-0.602D-03
 Coeff-Com: -0.925D-03 0.185D-02 0.988D-02 0.357D-02-0.124D-01-0.330D-01
 Coeff-Com: -0.198D-02 0.679D-01-0.137D-01-0.865D-01-0.858D-01 0.290D+00
 Coeff-Com:  0.862D+00
 Coeff:      0.316D-05-0.264D-04-0.886D-05 0.175D-05 0.120D-04-0.602D-03
 Coeff:     -0.925D-03 0.185D-02 0.988D-02 0.357D-02-0.124D-01-0.330D-01
 Coeff:     -0.198D-02 0.679D-01-0.137D-01-0.865D-01-0.858D-01 0.290D+00
 Coeff:      0.862D+00
 Gap=     0.217 Goal=   None    Shift=    0.000
 Gap=     0.076 Goal=   None    Shift=    0.000
 RMSDP=7.91D-06 MaxDP=5.45D-04 DE=-7.82D-07 OVMax= 1.87D-03

 Cycle  20  Pass 1  IDiag  1:
 RMSU=  8.55D-07    CP:  1.25D+00  3.28D-01  7.94D-01  2.31D-02  8.31D-01
                    CP:  1.33D+00  1.54D+00  3.00D+00  3.00D+00  3.00D+00
                    CP:  3.00D+00  3.00D+00  3.00D+00  3.00D+00  2.93D+00
                    CP:  2.24D+00  2.43D+00  1.56D+00  1.29D+00
 E= -434.828406840184     Delta-E=       -0.000000044102 Rises=F Damp=F
 DIIS: error= 2.35D-06 at cycle  20 NSaved=  20.
 NSaved=20 IEnMin=20 EnMin= -434.828406840184     IErMin=20 ErrMin= 2.35D-06
 ErrMax= 2.35D-06  0.00D+00 EMaxC= 1.00D-01 BMatC= 4.04D-09 BMatP= 1.49D-08
 IDIUse=1 WtCom= 1.00D+00 WtEn= 0.00D+00
 Coeff-Com:  0.129D-04-0.210D-04-0.419D-05 0.842D-05-0.287D-04-0.384D-03
 Coeff-Com: -0.682D-03 0.395D-03 0.443D-02 0.519D-02 0.123D-02-0.237D-01
 Coeff-Com: -0.969D-02 0.287D-01 0.261D-01-0.221D-01-0.834D-01-0.955D-02
 Coeff-Com:  0.347D+00 0.737D+00
 Coeff:      0.129D-04-0.210D-04-0.419D-05 0.842D-05-0.287D-04-0.384D-03
 Coeff:     -0.682D-03 0.395D-03 0.443D-02 0.519D-02 0.123D-02-0.237D-01
 Coeff:     -0.969D-02 0.287D-01 0.261D-01-0.221D-01-0.834D-01-0.955D-02
 Coeff:      0.347D+00 0.737D+00
 Gap=     0.217 Goal=   None    Shift=    0.000
 Gap=     0.076 Goal=   None    Shift=    0.000
 RMSDP=1.31D-06 MaxDP=1.86D-04 DE=-4.41D-08 OVMax= 9.12D-05

 Cycle  21  Pass 1  IDiag  1:
 Restarting incremental Fock formation.
 E= -434.828406841667     Delta-E=       -0.000000001483 Rises=F Damp=F
 DIIS: error= 1.40D-06 at cycle  21 NSaved=  20.
 NSaved=20 IEnMin=20 EnMin= -434.828406841667     IErMin=20 ErrMin= 1.40D-06
 ErrMax= 1.40D-06  0.00D+00 EMaxC= 1.00D-01 BMatC= 1.12D-09 BMatP= 4.04D-09
 IDIUse=1 WtCom= 1.00D+00 WtEn= 0.00D+00
 Coeff-Com:  0.116D-04-0.123D-04-0.684D-05-0.305D-04 0.248D-04 0.430D-04
 Coeff-Com: -0.210D-03-0.102D-02-0.370D-03 0.231D-02 0.172D-02 0.164D-03
 Coeff-Com: -0.902D-02 0.512D-02 0.116D-01 0.309D-02-0.420D-01-0.827D-01
 Coeff-Com:  0.172D+00 0.939D+00
 Coeff:      0.116D-04-0.123D-04-0.684D-05-0.305D-04 0.248D-04 0.430D-04
 Coeff:     -0.210D-03-0.102D-02-0.370D-03 0.231D-02 0.172D-02 0.164D-03
 Coeff:     -0.902D-02 0.512D-02 0.116D-01 0.309D-02-0.420D-01-0.827D-01
 Coeff:      0.172D+00 0.939D+00
 Gap=     0.217 Goal=   None    Shift=    0.000
 Gap=     0.076 Goal=   None    Shift=    0.000
 RMSDP=1.36D-06 MaxDP=1.50D-04 DE=-1.48D-09 OVMax= 1.89D-04

 Cycle  22  Pass 1  IDiag  1:
 RMSU=  1.24D-06    CP:  1.00D+00
 E= -434.828406842054     Delta-E=       -0.000000000387 Rises=F Damp=F
 DIIS: error= 4.40D-07 at cycle  22 NSaved=  20.
 NSaved=20 IEnMin=20 EnMin= -434.828406842054     IErMin=20 ErrMin= 4.40D-07
 ErrMax= 4.40D-07  0.00D+00 EMaxC= 1.00D-01 BMatC= 1.81D-10 BMatP= 1.12D-09
 IDIUse=1 WtCom= 1.00D+00 WtEn= 0.00D+00
 Coeff-Com: -0.790D-07 0.240D-05 0.503D-06 0.268D-04 0.673D-04-0.558D-05
 Coeff-Com: -0.370D-03-0.158D-03 0.117D-03 0.167D-02 0.624D-03-0.188D-02
 Coeff-Com: -0.777D-03 0.282D-02 0.391D-02-0.103D-01-0.394D-01-0.257D-01
 Coeff-Com:  0.153D+00 0.917D+00
 Coeff:     -0.790D-07 0.240D-05 0.503D-06 0.268D-04 0.673D-04-0.558D-05
 Coeff:     -0.370D-03-0.158D-03 0.117D-03 0.167D-02 0.624D-03-0.188D-02
 Coeff:     -0.777D-03 0.282D-02 0.391D-02-0.103D-01-0.394D-01-0.257D-01
 Coeff:      0.153D+00 0.917D+00
 Gap=     0.217 Goal=   None    Shift=    0.000
 Gap=     0.076 Goal=   None    Shift=    0.000
 RMSDP=7.26D-07 MaxDP=8.76D-05 DE=-3.87D-10 OVMax= 9.00D-05

 Cycle  23  Pass 1  IDiag  1:
 RMSU=  1.40D-07    CP:  1.00D+00  4.63D-01
 E= -434.828406842141     Delta-E=       -0.000000000087 Rises=F Damp=F
 DIIS: error= 4.83D-07 at cycle  23 NSaved=  20.
 NSaved=20 IEnMin=20 EnMin= -434.828406842141     IErMin=19 ErrMin= 4.40D-07
 ErrMax= 4.83D-07  0.00D+00 EMaxC= 1.00D-01 BMatC= 1.55D-10 BMatP= 1.81D-10
 IDIUse=1 WtCom= 1.00D+00 WtEn= 0.00D+00
 Coeff-Com: -0.669D-06-0.187D-05 0.140D-04 0.227D-04-0.283D-04-0.882D-04
 Coeff-Com: -0.211D-03-0.158D-03 0.893D-03 0.409D-03-0.697D-03-0.173D-02
 Coeff-Com:  0.675D-03 0.328D-02 0.542D-02-0.569D-02-0.333D-01-0.112D+00
 Coeff-Com:  0.344D+00 0.799D+00
 Coeff:     -0.669D-06-0.187D-05 0.140D-04 0.227D-04-0.283D-04-0.882D-04
 Coeff:     -0.211D-03-0.158D-03 0.893D-03 0.409D-03-0.697D-03-0.173D-02
 Coeff:      0.675D-03 0.328D-02 0.542D-02-0.569D-02-0.333D-01-0.112D+00
 Coeff:      0.344D+00 0.799D+00
 Gap=     0.217 Goal=   None    Shift=    0.000
 Gap=     0.076 Goal=   None    Shift=    0.000
 RMSDP=2.53D-07 MaxDP=3.26D-05 DE=-8.67D-11 OVMax= 9.60D-06

 Cycle  24  Pass 1  IDiag  1:
 RMSU=  8.20D-08    CP:  1.00D+00  6.31D-01  4.80D-01
 E= -434.828406842194     Delta-E=       -0.000000000053 Rises=F Damp=F
 DIIS: error= 5.22D-08 at cycle  24 NSaved=  20.
 NSaved=20 IEnMin=20 EnMin= -434.828406842194     IErMin=20 ErrMin= 5.22D-08
 ErrMax= 5.22D-08  0.00D+00 EMaxC= 1.00D-01 BMatC= 2.20D-12 BMatP= 1.55D-10
 IDIUse=1 WtCom= 1.00D+00 WtEn= 0.00D+00
 Coeff-Com: -0.260D-06-0.824D-05-0.702D-05 0.151D-04 0.110D-03 0.395D-04
 Coeff-Com: -0.108D-03-0.284D-03 0.366D-04 0.679D-03-0.196D-03-0.864D-03
 Coeff-Com: -0.112D-02 0.208D-02 0.748D-02-0.280D-02-0.731D-01-0.312D-01
 Coeff-Com:  0.148D+00 0.952D+00
 Coeff:     -0.260D-06-0.824D-05-0.702D-05 0.151D-04 0.110D-03 0.395D-04
 Coeff:     -0.108D-03-0.284D-03 0.366D-04 0.679D-03-0.196D-03-0.864D-03
 Coeff:     -0.112D-02 0.208D-02 0.748D-02-0.280D-02-0.731D-01-0.312D-01
 Coeff:      0.148D+00 0.952D+00
 Gap=     0.217 Goal=   None    Shift=    0.000
 Gap=     0.076 Goal=   None    Shift=    0.000
 RMSDP=4.18D-08 MaxDP=4.16D-06 DE=-5.31D-11 OVMax= 1.47D-06

 Cycle  25  Pass 1  IDiag  1:
 RMSU=  1.43D-08    CP:  1.00D+00  6.07D-01  5.92D-01  8.16D-01
 E= -434.828406842192     Delta-E=        0.000000000002 Rises=F Damp=F
 DIIS: error= 5.62D-08 at cycle  25 NSaved=  20.
 NSaved=20 IEnMin=19 EnMin= -434.828406842194     IErMin=19 ErrMin= 5.22D-08
 ErrMax= 5.62D-08  0.00D+00 EMaxC= 1.00D-01 BMatC= 2.05D-12 BMatP= 2.20D-12
 IDIUse=1 WtCom= 1.00D+00 WtEn= 0.00D+00
 Coeff-Com: -0.393D-05-0.385D-05 0.948D-05 0.448D-04 0.383D-05-0.609D-04
 Coeff-Com: -0.142D-03 0.399D-04 0.257D-03-0.421D-04-0.413D-03-0.479D-03
 Coeff-Com:  0.105D-02 0.374D-02 0.151D-02-0.203D-01-0.614D-01-0.619D-01
 Coeff-Com:  0.365D+00 0.773D+00
 Coeff:     -0.393D-05-0.385D-05 0.948D-05 0.448D-04 0.383D-05-0.609D-04
 Coeff:     -0.142D-03 0.399D-04 0.257D-03-0.421D-04-0.413D-03-0.479D-03
 Coeff:      0.105D-02 0.374D-02 0.151D-02-0.203D-01-0.614D-01-0.619D-01
 Coeff:      0.365D+00 0.773D+00
 Gap=     0.217 Goal=   None    Shift=    0.000
 Gap=     0.076 Goal=   None    Shift=    0.000
 RMSDP=3.41D-08 MaxDP=4.32D-06 DE= 1.71D-12 OVMax= 1.99D-06

 Cycle  26  Pass 1  IDiag  1:
 RMSU=  3.54D-09    CP:  1.00D+00  6.30D-01  5.28D-01  9.34D-01  1.14D+00
 E= -434.828406842193     Delta-E=       -0.000000000001 Rises=F Damp=F
 DIIS: error= 1.39D-08 at cycle  26 NSaved=  20.
 NSaved=20 IEnMin=18 EnMin= -434.828406842194     IErMin=20 ErrMin= 1.39D-08
 ErrMax= 1.39D-08  0.00D+00 EMaxC= 1.00D-01 BMatC= 1.65D-13 BMatP= 2.05D-12
 IDIUse=1 WtCom= 1.00D+00 WtEn= 0.00D+00
 Coeff-Com: -0.892D-06-0.130D-05-0.711D-05 0.435D-05 0.260D-04-0.952D-05
 Coeff-Com: -0.143D-04-0.525D-04 0.113D-03 0.536D-04-0.846D-04-0.421D-03
 Coeff-Com: -0.423D-03 0.199D-02 0.117D-01-0.178D-01-0.675D-01-0.356D-01
 Coeff-Com:  0.376D+00 0.732D+00
 Coeff:     -0.892D-06-0.130D-05-0.711D-05 0.435D-05 0.260D-04-0.952D-05
 Coeff:     -0.143D-04-0.525D-04 0.113D-03 0.536D-04-0.846D-04-0.421D-03
 Coeff:     -0.423D-03 0.199D-02 0.117D-01-0.178D-01-0.675D-01-0.356D-01
 Coeff:      0.376D+00 0.732D+00
 Gap=     0.217 Goal=   None    Shift=    0.000
 Gap=     0.076 Goal=   None    Shift=    0.000
 RMSDP=1.16D-08 MaxDP=1.16D-06 DE=-1.02D-12 OVMax= 1.72D-06

 Cycle  27  Pass 1  IDiag  1:
 RMSU=  1.12D-09    CP:  1.00D+00  6.22D-01  5.33D-01  9.47D-01  1.20D+00
                    CP:  9.23D-01
 E= -434.828406842191     Delta-E=        0.000000000002 Rises=F Damp=F
 DIIS: error= 2.06D-09 at cycle  27 NSaved=  20.
 NSaved=20 IEnMin=17 EnMin= -434.828406842194     IErMin=20 ErrMin= 2.06D-09
 ErrMax= 2.06D-09  0.00D+00 EMaxC= 1.00D-01 BMatC= 3.21D-15 BMatP= 1.65D-13
 IDIUse=1 WtCom= 1.00D+00 WtEn= 0.00D+00
 Coeff-Com:  0.304D-06-0.201D-05 0.382D-06 0.420D-05 0.798D-05 0.477D-06
 Coeff-Com: -0.239D-04 0.215D-04 0.330D-04-0.106D-05-0.185D-03-0.377D-03
 Coeff-Com:  0.401D-03 0.435D-02 0.183D-02-0.107D-01-0.330D-01-0.292D-02
 Coeff-Com:  0.164D+00 0.877D+00
 Coeff:      0.304D-06-0.201D-05 0.382D-06 0.420D-05 0.798D-05 0.477D-06
 Coeff:     -0.239D-04 0.215D-04 0.330D-04-0.106D-05-0.185D-03-0.377D-03
 Coeff:      0.401D-03 0.435D-02 0.183D-02-0.107D-01-0.330D-01-0.292D-02
 Coeff:      0.164D+00 0.877D+00
 Gap=     0.217 Goal=   None    Shift=    0.000
 Gap=     0.076 Goal=   None    Shift=    0.000
 RMSDP=1.20D-09 MaxDP=6.98D-08 DE= 2.27D-12 OVMax= 6.12D-08

 SCF Done:  E(UB3LYP) =  -434.828406842     A.U. after   27 cycles
            NFock= 27  Conv=0.12D-08     -V/T= 2.0039
 <Sx>= 0.0000 <Sy>= 0.0000 <Sz>= 0.5000 <S**2>= 0.7563 S= 0.5031
 <L.S>=  0.00000000000    
 KE= 4.331555844335D+02 PE=-1.878438719513D+03 EE= 5.785620057451D+02
 Annihilation of the first spin contaminant:
 S**2 before annihilation     0.7563,   after     0.7500
 Leave Link  502 at Sun Mar 19 23:53:28 2023, MaxMem=  8053063680 cpu:             887.8 elap:              27.8
 (Enter /public3/home/scg5914/software-scg5914/g16/l601.exe)
 Copying SCF densities to generalized density rwf, IOpCl= 1 IROHF=0.

 **********************************************************************

            Population analysis using the SCF Density.

 **********************************************************************

 Orbital symmetries:
 Alpha Orbitals:
       Occupied  (A) (A) (A) (A) (A) (A) (A) (A) (A) (A) (A) (A)
                 (A) (A) (A) (A) (A) (A) (A) (A) (A) (A) (A) (A)
                 (A) (A) (A) (A) (A) (A) (A) (A) (A) (A)
       Virtual   (A) (A) (A) (A) (A) (A) (A) (A) (A) (A) (A) (A)
                 (A) (A) (A) (A) (A) (A) (A) (A) (A) (A) (A) (A)
                 (A) (A) (A) (A) (A) (A) (A) (A) (A) (A) (A) (A)
                 (A) (A) (A) (A) (A) (A) (A) (A) (A) (A) (A) (A)
                 (A) (A) (A) (A) (A) (A) (A) (A) (A) (A) (A) (A)
                 (A) (A) (A) (A) (A) (A) (A) (A) (A) (A) (A) (A)
                 (A) (A) (A) (A) (A) (A) (A) (A) (A) (A) (A) (A)
                 (A) (A) (A) (A) (A) (A) (A) (A) (A) (A) (A) (A)
                 (A) (A) (A) (A) (A) (A) (A) (A) (A) (A) (A) (A)
                 (A) (A) (A) (A) (A) (A) (A) (A) (A) (A) (A) (A)
                 (A) (A) (A) (A) (A) (A) (A) (A) (A) (A) (A) (A)
                 (A) (A) (A) (A) (A) (A) (A) (A) (A) (A) (A) (A)
                 (A) (A) (A) (A) (A) (A) (A) (A) (A) (A) (A) (A)
                 (A) (A) (A) (A) (A) (A) (A) (A) (A) (A) (A) (A)
                 (A) (A) (A) (A) (A) (A) (A) (A) (A) (A) (A) (A)
                 (A) (A) (A) (A) (A) (A) (A) (A) (A) (A) (A) (A)
                 (A) (A) (A) (A) (A) (A) (A) (A) (A) (A) (A) (A)
                 (A) (A) (A) (A) (A) (A) (A) (A)
 Beta  Orbitals:
       Occupied  (A) (A) (A) (A) (A) (A) (A) (A) (A) (A) (A) (A)
                 (A) (A) (A) (A) (A) (A) (A) (A) (A) (A) (A) (A)
                 (A) (A) (A) (A) (A) (A) (A) (A) (A)
       Virtual   (A) (A) (A) (A) (A) (A) (A) (A) (A) (A) (A) (A)
                 (A) (A) (A) (A) (A) (A) (A) (A) (A) (A) (A) (A)
                 (A) (A) (A) (A) (A) (A) (A) (A) (A) (A) (A) (A)
                 (A) (A) (A) (A) (A) (A) (A) (A) (A) (A) (A) (A)
                 (A) (A) (A) (A) (A) (A) (A) (A) (A) (A) (A) (A)
                 (A) (A) (A) (A) (A) (A) (A) (A) (A) (A) (A) (A)
                 (A) (A) (A) (A) (A) (A) (A) (A) (A) (A) (A) (A)
                 (A) (A) (A) (A) (A) (A) (A) (A) (A) (A) (A) (A)
                 (A) (A) (A) (A) (A) (A) (A) (A) (A) (A) (A) (A)
                 (A) (A) (A) (A) (A) (A) (A) (A) (A) (A) (A) (A)
                 (A) (A) (A) (A) (A) (A) (A) (A) (A) (A) (A) (A)
                 (A) (A) (A) (A) (A) (A) (A) (A) (A) (A) (A) (A)
                 (A) (A) (A) (A) (A) (A) (A) (A) (A) (A) (A) (A)
                 (A) (A) (A) (A) (A) (A) (A) (A) (A) (A) (A) (A)
                 (A) (A) (A) (A) (A) (A) (A) (A) (A) (A) (A) (A)
                 (A) (A) (A) (A) (A) (A) (A) (A) (A) (A) (A) (A)
                 (A) (A) (A) (A) (A) (A) (A) (A) (A) (A) (A) (A)
                 (A) (A) (A) (A) (A) (A) (A) (A) (A)
 The electronic state is 2-A.
 Alpha  occ. eigenvalues --  -19.20291 -14.34921 -14.34307 -14.33019 -10.28203
 Alpha  occ. eigenvalues --  -10.24782 -10.21956 -10.20084 -10.17988  -1.14453
 Alpha  occ. eigenvalues --   -0.96205  -0.93839  -0.83668  -0.79959  -0.75413
 Alpha  occ. eigenvalues --   -0.64933  -0.62614  -0.59101  -0.55018  -0.51850
 Alpha  occ. eigenvalues --   -0.49890  -0.47720  -0.46131  -0.45231  -0.42473
 Alpha  occ. eigenvalues --   -0.40031  -0.39252  -0.37821  -0.35997  -0.33244
 Alpha  occ. eigenvalues --   -0.31989  -0.29131  -0.24957  -0.22315
 Alpha virt. eigenvalues --   -0.00568   0.00145   0.00710   0.01745   0.02645
 Alpha virt. eigenvalues --    0.03485   0.04622   0.05372   0.06209   0.06747
 Alpha virt. eigenvalues --    0.06938   0.07488   0.08069   0.09129   0.09547
 Alpha virt. eigenvalues --    0.10950   0.11306   0.11747   0.12363   0.12789
 Alpha virt. eigenvalues --    0.13925   0.15207   0.15648   0.16418   0.17139
 Alpha virt. eigenvalues --    0.17746   0.18068   0.19014   0.19253   0.19978
 Alpha virt. eigenvalues --    0.20364   0.21164   0.21876   0.22209   0.22451
 Alpha virt. eigenvalues --    0.23422   0.23829   0.24291   0.24671   0.25805
 Alpha virt. eigenvalues --    0.26442   0.27342   0.28201   0.29473   0.29675
 Alpha virt. eigenvalues --    0.30869   0.32547   0.33313   0.33965   0.35843
 Alpha virt. eigenvalues --    0.38853   0.40177   0.41388   0.43374   0.44615
 Alpha virt. eigenvalues --    0.45651   0.50301   0.50708   0.52178   0.54466
 Alpha virt. eigenvalues --    0.55341   0.56640   0.58278   0.58416   0.60369
 Alpha virt. eigenvalues --    0.60895   0.61095   0.62923   0.63207   0.64345
 Alpha virt. eigenvalues --    0.66930   0.67545   0.69282   0.70433   0.71318
 Alpha virt. eigenvalues --    0.73613   0.76755   0.78032   0.79329   0.81348
 Alpha virt. eigenvalues --    0.83410   0.84214   0.86377   0.87054   0.87885
 Alpha virt. eigenvalues --    0.88976   0.92444   0.94215   0.95065   0.96499
 Alpha virt. eigenvalues --    0.97326   1.00749   1.05216   1.07656   1.12358
 Alpha virt. eigenvalues --    1.15679   1.16644   1.19838   1.22943   1.25053
 Alpha virt. eigenvalues --    1.28803   1.30058   1.30915   1.33219   1.38287
 Alpha virt. eigenvalues --    1.41375   1.43643   1.44761   1.50859   1.53149
 Alpha virt. eigenvalues --    1.53806   1.55681   1.57666   1.58305   1.58930
 Alpha virt. eigenvalues --    1.62178   1.62634   1.63904   1.66479   1.69296
 Alpha virt. eigenvalues --    1.71940   1.76170   1.77208   1.78510   1.80202
 Alpha virt. eigenvalues --    1.81614   1.82169   1.82847   1.87284   1.88381
 Alpha virt. eigenvalues --    1.92315   1.94343   1.96027   2.01455   2.03090
 Alpha virt. eigenvalues --    2.05565   2.08014   2.10497   2.13234   2.16262
 Alpha virt. eigenvalues --    2.18211   2.20779   2.25617   2.29306   2.32679
 Alpha virt. eigenvalues --    2.35017   2.38256   2.43466   2.44964   2.49911
 Alpha virt. eigenvalues --    2.52095   2.54583   2.54724   2.57579   2.60361
 Alpha virt. eigenvalues --    2.61537   2.62733   2.63277   2.64277   2.66599
 Alpha virt. eigenvalues --    2.70567   2.74064   2.75974   2.77114   2.79571
 Alpha virt. eigenvalues --    2.83309   2.84903   2.85553   2.91495   2.92429
 Alpha virt. eigenvalues --    2.94701   2.97774   3.02250   3.05112   3.08959
 Alpha virt. eigenvalues --    3.13396   3.18493   3.20416   3.21367   3.33351
 Alpha virt. eigenvalues --    3.34420   3.46343   3.49577   3.58755   3.69453
 Alpha virt. eigenvalues --    3.77658   3.78367   3.79833   3.87975   3.89039
 Alpha virt. eigenvalues --    3.99486   4.01868   4.16211   4.19589   4.33423
 Alpha virt. eigenvalues --    4.65069   4.75764   4.79941   4.96622   4.98906
 Alpha virt. eigenvalues --    5.01218   5.44444   5.81975  23.59506  23.83770
 Alpha virt. eigenvalues --   23.88995  23.94523  24.09505  35.49790  35.61854
 Alpha virt. eigenvalues --   35.67780  49.88796
  Beta  occ. eigenvalues --  -19.20153 -14.34933 -14.34169 -14.33026 -10.28178
  Beta  occ. eigenvalues --  -10.24744 -10.21955 -10.18509 -10.17988  -1.14016
  Beta  occ. eigenvalues --   -0.96187  -0.93745  -0.83384  -0.79074  -0.74572
  Beta  occ. eigenvalues --   -0.64874  -0.62081  -0.58832  -0.54591  -0.51614
  Beta  occ. eigenvalues --   -0.49748  -0.47521  -0.46060  -0.44697  -0.41605
  Beta  occ. eigenvalues --   -0.39856  -0.39109  -0.37710  -0.35987  -0.31812
  Beta  occ. eigenvalues --   -0.31203  -0.24415  -0.21595
  Beta virt. eigenvalues --   -0.14032  -0.00512   0.00255   0.00880   0.01853
  Beta virt. eigenvalues --    0.02648   0.03510   0.04873   0.05729   0.06352
  Beta virt. eigenvalues --    0.06895   0.06988   0.07654   0.08336   0.09190
  Beta virt. eigenvalues --    0.09821   0.11140   0.11535   0.12133   0.12608
  Beta virt. eigenvalues --    0.12947   0.13941   0.15205   0.15699   0.16477
  Beta virt. eigenvalues --    0.17246   0.17978   0.18086   0.19062   0.19630
  Beta virt. eigenvalues --    0.19984   0.20465   0.21209   0.21966   0.22313
  Beta virt. eigenvalues --    0.22579   0.23673   0.23896   0.24407   0.24791
  Beta virt. eigenvalues --    0.25873   0.26540   0.27627   0.28267   0.29614
  Beta virt. eigenvalues --    0.30130   0.31070   0.32627   0.33669   0.34106
  Beta virt. eigenvalues --    0.36107   0.38945   0.40441   0.41658   0.44302
  Beta virt. eigenvalues --    0.45084   0.46281   0.50334   0.51606   0.52202
  Beta virt. eigenvalues --    0.54781   0.55506   0.57156   0.58462   0.59172
  Beta virt. eigenvalues --    0.60912   0.61165   0.61363   0.63253   0.63618
  Beta virt. eigenvalues --    0.64776   0.67007   0.68756   0.69397   0.70506
  Beta virt. eigenvalues --    0.71867   0.74045   0.77208   0.78318   0.79399
  Beta virt. eigenvalues --    0.81527   0.83720   0.84495   0.86760   0.87653
  Beta virt. eigenvalues --    0.88255   0.89066   0.92609   0.94438   0.95455
  Beta virt. eigenvalues --    0.96577   0.98258   1.01129   1.05979   1.08090
  Beta virt. eigenvalues --    1.12512   1.16085   1.16948   1.20034   1.23168
  Beta virt. eigenvalues --    1.25826   1.28963   1.30449   1.31208   1.33929
  Beta virt. eigenvalues --    1.38568   1.41452   1.44316   1.44781   1.51330
  Beta virt. eigenvalues --    1.53267   1.54259   1.55810   1.57856   1.58386
  Beta virt. eigenvalues --    1.58985   1.62319   1.62901   1.64143   1.66800
  Beta virt. eigenvalues --    1.70126   1.72317   1.76842   1.78262   1.79828
  Beta virt. eigenvalues --    1.80438   1.81754   1.82663   1.83128   1.87783
  Beta virt. eigenvalues --    1.89222   1.92761   1.94806   1.96470   2.01647
  Beta virt. eigenvalues --    2.03785   2.07270   2.08074   2.10831   2.13775
  Beta virt. eigenvalues --    2.16680   2.18351   2.22194   2.25985   2.29527
  Beta virt. eigenvalues --    2.33012   2.35352   2.38283   2.43577   2.45063
  Beta virt. eigenvalues --    2.50062   2.52149   2.54806   2.55023   2.58161
  Beta virt. eigenvalues --    2.60517   2.61895   2.62757   2.63526   2.64360
  Beta virt. eigenvalues --    2.67272   2.70885   2.74244   2.76226   2.77463
  Beta virt. eigenvalues --    2.79882   2.83645   2.85069   2.86393   2.91656
  Beta virt. eigenvalues --    2.92686   2.95357   2.98139   3.02481   3.05488
  Beta virt. eigenvalues --    3.09105   3.14294   3.18607   3.20486   3.21703
  Beta virt. eigenvalues --    3.34642   3.34964   3.46612   3.50020   3.59069
  Beta virt. eigenvalues --    3.70725   3.77674   3.78405   3.79871   3.88228
  Beta virt. eigenvalues --    3.89214   3.99541   4.01908   4.16816   4.19587
  Beta virt. eigenvalues --    4.33749   4.65397   4.75762   4.79959   4.96719
  Beta virt. eigenvalues --    4.98975   5.01347   5.44848   5.82175  23.60298
  Beta virt. eigenvalues --   23.83778  23.89064  23.94525  24.10561  35.49891
  Beta virt. eigenvalues --   35.61868  35.67788  49.88936
          Condensed to atoms (all electrons):
               1          2          3          4          5          6
     1  C    5.364473   0.080906  -0.142815   0.003917  -0.030663   0.009556
     2  C    0.080906   5.358501   0.303722   0.169078  -0.423278  -0.007068
     3  N   -0.142815   0.303722   6.855426   0.353632  -0.387954   0.057792
     4  C    0.003917   0.169078   0.353632   8.822480  -4.221418   0.599380
     5  C   -0.030663  -0.423278  -0.387954  -4.221418  12.110980  -1.023211
     6  C    0.009556  -0.007068   0.057792   0.599380  -1.023211   6.307545
     7  N    0.000625   0.011985  -0.003323   0.294482  -0.454224   0.228412
     8  N   -0.009731   0.002064   0.000628  -0.026759   0.170282  -0.041023
     9  O    0.013955  -0.051527  -0.133498   0.093879   0.195926  -0.052878
    10  H    0.403753  -0.042834   0.015748   0.001569   0.002148  -0.000180
    11  H    0.418171  -0.025986  -0.010381  -0.005749  -0.009954  -0.000032
    12  H    0.403486  -0.036171  -0.000811   0.000964   0.008193  -0.000230
    13  H   -0.083811   0.449014  -0.097781   0.011150   0.027258  -0.004741
    14  H   -0.019806   0.426289  -0.026224  -0.020387  -0.005832   0.002464
    15  H    0.018363  -0.054982   0.374235  -0.027067  -0.012977   0.014234
    16  H    0.000006   0.000131  -0.000248   0.015261  -0.032425  -0.000758
    17  H   -0.000010  -0.000481   0.000186  -0.024155   0.055098  -0.043417
               7          8          9         10         11         12
     1  C    0.000625  -0.009731   0.013955   0.403753   0.418171   0.403486
     2  C    0.011985   0.002064  -0.051527  -0.042834  -0.025986  -0.036171
     3  N   -0.003323   0.000628  -0.133498   0.015748  -0.010381  -0.000811
     4  C    0.294482  -0.026759   0.093879   0.001569  -0.005749   0.000964
     5  C   -0.454224   0.170282   0.195926   0.002148  -0.009954   0.008193
     6  C    0.228412  -0.041023  -0.052878  -0.000180  -0.000032  -0.000230
     7  N    6.739090  -0.201256   0.015900  -0.000000   0.000003  -0.000007
     8  N   -0.201256   7.438000   0.005715  -0.000040  -0.000086  -0.000065
     9  O    0.015900   0.005715   7.839456   0.000068  -0.000154  -0.000382
    10  H   -0.000000  -0.000040   0.000068   0.525614  -0.026287  -0.022207
    11  H    0.000003  -0.000086  -0.000154  -0.026287   0.563306  -0.034663
    12  H   -0.000007  -0.000065  -0.000382  -0.022207  -0.034663   0.533091
    13  H   -0.000092  -0.000503   0.002426  -0.001352  -0.010086   0.008544
    14  H   -0.000025  -0.008237   0.003132  -0.005314   0.007404  -0.007807
    15  H   -0.000238  -0.002118   0.005545  -0.000602   0.007427  -0.001530
    16  H    0.366783   0.008530  -0.000352   0.000000  -0.000000   0.000000
    17  H    0.369551   0.010682  -0.000309  -0.000000  -0.000000   0.000000
              13         14         15         16         17
     1  C   -0.083811  -0.019806   0.018363   0.000006  -0.000010
     2  C    0.449014   0.426289  -0.054982   0.000131  -0.000481
     3  N   -0.097781  -0.026224   0.374235  -0.000248   0.000186
     4  C    0.011150  -0.020387  -0.027067   0.015261  -0.024155
     5  C    0.027258  -0.005832  -0.012977  -0.032425   0.055098
     6  C   -0.004741   0.002464   0.014234  -0.000758  -0.043417
     7  N   -0.000092  -0.000025  -0.000238   0.366783   0.369551
     8  N   -0.000503  -0.008237  -0.002118   0.008530   0.010682
     9  O    0.002426   0.003132   0.005545  -0.000352  -0.000309
    10  H   -0.001352  -0.005314  -0.000602   0.000000  -0.000000
    11  H   -0.010086   0.007404   0.007427  -0.000000  -0.000000
    12  H    0.008544  -0.007807  -0.001530   0.000000   0.000000
    13  H    0.599653  -0.044489  -0.002687   0.000004  -0.000001
    14  H   -0.044489   0.528132   0.005518  -0.000002   0.000002
    15  H   -0.002687   0.005518   0.441993  -0.000004   0.000004
    16  H    0.000004  -0.000002  -0.000004   0.450818  -0.041194
    17  H   -0.000001   0.000002   0.000004  -0.041194   0.428859
          Atomic-Atomic Spin Densities.
               1          2          3          4          5          6
     1  C   -0.007868   0.004448  -0.000003  -0.000946   0.004187  -0.000552
     2  C    0.004448   0.006734  -0.004007  -0.003205  -0.011880   0.002474
     3  N   -0.000003  -0.004007  -0.024367  -0.008449   0.042535  -0.013304
     4  C   -0.000946  -0.003205  -0.008449  -0.273543   0.448493  -0.108646
     5  C    0.004187  -0.011880   0.042535   0.448493   0.211495   0.202122
     6  C   -0.000552   0.002474  -0.013304  -0.108646   0.202122  -0.088548
     7  N   -0.000041  -0.000139  -0.000431  -0.032905   0.062929  -0.015064
     8  N    0.000427  -0.000701   0.001919   0.044376  -0.080654   0.049100
     9  O    0.000794   0.004148   0.003744   0.029735  -0.107759   0.024197
    10  H    0.000457  -0.000283   0.000099  -0.000033  -0.000147   0.000020
    11  H   -0.000489   0.000557  -0.000240  -0.000008   0.000085  -0.000003
    12  H    0.000585  -0.000391   0.000175   0.000177  -0.000539   0.000082
    13  H    0.003257  -0.003189   0.003840   0.000625  -0.003330   0.000587
    14  H   -0.001719   0.001437  -0.000512  -0.000451   0.000885  -0.000124
    15  H   -0.000322   0.001135  -0.001866   0.002010  -0.001444   0.000817
    16  H    0.000003   0.000013   0.000021   0.002816  -0.005764   0.002748
    17  H   -0.000001   0.000005   0.000004   0.002261  -0.004861   0.002412
               7          8          9         10         11         12
     1  C   -0.000041   0.000427   0.000794   0.000457  -0.000489   0.000585
     2  C   -0.000139  -0.000701   0.004148  -0.000283   0.000557  -0.000391
     3  N   -0.000431   0.001919   0.003744   0.000099  -0.000240   0.000175
     4  C   -0.032905   0.044376   0.029735  -0.000033  -0.000008   0.000177
     5  C    0.062929  -0.080654  -0.107759  -0.000147   0.000085  -0.000539
     6  C   -0.015064   0.049100   0.024197   0.000020  -0.000003   0.000082
     7  N   -0.029562   0.013518   0.001491   0.000000  -0.000000   0.000000
     8  N    0.013518   0.030114  -0.001569  -0.000003   0.000000  -0.000008
     9  O    0.001491  -0.001569   0.073226  -0.000011   0.000014  -0.000020
    10  H    0.000000  -0.000003  -0.000011  -0.000107   0.000034  -0.000032
    11  H   -0.000000   0.000000   0.000014   0.000034   0.000037   0.000001
    12  H    0.000000  -0.000008  -0.000020  -0.000032   0.000001  -0.000066
    13  H    0.000018  -0.000106  -0.000343  -0.000105   0.000010  -0.000052
    14  H   -0.000004   0.000082   0.000366   0.000045  -0.000008   0.000016
    15  H    0.000002  -0.000067   0.000777   0.000005   0.000011   0.000003
    16  H    0.001138  -0.000441   0.000033  -0.000000   0.000000  -0.000000
    17  H    0.003236  -0.002518  -0.000160  -0.000000   0.000000  -0.000000
              13         14         15         16         17
     1  C    0.003257  -0.001719  -0.000322   0.000003  -0.000001
     2  C   -0.003189   0.001437   0.001135   0.000013   0.000005
     3  N    0.003840  -0.000512  -0.001866   0.000021   0.000004
     4  C    0.000625  -0.000451   0.002010   0.002816   0.002261
     5  C   -0.003330   0.000885  -0.001444  -0.005764  -0.004861
     6  C    0.000587  -0.000124   0.000817   0.002748   0.002412
     7  N    0.000018  -0.000004   0.000002   0.001138   0.003236
     8  N   -0.000106   0.000082  -0.000067  -0.000441  -0.002518
     9  O   -0.000343   0.000366   0.000777   0.000033  -0.000160
    10  H   -0.000105   0.000045   0.000005  -0.000000  -0.000000
    11  H    0.000010  -0.000008   0.000011   0.000000   0.000000
    12  H   -0.000052   0.000016   0.000003  -0.000000  -0.000000
    13  H   -0.002218   0.000384  -0.000075  -0.000000  -0.000000
    14  H    0.000384  -0.000641  -0.000008   0.000000  -0.000000
    15  H   -0.000075  -0.000008  -0.000075   0.000001  -0.000000
    16  H   -0.000000   0.000000   0.000001  -0.000492  -0.000066
    17  H   -0.000000  -0.000000  -0.000000  -0.000066  -0.001980
 Mulliken charges and spin densities:
               1          2
     1  C   -0.430374   0.002218
     2  C   -0.159364  -0.002844
     3  N   -0.158333  -0.000842
     4  C   -0.040259   0.102307
     5  C    0.032050   0.756355
     6  C   -0.045845   0.058318
     7  N   -0.367666   0.004189
     8  N   -0.346082   0.053470
     9  O    0.063098   0.028663
    10  H    0.149916  -0.000061
    11  H    0.127067   0.000001
    12  H    0.149596  -0.000069
    13  H    0.147495  -0.000698
    14  H    0.165183  -0.000251
    15  H    0.234883   0.000904
    16  H    0.233451   0.000009
    17  H    0.245185  -0.001670
 Sum of Mulliken charges =  -0.00000   1.00000
 Mulliken charges and spin densities with hydrogens summed into heavy atoms:
               1          2
     1  C   -0.003795   0.002090
     2  C    0.153313  -0.003793
     3  N    0.076550   0.000062
     4  C   -0.040259   0.102307
     5  C    0.032050   0.756355
     6  C   -0.045845   0.058318
     7  N    0.110970   0.002528
     8  N   -0.346082   0.053470
     9  O    0.063098   0.028663
 Electronic spatial extent (au):  <R**2>=           1577.2710
 Charge=             -0.0000 electrons
 Dipole moment (field-independent basis, Debye):
    X=              1.7964    Y=             -2.2081    Z=              1.6360  Tot=              3.2832
 Quadrupole moment (field-independent basis, Debye-Ang):
   XX=            -40.7149   YY=            -55.5440   ZZ=            -56.2835
   XY=              2.1259   XZ=             -3.4408   YZ=             -1.6788
 Traceless Quadrupole moment (field-independent basis, Debye-Ang):
   XX=             10.1326   YY=             -4.6966   ZZ=             -5.4360
   XY=              2.1259   XZ=             -3.4408   YZ=             -1.6788
 Octapole moment (field-independent basis, Debye-Ang**2):
  XXX=            -27.8044  YYY=             -5.7698  ZZZ=              0.6187  XYY=              6.7008
  XXY=             -1.5284  XXZ=             21.3426  XZZ=              3.6174  YZZ=              2.8716
  YYZ=              2.0948  XYZ=              2.5216
 Hexadecapole moment (field-independent basis, Debye-Ang**3):
 XXXX=          -1587.8738 YYYY=           -235.5074 ZZZZ=            -79.8959 XXXY=              8.2596
 XXXZ=            -74.5186 YYYX=              6.4456 YYYZ=             -4.6405 ZZZX=             -4.1834
 ZZZY=             -0.8902 XXYY=           -324.6426 XXZZ=           -331.2466 YYZZ=            -55.0153
 XXYZ=            -19.6763 YYXZ=             -2.8050 ZZXY=             -0.8323
 N-N= 4.318927224926D+02 E-N=-1.878438719508D+03  KE= 4.331555844335D+02
                          Isotropic Fermi Contact Couplings
        Atom                 a.u.       MegaHertz       Gauss      10(-4) cm-1
     1  C(13)             -0.00022      -0.24505      -0.08744      -0.08174
     2  C(13)              0.00027       0.30209       0.10779       0.10077
     3  N(14)              0.00183       0.59203       0.21125       0.19748
     4  C(13)              0.05465      61.43864      21.92284      20.49373
     5  C(13)              0.46624     524.14003     187.02620     174.83430
     6  C(13)              0.01317      14.80923       5.28430       4.93983
     7  N(14)             -0.00246      -0.79610      -0.28407      -0.26555
     8  N(14)             -0.00401      -1.29570      -0.46234      -0.43220
     9  O(17)              0.02227     -13.49770      -4.81631      -4.50235
    10  H(1)              -0.00001      -0.05136      -0.01832      -0.01713
    11  H(1)               0.00000       0.00420       0.00150       0.00140
    12  H(1)               0.00000       0.01556       0.00555       0.00519
    13  H(1)              -0.00012      -0.54292      -0.19373      -0.18110
    14  H(1)              -0.00006      -0.26305      -0.09386      -0.08774
    15  H(1)              -0.00017      -0.75719      -0.27019      -0.25257
    16  H(1)              -0.00019      -0.83495      -0.29793      -0.27851
    17  H(1)              -0.00042      -1.88497      -0.67260      -0.62876
 --------------------------------------------------------
       Center         ----  Spin Dipole Couplings  ----
                      3XX-RR        3YY-RR        3ZZ-RR
 --------------------------------------------------------
     1   Atom        0.001812     -0.000746     -0.001066
     2   Atom        0.003444     -0.001922     -0.001521
     3   Atom        0.016175      0.007607     -0.023782
     4   Atom        0.090288      0.000948     -0.091236
     5   Atom       -0.487778      0.865146     -0.377368
     6   Atom        0.026284      0.048467     -0.074750
     7   Atom        0.013523      0.000933     -0.014456
     8   Atom       -0.100718      0.160193     -0.059475
     9   Atom       -0.034747      0.165268     -0.130520
    10   Atom        0.001098     -0.000437     -0.000662
    11   Atom        0.001887     -0.000914     -0.000972
    12   Atom        0.001652     -0.000792     -0.000860
    13   Atom        0.002035     -0.000724     -0.001312
    14   Atom        0.002249     -0.000169     -0.002080
    15   Atom        0.013548     -0.007312     -0.006236
    16   Atom        0.011792     -0.005813     -0.005979
    17   Atom        0.004684     -0.001045     -0.003639
 --------------------------------------------------------
                        XY            XZ            YZ
 --------------------------------------------------------
     1   Atom        0.000712     -0.000129      0.000019
     2   Atom        0.001490      0.000940      0.000183
     3   Atom        0.008322      0.011487      0.005886
     4   Atom        0.052552     -0.029086     -0.015733
     5   Atom        0.080034      0.007211      0.127555
     6   Atom       -0.071648      0.005589     -0.013504
     7   Atom       -0.010068     -0.003473     -0.002072
     8   Atom       -0.031992      0.008856     -0.071651
     9   Atom        0.138829     -0.020866     -0.036092
    10   Atom        0.000528      0.000035      0.000007
    11   Atom        0.000204      0.000237      0.000023
    12   Atom        0.000474     -0.000595     -0.000132
    13   Atom        0.001715      0.001449      0.000582
    14   Atom        0.002271     -0.000445     -0.000271
    15   Atom        0.000244      0.001679     -0.000483
    16   Atom       -0.002105     -0.003503      0.000590
    17   Atom       -0.003367     -0.000435      0.000011
 --------------------------------------------------------


 ---------------------------------------------------------------------------------
              Anisotropic Spin Dipole Couplings in Principal Axis System
 ---------------------------------------------------------------------------------

       Atom             a.u.   MegaHertz   Gauss  10(-4) cm-1        Axes

              Baa    -0.0011    -0.146    -0.052    -0.049  0.1136 -0.2906  0.9501
     1 C(13)  Bbb    -0.0009    -0.123    -0.044    -0.041 -0.2267  0.9235  0.3095
              Bcc     0.0020     0.269     0.096     0.090  0.9673  0.2506 -0.0390
 
              Baa    -0.0023    -0.311    -0.111    -0.104 -0.2634  0.9604  0.0904
     2 C(13)  Bbb    -0.0017    -0.226    -0.081    -0.075 -0.1418 -0.1312  0.9812
              Bcc     0.0040     0.536     0.191     0.179  0.9542  0.2456  0.1708
 
              Baa    -0.0272    -1.050    -0.375    -0.350 -0.2351 -0.1070  0.9661
     3 N(14)  Bbb     0.0026     0.099     0.035     0.033 -0.5045  0.8630 -0.0272
              Bcc     0.0247     0.952     0.340     0.317  0.8308  0.4937  0.2569
 
              Baa    -0.0965   -12.943    -4.619    -4.317  0.1284  0.0902  0.9876
[...]
     5. BD (   1) C   2 - N   3          0.99376    -0.76360  237(v),86(v),235(g),229(v)
                                                    35(v),239(v)
     6. BD (   1) C   2 - H  13          0.98794    -0.52173  231(v),69(v)
     7. BD (   1) C   2 - H  14          0.98877    -0.52396  236(v),230(v)
     8. BD (   1) N   3 - C   4          0.99417    -0.87800  237(g),246(v),232(g),228(v)
                                                    52(v)
     9. BD (   1) N   3 - H  15          0.99102    -0.67659  239(v),234(v),89(v),52(v)
                                                    238(v),86(v)
    10. BD (   1) C   4 - C   5          0.98541    -0.71145  241(v),238(g),232(v),235(g)
                                                    120(v)
    11. BD (   2) C   4 - C   5          0.90301    -0.25616  243(v),238(g),242(v),240(g)
                                                    237(g),241(v),121(v),69(v)
                                                    120(v),235(g),173(v)
    12. BD (   1) C   4 - O   9          0.99312    -0.93286  30(v),236(v),237(g),155(v)
                                                    241(r),238(g),156(v),86(g)
    13. BD (   1) C   5 - C   6          0.98575    -0.67924  235(v),238(g),245(v),241(g)
                                                    246(v),86(v),239(v),242(g)
                                                    154(v)
    14. BD (   1) C   6 - N   7          0.99463    -0.82978  246(v),242(g),240(g),243(g)
    15. BD (   1) C   6 - N   8          0.99162    -0.81078  240(g),30(v),244(v),241(g)
                                                    238(v),235(r),246(g),120(g)
    16. BD (   2) C   6 - N   8          0.94835    -0.35678  30(v),137(v),238(v),174(v)
    17. BD (   1) N   7 - H  16          0.99168    -0.64923  242(v),123(v)
    18. BD (   1) N   7 - H  17          0.99362    -0.65051  240(v),124(v),120(v)
    19. BD (   1) N   8 - O   9          0.98548    -0.75207  241(v),235(v),86(v)
    20. CR (   1) C   1                  0.99968   -10.04682  52(v),55(v)
    21. CR (   1) C   2                  0.99965   -10.09652  38(v),235(v)
    22. CR (   1) N   3                  0.99964   -14.19375  90(v),54(v),215(v),237(v)
                                                    89(v),55(v)
    23. CR (   1) C   4                  0.99953   -10.15881  30(v),232(v),237(g),103(v)
                                                    104(v)
    24. CR (   1) C   5                  0.99889   -10.04007  30(g),238(g),235(v),86(v)
                                                    241(v),120(v),89(v),123(v)
    25. CR (   1) C   6                  0.99960   -10.11339  30(v),104(v),155(v)
    26. CR (   1) N   7                  0.99970   -14.15513  123(v),223(v)
    27. CR (   1) N   8                  0.99967   -14.17522  120(v),246(g),240(v),239(v)
                                                    241(v)
    28. CR (   1) O   9                  0.99986   -18.99527  86(v),87(v)
    29. LP (   1) N   3                  0.81033    -0.26940  238(v),233(v),234(v),88(v)
                                                    228(v),239(v),214(v),86(v)
                                                    53(v)
    30. LP*(   1) C   5                  0.08190    -0.03455   
    31. LP (   1) N   7                  0.91978    -0.30118  243(v),122(v),224(v),219(v)
                                                    123(v)
    32. LP (   1) N   8                  0.96715    -0.45221  240(v),120(v),239(v),243(g)
                                                    30(r),172(v),133(v),246(g)
    33. LP (   1) O   9                  0.98406    -0.64658  237(v),86(v),242(v),87(v)
                                                    154(v),235(v),30(r)
    34. LP (   2) O   9                  0.88681    -0.33517  238(v),243(v),88(v),89(v)
                                                    156(v),237(v)
    35. RY*(   1) C   1                  0.00095     0.68168   
    36. RY*(   2) C   1                  0.00042     0.78273   
    37. RY*(   3) C   1                  0.00022     1.28485   
    38. RY*(   4) C   1                  0.00014     0.63642   
    39. RY*(   5) C   1                  0.00006     1.36454   
    40. RY*(   6) C   1                  0.00003     0.64824   
    41. RY*(   7) C   1                  0.00001     0.95885   
    42. RY*(   8) C   1                  0.00000    23.27908   
    43. RY*(   9) C   1                  0.00000     2.84420   
    44. RY*(  10) C   1                  0.00000     2.32618   
    45. RY*(  11) C   1                  0.00000     0.18597   
    46. RY*(  12) C   1                  0.00000     2.78392   
    47. RY*(  13) C   1                  0.00000     1.10765   
    48. RY*(  14) C   1                  0.00000     1.70426   
    49. RY*(  15) C   1                  0.00000     1.88930   
    50. RY*(  16) C   1                  0.00001     1.81731   
    51. RY*(  17) C   1                  0.00000     2.06830   
    52. RY*(   1) C   2                  0.00207     0.85886   
    53. RY*(   2) C   2                  0.00116     0.79582   
    54. RY*(   3) C   2                  0.00062     0.84181   
    55. RY*(   4) C   2                  0.00037     1.15336   
    56. RY*(   5) C   2                  0.00032     1.06021   
    57. RY*(   6) C   2                  0.00025     1.74685   
    58. RY*(   7) C   2                  0.00017     1.49202   
    59. RY*(   8) C   2                  0.00008     1.71988   
    60. RY*(   9) C   2                  0.00003     1.19639   
    61. RY*(  10) C   2                  0.00004     1.65076   
    62. RY*(  11) C   2                  0.00001     2.70320   
    63. RY*(  12) C   2                  0.00000     2.83656   
    64. RY*(  13) C   2                  0.00000     0.56121   
    65. RY*(  14) C   2                  0.00000     2.07576   
    66. RY*(  15) C   2                  0.00000    22.28715   
    67. RY*(  16) C   2                  0.00001     1.82908   
    68. RY*(  17) C   2                  0.00000     2.01855   
    69. RY*(   1) N   3                  0.00294     0.61457   
    70. RY*(   2) N   3                  0.00135     0.94431   
    71. RY*(   3) N   3                  0.00084     1.09738   
    72. RY*(   4) N   3                  0.00022     1.51369   
    73. RY*(   5) N   3                  0.00012     2.19710   
    74. RY*(   6) N   3                  0.00013     1.81488   
    75. RY*(   7) N   3                  0.00007     1.06193   
    76. RY*(   8) N   3                  0.00006     1.96300   
    77. RY*(   9) N   3                  0.00002     2.79189   
    78. RY*(  10) N   3                  0.00001     3.81272   
    79. RY*(  11) N   3                  0.00001     0.92313   
    80. RY*(  12) N   3                  0.00001     1.88196   
    81. RY*(  13) N   3                  0.00000     1.45496   
    82. RY*(  14) N   3                  0.00001     2.57917   
    83. RY*(  15) N   3                  0.00000     3.82993   
    84. RY*(  16) N   3                  0.00000     3.96330   
    85. RY*(  17) N   3                  0.00000    34.91090   
    86. RY*(   1) C   4                  0.00559     1.18043   
    87. RY*(   2) C   4                  0.00273     1.57124   
    88. RY*(   3) C   4                  0.00172     1.58576   
    89. RY*(   4) C   4                  0.00158     1.55184   
    90. RY*(   5) C   4                  0.00076     1.36869   
    91. RY*(   6) C   4                  0.00043     1.43289   
    92. RY*(   7) C   4                  0.00025     1.59128   
    93. RY*(   8) C   4                  0.00018     1.51393   
    94. RY*(   9) C   4                  0.00008     2.24096   
    95. RY*(  10) C   4                  0.00005     1.27673   
    96. RY*(  11) C   4                  0.00005     2.72520   
    97. RY*(  12) C   4                  0.00003     1.08411   
    98. RY*(  13) C   4                  0.00001     4.31988   
    99. RY*(  14) C   4                  0.00001     2.52081   
   100. RY*(  15) C   4                  0.00001    15.99119   
   101. RY*(  16) C   4                  0.00001     2.11712   
   102. RY*(  17) C   4                  0.00000     2.55928   
   103. RY*(   1) C   5                  0.00107     0.73665   
   104. RY*(   2) C   5                  0.00070     0.91452   
   105. RY*(   3) C   5                  0.00037     0.58878   
   106. RY*(   4) C   5                  0.00021     0.83843   
   107. RY*(   5) C   5                  0.00015     0.79068   
   108. RY*(   6) C   5                  0.00009     1.52042   
   109. RY*(   7) C   5                  0.00007     1.28773   
   110. RY*(   8) C   5                  0.00005     0.97490   
   111. RY*(   9) C   5                  0.00004     1.62739   
   112. RY*(  10) C   5                  0.00003     2.11311   
   113. RY*(  11) C   5                  0.00001     2.62668   
   114. RY*(  12) C   5                  0.00000     2.68384   
   115. RY*(  13) C   5                  0.00001     1.76651   
   116. RY*(  14) C   5                  0.00000    23.01943   
   117. RY*(  15) C   5                  0.00000     1.56279   
   118. RY*(  16) C   5                  0.00001     1.76828   
   119. RY*(  17) C   5                  0.00001     2.12666   
   120. RY*(   1) C   6                  0.00477     1.01436   
   121. RY*(   2) C   6                  0.00298     1.41777   
   122. RY*(   3) C   6                  0.00169     1.37658   
   123. RY*(   4) C   6                  0.00124     1.48849   
   124. RY*(   5) C   6                  0.00095     1.25629   
   125. RY*(   6) C   6                  0.00039     1.54273   
   126. RY*(   7) C   6                  0.00017     2.18397   
   127. RY*(   8) C   6                  0.00008     0.93873   
   128. RY*(   9) C   6                  0.00006     1.35868   
   129. RY*(  10) C   6                  0.00003     3.51230   
   130. RY*(  11) C   6                  0.00002     3.06749   
   131. RY*(  12) C   6                  0.00000     2.52632   
   132. RY*(  13) C   6                  0.00001     2.19870   
   133. RY*(  14) C   6                  0.00000     2.72578   
   134. RY*(  15) C   6                  0.00000    16.97633   
   135. RY*(  16) C   6                  0.00001     0.69180   
   136. RY*(  17) C   6                  0.00000     2.05030   
   137. RY*(   1) N   7                  0.00179     0.49753   
   138. RY*(   2) N   7                  0.00085     0.63675   
   139. RY*(   3) N   7                  0.00026     1.46060   
   140. RY*(   4) N   7                  0.00008     1.36825   
   141. RY*(   5) N   7                  0.00004     0.99854   
   142. RY*(   6) N   7                  0.00005     0.80027   
   143. RY*(   7) N   7                  0.00002     0.67685   
   144. RY*(   8) N   7                  0.00000     3.76382   
   145. RY*(   9) N   7                  0.00000     4.10435   
   146. RY*(  10) N   7                  0.00000    35.22235   
   147. RY*(  11) N   7                  0.00000     0.62677   
   148. RY*(  12) N   7                  0.00000     3.83097   
   149. RY*(  13) N   7                  0.00000     2.58237   
   150. RY*(  14) N   7                  0.00000     2.19169   
   151. RY*(  15) N   7                  0.00000     2.43692   
   152. RY*(  16) N   7                  0.00000     2.45541   
   153. RY*(  17) N   7                  0.00000     2.31981   
   154. RY*(   1) N   8                  0.00140     0.89725   
   155. RY*(   2) N   8                  0.00085     0.94590   
   156. RY*(   3) N   8                  0.00073     0.90877   
   157. RY*(   4) N   8                  0.00035     1.47371   
   158. RY*(   5) N   8                  0.00028     1.89921   
   159. RY*(   6) N   8                  0.00009     0.95077   
   160. RY*(   7) N   8                  0.00007     1.62821   
   161. RY*(   8) N   8                  0.00003     2.51104   
   162. RY*(   9) N   8                  0.00003     1.41970   
   163. RY*(  10) N   8                  0.00002     1.39223   
   164. RY*(  11) N   8                  0.00000    35.02888   
   165. RY*(  12) N   8                  0.00000     3.82133   
   166. RY*(  13) N   8                  0.00001     1.49028   
   167. RY*(  14) N   8                  0.00000     3.22042   
   168. RY*(  15) N   8                  0.00000     2.08802   
   169. RY*(  16) N   8                  0.00000     3.81902   
   170. RY*(  17) N   8                  0.00000     2.32502   
   171. RY*(   1) O   9                  0.00261     0.62101   
   172. RY*(   2) O   9                  0.00170     0.76555   
   173. RY*(   3) O   9                  0.00075     0.71514   
   174. RY*(   4) O   9                  0.00037     1.13186   
   175. RY*(   5) O   9                  0.00030     1.34713   
   176. RY*(   6) O   9                  0.00021     1.90997   
   177. RY*(   7) O   9                  0.00015     1.18420   
   178. RY*(   8) O   9                  0.00009     2.12698   
   179. RY*(   9) O   9                  0.00005     1.86805   
   180. RY*(  10) O   9                  0.00001     2.90860   
   181. RY*(  11) O   9                  0.00000     5.02054   
   182. RY*(  12) O   9                  0.00000     4.87522   
   183. RY*(  13) O   9                  0.00001     2.42099   
   184. RY*(  14) O   9                  0.00000     5.03210   
   185. RY*(  15) O   9                  0.00000     2.83364   
   186. RY*(  16) O   9                  0.00000    49.44212   
   187. RY*(  17) O   9                  0.00000     3.16331   
   188. RY*(   1) H  10                  0.00030     0.70513   
   189. RY*(   2) H  10                  0.00007     1.67262   
   190. RY*(   3) H  10                  0.00004     2.05481   
   191. RY*(   4) H  10                  0.00005     1.75182   
   192. RY*(   5) H  10                  0.00001     2.61762   
   193. RY*(   1) H  11                  0.00045     0.72362   
   194. RY*(   2) H  11                  0.00009     1.68841   
   195. RY*(   3) H  11                  0.00006     1.85449   
   196. RY*(   4) H  11                  0.00002     2.45735   
   197. RY*(   5) H  11                  0.00003     2.10990   
   198. RY*(   1) H  12                  0.00064     0.71760   
   199. RY*(   2) H  12                  0.00007     1.77144   
   200. RY*(   3) H  12                  0.00005     1.83553   
   201. RY*(   4) H  12                  0.00004     1.87748   
   202. RY*(   5) H  12                  0.00002     2.64654   
   203. RY*(   1) H  13                  0.00070     0.60907   
   204. RY*(   2) H  13                  0.00014     1.97907   
   205. RY*(   3) H  13                  0.00006     1.89005   
   206. RY*(   4) H  13                  0.00004     2.13010   
   207. RY*(   5) H  13                  0.00002     2.49445   
   208. RY*(   1) H  14                  0.00065     0.91938   
   209. RY*(   2) H  14                  0.00012     1.79885   
   210. RY*(   3) H  14                  0.00005     1.77244   
   211. RY*(   4) H  14                  0.00004     1.95322   
   212. RY*(   5) H  14                  0.00002     2.55407   
   213. RY*(   1) H  15                  0.00158     0.43347   
   214. RY*(   2) H  15                  0.00026     1.53568   
   215. RY*(   3) H  15                  0.00019     2.27158   
   216. RY*(   4) H  15                  0.00008     1.98237   
   217. RY*(   5) H  15                  0.00003     2.53292   
   218. RY*(   1) H  16                  0.00059     0.65965   
   219. RY*(   2) H  16                  0.00042     1.90436   
   220. RY*(   3) H  16                  0.00012     1.74271   
   221. RY*(   4) H  16                  0.00008     2.12414   
   222. RY*(   5) H  16                  0.00002     2.39414   
   223. RY*(   1) H  17                  0.00060     0.96676   
   224. RY*(   2) H  17                  0.00039     1.85704   
   225. RY*(   3) H  17                  0.00010     1.66953   
   226. RY*(   4) H  17                  0.00008     1.99450   
   227. RY*(   5) H  17                  0.00001     2.35775   
   228. BD*(   1) C   1 - C   2          0.00314     0.36608   
   229. BD*(   1) C   1 - H  10          0.00216     0.38066   
   230. BD*(   1) C   1 - H  11          0.00428     0.37209   
   231. BD*(   1) C   1 - H  12          0.00414     0.38101   
   232. BD*(   1) C   2 - N   3          0.01085     0.32670   
   233. BD*(   1) C   2 - H  13          0.01236     0.36846   
   234. BD*(   1) C   2 - H  14          0.00857     0.38027   
   235. BD*(   1) N   3 - C   4          0.01450     0.48383   
   236. BD*(   1) N   3 - H  15          0.00763     0.37852   
   237. BD*(   1) C   4 - C   5          0.01662     0.53881   
   238. BD*(   2) C   4 - C   5          0.23319    -0.01058  30(g),237(g),243(v),86(g)
                                                    240(g),239(g),87(g),105(g)
                                                    103(g),108(g),69(v),242(v)
   239. BD*(   1) C   4 - O   9          0.01842     0.36218   
   240. BD*(   1) C   5 - C   6          0.02153     0.50563   
   241. BD*(   1) C   6 - N   7          0.01295     0.44892   
   242. BD*(   1) C   6 - N   8          0.03426     0.49415   
   243. BD*(   2) C   6 - N   8          0.16234     0.06098  30(v),242(g),238(v),245(v)
                                                    135(g),168(g),122(g)
   244. BD*(   1) N   7 - H  16          0.00396     0.41631   
   245. BD*(   1) N   7 - H  17          0.00418     0.41509   
   246. BD*(   1) N   8 - O   9          0.01156     0.18119   
       -------------------------------
              Total Lewis   32.26839  ( 97.7830%)
        Valence non-Lewis    0.66854  (  2.0259%)
        Rydberg non-Lewis    0.06307  (  0.1911%)
       -------------------------------
            Total unit  1   33.00000  (100.0000%)
           Charge unit  1    0.50000
 Leave Link  607 at Mon Mar 20 00:01:49 2023, MaxMem=  8053063680 cpu:              53.1 elap:               1.7
 (Enter /public3/home/scg5914/software-scg5914/g16/l9999.exe)
 Unable to Open any file for archive entry.
 1\1\GINC-G0102\SP\UB3LYP\Gen\C5H8N3O1(2)\SCG5914\20-Mar-2023\0\\#p b3l
 yp/chkbas pop=nbo geom=allcheck guess=tcheck em=gd3bj\\dsgdb9nsd_12692
 0-7\\0,2\C,0,0.0108379795,1.4387759509,0.2431435373\C,0,0.0129074997,-
 0.0140742379,-0.2135323076\N,0,-1.3473032361,-0.5451373204,-0.24360203
 63\C,0,-1.6463672879,-1.8549987706,-0.1899779162\C,0,-2.8660387434,-2.
 511548684,-0.2576834896\C,0,-2.5075092435,-3.8507578434,0.0763095126\N
 ,0,-3.3746367158,-4.8854816992,0.3448568513\N,0,-1.2025996896,-4.04946
 50905,0.0569534353\O,0,-0.6274661354,-2.7220689579,-0.0923809968\H,0,1
 .0293814488,1.8321278747,0.2469448917\H,0,-0.5824959449,2.0650416502,-
 0.4303359291\H,0,-0.3991772919,1.5317975661,1.251309412\H,0,0.47400135
 57,-0.1044791875,-1.2045552681\H,0,0.5962093678,-0.6359534758,0.467482
 0881\H,0,-2.1009869908,0.0659378197,-0.5176390796\H,0,-4.264152474,-4.
 8185203427,-0.1264573794\H,0,-2.9615619162,-5.8072021869,0.3158296519\
 \Version=ES64L-G16RevC.01\State=2-A\HF=-434.8311866\S2=0.756328\S2-1=0
 .\S2A=0.750025\RMSD=2.191e-09\Dipole=-0.1367664,1.2129778,-0.183871\Qu
 adrupole=-1.3791613,5.9542139,-4.5750526,6.8281201,0.7272525,0.2688368
 \PG=C01 [X(C5H8N3O1)]\\@
 The archive entry for this job was punched.


 IF AT FIRST YOU DON'T SUCCEED, TRY, TRY AGAIN.
 THEN GIVE UP;
 THERE'S NO USE BEING A DAMN FOOL ABOUT IT.

                                 -- W. C. FIELDS
 Job cpu time:       0 days  0 hours  2 minutes  4.3 seconds.
 Elapsed time:       0 days  0 hours  0 minutes  4.1 seconds.
 File lengths (MBytes):  RWF=     61 Int=      0 D2E=      0 Chk=      7 Scr=      1
 Normal termination of Gaussian 16 at Mon Mar 20 00:01:49 2023.
