 Entering Gaussian System, Link 0=/public3/home/scg5914/software-scg5914/g16/g16
 Input=dsgdb9nsd_004015-3-.gjf
 Output=dsgdb9nsd_004015-3-.log
 Initial command:
 /public3/home/scg5914/software-scg5914/g16/l1.exe "/public3/home/scg5914/software-scg5914/test/tmp/dsgdb9nsd_004015-3-/Gau-1573.inp" -scrdir="/public3/home/scg5914/software-scg5914/test/tmp/dsgdb9nsd_004015-3-/"
 Entering Link 1 = /public3/home/scg5914/software-scg5914/g16/l1.exe PID=      1574.
  
 Copyright (c) 1988-2019, Gaussian, Inc.  All Rights Reserved.
  
 This is part of the Gaussian(R) 16 program.  It is based on
 the Gaussian(R) 09 system (copyright 2009, Gaussian, Inc.),
 the Gaussian(R) 03 system (copyright 2003, Gaussian, Inc.),
 the Gaussian(R) 98 system (copyright 1998, Gaussian, Inc.),
 the Gaussian(R) 94 system (copyright 1995, Gaussian, Inc.),
 the Gaussian 92(TM) system (copyright 1992, Gaussian, Inc.),
 the Gaussian 90(TM) system (copyright 1990, Gaussian, Inc.),
 the Gaussian 88(TM) system (copyright 1988, Gaussian, Inc.),
 the Gaussian 86(TM) system (copyright 1986, Carnegie Mellon
 University), and the Gaussian 82(TM) system (copyright 1983,
 Carnegie Mellon University). Gaussian is a federally registered
 trademark of Gaussian, Inc.
  
 This software contains proprietary and confidential information,
 including trade secrets, belonging to Gaussian, Inc.
  
 This software is provided under written license and may be
 used, copied, transmitted, or stored only in accord with that
 written license.
  
 The following legend is applicable only to US Government
 contracts under FAR:
  
                    RESTRICTED RIGHTS LEGEND
  
 Use, reproduction and disclosure by the US Government is
 subject to restrictions as set forth in subparagraphs (a)
 and (c) of the Commercial Computer Software - Restricted
 Rights clause in FAR 52.227-19.
  
 Gaussian, Inc.
 340 Quinnipiac St., Bldg. 40, Wallingford CT 06492
  
  
 ---------------------------------------------------------------
 Warning -- This program may not be used in any manner that
 competes with the business of Gaussian, Inc. or will provide
 assistance to any competitor of Gaussian, Inc.  The licensee
 of this program is prohibited from giving any competitor of
 Gaussian, Inc. access to this program.  By using this program,
 the user acknowledges that Gaussian, Inc. is engaged in the
 business of creating and licensing software in the field of
 computational chemistry and represents and warrants to the
 licensee that it is not a competitor of Gaussian, Inc. and that
 it will not use this program in any manner prohibited above.
 ---------------------------------------------------------------
  

 Cite this work as:
 Gaussian 16, Revision C.01,
 M. J. Frisch, G. W. Trucks, H. B. Schlegel, G. E. Scuseria, 
 M. A. Robb, J. R. Cheeseman, G. Scalmani, V. Barone, 
 G. A. Petersson, H. Nakatsuji, X. Li, M. Caricato, A. V. Marenich, 
 J. Bloino, B. G. Janesko, R. Gomperts, B. Mennucci, H. P. Hratchian, 
 J. V. Ortiz, A. F. Izmaylov, J. L. Sonnenberg, D. Williams-Young, 
 F. Ding, F. Lipparini, F. Egidi, J. Goings, B. Peng, A. Petrone, 
 T. Henderson, D. Ranasinghe, V. G. Zakrzewski, J. Gao, N. Rega, 
 G. Zheng, W. Liang, M. Hada, M. Ehara, K. Toyota, R. Fukuda, 
 J. Hasegawa, M. Ishida, T. Nakajima, Y. Honda, O. Kitao, H. Nakai, 
 T. Vreven, K. Throssell, J. A. Montgomery, Jr., J. E. Peralta, 
 F. Ogliaro, M. J. Bearpark, J. J. Heyd, E. N. Brothers, K. N. Kudin, 
 V. N. Staroverov, T. A. Keith, R. Kobayashi, J. Normand, 
 K. Raghavachari, A. P. Rendell, J. C. Burant, S. S. Iyengar, 
 J. Tomasi, M. Cossi, J. M. Millam, M. Klene, C. Adamo, R. Cammi, 
 J. W. Ochterski, R. L. Martin, K. Morokuma, O. Farkas, 
 J. B. Foresman, and D. J. Fox, Gaussian, Inc., Wallingford CT, 2019.
 
 ******************************************
 Gaussian 16:  ES64L-G16RevC.01  3-Jul-2019
                28-Oct-2022 
 ******************************************
 %chk=dsgdb9nsd_004015-3.chk
 %mem=60GB
 %nprocshared=32
 Will use up to   32 processors via shared memory.
 ------------------------------------
 #p opt freq b3lyp/6-311+g** em=gd3bj
 ------------------------------------
 1/18=20,19=15,26=3,38=1/1,3;
 2/9=110,12=2,17=6,18=5,40=1/2;
 3/5=4,6=6,7=111,11=2,25=1,30=1,71=1,74=-5,124=41/1,2,3;
 4//1;
 5/5=2,38=5/2;
 6/7=2,8=2,9=2,10=2,28=1/1;
 7//1,2,3,16;
 1/18=20,19=15,26=3/3(2);
 2/9=110/2;
 99//99;
 2/9=110/2;
 3/5=4,6=6,7=111,11=2,25=1,30=1,71=1,74=-5,124=41/1,2,3;
 4/5=5,16=3,69=1/1;
 5/5=2,38=5/2;
 7//1,2,3,16;
 1/18=20,19=15,26=3/3(-5);
 2/9=110/2;
 6/7=2,8=2,9=2,10=2,19=2,28=1/1;
 99/9=1/99;
 Leave Link    1 at Fri Oct 28 12:29:09 2022, MaxMem=  8053063680 cpu:               1.0 elap:               0.0
 (Enter /public3/home/scg5914/software-scg5914/g16/l101.exe)
 ------------------
 dsgdb9nsd_004015-3
 ------------------
 Symbolic Z-matrix:
 Charge = -1 Multiplicity = 1
 C                    -0.55455   1.06279  -0.69547 
 N                    -0.13945  -0.35133  -0.56935 
 H                    -0.43407  -0.75811   0.32038 
 H                    -0.5459   -0.97857  -1.29833 
 C                     1.44497  -0.70562  -0.63997 
 C                     1.50312  -2.12675  -0.94875 
 C                     1.03857  -2.56643  -2.30228 
 O                    -0.42613  -2.60792  -2.2942 
 N                     1.22969  -2.90585   0.11049 
 O                     0.72004  -4.04476  -0.15009 
 H                    -0.23153   1.43568  -1.66877 
 H                    -1.64008   1.15199  -0.6154 
 H                     1.82123  -0.01997  -1.40311 
 H                     1.8197   -0.44948   0.35243 
 H                     1.32196  -1.87627  -3.10314 
 H                     1.41423  -3.56587  -2.53745 
 H                    -0.57049  -3.31573  -1.63708 
 
 ITRead=  0  0  0  0  0  0  0  0  0  0  0  0  0  0  0  0  0
 MicOpt= -1 -1 -1 -1 -1 -1 -1 -1 -1 -1 -1 -1 -1 -1 -1 -1 -1
 NAtoms=     17 NQM=       17 NQMF=       0 NMMI=      0 NMMIF=      0
                NMic=       0 NMicF=      0.
                    Isotopes and Nuclear Properties:
 (Nuclear quadrupole moments (NQMom) in fm**2, nuclear magnetic moments (NMagM)
  in nuclear magnetons)

  Atom         1           2           3           4           5           6           7           8           9          10
 IAtWgt=          12          14           1           1          12          12          12          16          14          16
 AtmWgt=  12.0000000  14.0030740   1.0078250   1.0078250  12.0000000  12.0000000  12.0000000  15.9949146  14.0030740  15.9949146
 NucSpn=           0           2           1           1           0           0           0           0           2           0
 AtZEff=  -0.0000000  -0.0000000  -0.0000000  -0.0000000  -0.0000000  -0.0000000  -0.0000000  -0.0000000  -0.0000000  -0.0000000
 NQMom=    0.0000000   2.0440000   0.0000000   0.0000000   0.0000000   0.0000000   0.0000000   0.0000000   2.0440000   0.0000000
 NMagM=    0.0000000   0.4037610   2.7928460   2.7928460   0.0000000   0.0000000   0.0000000   0.0000000   0.4037610   0.0000000
 AtZNuc=   6.0000000   7.0000000   1.0000000   1.0000000   6.0000000   6.0000000   6.0000000   8.0000000   7.0000000   8.0000000

  Atom        11          12          13          14          15          16          17
 IAtWgt=           1           1           1           1           1           1           1
 AtmWgt=   1.0078250   1.0078250   1.0078250   1.0078250   1.0078250   1.0078250   1.0078250
 NucSpn=           1           1           1           1           1           1           1
 AtZEff=  -0.0000000  -0.0000000  -0.0000000  -0.0000000  -0.0000000  -0.0000000  -0.0000000
 NQMom=    0.0000000   0.0000000   0.0000000   0.0000000   0.0000000   0.0000000   0.0000000
 NMagM=    2.7928460   2.7928460   2.7928460   2.7928460   2.7928460   2.7928460   2.7928460
 AtZNuc=   1.0000000   1.0000000   1.0000000   1.0000000   1.0000000   1.0000000   1.0000000
 Leave Link  101 at Fri Oct 28 12:29:09 2022, MaxMem=  8053063680 cpu:               4.2 elap:               0.1
 (Enter /public3/home/scg5914/software-scg5914/g16/l103.exe)

 GradGradGradGradGradGradGradGradGradGradGradGradGradGradGradGradGradGrad
 Berny optimization.
 Initialization pass.
                           ----------------------------
                           !    Initial Parameters    !
                           ! (Angstroms and Degrees)  !
 --------------------------                            --------------------------
 ! Name  Definition              Value          Derivative Info.                !
 --------------------------------------------------------------------------------
 ! R1    R(1,2)                  1.4792         estimate D2E/DX2                !
 ! R2    R(1,11)                 1.0912         estimate D2E/DX2                !
 ! R3    R(1,12)                 1.0921         estimate D2E/DX2                !
 ! R4    R(2,3)                  1.0217         estimate D2E/DX2                !
 ! R5    R(2,4)                  1.0441         estimate D2E/DX2                !
 ! R6    R(2,5)                  1.6251         estimate D2E/DX2                !
 ! R7    R(5,6)                  1.4555         estimate D2E/DX2                !
 ! R8    R(5,13)                 1.0927         estimate D2E/DX2                !
 ! R9    R(5,14)                 1.0913         estimate D2E/DX2                !
 ! R10   R(6,7)                  1.497          estimate D2E/DX2                !
 ! R11   R(6,9)                  1.343          estimate D2E/DX2                !
 ! R12   R(7,8)                  1.4653         estimate D2E/DX2                !
 ! R13   R(7,15)                 1.0945         estimate D2E/DX2                !
 ! R14   R(7,16)                 1.0933         estimate D2E/DX2                !
 ! R15   R(8,17)                 0.9765         estimate D2E/DX2                !
 ! R16   R(9,10)                 1.2747         estimate D2E/DX2                !
 ! A1    A(2,1,11)             108.6442         estimate D2E/DX2                !
 ! A2    A(2,1,12)             110.5341         estimate D2E/DX2                !
 ! A3    A(11,1,12)            109.3725         estimate D2E/DX2                !
 ! A4    A(1,2,3)              111.9602         estimate D2E/DX2                !
 ! A5    A(1,2,4)              113.9269         estimate D2E/DX2                !
 ! A6    A(1,2,5)              118.5761         estimate D2E/DX2                !
 ! A7    A(3,2,4)              104.8674         estimate D2E/DX2                !
 ! A8    A(3,2,5)              103.4258         estimate D2E/DX2                !
 ! A9    A(4,2,5)              102.6054         estimate D2E/DX2                !
 ! A10   A(2,5,6)              105.1322         estimate D2E/DX2                !
 ! A11   A(2,5,13)             103.2539         estimate D2E/DX2                !
 ! A12   A(2,5,14)             104.1287         estimate D2E/DX2                !
 ! A13   A(6,5,13)             116.7917         estimate D2E/DX2                !
 ! A14   A(6,5,14)             114.1036         estimate D2E/DX2                !
 ! A15   A(13,5,14)            111.6903         estimate D2E/DX2                !
 ! A16   A(5,6,7)              117.7867         estimate D2E/DX2                !
 ! A17   A(5,6,9)              113.0148         estimate D2E/DX2                !
 ! A18   A(7,6,9)              118.655          estimate D2E/DX2                !
 ! A19   A(6,7,8)              108.2709         estimate D2E/DX2                !
 ! A20   A(6,7,15)             113.3295         estimate D2E/DX2                !
 ! A21   A(6,7,16)             110.8756         estimate D2E/DX2                !
 ! A22   A(8,7,15)             106.3013         estimate D2E/DX2                !
 ! A23   A(8,7,16)             108.5876         estimate D2E/DX2                !
 ! A24   A(15,7,16)            109.2729         estimate D2E/DX2                !
 ! A25   A(7,8,17)              99.9041         estimate D2E/DX2                !
 ! A26   A(6,9,10)             116.0077         estimate D2E/DX2                !
 ! D1    D(11,1,2,3)          -178.8759         estimate D2E/DX2                !
 ! D2    D(11,1,2,4)           -60.0876         estimate D2E/DX2                !
 ! D3    D(11,1,2,5)            60.8126         estimate D2E/DX2                !
 ! D4    D(12,1,2,3)           -58.8621         estimate D2E/DX2                !
 ! D5    D(12,1,2,4)            59.9262         estimate D2E/DX2                !
 ! D6    D(12,1,2,5)          -179.1736         estimate D2E/DX2                !
 ! D7    D(1,2,5,6)           -161.0393         estimate D2E/DX2                !
 ! D8    D(1,2,5,13)           -38.1231         estimate D2E/DX2                !
 ! D9    D(1,2,5,14)            78.6743         estimate D2E/DX2                !
 ! D10   D(3,2,5,6)             74.3623         estimate D2E/DX2                !
 ! D11   D(3,2,5,13)          -162.7215         estimate D2E/DX2                !
 ! D12   D(3,2,5,14)           -45.9241         estimate D2E/DX2                !
 ! D13   D(4,2,5,6)            -34.5239         estimate D2E/DX2                !
 ! D14   D(4,2,5,13)            88.3923         estimate D2E/DX2                !
 ! D15   D(4,2,5,14)          -154.8103         estimate D2E/DX2                !
 ! D16   D(2,5,6,7)             67.928          estimate D2E/DX2                !
 ! D17   D(2,5,6,9)            -76.4371         estimate D2E/DX2                !
 ! D18   D(13,5,6,7)           -45.8137         estimate D2E/DX2                !
 ! D19   D(13,5,6,9)           169.8212         estimate D2E/DX2                !
 ! D20   D(14,5,6,7)          -178.6183         estimate D2E/DX2                !
 ! D21   D(14,5,6,9)            37.0166         estimate D2E/DX2                !
 ! D22   D(5,6,7,8)            -79.0478         estimate D2E/DX2                !
 ! D23   D(5,6,7,15)            38.617          estimate D2E/DX2                !
 ! D24   D(5,6,7,16)           161.9284         estimate D2E/DX2                !
 ! D25   D(9,6,7,8)             63.284          estimate D2E/DX2                !
 ! D26   D(9,6,7,15)          -179.0512         estimate D2E/DX2                !
 ! D27   D(9,6,7,16)           -55.7398         estimate D2E/DX2                !
 ! D28   D(5,6,9,10)           151.7087         estimate D2E/DX2                !
 ! D29   D(7,6,9,10)             7.6797         estimate D2E/DX2                !
 ! D30   D(6,7,8,17)           -64.442          estimate D2E/DX2                !
 ! D31   D(15,7,8,17)          173.4806         estimate D2E/DX2                !
 ! D32   D(16,7,8,17)           56.0182         estimate D2E/DX2                !
 --------------------------------------------------------------------------------
 Trust Radius=3.00D-01 FncErr=1.00D-07 GrdErr=1.00D-06 EigMax=2.50D+02 EigMin=1.00D-04
 Number of steps in this run=     84 maximum allowed number of steps=    102.
 GradGradGradGradGradGradGradGradGradGradGradGradGradGradGradGradGradGrad

 Leave Link  103 at Fri Oct 28 12:29:09 2022, MaxMem=  8053063680 cpu:               0.2 elap:               0.0
 (Enter /public3/home/scg5914/software-scg5914/g16/l202.exe)
                          Input orientation:                          
 ---------------------------------------------------------------------
 Center     Atomic      Atomic             Coordinates (Angstroms)
 Number     Number       Type             X           Y           Z
 ---------------------------------------------------------------------
      1          6           0       -0.554546    1.062786   -0.695469
      2          7           0       -0.139454   -0.351326   -0.569346
      3          1           0       -0.434071   -0.758109    0.320385
      4          1           0       -0.545904   -0.978569   -1.298334
      5          6           0        1.444970   -0.705620   -0.639971
      6          6           0        1.503117   -2.126754   -0.948746
      7          6           0        1.038574   -2.566426   -2.302277
      8          8           0       -0.426129   -2.607919   -2.294200
      9          7           0        1.229688   -2.905851    0.110492
     10          8           0        0.720037   -4.044757   -0.150085
     11          1           0       -0.231533    1.435684   -1.668768
     12          1           0       -1.640079    1.151988   -0.615403
     13          1           0        1.821227   -0.019973   -1.403110
     14          1           0        1.819697   -0.449483    0.352429
     15          1           0        1.321959   -1.876267   -3.103140
     16          1           0        1.414229   -3.565867   -2.537448
     17          1           0       -0.570490   -3.315732   -1.637084
 ---------------------------------------------------------------------
                    Distance matrix (angstroms):
                    1          2          3          4          5
     1  C    0.000000
     2  N    1.479162   0.000000
     3  H    2.088572   1.021710   0.000000
     4  H    2.128532   1.044059   1.637486   0.000000
     5  C    2.669906   1.625088   2.110884   2.114597   0.000000
     6  C    3.804115   2.448291   2.690089   2.374664   1.455454
     7  C    4.276802   3.049174   3.509564   2.457592   2.528046
     8  O    4.005808   2.854735   3.202797   1.913341   3.139462
     9  N    4.425284   2.976966   2.724875   2.975220   2.334642
    10  O    5.292353   3.815224   3.515020   3.510355   3.451862
    11  H    1.091193   2.100147   2.968246   2.462655   2.907623
    12  H    1.092131   2.124606   2.445123   2.490560   3.601227
    13  H    2.705072   2.156207   2.932857   2.556011   1.092732
    14  H    3.003677   2.167389   2.275027   2.932749   1.091276
    15  H    4.237473   3.298679   4.006799   2.748108   2.729973
    16  H    5.356621   4.076840   4.412133   3.474426   3.432547
    17  H    4.478650   3.180182   3.223620   2.361712   3.445141
                    6          7          8          9         10
     6  C    0.000000
     7  C    1.497049   0.000000
     8  O    2.400783   1.465313   0.000000
     9  N    1.343034   2.444010   2.934797   0.000000
    10  O    2.220318   2.630372   2.824080   1.274658   0.000000
    11  H    4.027209   4.246338   4.096310   4.914251   5.766032
    12  H    4.554224   4.883372   4.292893   5.022802   5.726503
    13  H    2.178570   2.811666   3.541484   3.311978   4.356786
    14  H    2.146279   3.484115   4.087447   2.537791   3.793121
    15  H    2.176460   1.094536   2.060463   3.375794   3.712842
    16  H    2.145442   1.093300   2.088959   2.735189   2.531943
    17  H    2.487434   1.895528   0.976545   2.542178   2.099549
                   11         12         13         14         15
    11  H    0.000000
    12  H    1.781590   0.000000
    13  H    2.530481   3.738264   0.000000
    14  H    3.441895   3.933378   1.807318   0.000000
    15  H    3.929349   4.912518   2.566165   3.771527   0.000000
    16  H    5.336539   5.939799   3.745095   4.269384   1.784172
    17  H    4.763597   4.706206   4.078858   4.229248   2.793339
                   16         17
    16  H    0.000000
    17  H    2.193702   0.000000
 Stoichiometry    C4H9N2O2(1-)
 Framework group  C1[X(C4H9N2O2)]
 Deg. of freedom    45
 Full point group                 C1      NOp   1
 Largest Abelian subgroup         C1      NOp   1
 Largest concise Abelian subgroup C1      NOp   1
                         Standard orientation:                         
 ---------------------------------------------------------------------
 Center     Atomic      Atomic             Coordinates (Angstroms)
 Number     Number       Type             X           Y           Z
 ---------------------------------------------------------------------
      1          6           0       -3.009386    0.009395   -0.364962
      2          7           0       -1.542669   -0.174536   -0.418162
      3          1           0       -1.262626   -0.793293   -1.181449
      4          1           0       -1.010730    0.709030   -0.580673
      5          6           0       -0.791240   -0.807949    0.876076
      6          6           0        0.608900   -0.442931    0.718871
      7          6           0        0.970930    1.004411    0.842540
      8          8           0        0.635011    1.671330   -0.418222
      9          7           0        1.246813   -1.190421   -0.196589
     10          8           0        2.226784   -0.631598   -0.789993
     11          1           0       -3.245932    0.691940    0.452888
     12          1           0       -3.377276    0.428109   -1.304156
     13          1           0       -1.324924   -0.361841    1.718829
     14          1           0       -0.983972   -1.879241    0.798151
     15          1           0        0.410649    1.526056    1.624832
     16          1           0        2.042216    1.123796    1.025293
     17          1           0        1.254007    1.214737   -1.019893
 ---------------------------------------------------------------------
 Rotational constants (GHZ):           3.2105430           1.4070980           1.2326007
 Leave Link  202 at Fri Oct 28 12:29:09 2022, MaxMem=  8053063680 cpu:               0.3 elap:               0.0
 (Enter /public3/home/scg5914/software-scg5914/g16/l301.exe)
 Standard basis: 6-311+G(d,p) (5D, 7F)
 Ernie: Thresh=  0.10000D-02 Tol=  0.10000D-05 Strict=F.
 There are   238 symmetry adapted cartesian basis functions of A   symmetry.
 There are   230 symmetry adapted basis functions of A   symmetry.
   230 basis functions,   360 primitive gaussians,   238 cartesian basis functions
    32 alpha electrons       32 beta electrons
       nuclear repulsion energy       395.4785016115 Hartrees.
 IExCor=  402 DFT=T Ex+Corr=B3LYP ExCW=0 ScaHFX=  0.200000
 ScaDFX=  0.800000  0.720000  1.000000  0.810000 ScalE2=  1.000000  1.000000
 IRadAn=      5 IRanWt=     -1 IRanGd=            0 ICorTp=0 IEmpDi=141
 NAtoms=   17 NActive=   17 NUniq=   17 SFac= 1.00D+00 NAtFMM=   60 NAOKFM=F Big=F
 Integral buffers will be    131072 words long.
 Raffenetti 2 integral format.
 Two-electron integral symmetry is turned on.
 R6Disp:  Grimme-D3(BJ) Dispersion energy=       -0.0259684043 Hartrees.
 Nuclear repulsion after empirical dispersion term =      395.4525332073 Hartrees.
 Leave Link  301 at Fri Oct 28 12:29:09 2022, MaxMem=  8053063680 cpu:               0.9 elap:               0.0
 (Enter /public3/home/scg5914/software-scg5914/g16/l302.exe)
 NPDir=0 NMtPBC=     1 NCelOv=     1 NCel=       1 NClECP=     1 NCelD=      1
         NCelK=      1 NCelE2=     1 NClLst=     1 CellRange=     0.0.
 One-electron integrals computed using PRISM.
 One-electron integral symmetry used in STVInt
 NBasis=   230 RedAO= T EigKep=  3.07D-05  NBF=   230
 NBsUse=   230 1.00D-06 EigRej= -1.00D+00 NBFU=   230
 Precomputing XC quadrature grid using
 IXCGrd= 4 IRadAn=           5 IRanWt=          -1 IRanGd=           0 AccXCQ= 0.00D+00.
 Generated NRdTot=       0 NPtTot=           0 NUsed=           0 NTot=          32
 NSgBfM=   238   238   238   238   238 MxSgAt=    17 MxSgA2=    17.
 Leave Link  302 at Fri Oct 28 12:29:09 2022, MaxMem=  8053063680 cpu:               4.2 elap:               0.1
 (Enter /public3/home/scg5914/software-scg5914/g16/l303.exe)
 DipDrv:  MaxL=1.
 Leave Link  303 at Fri Oct 28 12:29:10 2022, MaxMem=  8053063680 cpu:               0.5 elap:               0.0
 (Enter /public3/home/scg5914/software-scg5914/g16/l401.exe)
 ExpMin= 4.38D-02 ExpMax= 8.59D+03 ExpMxC= 1.30D+03 IAcc=3 IRadAn=         5 AccDes= 0.00D+00
 Harris functional with IExCor=  402 and IRadAn=       5 diagonalized for initial guess.
 HarFok:  IExCor=  402 AccDes= 0.00D+00 IRadAn=         5 IDoV= 1 UseB2=F ITyADJ=14
 ICtDFT=  3500011 ScaDFX=  1.000000  1.000000  1.000000  1.000000
 FoFCou: FMM=F IPFlag=           0 FMFlag=      100000 FMFlg1=           0
         NFxFlg=           0 DoJE=T BraDBF=F KetDBF=T FulRan=T
         wScrn=  0.000000 ICntrl=       500 IOpCl=  0 I1Cent=   200000004 NGrid=           0
         NMat0=    1 NMatS0=      1 NMatT0=    0 NMatD0=    1 NMtDS0=    0 NMtDT0=    0
 Petite list used in FoFCou.
 Harris En= -417.992272030928    
 JPrj=0 DoOrth=F DoCkMO=F.
 Leave Link  401 at Fri Oct 28 12:29:10 2022, MaxMem=  8053063680 cpu:              12.9 elap:               0.4
 (Enter /public3/home/scg5914/software-scg5914/g16/l502.exe)
 Integral symmetry usage will be decided dynamically.
 Closed shell SCF:
 Using DIIS extrapolation, IDIIS=  1040.
 NGot=  8053063680 LenX=  8052939950 LenY=  8052882865
 Requested convergence on RMS density matrix=1.00D-08 within 128 cycles.
 Requested convergence on MAX density matrix=1.00D-06.
 Requested convergence on             energy=1.00D-06.
 No special actions if energy rises.
 Fock matrices will be formed incrementally for  20 cycles.

 Cycle   1  Pass 1  IDiag  1:
 FoFJK:  IHMeth= 1 ICntrl=       0 DoSepK=F KAlg= 0 I1Cent=           0 FoldK=F
 IRaf= 970000000 NMat=       1 IRICut=       1 DoRegI=T DoRafI=F ISym2E= 0 IDoP0=0 IntGTp=1.
 FoFCou: FMM=F IPFlag=           0 FMFlag=      100000 FMFlg1=           0
         NFxFlg=           0 DoJE=F BraDBF=F KetDBF=F FulRan=T
         wScrn=  0.000000 ICntrl=         0 IOpCl=  0 I1Cent=           0 NGrid=           0
         NMat0=    1 NMatS0=      1 NMatT0=    0 NMatD0=    1 NMtDS0=    0 NMtDT0=    0
 Symmetry not used in FoFCou.
 E= -417.510952176108    
 DIIS: error= 2.34D-02 at cycle   1 NSaved=   1.
 NSaved= 1 IEnMin= 1 EnMin= -417.510952176108     IErMin= 1 ErrMin= 2.34D-02
 ErrMax= 2.34D-02  0.00D+00 EMaxC= 1.00D-01 BMatC= 3.43D-01 BMatP= 3.43D-01
 IDIUse=3 WtCom= 7.66D-01 WtEn= 2.34D-01
 Coeff-Com:  0.100D+01
 Coeff-En:   0.100D+01
 Coeff:      0.100D+01
 Gap=     0.010 Goal=   None    Shift=    0.000
 GapD=    0.010 DampG=0.250 DampE=0.500 DampFc=0.2500 IDamp=-1.
 Damping current iteration by 2.50D-01
 RMSDP=9.09D-01 MaxDP=1.23D+02              OVMax= 9.85D-01

 Cycle   2  Pass 1  IDiag  1:
 RMSU=  2.16D-01    CP:  3.00D+00
 E= -417.573243296567     Delta-E=       -0.062291120459 Rises=F Damp=T
 DIIS: error= 8.81D-03 at cycle   2 NSaved=   2.
 NSaved= 2 IEnMin= 2 EnMin= -417.573243296567     IErMin= 2 ErrMin= 8.81D-03
 ErrMax= 8.81D-03  0.00D+00 EMaxC= 1.00D-01 BMatC= 6.21D-02 BMatP= 3.43D-01
 IDIUse=3 WtCom= 9.12D-01 WtEn= 8.81D-02
 Coeff-Com: -0.403D+00 0.140D+01
 Coeff-En:   0.256D+00 0.744D+00
 Coeff:     -0.345D+00 0.135D+01
 Gap=    -0.117 Goal=   None    Shift=    0.000
 RMSDP=2.23D-01 MaxDP=3.02D+01 DE=-6.23D-02 OVMax= 7.28D-01

 Cycle   3  Pass 1  IDiag  1:
 RMSU=  8.69D-03    CP:  1.14D+00  1.66D-02
 E= -417.710521191460     Delta-E=       -0.137277894893 Rises=F Damp=F
 DIIS: error= 1.66D-02 at cycle   3 NSaved=   3.
 NSaved= 3 IEnMin= 3 EnMin= -417.710521191460     IErMin= 2 ErrMin= 8.81D-03
 ErrMax= 1.66D-02  0.00D+00 EMaxC= 1.00D-01 BMatC= 8.93D-02 BMatP= 6.21D-02
 IDIUse=2 WtCom= 0.00D+00 WtEn= 1.00D+00
 Coeff-En:   0.000D+00 0.000D+00 0.100D+01
 Coeff:      0.000D+00 0.000D+00 0.100D+01
 Gap=     0.208 Goal=   None    Shift=    0.000
 RMSDP=3.44D-01 MaxDP=4.82D+01 DE=-1.37D-01 OVMax= 9.81D-01

 Cycle   4  Pass 1  IDiag  1:
 RMSU=  6.31D-02    CP:  3.00D+00  1.52D+00 -1.78D+00
 E= -416.386715391526     Delta-E=        1.323805799934 Rises=F Damp=F
 DIIS: error= 5.39D-02 at cycle   4 NSaved=   4.
 NSaved= 4 IEnMin= 3 EnMin= -417.710521191460     IErMin= 2 ErrMin= 8.81D-03
 ErrMax= 5.39D-02  0.00D+00 EMaxC= 1.00D-01 BMatC= 7.13D-01 BMatP= 6.21D-02
 IDIUse=2 WtCom= 0.00D+00 WtEn= 1.00D+00
 Coeff-En:   0.000D+00 0.000D+00 0.898D+00 0.102D+00
 Coeff:      0.000D+00 0.000D+00 0.898D+00 0.102D+00
 Gap=     0.012 Goal=   None    Shift=    0.000
 RMSDP=3.37D-01 MaxDP=4.70D+01 DE= 1.32D+00 OVMax= 9.96D-01

 Cycle   5  Pass 1  IDiag  1:
 RMSU=  8.72D-03    CP:  1.40D+00  4.19D-02  1.15D+00 -3.85D-03
 E= -417.688788187369     Delta-E=       -1.302072795842 Rises=F Damp=F
 DIIS: error= 2.25D-02 at cycle   5 NSaved=   5.
 NSaved= 5 IEnMin= 3 EnMin= -417.710521191460     IErMin= 2 ErrMin= 8.81D-03
 ErrMax= 2.25D-02  0.00D+00 EMaxC= 1.00D-01 BMatC= 1.36D-01 BMatP= 6.21D-02
 IDIUse=2 WtCom= 0.00D+00 WtEn= 1.00D+00
 Coeff-En:   0.000D+00 0.000D+00 0.538D+00 0.000D+00 0.462D+00
 Coeff:      0.000D+00 0.000D+00 0.538D+00 0.000D+00 0.462D+00
 Gap=     0.070 Goal=   None    Shift=    0.000
 RMSDP=1.10D-02 MaxDP=1.41D+00 DE=-1.30D+00 OVMax= 1.94D-01

 Cycle   6  Pass 1  IDiag  1:
 RMSU=  4.79D-03    CP:  1.10D+00  9.50D-03  7.60D-01  1.15D-03  5.63D-01
 E= -417.787970143599     Delta-E=       -0.099181956230 Rises=F Damp=F
 DIIS: error= 9.95D-03 at cycle   6 NSaved=   6.
 NSaved= 6 IEnMin= 6 EnMin= -417.787970143599     IErMin= 2 ErrMin= 8.81D-03
 ErrMax= 9.95D-03  0.00D+00 EMaxC= 1.00D-01 BMatC= 3.23D-02 BMatP= 6.21D-02
 IDIUse=3 WtCom= 9.00D-01 WtEn= 9.95D-02
 EnCoef did     5 forward-backward iterations
 Coeff-Com: -0.659D-01 0.182D+00 0.333D+00-0.762D-02 0.286D+00 0.273D+00
 Coeff-En:   0.000D+00 0.000D+00 0.566D-01 0.000D+00 0.193D+00 0.750D+00
 Coeff:     -0.593D-01 0.164D+00 0.305D+00-0.686D-02 0.277D+00 0.320D+00
 Gap=     0.119 Goal=   None    Shift=    0.000
 RMSDP=4.58D-03 MaxDP=4.48D-01 DE=-9.92D-02 OVMax= 1.02D-01

 Cycle   7  Pass 1  IDiag  1:
 RMSU=  1.60D-03    CP:  1.19D+00  2.10D-02  9.31D-01 -6.95D-05  4.63D-01
                    CP:  4.30D-01
 E= -417.815315429049     Delta-E=       -0.027345285450 Rises=F Damp=F
 DIIS: error= 2.25D-03 at cycle   7 NSaved=   7.
 NSaved= 7 IEnMin= 7 EnMin= -417.815315429049     IErMin= 7 ErrMin= 2.25D-03
 ErrMax= 2.25D-03  0.00D+00 EMaxC= 1.00D-01 BMatC= 1.77D-03 BMatP= 3.23D-02
 IDIUse=3 WtCom= 9.78D-01 WtEn= 2.25D-02
 Coeff-Com: -0.372D-01 0.504D-01 0.364D-01-0.252D-02 0.557D-01 0.195D+00
 Coeff-Com:  0.702D+00
 Coeff-En:   0.000D+00 0.000D+00 0.000D+00 0.000D+00 0.000D+00 0.510D-01
 Coeff-En:   0.949D+00
 Coeff:     -0.364D-01 0.493D-01 0.356D-01-0.246D-02 0.544D-01 0.192D+00
 Coeff:      0.708D+00
 Gap=     0.112 Goal=   None    Shift=    0.000
 RMSDP=9.21D-04 MaxDP=7.65D-02 DE=-2.73D-02 OVMax= 1.89D-02

 Cycle   8  Pass 1  IDiag  1:
 RMSU=  2.64D-04    CP:  1.17D+00  1.93D-02  9.20D-01  3.18D-05  4.84D-01
                    CP:  5.82D-01  9.06D-01
 E= -417.817124544303     Delta-E=       -0.001809115254 Rises=F Damp=F
 DIIS: error= 6.09D-04 at cycle   8 NSaved=   8.
 NSaved= 8 IEnMin= 8 EnMin= -417.817124544303     IErMin= 8 ErrMin= 6.09D-04
 ErrMax= 6.09D-04  0.00D+00 EMaxC= 1.00D-01 BMatC= 1.17D-04 BMatP= 1.77D-03
 IDIUse=3 WtCom= 9.94D-01 WtEn= 6.09D-03
 Coeff-Com: -0.231D-01 0.288D-01-0.101D-01-0.263D-02 0.791D-02 0.878D-01
 Coeff-Com:  0.409D+00 0.502D+00
 Coeff-En:   0.000D+00 0.000D+00 0.000D+00 0.000D+00 0.000D+00 0.000D+00
 Coeff-En:   0.000D+00 0.100D+01
 Coeff:     -0.230D-01 0.286D-01-0.100D-01-0.261D-02 0.786D-02 0.873D-01
 Coeff:      0.407D+00 0.505D+00
 Gap=     0.111 Goal=   None    Shift=    0.000
 RMSDP=1.66D-04 MaxDP=1.28D-02 DE=-1.81D-03 OVMax= 3.67D-03

 Cycle   9  Pass 1  IDiag  1:
 RMSU=  6.88D-05    CP:  1.17D+00  1.97D-02  9.25D-01  6.14D-07  4.96D-01
                    CP:  5.92D-01  9.21D-01  9.57D-01
 E= -417.817225738918     Delta-E=       -0.000101194615 Rises=F Damp=F
 DIIS: error= 1.59D-04 at cycle   9 NSaved=   9.
 NSaved= 9 IEnMin= 9 EnMin= -417.817225738918     IErMin= 9 ErrMin= 1.59D-04
 ErrMax= 1.59D-04  0.00D+00 EMaxC= 1.00D-01 BMatC= 8.01D-06 BMatP= 1.17D-04
 IDIUse=3 WtCom= 9.98D-01 WtEn= 1.59D-03
 Coeff-Com: -0.964D-02 0.130D-01-0.905D-02-0.820D-03-0.289D-02 0.239D-01
 Coeff-Com:  0.129D+00 0.253D+00 0.604D+00
 Coeff-En:   0.000D+00 0.000D+00 0.000D+00 0.000D+00 0.000D+00 0.000D+00
 Coeff-En:   0.000D+00 0.000D+00 0.100D+01
 Coeff:     -0.962D-02 0.129D-01-0.903D-02-0.819D-03-0.289D-02 0.238D-01
 Coeff:      0.129D+00 0.252D+00 0.605D+00
 Gap=     0.111 Goal=   None    Shift=    0.000
 RMSDP=6.77D-05 MaxDP=4.48D-03 DE=-1.01D-04 OVMax= 6.72D-04

 Cycle  10  Pass 1  IDiag  1:
 RMSU=  3.06D-05    CP:  1.17D+00  1.97D-02  9.24D-01 -8.89D-05  4.98D-01
                    CP:  6.01D-01  9.35D-01  1.07D+00  1.07D+00
 E= -417.817232374017     Delta-E=       -0.000006635099 Rises=F Damp=F
 DIIS: error= 5.87D-05 at cycle  10 NSaved=  10.
 NSaved=10 IEnMin=10 EnMin= -417.817232374017     IErMin=10 ErrMin= 5.87D-05
 ErrMax= 5.87D-05  0.00D+00 EMaxC= 1.00D-01 BMatC= 1.21D-06 BMatP= 8.01D-06
 IDIUse=1 WtCom= 1.00D+00 WtEn= 0.00D+00
 Coeff-Com: -0.149D-02 0.188D-02-0.455D-02-0.236D-03-0.212D-02 0.223D-02
 Coeff-Com:  0.102D-01 0.522D-01 0.267D+00 0.675D+00
 Coeff:     -0.149D-02 0.188D-02-0.455D-02-0.236D-03-0.212D-02 0.223D-02
 Coeff:      0.102D-01 0.522D-01 0.267D+00 0.675D+00
 Gap=     0.111 Goal=   None    Shift=    0.000
 RMSDP=4.56D-05 MaxDP=3.09D-03 DE=-6.64D-06 OVMax= 9.46D-04

 Cycle  11  Pass 1  IDiag  1:
 RMSU=  1.50D-05    CP:  1.17D+00  1.97D-02  9.25D-01 -3.63D-05  5.01D-01
                    CP:  6.06D-01  9.35D-01  1.07D+00  1.27D+00  1.01D+00
 E= -417.817233735643     Delta-E=       -0.000001361625 Rises=F Damp=F
 DIIS: error= 3.59D-05 at cycle  11 NSaved=  11.
 NSaved=11 IEnMin=11 EnMin= -417.817233735643     IErMin=11 ErrMin= 3.59D-05
 ErrMax= 3.59D-05  0.00D+00 EMaxC= 1.00D-01 BMatC= 2.81D-07 BMatP= 1.21D-06
 IDIUse=1 WtCom= 1.00D+00 WtEn= 0.00D+00
 Coeff-Com:  0.402D-03-0.438D-03-0.915D-03 0.366D-04-0.747D-03-0.174D-02
 Coeff-Com: -0.101D-01-0.648D-02 0.369D-01 0.397D+00 0.586D+00
 Coeff:      0.402D-03-0.438D-03-0.915D-03 0.366D-04-0.747D-03-0.174D-02
 Coeff:     -0.101D-01-0.648D-02 0.369D-01 0.397D+00 0.586D+00
 Gap=     0.111 Goal=   None    Shift=    0.000
 RMSDP=1.40D-05 MaxDP=1.34D-03 DE=-1.36D-06 OVMax= 1.26D-04

 Cycle  12  Pass 1  IDiag  1:
 RMSU=  5.00D-06    CP:  1.17D+00  1.97D-02  9.24D-01 -4.22D-05  5.01D-01
                    CP:  6.08D-01  9.35D-01  1.09D+00  1.29D+00  1.05D+00
                    CP:  1.01D+00
 E= -417.817233956932     Delta-E=       -0.000000221289 Rises=F Damp=F
 DIIS: error= 9.21D-06 at cycle  12 NSaved=  12.
 NSaved=12 IEnMin=12 EnMin= -417.817233956932     IErMin=12 ErrMin= 9.21D-06
 ErrMax= 9.21D-06  0.00D+00 EMaxC= 1.00D-01 BMatC= 2.70D-08 BMatP= 2.81D-07
 IDIUse=1 WtCom= 1.00D+00 WtEn= 0.00D+00
 Coeff-Com:  0.300D-03-0.345D-03 0.524D-05 0.668D-05-0.708D-04-0.723D-03
 Coeff-Com: -0.373D-02-0.478D-02-0.391D-02 0.132D+00 0.279D+00 0.602D+00
 Coeff:      0.300D-03-0.345D-03 0.524D-05 0.668D-05-0.708D-04-0.723D-03
 Coeff:     -0.373D-02-0.478D-02-0.391D-02 0.132D+00 0.279D+00 0.602D+00
 Gap=     0.111 Goal=   None    Shift=    0.000
 RMSDP=2.90D-06 MaxDP=2.32D-04 DE=-2.21D-07 OVMax= 4.46D-05

 Cycle  13  Pass 1  IDiag  1:
 RMSU=  1.49D-06    CP:  1.17D+00  1.97D-02  9.24D-01 -4.04D-05  5.01D-01
                    CP:  6.07D-01  9.35D-01  1.09D+00  1.29D+00  1.10D+00
                    CP:  1.07D+00  9.94D-01
 E= -417.817233979948     Delta-E=       -0.000000023016 Rises=F Damp=F
 DIIS: error= 3.36D-06 at cycle  13 NSaved=  13.
 NSaved=13 IEnMin=13 EnMin= -417.817233979948     IErMin=13 ErrMin= 3.36D-06
 ErrMax= 3.36D-06  0.00D+00 EMaxC= 1.00D-01 BMatC= 4.25D-09 BMatP= 2.70D-08
 IDIUse=1 WtCom= 1.00D+00 WtEn= 0.00D+00
 Coeff-Com:  0.127D-03-0.143D-03 0.480D-04-0.858D-05-0.117D-04-0.275D-03
 Coeff-Com: -0.896D-03-0.101D-02-0.201D-02 0.475D-01 0.952D-01 0.274D+00
 Coeff-Com:  0.587D+00
 Coeff:      0.127D-03-0.143D-03 0.480D-04-0.858D-05-0.117D-04-0.275D-03
 Coeff:     -0.896D-03-0.101D-02-0.201D-02 0.475D-01 0.952D-01 0.274D+00
 Coeff:      0.587D+00
 Gap=     0.111 Goal=   None    Shift=    0.000
 RMSDP=9.57D-07 MaxDP=9.89D-05 DE=-2.30D-08 OVMax= 1.62D-05

 Cycle  14  Pass 1  IDiag  1:
 RMSU=  2.96D-07    CP:  1.17D+00  1.97D-02  9.24D-01 -4.01D-05  5.01D-01
                    CP:  6.07D-01  9.35D-01  1.09D+00  1.29D+00  1.10D+00
                    CP:  1.08D+00  1.05D+00  1.11D+00
 E= -417.817233983945     Delta-E=       -0.000000003997 Rises=F Damp=F
 DIIS: error= 1.69D-06 at cycle  14 NSaved=  14.
 NSaved=14 IEnMin=14 EnMin= -417.817233983945     IErMin=14 ErrMin= 1.69D-06
 ErrMax= 1.69D-06  0.00D+00 EMaxC= 1.00D-01 BMatC= 9.83D-10 BMatP= 4.25D-09
 IDIUse=1 WtCom= 1.00D+00 WtEn= 0.00D+00
 Coeff-Com:  0.240D-04-0.296D-04 0.403D-04-0.342D-05-0.540D-05-0.426D-04
 Coeff-Com:  0.249D-03 0.694D-03 0.509D-03 0.573D-02-0.984D-03 0.130D-01
 Coeff-Com:  0.239D+00 0.742D+00
 Coeff:      0.240D-04-0.296D-04 0.403D-04-0.342D-05-0.540D-05-0.426D-04
 Coeff:      0.249D-03 0.694D-03 0.509D-03 0.573D-02-0.984D-03 0.130D-01
 Coeff:      0.239D+00 0.742D+00
 Gap=     0.111 Goal=   None    Shift=    0.000
 RMSDP=9.51D-07 MaxDP=9.03D-05 DE=-4.00D-09 OVMax= 1.68D-05

 Cycle  15  Pass 1  IDiag  1:
 RMSU=  1.67D-07    CP:  1.17D+00  1.97D-02  9.24D-01 -3.89D-05  5.00D-01
                    CP:  6.07D-01  9.35D-01  1.09D+00  1.29D+00  1.11D+00
                    CP:  1.09D+00  1.09D+00  1.23D+00  1.05D+00
 E= -417.817233985175     Delta-E=       -0.000000001231 Rises=F Damp=F
 DIIS: error= 4.45D-07 at cycle  15 NSaved=  15.
 NSaved=15 IEnMin=15 EnMin= -417.817233985175     IErMin=15 ErrMin= 4.45D-07
 ErrMax= 4.45D-07  0.00D+00 EMaxC= 1.00D-01 BMatC= 7.63D-11 BMatP= 9.83D-10
 IDIUse=1 WtCom= 1.00D+00 WtEn= 0.00D+00
 Coeff-Com:  0.888D-05-0.154D-04 0.129D-04-0.804D-06-0.509D-05-0.407D-05
 Coeff-Com:  0.160D-03 0.437D-03 0.358D-03 0.361D-03-0.704D-02-0.196D-01
 Coeff-Com:  0.440D-01 0.324D+00 0.657D+00
 Coeff:      0.888D-05-0.154D-04 0.129D-04-0.804D-06-0.509D-05-0.407D-05
 Coeff:      0.160D-03 0.437D-03 0.358D-03 0.361D-03-0.704D-02-0.196D-01
 Coeff:      0.440D-01 0.324D+00 0.657D+00
 Gap=     0.111 Goal=   None    Shift=    0.000
 RMSDP=1.96D-07 MaxDP=2.16D-05 DE=-1.23D-09 OVMax= 3.92D-06

 Cycle  16  Pass 1  IDiag  1:
 RMSU=  4.31D-08    CP:  1.17D+00  1.97D-02  9.24D-01 -3.87D-05  5.00D-01
                    CP:  6.07D-01  9.35D-01  1.09D+00  1.29D+00  1.11D+00
                    CP:  1.09D+00  1.10D+00  1.28D+00  1.16D+00  1.15D+00
 E= -417.817233985248     Delta-E=       -0.000000000073 Rises=F Damp=F
 DIIS: error= 1.77D-07 at cycle  16 NSaved=  16.
 NSaved=16 IEnMin=16 EnMin= -417.817233985248     IErMin=16 ErrMin= 1.77D-07
 ErrMax= 1.77D-07  0.00D+00 EMaxC= 1.00D-01 BMatC= 1.45D-11 BMatP= 7.63D-11
 IDIUse=1 WtCom= 1.00D+00 WtEn= 0.00D+00
 Coeff-Com:  0.803D-06-0.219D-05 0.141D-05-0.411D-07-0.338D-05 0.368D-05
 Coeff-Com:  0.489D-04 0.158D-03 0.111D-03-0.564D-03-0.388D-02-0.144D-01
 Coeff-Com: -0.213D-01 0.439D-01 0.377D+00 0.619D+00
 Coeff:      0.803D-06-0.219D-05 0.141D-05-0.411D-07-0.338D-05 0.368D-05
 Coeff:      0.489D-04 0.158D-03 0.111D-03-0.564D-03-0.388D-02-0.144D-01
 Coeff:     -0.213D-01 0.439D-01 0.377D+00 0.619D+00
 Gap=     0.111 Goal=   None    Shift=    0.000
 RMSDP=1.47D-07 MaxDP=1.65D-05 DE=-7.28D-11 OVMax= 2.29D-06

 Cycle  17  Pass 1  IDiag  1:
 RMSU=  2.56D-08    CP:  1.17D+00  1.97D-02  9.24D-01 -3.86D-05  5.00D-01
                    CP:  6.07D-01  9.35D-01  1.09D+00  1.29D+00  1.11D+00
                    CP:  1.10D+00  1.10D+00  1.30D+00  1.21D+00  1.28D+00
                    CP:  1.01D+00
 E= -417.817233985266     Delta-E=       -0.000000000018 Rises=F Damp=F
 DIIS: error= 3.15D-08 at cycle  17 NSaved=  17.
 NSaved=17 IEnMin=17 EnMin= -417.817233985266     IErMin=17 ErrMin= 3.15D-08
 ErrMax= 3.15D-08  0.00D+00 EMaxC= 1.00D-01 BMatC= 3.67D-13 BMatP= 1.45D-11
 IDIUse=1 WtCom= 1.00D+00 WtEn= 0.00D+00
 Coeff-Com:  0.207D-06-0.478D-06-0.878D-06-0.150D-07-0.110D-05 0.118D-05
 Coeff-Com:  0.264D-05 0.201D-04-0.131D-04-0.838D-04-0.579D-03-0.296D-02
 Coeff-Com: -0.111D-01-0.111D-01 0.720D-01 0.201D+00 0.752D+00
 Coeff:      0.207D-06-0.478D-06-0.878D-06-0.150D-07-0.110D-05 0.118D-05
 Coeff:      0.264D-05 0.201D-04-0.131D-04-0.838D-04-0.579D-03-0.296D-02
 Coeff:     -0.111D-01-0.111D-01 0.720D-01 0.201D+00 0.752D+00
 Gap=     0.111 Goal=   None    Shift=    0.000
 RMSDP=2.51D-08 MaxDP=1.91D-06 DE=-1.82D-11 OVMax= 5.50D-07

 Cycle  18  Pass 1  IDiag  1:
 RMSU=  5.49D-09    CP:  1.17D+00  1.97D-02  9.24D-01 -3.85D-05  5.00D-01
                    CP:  6.07D-01  9.35D-01  1.09D+00  1.29D+00  1.11D+00
                    CP:  1.10D+00  1.10D+00  1.30D+00  1.21D+00  1.34D+00
                    CP:  1.16D+00  9.50D-01
 E= -417.817233985262     Delta-E=        0.000000000004 Rises=F Damp=F
 DIIS: error= 9.15D-09 at cycle  18 NSaved=  18.
 NSaved=18 IEnMin=17 EnMin= -417.817233985266     IErMin=18 ErrMin= 9.15D-09
 ErrMax= 9.15D-09  0.00D+00 EMaxC= 1.00D-01 BMatC= 4.27D-14 BMatP= 3.67D-13
 IDIUse=1 WtCom= 1.00D+00 WtEn= 0.00D+00
 Coeff-Com: -0.145D-06 0.238D-06-0.451D-06 0.594D-08-0.157D-06 0.454D-06
 Coeff-Com: -0.132D-05-0.242D-05-0.171D-04 0.967D-05 0.644D-04-0.892D-04
 Coeff-Com: -0.317D-02-0.859D-02-0.255D-02 0.294D-01 0.346D+00 0.639D+00
 Coeff:     -0.145D-06 0.238D-06-0.451D-06 0.594D-08-0.157D-06 0.454D-06
 Coeff:     -0.132D-05-0.242D-05-0.171D-04 0.967D-05 0.644D-04-0.892D-04
 Coeff:     -0.317D-02-0.859D-02-0.255D-02 0.294D-01 0.346D+00 0.639D+00
 Gap=     0.111 Goal=   None    Shift=    0.000
 RMSDP=1.02D-08 MaxDP=9.94D-07 DE= 4.09D-12 OVMax= 1.54D-07

 Cycle  19  Pass 1  IDiag  1:
 RMSU=  1.49D-09    CP:  1.17D+00  1.97D-02  9.24D-01 -3.85D-05  5.00D-01
                    CP:  6.07D-01  9.35D-01  1.09D+00  1.29D+00  1.11D+00
                    CP:  1.10D+00  1.10D+00  1.30D+00  1.22D+00  1.35D+00
                    CP:  1.19D+00  1.02D+00  1.11D+00
 E= -417.817233985264     Delta-E=       -0.000000000002 Rises=F Damp=F
 DIIS: error= 3.60D-09 at cycle  19 NSaved=  19.
 NSaved=19 IEnMin=17 EnMin= -417.817233985266     IErMin=19 ErrMin= 3.60D-09
 ErrMax= 3.60D-09  0.00D+00 EMaxC= 1.00D-01 BMatC= 4.78D-15 BMatP= 4.27D-14
 IDIUse=1 WtCom= 1.00D+00 WtEn= 0.00D+00
 Coeff-Com: -0.652D-07 0.993D-07-0.610D-07 0.308D-08 0.909D-07-0.794D-07
 Coeff-Com: -0.126D-05-0.420D-05-0.666D-05 0.428D-05 0.723D-04 0.236D-03
 Coeff-Com:  0.254D-03-0.787D-03-0.924D-02-0.142D-01 0.243D-01 0.220D+00
 Coeff-Com:  0.780D+00
 Coeff:     -0.652D-07 0.993D-07-0.610D-07 0.308D-08 0.909D-07-0.794D-07
 Coeff:     -0.126D-05-0.420D-05-0.666D-05 0.428D-05 0.723D-04 0.236D-03
 Coeff:      0.254D-03-0.787D-03-0.924D-02-0.142D-01 0.243D-01 0.220D+00
 Coeff:      0.780D+00
 Gap=     0.111 Goal=   None    Shift=    0.000
 RMSDP=2.57D-09 MaxDP=2.53D-07 DE=-2.05D-12 OVMax= 4.76D-08

 SCF Done:  E(RB3LYP) =  -417.817233985     A.U. after   19 cycles
            NFock= 19  Conv=0.26D-08     -V/T= 2.0037
 KE= 4.162886892502D+02 PE=-1.779091736574D+03 EE= 5.495332801315D+02
 Leave Link  502 at Fri Oct 28 12:29:22 2022, MaxMem=  8053063680 cpu:             375.9 elap:              11.8
 (Enter /public3/home/scg5914/software-scg5914/g16/l601.exe)
 Copying SCF densities to generalized density rwf, IOpCl= 0 IROHF=0.

 **********************************************************************

            Population analysis using the SCF Density.

 **********************************************************************

 Orbital symmetries:
       Occupied  (A) (A) (A) (A) (A) (A) (A) (A) (A) (A) (A) (A)
                 (A) (A) (A) (A) (A) (A) (A) (A) (A) (A) (A) (A)
                 (A) (A) (A) (A) (A) (A) (A) (A)
       Virtual   (A) (A) (A) (A) (A) (A) (A) (A) (A) (A) (A) (A)
                 (A) (A) (A) (A) (A) (A) (A) (A) (A) (A) (A) (A)
                 (A) (A) (A) (A) (A) (A) (A) (A) (A) (A) (A) (A)
                 (A) (A) (A) (A) (A) (A) (A) (A) (A) (A) (A) (A)
                 (A) (A) (A) (A) (A) (A) (A) (A) (A) (A) (A) (A)
                 (A) (A) (A) (A) (A) (A) (A) (A) (A) (A) (A) (A)
                 (A) (A) (A) (A) (A) (A) (A) (A) (A) (A) (A) (A)
                 (A) (A) (A) (A) (A) (A) (A) (A) (A) (A) (A) (A)
                 (A) (A) (A) (A) (A) (A) (A) (A) (A) (A) (A) (A)
                 (A) (A) (A) (A) (A) (A) (A) (A) (A) (A) (A) (A)
                 (A) (A) (A) (A) (A) (A) (A) (A) (A) (A) (A) (A)
                 (A) (A) (A) (A) (A) (A) (A) (A) (A) (A) (A) (A)
                 (A) (A) (A) (A) (A) (A) (A) (A) (A) (A) (A) (A)
                 (A) (A) (A) (A) (A) (A) (A) (A) (A) (A) (A) (A)
                 (A) (A) (A) (A) (A) (A) (A) (A) (A) (A) (A) (A)
                 (A) (A) (A) (A) (A) (A) (A) (A) (A) (A) (A) (A)
                 (A) (A) (A) (A) (A) (A)
 The electronic state is 1-A.
 Alpha  occ. eigenvalues --  -18.99563 -18.94037 -14.24273 -14.21193 -10.08748
 Alpha  occ. eigenvalues --  -10.07946 -10.02630  -9.97643  -0.91850  -0.88634
 Alpha  occ. eigenvalues --   -0.80449  -0.67081  -0.55503  -0.54919  -0.48359
 Alpha  occ. eigenvalues --   -0.41468  -0.39740  -0.36498  -0.32688  -0.32217
 Alpha  occ. eigenvalues --   -0.29721  -0.29572  -0.26695  -0.25975  -0.24930
 Alpha  occ. eigenvalues --   -0.22255  -0.20369  -0.19650  -0.15443  -0.06336
 Alpha  occ. eigenvalues --   -0.04375  -0.00117
 Alpha virt. eigenvalues --    0.10977   0.11834   0.13386   0.14167   0.14857
 Alpha virt. eigenvalues --    0.15968   0.16467   0.17593   0.18375   0.18638
 Alpha virt. eigenvalues --    0.19882   0.20452   0.21359   0.22613   0.23611
 Alpha virt. eigenvalues --    0.25709   0.25988   0.27032   0.27551   0.28873
 Alpha virt. eigenvalues --    0.29443   0.30241   0.30560   0.31179   0.31757
 Alpha virt. eigenvalues --    0.32507   0.33901   0.34083   0.34334   0.35130
 Alpha virt. eigenvalues --    0.35500   0.37005   0.37132   0.37888   0.38746
 Alpha virt. eigenvalues --    0.39446   0.40395   0.41030   0.41330   0.43148
 Alpha virt. eigenvalues --    0.43428   0.43660   0.44767   0.47347   0.49304
 Alpha virt. eigenvalues --    0.52198   0.53469   0.56683   0.58085   0.59789
 Alpha virt. eigenvalues --    0.61820   0.64639   0.64951   0.65838   0.68231
 Alpha virt. eigenvalues --    0.69296   0.70399   0.71451   0.73514   0.75108
 Alpha virt. eigenvalues --    0.78075   0.78496   0.78869   0.80874   0.82626
 Alpha virt. eigenvalues --    0.83198   0.84062   0.84768   0.86380   0.89208
 Alpha virt. eigenvalues --    0.92272   0.94583   0.98456   1.00784   1.03957
 Alpha virt. eigenvalues --    1.04585   1.05806   1.10465   1.11725   1.14752
 Alpha virt. eigenvalues --    1.19050   1.22875   1.23829   1.27380   1.29477
 Alpha virt. eigenvalues --    1.29718   1.33463   1.35607   1.37200   1.38948
 Alpha virt. eigenvalues --    1.39136   1.45470   1.49469   1.50872   1.55091
 Alpha virt. eigenvalues --    1.56088   1.60994   1.63906   1.65760   1.67423
 Alpha virt. eigenvalues --    1.68688   1.70098   1.72590   1.73212   1.76550
 Alpha virt. eigenvalues --    1.77382   1.79916   1.81580   1.83246   1.86809
 Alpha virt. eigenvalues --    1.88805   1.89080   1.90179   1.92657   1.95490
 Alpha virt. eigenvalues --    1.97558   1.98854   2.03270   2.05811   2.08962
 Alpha virt. eigenvalues --    2.09521   2.11449   2.13811   2.20523   2.21919
 Alpha virt. eigenvalues --    2.24975   2.30704   2.34934   2.38181   2.39815
 Alpha virt. eigenvalues --    2.43489   2.46609   2.50643   2.53102   2.56997
 Alpha virt. eigenvalues --    2.58616   2.62556   2.63303   2.64720   2.67186
 Alpha virt. eigenvalues --    2.68916   2.71333   2.75999   2.79112   2.82108
 Alpha virt. eigenvalues --    2.84130   2.86961   2.87826   2.91415   2.94656
 Alpha virt. eigenvalues --    2.96287   2.97979   3.00300   3.02507   3.05621
 Alpha virt. eigenvalues --    3.10748   3.12624   3.15773   3.18459   3.25470
 Alpha virt. eigenvalues --    3.26945   3.28483   3.30637   3.36942   3.41471
 Alpha virt. eigenvalues --    3.45669   3.47320   3.54858   3.61171   3.72246
 Alpha virt. eigenvalues --    3.78995   3.92116   3.92286   3.96128   3.98162
 Alpha virt. eigenvalues --    4.03306   4.11659   4.16253   4.38121   4.52276
 Alpha virt. eigenvalues --    4.64833   4.80471   4.90665   4.94234   5.22965
 Alpha virt. eigenvalues --    5.27659   5.33718   5.55284   5.68343   6.08988
 Alpha virt. eigenvalues --   23.93963  24.00982  24.03452  24.08615  35.63223
 Alpha virt. eigenvalues --   35.67906  50.05427  50.11723
          Condensed to atoms (all electrons):
               1          2          3          4          5          6
     1  C    5.876690   0.071574   0.000692  -0.124991   0.134472  -0.116311
     2  N    0.071574   6.903315   0.301191   0.336373  -0.277735   0.033420
     3  H    0.000692   0.301191   0.451209  -0.039473   0.115232  -0.098092
     4  H   -0.124991   0.336373  -0.039473   0.514166  -0.139284  -0.032132
     5  C    0.134472  -0.277735   0.115232  -0.139284   8.422682  -2.460246
     6  C   -0.116311   0.033420  -0.098092  -0.032132  -2.460246  11.039344
     7  C   -0.115236   0.063171  -0.007753   0.192345  -0.686562  -1.686103
     8  O    0.017862   0.065669  -0.014386  -0.034545  -0.140031   0.359745
     9  N    0.026401  -0.113989   0.031012  -0.012594   0.433999  -0.507452
    10  O   -0.003140   0.043590  -0.006797   0.001314  -0.025801  -0.492068
    11  H    0.473260  -0.059018   0.006226  -0.001151  -0.020582  -0.032738
    12  H    0.403520  -0.032939  -0.004624  -0.003336   0.007084   0.016926
    13  H    0.017414  -0.071237   0.006475  -0.001820   0.529197  -0.164122
    14  H    0.015031  -0.043711  -0.008677   0.009538   0.408625  -0.048712
    15  H    0.007153  -0.003298   0.000251  -0.005091   0.072520  -0.087847
    16  H    0.002165   0.001543  -0.000029  -0.001533   0.055188   0.028818
    17  H    0.000088   0.003455  -0.000516  -0.004961  -0.014090  -0.102322
               7          8          9         10         11         12
     1  C   -0.115236   0.017862   0.026401  -0.003140   0.473260   0.403520
     2  N    0.063171   0.065669  -0.113989   0.043590  -0.059018  -0.032939
     3  H   -0.007753  -0.014386   0.031012  -0.006797   0.006226  -0.004624
     4  H    0.192345  -0.034545  -0.012594   0.001314  -0.001151  -0.003336
     5  C   -0.686562  -0.140031   0.433999  -0.025801  -0.020582   0.007084
     6  C   -1.686103   0.359745  -0.507452  -0.492068  -0.032738   0.016926
     7  C    7.836983  -0.192319   0.094317   0.356624   0.012333  -0.007344
     8  O   -0.192319   8.230181  -0.062051  -0.073036  -0.001882   0.000274
     9  N    0.094317  -0.062051   7.313357   0.020122  -0.000529   0.000438
    10  O    0.356624  -0.073036   0.020122   8.475248   0.000101  -0.000021
    11  H    0.012333  -0.001882  -0.000529   0.000101   0.633491  -0.064089
    12  H   -0.007344   0.000274   0.000438  -0.000021  -0.064089   0.622548
    13  H   -0.002340  -0.004501   0.018300  -0.001346   0.005953  -0.000250
    14  H    0.031279  -0.003958  -0.007018  -0.000406  -0.000471  -0.000110
    15  H    0.366320  -0.061198   0.014620   0.001588  -0.000218   0.000034
    16  H    0.283671  -0.026610  -0.016555  -0.007373  -0.000022  -0.000002
    17  H    0.111905   0.272853   0.002032   0.061017  -0.000055   0.000104
              13         14         15         16         17
     1  C    0.017414   0.015031   0.007153   0.002165   0.000088
     2  N   -0.071237  -0.043711  -0.003298   0.001543   0.003455
     3  H    0.006475  -0.008677   0.000251  -0.000029  -0.000516
     4  H   -0.001820   0.009538  -0.005091  -0.001533  -0.004961
     5  C    0.529197   0.408625   0.072520   0.055188  -0.014090
     6  C   -0.164122  -0.048712  -0.087847   0.028818  -0.102322
     7  C   -0.002340   0.031279   0.366320   0.283671   0.111905
     8  O   -0.004501  -0.003958  -0.061198  -0.026610   0.272853
     9  N    0.018300  -0.007018   0.014620  -0.016555   0.002032
    10  O   -0.001346  -0.000406   0.001588  -0.007373   0.061017
    11  H    0.005953  -0.000471  -0.000218  -0.000022  -0.000055
    12  H   -0.000250  -0.000110   0.000034  -0.000002   0.000104
    13  H    0.546186  -0.019317   0.001893   0.000194  -0.000128
    14  H   -0.019317   0.497913   0.000152  -0.000524  -0.000062
    15  H    0.001893   0.000152   0.605189  -0.032307   0.006424
    16  H    0.000194  -0.000524  -0.032307   0.576902  -0.015366
    17  H   -0.000128  -0.000062   0.006424  -0.015366   0.441390
 Mulliken charges:
               1
     1  C   -0.686644
     2  N   -0.221373
     3  H    0.268061
     4  H    0.347174
     5  C   -0.414668
     6  C    0.349895
     7  C   -0.651291
     8  O   -0.332066
     9  N   -0.234410
    10  O   -0.349616
    11  H    0.049390
    12  H    0.061786
    13  H    0.139449
    14  H    0.170428
    15  H    0.113815
    16  H    0.151838
    17  H    0.238232
 Sum of Mulliken charges =  -1.00000
 Mulliken charges with hydrogens summed into heavy atoms:
               1
     1  C   -0.575468
     2  N    0.393862
     5  C   -0.104790
     6  C    0.349895
     7  C   -0.385637
     8  O   -0.093834
     9  N   -0.234410
    10  O   -0.349616
 Electronic spatial extent (au):  <R**2>=           1089.2746
 Charge=             -1.0000 electrons
 Dipole moment (field-independent basis, Debye):
    X=              2.4749    Y=              2.7081    Z=              1.6940  Tot=              4.0409
 Quadrupole moment (field-independent basis, Debye-Ang):
   XX=            -99.1445   YY=            -65.8384   ZZ=            -53.4150
   XY=              0.2847   XZ=              2.2415   YZ=              0.4312
 Traceless Quadrupole moment (field-independent basis, Debye-Ang):
   XX=            -26.3452   YY=              6.9609   ZZ=             19.3843
   XY=              0.2847   XZ=              2.2415   YZ=              0.4312
 Octapole moment (field-independent basis, Debye-Ang**2):
  XXX=            119.9742  YYY=              1.5439  ZZZ=             -8.4239  XYY=              9.3089
  XXY=             38.8451  XXZ=             16.1067  XZZ=              2.8832  YZZ=              6.7941
  YYZ=              3.3519  XYZ=             -4.6168
 Hexadecapole moment (field-independent basis, Debye-Ang**3):
 XXXX=          -1562.8483 YYYY=           -406.8064 ZZZZ=           -226.6761 XXXY=            -78.0817
 XXXZ=             -8.7636 YYYX=             -5.6672 YYYZ=              5.3182 ZZZX=            -10.1716
 ZZZY=              2.1637 XXYY=           -284.1105 XXZZ=           -226.2892 YYZZ=            -98.8790
 XXYZ=            -10.9204 YYXZ=             -3.6765 ZZXY=              5.1924
 N-N= 3.954525332073D+02 E-N=-1.779091736165D+03  KE= 4.162886892502D+02
 No NMR shielding tensors so no spin-rotation constants.
 Leave Link  601 at Fri Oct 28 12:29:22 2022, MaxMem=  8053063680 cpu:               2.6 elap:               0.1
 (Enter /public3/home/scg5914/software-scg5914/g16/l701.exe)
 ... and contract with generalized density number  0.
 Compute integral first derivatives.
 R6Disp: Adding Grimme-D3(BJ) dispersion energy 1st derivatives to the gradient.
 Leave Link  701 at Fri Oct 28 12:29:22 2022, MaxMem=  8053063680 cpu:               3.7 elap:               0.1
 (Enter /public3/home/scg5914/software-scg5914/g16/l702.exe)
 L702 exits ... SP integral derivatives will be done elsewhere.
 Leave Link  702 at Fri Oct 28 12:29:22 2022, MaxMem=  8053063680 cpu:               0.2 elap:               0.0
 (Enter /public3/home/scg5914/software-scg5914/g16/l703.exe)
 Integral derivatives from FoFJK, PRISM(SPDF).
 Compute integral first derivatives, UseDBF=F ICtDFT=           0.
 Calling FoFJK, ICntrl=      2127 FMM=F ISym2X=0 I1Cent= 0 IOpClX= 0 NMat=1 NMatS=1 NMatT=0.
 FoFJK:  IHMeth= 1 ICntrl=    2127 DoSepK=F KAlg= 0 I1Cent=           0 FoldK=F
 IRaf=         0 NMat=       1 IRICut=       1 DoRegI=T DoRafI=F ISym2E= 0 IDoP0=0 IntGTp=1.
 FoFCou: FMM=F IPFlag=           0 FMFlag=      100000 FMFlg1=         800
         NFxFlg=           0 DoJE=F BraDBF=F KetDBF=F FulRan=T
         wScrn=  0.000000 ICntrl=      2127 IOpCl=  0 I1Cent=           0 NGrid=           0
         NMat0=    1 NMatS0=      1 NMatT0=    0 NMatD0=    1 NMtDS0=    0 NMtDT0=    0
 Symmetry not used in FoFCou.
 Leave Link  703 at Fri Oct 28 12:29:24 2022, MaxMem=  8053063680 cpu:              55.9 elap:               1.8
 (Enter /public3/home/scg5914/software-scg5914/g16/l716.exe)
 Dipole        = 9.73706275D-01 1.06542931D+00 6.66490222D-01
 ***** Axes restored to original set *****
 -------------------------------------------------------------------
 Center     Atomic                   Forces (Hartrees/Bohr)
 Number     Number              X              Y              Z
 -------------------------------------------------------------------
      1        6           0.009352669    0.020250391    0.011760004
      2        7           0.005669327   -0.014556238   -0.015491318
      3        1           0.001523192    0.003381656   -0.001356288
      4        1           0.006276700    0.003182573    0.010170971
      5        6          -0.023621934    0.020352208    0.005373376
      6        6          -0.000324983   -0.011083358    0.007027779
      7        6           0.000182466    0.000389906    0.000484706
      8        8           0.000736015   -0.010494098   -0.005291003
      9        7           0.011068776    0.016359227   -0.008469361
     10        8          -0.007931359   -0.020158275   -0.000786363
     11        1           0.000720622   -0.003015933   -0.004450969
     12        1          -0.002666832   -0.005671031    0.000358542
     13        1           0.000145919   -0.001331765    0.002067426
     14        1           0.000974774    0.000858623   -0.002798109
     15        1          -0.000325851    0.000212703    0.002225972
     16        1           0.000080959    0.000040352   -0.000263055
     17        1          -0.001860460    0.001283059   -0.000562310
 -------------------------------------------------------------------
 Cartesian Forces:  Max     0.023621934 RMS     0.008433940
 Leave Link  716 at Fri Oct 28 12:29:24 2022, MaxMem=  8053063680 cpu:               0.6 elap:               0.0
 (Enter /public3/home/scg5914/software-scg5914/g16/l103.exe)

 GradGradGradGradGradGradGradGradGradGradGradGradGradGradGradGradGradGrad
 Berny optimization.
 FormGI is forming the generalized inverse of G from B-inverse, IUseBI=4.
 GSVD:  received Info=                   1 from GESDD.
 Internal  Forces:  Max     0.029442414 RMS     0.007815494
 Search for a local minimum.
 Step number   1 out of a maximum of   84
 All quantities printed in internal units (Hartrees-Bohrs-Radians)
 RMS Force = .78155D-02 SwitMx=.10000D-02 MixMth= 1
 Mixed Optimization -- RFO/linear search
 Second derivative matrix not updated -- first step.
 ITU=  0
     Eigenvalues ---    0.00230   0.00645   0.00805   0.00828   0.01355
     Eigenvalues ---    0.02058   0.02445   0.03478   0.04132   0.05308
     Eigenvalues ---    0.05357   0.06036   0.06507   0.07099   0.07960
     Eigenvalues ---    0.10091   0.11404   0.11835   0.13374   0.13783
     Eigenvalues ---    0.16000   0.16000   0.16000   0.21058   0.21965
     Eigenvalues ---    0.21969   0.22045   0.22138   0.23158   0.25000
     Eigenvalues ---    0.32689   0.34294   0.34434   0.34499   0.34567
     Eigenvalues ---    0.34666   0.34666   0.34675   0.36307   0.37539
     Eigenvalues ---    0.40711   0.44066   0.52062   0.56531   0.74753
 RFO step:  Lambda=-2.30816759D-02 EMin= 2.30000000D-03
 Linear search not attempted -- first point.
 Iteration  1 RMS(Cart)=  0.23259992 RMS(Int)=  0.01380059
 Iteration  2 RMS(Cart)=  0.01969895 RMS(Int)=  0.00153928
 Iteration  3 RMS(Cart)=  0.00024621 RMS(Int)=  0.00153469
 Iteration  4 RMS(Cart)=  0.00000030 RMS(Int)=  0.00153469
 ITry= 1 IFail=0 DXMaxC= 8.84D-01 DCOld= 1.00D+10 DXMaxT= 3.00D-01 DXLimC= 3.00D+00 Rises=F
 Variable       Old X    -DE/DX   Delta X   Delta X   Delta X     New X
                                 (Linear)    (Quad)   (Total)
    R1        2.79521   0.00832   0.00000   0.02251   0.02251   2.81772
    R2        2.06206   0.00315   0.00000   0.00852   0.00852   2.07058
    R3        2.06383   0.00221   0.00000   0.00600   0.00600   2.06983
    R4        1.93075  -0.00297   0.00000  -0.00640  -0.00640   1.92436
    R5        1.97299  -0.01146   0.00000  -0.02663  -0.02663   1.94635
    R6        3.07097  -0.01953   0.00000  -0.07991  -0.07991   2.99106
    R7        2.75041   0.02416   0.00000   0.06063   0.06063   2.81104
    R8        2.06496  -0.00223   0.00000  -0.00605  -0.00605   2.05891
    R9        2.06221  -0.00201   0.00000  -0.00543  -0.00543   2.05678
   R10        2.82901   0.00597   0.00000   0.01704   0.01704   2.84606
   R11        2.53797  -0.00574   0.00000  -0.00975  -0.00975   2.52822
   R12        2.76904   0.00135   0.00000   0.00351   0.00351   2.77255
   R13        2.06837  -0.00158   0.00000  -0.00431  -0.00431   2.06406
   R14        2.06604   0.00005   0.00000   0.00013   0.00013   2.06617
   R15        1.84540  -0.00103   0.00000  -0.00190  -0.00190   1.84350
   R16        2.40875   0.02134   0.00000   0.02770   0.02770   2.43645
    A1        1.89620  -0.00579   0.00000  -0.04297  -0.04443   1.85177
    A2        1.92918  -0.00986   0.00000  -0.06483  -0.06626   1.86292
    A3        1.90891   0.00449   0.00000   0.00229  -0.00117   1.90774
    A4        1.95407   0.00033   0.00000  -0.01957  -0.02106   1.93301
    A5        1.98840   0.00727   0.00000   0.05867   0.05918   2.04758
    A6        2.06954  -0.01071   0.00000  -0.04719  -0.04775   2.02179
    A7        1.83028  -0.00130   0.00000   0.00319   0.00333   1.83361
    A8        1.80512   0.00302   0.00000  -0.00844  -0.01000   1.79512
    A9        1.79080   0.00195   0.00000   0.01515   0.01575   1.80655
   A10        1.83490   0.02944   0.00000   0.13294   0.13256   1.96746
   A11        1.80212  -0.00847   0.00000  -0.01697  -0.01741   1.78471
   A12        1.81739  -0.00935   0.00000  -0.02895  -0.02890   1.78849
   A13        2.03840  -0.00647   0.00000  -0.02493  -0.02697   2.01143
   A14        1.99148  -0.00610   0.00000  -0.02576  -0.02669   1.96479
   A15        1.94936   0.00266   0.00000  -0.02132  -0.02288   1.92648
   A16        2.05577   0.01374   0.00000   0.07955   0.07515   2.13092
   A17        1.97248   0.00148   0.00000   0.03812   0.03335   2.00583
   A18        2.07092  -0.01006   0.00000  -0.01423  -0.02111   2.04981
   A19        1.88968   0.01808   0.00000   0.07826   0.07809   1.96777
   A20        1.97797  -0.00490   0.00000  -0.01583  -0.01702   1.96095
   A21        1.93514  -0.00413   0.00000  -0.02376  -0.02340   1.91174
   A22        1.85531  -0.00260   0.00000   0.01011   0.00946   1.86476
   A23        1.89521  -0.00823   0.00000  -0.04300  -0.04246   1.85275
   A24        1.90717   0.00176   0.00000  -0.00512  -0.00559   1.90159
   A25        1.74366   0.00374   0.00000   0.02045   0.02045   1.76410
   A26        2.02472   0.00892   0.00000   0.03268   0.03268   2.05740
    D1       -3.12197   0.00000   0.00000   0.01634   0.01577  -3.10621
    D2       -1.04873   0.00367   0.00000   0.04755   0.04668  -1.00205
    D3        1.06138   0.00395   0.00000   0.08205   0.08047   1.14185
    D4       -1.02734  -0.00408   0.00000  -0.04710  -0.04566  -1.07299
    D5        1.04591  -0.00041   0.00000  -0.01589  -0.01475   1.03116
    D6       -3.12717  -0.00013   0.00000   0.01861   0.01905  -3.10812
    D7       -2.81067  -0.00299   0.00000  -0.05293  -0.05298  -2.86364
    D8       -0.66537  -0.00091   0.00000  -0.02863  -0.02801  -0.69339
    D9        1.37312  -0.00503   0.00000  -0.07027  -0.06995   1.30318
   D10        1.29787   0.00121   0.00000   0.01127   0.01066   1.30852
   D11       -2.84003   0.00328   0.00000   0.03557   0.03562  -2.80441
   D12       -0.80153  -0.00083   0.00000  -0.00606  -0.00632  -0.80784
   D13       -0.60256   0.00100   0.00000   0.00554   0.00518  -0.59738
   D14        1.54274   0.00308   0.00000   0.02984   0.03014   1.57287
   D15       -2.70195  -0.00104   0.00000  -0.01179  -0.01180  -2.71375
   D16        1.18557   0.00362   0.00000   0.10762   0.10969   1.29525
   D17       -1.33408  -0.00012   0.00000  -0.03959  -0.04180  -1.37588
   D18       -0.79960  -0.00232   0.00000   0.05232   0.05508  -0.74452
   D19        2.96394  -0.00606   0.00000  -0.09489  -0.09640   2.86753
   D20       -3.11748   0.00724   0.00000   0.14072   0.14231  -2.97517
   D21        0.64606   0.00350   0.00000  -0.00648  -0.00917   0.63689
   D22       -1.37964  -0.00948   0.00000  -0.20108  -0.20066  -1.58031
   D23        0.67399  -0.00371   0.00000  -0.14635  -0.14586   0.52814
   D24        2.82618  -0.00819   0.00000  -0.18302  -0.18211   2.64407
   D25        1.10451  -0.00073   0.00000  -0.02405  -0.02484   1.07967
   D26       -3.12503   0.00504   0.00000   0.03068   0.02996  -3.09507
   D27       -0.97284   0.00057   0.00000  -0.00599  -0.00629  -0.97914
   D28        2.64782   0.00736   0.00000   0.11043   0.10802   2.75584
   D29        0.13404  -0.00566   0.00000  -0.07467  -0.07227   0.06177
   D30       -1.12473   0.00092   0.00000   0.02220   0.02324  -1.10148
   D31        3.02781  -0.00175   0.00000  -0.00797  -0.00864   3.01917
   D32        0.97770   0.00173   0.00000   0.01434   0.01397   0.99167
         Item               Value     Threshold  Converged?
 Maximum Force            0.029442     0.000450     NO 
 RMS     Force            0.007815     0.000300     NO 
 Maximum Displacement     0.883674     0.001800     NO 
 RMS     Displacement     0.237243     0.001200     NO 
 Predicted change in Energy=-1.441732D-02
 Lowest energy point so far.  Saving SCF results.
 GradGradGradGradGradGradGradGradGradGradGradGradGradGradGradGradGradGrad

 Leave Link  103 at Fri Oct 28 12:29:25 2022, MaxMem=  8053063680 cpu:               4.5 elap:               0.2
 (Enter /public3/home/scg5914/software-scg5914/g16/l202.exe)
                          Input orientation:                          
 ---------------------------------------------------------------------
 Center     Atomic      Atomic             Coordinates (Angstroms)
 Number     Number       Type             X           Y           Z
 ---------------------------------------------------------------------
      1          6           0       -0.423906    1.289550   -0.585906
      2          7           0       -0.218914   -0.186110   -0.525013
      3          1           0       -0.494355   -0.551441    0.384740
      4          1           0       -0.727815   -0.762686   -1.210147
      5          6           0        1.278030   -0.681011   -0.664647
      6          6           0        1.376940   -2.132947   -0.972641
      7          6           0        1.055419   -2.685344   -2.336358
      8          8           0       -0.353160   -3.072014   -2.474100
      9          7           0        1.207594   -2.944832    0.077158
     10          8           0        0.849244   -4.161700   -0.153381
     11          1           0       -0.141183    1.593993   -1.599785
     12          1           0       -1.495168    1.465465   -0.440473
     13          1           0        1.671063   -0.015288   -1.432377
     14          1           0        1.700092   -0.430259    0.306746
     15          1           0        1.266864   -1.970407   -3.134589
     16          1           0        1.638613   -3.593814   -2.509630
     17          1           0       -0.418066   -3.783352   -1.809673
 ---------------------------------------------------------------------
                    Distance matrix (angstroms):
                    1          2          3          4          5
     1  C    0.000000
     2  N    1.491074   0.000000
     3  H    2.082394   1.018325   0.000000
     4  H    2.166496   1.029965   1.625667   0.000000
     5  C    2.604975   1.582803   2.063819   2.080302   0.000000
     6  C    3.886656   2.556813   2.800962   2.522701   1.487536
     7  C    4.588275   3.339322   3.789422   2.853926   2.619452
     8  O    4.753264   3.485026   3.813947   2.659124   3.413473
     9  N    4.586004   3.163555   2.952889   3.188217   2.383301
    10  O    5.614634   4.133327   3.889576   3.893221   3.544072
    11  H    1.095704   2.080851   2.943799   2.459652   2.839769
    12  H    1.095307   2.088940   2.398023   2.479089   3.514006
    13  H    2.609216   2.103450   2.877222   2.522421   1.089528
    14  H    2.875054   2.105710   2.199174   2.882049   1.088401
    15  H    4.470101   3.493013   4.183424   3.023378   2.786267
    16  H    5.639321   4.359077   4.709879   3.912024   3.466757
    17  H    5.218426   3.824940   3.907239   3.095126   3.716497
                    6          7          8          9         10
     6  C    0.000000
     7  C    1.506069   0.000000
     8  O    2.475777   1.467168   0.000000
     9  N    1.337876   2.432191   2.993501   0.000000
    10  O    2.250663   2.643392   2.831771   1.289315   0.000000
    11  H    4.072848   4.504123   4.751945   5.023173   6.016729
    12  H    4.634736   5.227724   5.101817   5.198421   6.102760
    13  H    2.186858   2.885377   3.811331   3.328021   4.416328
    14  H    2.154160   3.533697   4.350612   2.572614   3.854778
    15  H    2.170842   1.092253   2.067429   3.356834   3.723408
    16  H    2.136572   1.093368   2.059296   2.701560   2.549021
    17  H    2.578082   1.911591   0.975540   2.627931   2.119558
                   11         12         13         14         15
    11  H    0.000000
    12  H    1.787120   0.000000
    13  H    2.429413   3.633389   0.000000
    14  H    3.335078   3.789695   1.788181   0.000000
    15  H    4.128337   5.166459   2.623622   3.795066   0.000000
    16  H    5.559571   6.300659   3.737295   4.236016   1.778825
    17  H    5.388558   5.530365   4.324942   4.495449   2.807341
                   16         17
    16  H    0.000000
    17  H    2.180779   0.000000
 Stoichiometry    C4H9N2O2(1-)
 Framework group  C1[X(C4H9N2O2)]
 Deg. of freedom    45
 Full point group                 C1      NOp   1
 RotChk:  IX=0 Diff= 1.80D-01
 Largest Abelian subgroup         C1      NOp   1
 Largest concise Abelian subgroup C1      NOp   1
                         Standard orientation:                         
 ---------------------------------------------------------------------
 Center     Atomic      Atomic             Coordinates (Angstroms)
 Number     Number       Type             X           Y           Z
 ---------------------------------------------------------------------
      1          6           0       -3.244466    0.088059   -0.261441
      2          7           0       -1.777496   -0.089408   -0.460951
      3          1           0       -1.592197   -0.821665   -1.143923
      4          1           0       -1.243358    0.726641   -0.791994
      5          6           0       -0.962747   -0.575327    0.806066
      6          6           0        0.503468   -0.371844    0.659195
      7          6           0        1.136331    0.991000    0.761097
      8          8           0        1.228804    1.671855   -0.535232
      9          7           0        1.127286   -1.286836   -0.091507
     10          8           0        2.259057   -0.964544   -0.618343
     11          1           0       -3.356541    0.911103    0.453125
     12          1           0       -3.660216    0.389362   -1.228947
     13          1           0       -1.431575   -0.012248    1.612424
     14          1           0       -1.234152   -1.627357    0.870779
     15          1           0        0.584919    1.656170    1.429311
     16          1           0        2.162095    0.891387    1.126254
     17          1           0        1.824091    1.070506   -1.020712
 ---------------------------------------------------------------------
 Rotational constants (GHZ):           3.2428159           1.2318524           1.0657202
 Leave Link  202 at Fri Oct 28 12:29:25 2022, MaxMem=  8053063680 cpu:               0.1 elap:               0.0
 (Enter /public3/home/scg5914/software-scg5914/g16/l301.exe)
 Standard basis: 6-311+G(d,p) (5D, 7F)
 Ernie: Thresh=  0.10000D-02 Tol=  0.10000D-05 Strict=F.
 There are   238 symmetry adapted cartesian basis functions of A   symmetry.
 There are   230 symmetry adapted basis functions of A   symmetry.
   230 basis functions,   360 primitive gaussians,   238 cartesian basis functions
    32 alpha electrons       32 beta electrons
       nuclear repulsion energy       384.6081375075 Hartrees.
 IExCor=  402 DFT=T Ex+Corr=B3LYP ExCW=0 ScaHFX=  0.200000
 ScaDFX=  0.800000  0.720000  1.000000  0.810000 ScalE2=  1.000000  1.000000
 IRadAn=      5 IRanWt=     -1 IRanGd=            0 ICorTp=0 IEmpDi=141
 NAtoms=   17 NActive=   17 NUniq=   17 SFac= 1.00D+00 NAtFMM=   60 NAOKFM=F Big=F
 Integral buffers will be    131072 words long.
 Raffenetti 2 integral format.
 Two-electron integral symmetry is turned on.
 R6Disp:  Grimme-D3(BJ) Dispersion energy=       -0.0246132046 Hartrees.
 Nuclear repulsion after empirical dispersion term =      384.5835243030 Hartrees.
 Leave Link  301 at Fri Oct 28 12:29:25 2022, MaxMem=  8053063680 cpu:               0.6 elap:               0.0
 (Enter /public3/home/scg5914/software-scg5914/g16/l302.exe)
 NPDir=0 NMtPBC=     1 NCelOv=     1 NCel=       1 NClECP=     1 NCelD=      1
         NCelK=      1 NCelE2=     1 NClLst=     1 CellRange=     0.0.
 One-electron integrals computed using PRISM.
 One-electron integral symmetry used in STVInt
 NBasis=   230 RedAO= T EigKep=  3.34D-05  NBF=   230
 NBsUse=   230 1.00D-06 EigRej= -1.00D+00 NBFU=   230
 Precomputing XC quadrature grid using
 IXCGrd= 4 IRadAn=           5 IRanWt=          -1 IRanGd=           0 AccXCQ= 0.00D+00.
 Generated NRdTot=       0 NPtTot=           0 NUsed=           0 NTot=          32
 NSgBfM=   238   238   238   238   238 MxSgAt=    17 MxSgA2=    17.
 Leave Link  302 at Fri Oct 28 12:29:25 2022, MaxMem=  8053063680 cpu:               4.3 elap:               0.1
 (Enter /public3/home/scg5914/software-scg5914/g16/l303.exe)
 DipDrv:  MaxL=1.
 Leave Link  303 at Fri Oct 28 12:29:25 2022, MaxMem=  8053063680 cpu:               0.4 elap:               0.0
 (Enter /public3/home/scg5914/software-scg5914/g16/l401.exe)
 Initial guess from the checkpoint file:  "dsgdb9nsd_004015-3.chk"
 B after Tr=     0.000000   -0.000000   -0.000000
         Rot=    0.997661    0.045420    0.006613    0.050662 Ang=   7.84 deg.
 Guess basis will be translated and rotated to current coordinates.
 JPrj=2 DoOrth=T DoCkMO=T.
 Generating alternative initial guess.
 ExpMin= 4.38D-02 ExpMax= 8.59D+03 ExpMxC= 1.30D+03 IAcc=3 IRadAn=         5 AccDes= 0.00D+00
 Harris functional with IExCor=  402 and IRadAn=       5 diagonalized for initial guess.
 HarFok:  IExCor=  402 AccDes= 0.00D+00 IRadAn=         5 IDoV= 1 UseB2=F ITyADJ=14
 ICtDFT=  3500011 ScaDFX=  1.000000  1.000000  1.000000  1.000000
 FoFCou: FMM=F IPFlag=           0 FMFlag=      100000 FMFlg1=           0
         NFxFlg=           0 DoJE=T BraDBF=F KetDBF=T FulRan=T
         wScrn=  0.000000 ICntrl=       500 IOpCl=  0 I1Cent=   200000004 NGrid=           0
         NMat0=    1 NMatS0=      1 NMatT0=    0 NMatD0=    1 NMtDS0=    0 NMtDT0=    0
 Petite list used in FoFCou.
 Harris En= -418.001933009271    
 Leave Link  401 at Fri Oct 28 12:29:25 2022, MaxMem=  8053063680 cpu:              14.9 elap:               0.5
 (Enter /public3/home/scg5914/software-scg5914/g16/l502.exe)
 Integral symmetry usage will be decided dynamically.
 Closed shell SCF:
 Using DIIS extrapolation, IDIIS=  1040.
 NGot=  8053063680 LenX=  8052939950 LenY=  8052882865
 Requested convergence on RMS density matrix=1.00D-08 within 128 cycles.
 Requested convergence on MAX density matrix=1.00D-06.
 Requested convergence on             energy=1.00D-06.
 No special actions if energy rises.
 Fock matrices will be formed incrementally for  20 cycles.

 Cycle   1  Pass 1  IDiag  1:
 FoFJK:  IHMeth= 1 ICntrl=       0 DoSepK=F KAlg= 0 I1Cent=           0 FoldK=F
 IRaf= 950000000 NMat=       1 IRICut=       1 DoRegI=T DoRafI=F ISym2E= 0 IDoP0=0 IntGTp=1.
 FoFCou: FMM=F IPFlag=           0 FMFlag=      100000 FMFlg1=           0
         NFxFlg=           0 DoJE=F BraDBF=F KetDBF=F FulRan=T
         wScrn=  0.000000 ICntrl=         0 IOpCl=  0 I1Cent=           0 NGrid=           0
         NMat0=    1 NMatS0=      1 NMatT0=    0 NMatD0=    1 NMtDS0=    0 NMtDT0=    0
 Symmetry not used in FoFCou.
 E= -417.756235265344    
 DIIS: error= 7.80D-03 at cycle   1 NSaved=   1.
 NSaved= 1 IEnMin= 1 EnMin= -417.756235265344     IErMin= 1 ErrMin= 7.80D-03
 ErrMax= 7.80D-03  0.00D+00 EMaxC= 1.00D-01 BMatC= 3.92D-02 BMatP= 3.92D-02
 IDIUse=3 WtCom= 9.22D-01 WtEn= 7.80D-02
 Coeff-Com:  0.100D+01
 Coeff-En:   0.100D+01
 Coeff:      0.100D+01
 Gap=     0.352 Goal=   None    Shift=    0.000
 GapD=    0.352 DampG=1.000 DampE=1.000 DampFc=1.0000 IDamp=-1.
 RMSDP=5.25D-03 MaxDP=5.22D-01              OVMax= 8.72D-02

 Cycle   2  Pass 1  IDiag  1:
 RMSU=  4.98D-03    CP:  1.08D+00
 E= -417.823002336062     Delta-E=       -0.066767070718 Rises=F Damp=F
 DIIS: error= 3.56D-03 at cycle   2 NSaved=   2.
 NSaved= 2 IEnMin= 2 EnMin= -417.823002336062     IErMin= 2 ErrMin= 3.56D-03
 ErrMax= 3.56D-03  0.00D+00 EMaxC= 1.00D-01 BMatC= 3.79D-03 BMatP= 3.92D-02
 IDIUse=3 WtCom= 9.64D-01 WtEn= 3.56D-02
 Coeff-Com:  0.710D-01 0.929D+00
 Coeff-En:   0.000D+00 0.100D+01
 Coeff:      0.684D-01 0.932D+00
 Gap=     0.129 Goal=   None    Shift=    0.000
 RMSDP=1.75D-03 MaxDP=1.81D-01 DE=-6.68D-02 OVMax= 2.62D-02

 Cycle   3  Pass 1  IDiag  1:
 RMSU=  1.27D-03    CP:  1.04D+00  8.32D-01
 E= -417.820029862726     Delta-E=        0.002972473336 Rises=F Damp=F
 DIIS: error= 5.61D-03 at cycle   3 NSaved=   3.
 NSaved= 3 IEnMin= 2 EnMin= -417.823002336062     IErMin= 2 ErrMin= 3.56D-03
 ErrMax= 5.61D-03  0.00D+00 EMaxC= 1.00D-01 BMatC= 8.71D-03 BMatP= 3.79D-03
 IDIUse=3 WtCom= 1.18D-01 WtEn= 8.82D-01
 Coeff-Com: -0.423D-01 0.628D+00 0.414D+00
 Coeff-En:   0.000D+00 0.644D+00 0.356D+00
 Coeff:     -0.498D-02 0.642D+00 0.363D+00
 Gap=     0.132 Goal=   None    Shift=    0.000
 RMSDP=1.06D-03 MaxDP=1.16D-01 DE= 2.97D-03 OVMax= 1.73D-02

 Cycle   4  Pass 1  IDiag  1:
 RMSU=  3.01D-04    CP:  1.06D+00  9.56D-01  5.24D-01
 E= -417.826128206727     Delta-E=       -0.006098344000 Rises=F Damp=F
 DIIS: error= 4.77D-04 at cycle   4 NSaved=   4.
 NSaved= 4 IEnMin= 4 EnMin= -417.826128206727     IErMin= 4 ErrMin= 4.77D-04
 ErrMax= 4.77D-04  0.00D+00 EMaxC= 1.00D-01 BMatC= 1.23D-04 BMatP= 3.79D-03
 IDIUse=3 WtCom= 9.95D-01 WtEn= 4.77D-03
 Coeff-Com: -0.219D-01 0.277D+00 0.154D+00 0.591D+00
 Coeff-En:   0.000D+00 0.000D+00 0.000D+00 0.100D+01
 Coeff:     -0.218D-01 0.275D+00 0.153D+00 0.593D+00
 Gap=     0.132 Goal=   None    Shift=    0.000
 RMSDP=4.09D-04 MaxDP=4.99D-02 DE=-6.10D-03 OVMax= 9.15D-03

 Cycle   5  Pass 1  IDiag  1:
 RMSU=  2.67D-04    CP:  1.05D+00  9.37D-01  5.98D-01  7.34D-01
 E= -417.826136412778     Delta-E=       -0.000008206052 Rises=F Damp=F
 DIIS: error= 6.94D-04 at cycle   5 NSaved=   5.
 NSaved= 5 IEnMin= 5 EnMin= -417.826136412778     IErMin= 4 ErrMin= 4.77D-04
 ErrMax= 6.94D-04  0.00D+00 EMaxC= 1.00D-01 BMatC= 1.20D-04 BMatP= 1.23D-04
 IDIUse=3 WtCom= 9.93D-01 WtEn= 6.94D-03
 Coeff-Com: -0.736D-02 0.714D-01 0.231D-01 0.495D+00 0.418D+00
 Coeff-En:   0.000D+00 0.000D+00 0.000D+00 0.484D+00 0.516D+00
 Coeff:     -0.731D-02 0.709D-01 0.229D-01 0.495D+00 0.419D+00
 Gap=     0.132 Goal=   None    Shift=    0.000
 RMSDP=2.54D-04 MaxDP=3.00D-02 DE=-8.21D-06 OVMax= 5.27D-03

 Cycle   6  Pass 1  IDiag  1:
 RMSU=  6.45D-05    CP:  1.06D+00  9.58D-01  5.42D-01  9.57D-01  5.76D-01
 E= -417.826232207890     Delta-E=       -0.000095795112 Rises=F Damp=F
 DIIS: error= 6.57D-05 at cycle   6 NSaved=   6.
 NSaved= 6 IEnMin= 6 EnMin= -417.826232207890     IErMin= 6 ErrMin= 6.57D-05
 ErrMax= 6.57D-05  0.00D+00 EMaxC= 1.00D-01 BMatC= 2.00D-06 BMatP= 1.20D-04
 IDIUse=1 WtCom= 1.00D+00 WtEn= 0.00D+00
 Coeff-Com: -0.165D-02 0.858D-02-0.282D-02 0.184D+00 0.193D+00 0.618D+00
 Coeff:     -0.165D-02 0.858D-02-0.282D-02 0.184D+00 0.193D+00 0.618D+00
 Gap=     0.132 Goal=   None    Shift=    0.000
 RMSDP=4.37D-05 MaxDP=5.03D-03 DE=-9.58D-05 OVMax= 8.88D-04

 Cycle   7  Pass 1  IDiag  1:
 RMSU=  1.96D-05    CP:  1.06D+00  9.56D-01  5.55D-01  9.66D-01  6.64D-01
                    CP:  9.53D-01
 E= -417.826233611273     Delta-E=       -0.000001403383 Rises=F Damp=F
 DIIS: error= 4.39D-05 at cycle   7 NSaved=   7.
 NSaved= 7 IEnMin= 7 EnMin= -417.826233611273     IErMin= 7 ErrMin= 4.39D-05
[...]
  31. LP (   2) O  10                /220. BD*(   1) C   5 - C   6            1.21    0.72    0.027
  31. LP (   2) O  10                /224. BD*(   1) C   6 - N   9            2.51    0.87    0.042
  31. LP (   2) O  10                /227. BD*(   1) C   7 - H  15            0.91    0.65    0.022
  31. LP (   2) O  10                /229. BD*(   1) O   8 - H  17           13.14    0.71    0.086
  32. LP (   3) O  10                /147. RY*(   3) N   9                    1.79    1.97    0.058
  32. LP (   3) O  10                /151. RY*(   7) N   9                    0.90    1.20    0.032
  32. LP (   3) O  10                /225. BD*(   2) C   6 - N   9           55.90    0.24    0.104
  32. LP (   3) O  10                /229. BD*(   1) O   8 - H  17            2.74    0.65    0.041
 225. BD*(   2) C   6 - N   9        /147. RY*(   3) N   9                    0.64    1.72    0.074
 225. BD*(   2) C   6 - N   9        /219. BD*(   1) N   2 - C   5            3.91    0.21    0.059
 225. BD*(   2) C   6 - N   9        /222. BD*(   1) C   5 - H  14            0.50    0.37    0.030
 225. BD*(   2) C   6 - N   9        /226. BD*(   1) C   7 - O   8            2.06    0.26    0.050
 225. BD*(   2) C   6 - N   9        /228. BD*(   1) C   7 - H  16            1.48    0.34    0.048


 Natural Bond Orbitals (Summary):

                                                            Principal Delocalizations
           NBO                        Occupancy    Energy   (geminal,vicinal,remote)
 ====================================================================================
 Molecular unit  1  (C4H9N2O2)
     1. BD (   1) C   1 - N   2          1.99027    -0.56943  220(v),217(g),219(g),80(v)
     2. BD (   1) C   1 - H  11          1.98612    -0.34016  217(v),214(g)
     3. BD (   1) C   1 - H  12          1.98328    -0.34015  219(v),214(g)
     4. BD (   1) N   2 - H   3          1.98631    -0.52562  221(v),215(v),77(v),34(v)
     5. BD (   1) N   2 - H   4          1.99003    -0.53036  222(v),33(v),78(v)
     6. BD (   1) N   2 - C   5          1.98804    -0.58169  225(v),35(v),95(v),214(g)
                                                    216(v)
     7. BD (   1) C   5 - C   6          1.97656    -0.51512  230(v),214(v),224(g),145(v)
                                                    223(g),222(g),112(v),226(v)
     8. BD (   1) C   5 - H  13          1.98141    -0.39218  224(v),217(v),96(v),225(v)
     9. BD (   1) C   5 - H  14          1.98048    -0.38402  223(v),218(v),225(v),220(g)
    10. BD (   1) C   6 - C   7          1.98557    -0.49384  224(g),220(g),222(v),145(v)
                                                    128(v),77(v),146(v)
    11. BD (   1) C   6 - N   9          1.99007    -0.70551  220(g),223(g),221(v),162(v)
                                                    78(v)
    12. BD (   2) C   6 - N   9          1.91370    -0.15528  219(v),225(g),226(v),228(v)
                                                    163(v),221(v),222(v)
    13. BD (   1) C   7 - O   8          1.99327    -0.65060  220(v),225(v),94(v)
    14. BD (   1) C   7 - H  15          1.98412    -0.37760  224(v),229(v),96(v)
    15. BD (   1) C   7 - H  16          1.97970    -0.36375  225(v),220(v),95(v)
    16. BD (   1) O   8 - H  17          1.98763    -0.54976  227(v),112(v),116(v)
    17. BD (   1) N   9 - O  10          1.98838    -0.71464  220(v),96(v),146(g)
    18. CR (   1) C   1                  1.99939    -9.88636  214(g)
    19. CR (   1) N   2                  1.99950   -14.09757  35(v),79(v),74(v)
    20. CR (   1) C   5                  1.99917    -9.94807  96(v),219(g),214(v),223(v)
                                                    195(v),98(v)
    21. CR (   1) C   6                  1.99921    -9.90301  114(v),230(v)
    22. CR (   1) C   7                  1.99916    -9.95557  226(g),96(v),220(v)
    23. CR (   1) O   8                  1.99981   -18.75801  209(v),111(v)
    24. CR (   1) N   9                  1.99923   -14.02981  94(v),230(g),223(v),224(g)
                                                    220(v)
    25. CR (   1) O  10                  1.99985   -18.75006  146(v),224(v)
    26. LP (   1) C   1                  1.92735    -0.07085  218(v),50(v),184(v),180(v)
                                                    185(v),77(r)
    27. LP (   1) O   8                  1.97918    -0.46728  227(v),209(v),111(v),223(v)
                                                    112(v),113(v),115(v)
    28. LP (   2) O   8                  1.95475    -0.14617  228(v),223(v),210(v),113(v)
    29. LP (   1) N   9                  1.94699    -0.23057  223(v),94(v),162(v),220(v)
                                                    97(v),95(v),107(v)
    30. LP (   1) O  10                  1.98390    -0.54691  224(v),146(v),229(r),145(v)
    31. LP (   2) O  10                  1.92986    -0.13835  229(r),224(v),145(v),146(v)
                                                    220(r),227(r),148(v),149(v)
    32. LP (   3) O  10                  1.66579    -0.07806  225(v),229(r),147(v),151(v)
    33. RY*(   1) C   1                  0.00253     0.82468   
    34. RY*(   2) C   1                  0.00123     0.85849   
    35. RY*(   3) C   1                  0.00085     0.94228   
    36. RY*(   4) C   1                  0.00017     0.94793   
    37. RY*(   5) C   1                  0.00015     0.60248   
    38. RY*(   6) C   1                  0.00010     0.88441   
    39. RY*(   7) C   1                  0.00004     2.08907   
    40. RY*(   8) C   1                  0.00002     1.50572   
    41. RY*(   9) C   1                  0.00000     2.24693   
    42. RY*(  10) C   1                  0.00001     1.03479   
    43. RY*(  11) C   1                  0.00000     2.56973   
    44. RY*(  12) C   1                  0.00000     2.99765   
    45. RY*(  13) C   1                  0.00000     1.68128   
    46. RY*(  14) C   1                  0.00001     1.82921   
    47. RY*(  15) C   1                  0.00000     2.22663   
    48. RY*(  16) C   1                  0.00000    23.21866   
    49. RY*(  17) C   1                  0.00001     1.99158   
    50. RY*(   1) N   2                  0.01312     0.68917   
    51. RY*(   2) N   2                  0.00240     0.62834   
    52. RY*(   3) N   2                  0.00169     1.51514   
    53. RY*(   4) N   2                  0.00102     1.32955   
    54. RY*(   5) N   2                  0.00089     1.10696   
    55. RY*(   6) N   2                  0.00064     1.34150   
    56. RY*(   7) N   2                  0.00031     1.43422   
    57. RY*(   8) N   2                  0.00025     2.33607   
    58. RY*(   9) N   2                  0.00010     2.46907   
    59. RY*(  10) N   2                  0.00005     2.00216   
    60. RY*(  11) N   2                  0.00001     2.22723   
    61. RY*(  12) N   2                  0.00001     3.97504   
    62. RY*(  13) N   2                  0.00001     1.08625   
    63. RY*(  14) N   2                  0.00000    34.96155   
    64. RY*(  15) N   2                  0.00000     4.20282   
    65. RY*(  16) N   2                  0.00000     2.50930   
    66. RY*(  17) N   2                  0.00001     4.20152   
    67. RY*(   1) H   3                  0.00541     0.60699   
    68. RY*(   2) H   3                  0.00047     2.05687   
    69. RY*(   3) H   3                  0.00018     2.25729   
    70. RY*(   4) H   3                  0.00012     2.19598   
    71. RY*(   5) H   3                  0.00006     2.55004   
    72. RY*(   1) H   4                  0.00632     0.67426   
    73. RY*(   2) H   4                  0.00045     1.88662   
    74. RY*(   3) H   4                  0.00022     2.35063   
    75. RY*(   4) H   4                  0.00015     1.97864   
    76. RY*(   5) H   4                  0.00003     2.68558   
    77. RY*(   1) C   5                  0.00958     0.71932   
    78. RY*(   2) C   5                  0.00569     0.99392   
    79. RY*(   3) C   5                  0.00254     0.93861   
    80. RY*(   4) C   5                  0.00189     0.88284   
    81. RY*(   5) C   5                  0.00083     1.23108   
    82. RY*(   6) C   5                  0.00048     1.83507   
    83. RY*(   7) C   5                  0.00030     1.63228   
    84. RY*(   8) C   5                  0.00031     1.38864   
    85. RY*(   9) C   5                  0.00017     1.16844   
    86. RY*(  10) C   5                  0.00011     1.82067   
    87. RY*(  11) C   5                  0.00007     3.45160   
    88. RY*(  12) C   5                  0.00006     1.56829   
    89. RY*(  13) C   5                  0.00004     2.65276   
    90. RY*(  14) C   5                  0.00001     1.98892   
    91. RY*(  15) C   5                  0.00001     2.85432   
    92. RY*(  16) C   5                  0.00000    22.34984   
    93. RY*(  17) C   5                  0.00001     1.98357   
    94. RY*(   1) C   6                  0.01423     0.90035   
    95. RY*(   2) C   6                  0.00641     0.93440   
    96. RY*(   3) C   6                  0.00397     1.23011   
    97. RY*(   4) C   6                  0.00158     1.45190   
    98. RY*(   5) C   6                  0.00151     1.18549   
    99. RY*(   6) C   6                  0.00075     1.34804   
   100. RY*(   7) C   6                  0.00039     2.05992   
   101. RY*(   8) C   6                  0.00039     1.98399   
   102. RY*(   9) C   6                  0.00031     2.53673   
   103. RY*(  10) C   6                  0.00018     3.25497   
   104. RY*(  11) C   6                  0.00012     2.46976   
   105. RY*(  12) C   6                  0.00005     2.81892   
   106. RY*(  13) C   6                  0.00004     2.61327   
   107. RY*(  14) C   6                  0.00001    18.86436   
   108. RY*(  15) C   6                  0.00002     2.65724   
   109. RY*(  16) C   6                  0.00002     1.09655   
   110. RY*(  17) C   6                  0.00001     2.35768   
   111. RY*(   1) C   7                  0.00716     0.91000   
   112. RY*(   2) C   7                  0.00452     0.90170   
   113. RY*(   3) C   7                  0.00312     1.14077   
   114. RY*(   4) C   7                  0.00234     1.11792   
   115. RY*(   5) C   7                  0.00144     1.82324   
   116. RY*(   6) C   7                  0.00119     1.32961   
   117. RY*(   7) C   7                  0.00030     1.39009   
   118. RY*(   8) C   7                  0.00024     1.89956   
   119. RY*(   9) C   7                  0.00008     2.65981   
   120. RY*(  10) C   7                  0.00009     1.96310   
   121. RY*(  11) C   7                  0.00006     1.03232   
   122. RY*(  12) C   7                  0.00002     2.98909   
   123. RY*(  13) C   7                  0.00001     2.24733   
   124. RY*(  14) C   7                  0.00001     2.03131   
   125. RY*(  15) C   7                  0.00001     2.86478   
   126. RY*(  16) C   7                  0.00000     1.46152   
   127. RY*(  17) C   7                  0.00000    21.45904   
   128. RY*(   1) O   8                  0.00409     0.62828   
   129. RY*(   2) O   8                  0.00192     0.70572   
   130. RY*(   3) O   8                  0.00089     1.23176   
   131. RY*(   4) O   8                  0.00032     1.00723   
   132. RY*(   5) O   8                  0.00012     1.55236   
   133. RY*(   6) O   8                  0.00007     1.30617   
   134. RY*(   7) O   8                  0.00003     1.83931   
   135. RY*(   8) O   8                  0.00004     1.68034   
   136. RY*(   9) O   8                  0.00001     5.23883   
   137. RY*(  10) O   8                  0.00000    49.85516   
   138. RY*(  11) O   8                  0.00000     5.12213   
   139. RY*(  12) O   8                  0.00000     4.64111   
   140. RY*(  13) O   8                  0.00000     3.14953   
   141. RY*(  14) O   8                  0.00001     2.67962   
   142. RY*(  15) O   8                  0.00000     3.06058   
   143. RY*(  16) O   8                  0.00000     3.31571   
   144. RY*(  17) O   8                  0.00001     3.22652   
   145. RY*(   1) N   9                  0.01145     0.92334   
   146. RY*(   2) N   9                  0.00457     1.04291   
   147. RY*(   3) N   9                  0.00301     1.88955   
   148. RY*(   4) N   9                  0.00158     1.57405   
   149. RY*(   5) N   9                  0.00057     1.11437   
   150. RY*(   6) N   9                  0.00041     1.34042   
   151. RY*(   7) N   9                  0.00035     1.12259   
   152. RY*(   8) N   9                  0.00008     2.78111   
   153. RY*(   9) N   9                  0.00008     1.19318   
   154. RY*(  10) N   9                  0.00004     2.86470   
   155. RY*(  11) N   9                  0.00001     0.77736   
   156. RY*(  12) N   9                  0.00000     3.88308   
   157. RY*(  13) N   9                  0.00000    34.84736   
   158. RY*(  14) N   9                  0.00001     3.72288   
   159. RY*(  15) N   9                  0.00001     2.34743   
   160. RY*(  16) N   9                  0.00001     4.29442   
   161. RY*(  17) N   9                  0.00001     2.49563   
   162. RY*(   1) O  10                  0.00566     0.87378   
   163. RY*(   2) O  10                  0.00326     0.81290   
   164. RY*(   3) O  10                  0.00069     0.69204   
   165. RY*(   4) O  10                  0.00034     1.13101   
   166. RY*(   5) O  10                  0.00016     1.66087   
   167. RY*(   6) O  10                  0.00005     1.70982   
   168. RY*(   7) O  10                  0.00006     1.41213   
   169. RY*(   8) O  10                  0.00001     1.11685   
   170. RY*(   9) O  10                  0.00001     3.14535   
   171. RY*(  10) O  10                  0.00000     5.24479   
   172. RY*(  11) O  10                  0.00000    49.86040   
   173. RY*(  12) O  10                  0.00000     5.10423   
   174. RY*(  13) O  10                  0.00001     2.93298   
   175. RY*(  14) O  10                  0.00000     3.21824   
   176. RY*(  15) O  10                  0.00000     2.91429   
   177. RY*(  16) O  10                  0.00000     5.18233   
   178. RY*(  17) O  10                  0.00001     3.14267   
   179. RY*(   1) H  11                  0.00121     1.02373   
   180. RY*(   2) H  11                  0.00066     1.78354   
   181. RY*(   3) H  11                  0.00026     2.00830   
   182. RY*(   4) H  11                  0.00011     1.82276   
   183. RY*(   5) H  11                  0.00001     2.62629   
   184. RY*(   1) H  12                  0.00118     1.23243   
   185. RY*(   2) H  12                  0.00056     1.42803   
   186. RY*(   3) H  12                  0.00022     1.97288   
   187. RY*(   4) H  12                  0.00008     1.98588   
   188. RY*(   5) H  12                  0.00000     2.66024   
   189. RY*(   1) H  13                  0.00078     1.18147   
   190. RY*(   2) H  13                  0.00021     1.83074   
   191. RY*(   3) H  13                  0.00014     2.03608   
   192. RY*(   4) H  13                  0.00008     2.17310   
   193. RY*(   5) H  13                  0.00009     2.48321   
   194. RY*(   1) H  14                  0.00465     0.62884   
   195. RY*(   2) H  14                  0.00051     2.36886   
   196. RY*(   3) H  14                  0.00013     2.04704   
   197. RY*(   4) H  14                  0.00005     2.70659   
   198. RY*(   5) H  14                  0.00006     2.02367   
   199. RY*(   1) H  15                  0.00130     0.62959   
   200. RY*(   2) H  15                  0.00041     2.25960   
   201. RY*(   3) H  15                  0.00019     2.24204   
   202. RY*(   4) H  15                  0.00010     1.90245   
   203. RY*(   5) H  15                  0.00009     2.53310   
   204. RY*(   1) H  16                  0.00240     0.95755   
   205. RY*(   2) H  16                  0.00034     1.92262   
   206. RY*(   3) H  16                  0.00024     2.15838   
   207. RY*(   4) H  16                  0.00012     2.01625   
   208. RY*(   5) H  16                  0.00007     2.66920   
   209. RY*(   1) H  17                  0.00436     1.92825   
   210. RY*(   2) H  17                  0.00120     1.76244   
   211. RY*(   3) H  17                  0.00093     2.01016   
   212. RY*(   4) H  17                  0.00026     1.32692   
   213. RY*(   5) H  17                  0.00004     2.62531   
   214. BD*(   1) C   1 - N   2          0.01430     0.41619   
   215. BD*(   1) C   1 - H  11          0.00432     0.56956   
   216. BD*(   1) C   1 - H  12          0.00264     0.57351   
   217. BD*(   1) N   2 - H   3          0.02115     0.48237   
   218. BD*(   1) N   2 - H   4          0.04680     0.46624   
   219. BD*(   1) N   2 - C   5          0.06527     0.37954   
   220. BD*(   1) C   5 - C   6          0.02388     0.58088   
   221. BD*(   1) C   5 - H  13          0.01778     0.51081   
   222. BD*(   1) C   5 - H  14          0.01721     0.53407   
   223. BD*(   1) C   6 - C   7          0.04752     0.56267   
   224. BD*(   1) C   6 - N   9          0.02996     0.73437   
   225. BD*(   2) C   6 - N   9          0.31918     0.16506  219(v),226(v),228(v),147(g)
   226. BD*(   1) C   7 - O   8          0.02422     0.42746   
   227. BD*(   1) C   7 - H  15          0.01877     0.51244   
   228. BD*(   1) C   7 - H  16          0.03938     0.50980   
   229. BD*(   1) O   8 - H  17          0.05435     0.57033   
   230. BD*(   1) N   9 - O  10          0.01043     0.55330   
       -------------------------------
              Total Lewis   63.06808  ( 98.5439%)
        Valence non-Lewis    0.75718  (  1.1831%)
        Rydberg non-Lewis    0.17475  (  0.2730%)
       -------------------------------
            Total unit  1   64.00000  (100.0000%)
           Charge unit  1   -1.00000
 Leave Link  607 at Fri Oct 28 12:33:01 2022, MaxMem=  8053063680 cpu:              59.4 elap:               1.9
 (Enter /public3/home/scg5914/software-scg5914/g16/l9999.exe)
 Unable to Open any file for archive entry.
 1\1\GINC-I0203\SP\RB3LYP\Gen\C4H9N2O2(1-)\SCG5914\28-Oct-2022\0\\#p b3
 lyp/chkbas pop=nbo geom=allcheck guess=tcheck em=gd3bj\\dsgdb9nsd_0040
 15-3\\-1,1\C,0,-0.2812367172,1.4124720025,-0.4537205132\N,0,-0.2369827
 232,-0.1085029974,-0.5707560644\H,0,-0.6081012234,-0.5196485469,0.2848
 026002\H,0,-0.7858043501,-0.5373132159,-1.3273142831\C,0,1.1605163446,
 -0.6985077983,-0.7041471382\C,0,1.1019741314,-2.1633369843,-0.95637278
 61\C,0,0.9867597489,-2.7252598761,-2.3517469299\O,0,-0.1544543544,-3.5
 758708928,-2.4962579597\N,0,1.0291297595,-2.9429883589,0.0957277871\O,
 0,0.8395641986,-4.2228380004,-0.1300319932\H,0,0.0311204438,1.76978210
 66,-1.4480958\H,0,-1.3525343741,1.6503813512,-0.3523188658\H,0,1.62882
 33386,-0.1369995277,-1.5157749485\H,0,1.6628793034,-0.4527071737,0.229
 7633354\H,0,0.8976471705,-1.9244567367,-3.0948337325\H,0,1.8991982825,
 -3.2981655807,-2.5916855075\H,0,-0.0472076646,-4.1482371891,-1.6973131
 671\\Version=ES64L-G16RevC.01\State=1-A\HF=-417.8321561\RMSD=3.069e-09
 \Dipole=-0.1206688,0.2226042,-1.368396\Quadrupole=14.6697001,-20.83838
 34,6.1686833,2.4257142,-3.9290729,-4.9708889\PG=C01 [X(C4H9N2O2)]\\@
 The archive entry for this job was punched.


 MISERY NO LONGER LOVES COMPANY.  NOWADAYS IT INSISTS ON IT.

                                              -- BAKER'S LAW
 Job cpu time:       0 days  0 hours  2 minutes 17.1 seconds.
 Elapsed time:       0 days  0 hours  0 minutes  4.4 seconds.
 File lengths (MBytes):  RWF=     33 Int=      0 D2E=      0 Chk=      5 Scr=      1
 Normal termination of Gaussian 16 at Fri Oct 28 12:33:01 2022.
