 Entering Gaussian System, Link 0=/public3/home/scg5914/software-scg5914/g16/g16
 Input=dsgdb9nsd_000672-3+.gjf
 Output=dsgdb9nsd_000672-3+.log
 Initial command:
 /public3/home/scg5914/software-scg5914/g16/l1.exe "/public3/home/scg5914/software-scg5914/test/tmp/dsgdb9nsd_000672-3+/Gau-169865.inp" -scrdir="/public3/home/scg5914/software-scg5914/test/tmp/dsgdb9nsd_000672-3+/"
 Entering Link 1 = /public3/home/scg5914/software-scg5914/g16/l1.exe PID=    169866.
  
 Copyright (c) 1988-2019, Gaussian, Inc.  All Rights Reserved.
  
 This is part of the Gaussian(R) 16 program.  It is based on
 the Gaussian(R) 09 system (copyright 2009, Gaussian, Inc.),
 the Gaussian(R) 03 system (copyright 2003, Gaussian, Inc.),
 the Gaussian(R) 98 system (copyright 1998, Gaussian, Inc.),
 the Gaussian(R) 94 system (copyright 1995, Gaussian, Inc.),
 the Gaussian 92(TM) system (copyright 1992, Gaussian, Inc.),
 the Gaussian 90(TM) system (copyright 1990, Gaussian, Inc.),
 the Gaussian 88(TM) system (copyright 1988, Gaussian, Inc.),
 the Gaussian 86(TM) system (copyright 1986, Carnegie Mellon
 University), and the Gaussian 82(TM) system (copyright 1983,
 Carnegie Mellon University). Gaussian is a federally registered
 trademark of Gaussian, Inc.
  
 This software contains proprietary and confidential information,
 including trade secrets, belonging to Gaussian, Inc.
  
 This software is provided under written license and may be
 used, copied, transmitted, or stored only in accord with that
 written license.
  
 The following legend is applicable only to US Government
 contracts under FAR:
  
                    RESTRICTED RIGHTS LEGEND
  
 Use, reproduction and disclosure by the US Government is
 subject to restrictions as set forth in subparagraphs (a)
 and (c) of the Commercial Computer Software - Restricted
 Rights clause in FAR 52.227-19.
  
 Gaussian, Inc.
 340 Quinnipiac St., Bldg. 40, Wallingford CT 06492
  
  
 ---------------------------------------------------------------
 Warning -- This program may not be used in any manner that
 competes with the business of Gaussian, Inc. or will provide
 assistance to any competitor of Gaussian, Inc.  The licensee
 of this program is prohibited from giving any competitor of
 Gaussian, Inc. access to this program.  By using this program,
 the user acknowledges that Gaussian, Inc. is engaged in the
 business of creating and licensing software in the field of
 computational chemistry and represents and warrants to the
 licensee that it is not a competitor of Gaussian, Inc. and that
 it will not use this program in any manner prohibited above.
 ---------------------------------------------------------------
  

 Cite this work as:
 Gaussian 16, Revision C.01,
 M. J. Frisch, G. W. Trucks, H. B. Schlegel, G. E. Scuseria, 
 M. A. Robb, J. R. Cheeseman, G. Scalmani, V. Barone, 
 G. A. Petersson, H. Nakatsuji, X. Li, M. Caricato, A. V. Marenich, 
 J. Bloino, B. G. Janesko, R. Gomperts, B. Mennucci, H. P. Hratchian, 
 J. V. Ortiz, A. F. Izmaylov, J. L. Sonnenberg, D. Williams-Young, 
 F. Ding, F. Lipparini, F. Egidi, J. Goings, B. Peng, A. Petrone, 
 T. Henderson, D. Ranasinghe, V. G. Zakrzewski, J. Gao, N. Rega, 
 G. Zheng, W. Liang, M. Hada, M. Ehara, K. Toyota, R. Fukuda, 
 J. Hasegawa, M. Ishida, T. Nakajima, Y. Honda, O. Kitao, H. Nakai, 
 T. Vreven, K. Throssell, J. A. Montgomery, Jr., J. E. Peralta, 
 F. Ogliaro, M. J. Bearpark, J. J. Heyd, E. N. Brothers, K. N. Kudin, 
 V. N. Staroverov, T. A. Keith, R. Kobayashi, J. Normand, 
 K. Raghavachari, A. P. Rendell, J. C. Burant, S. S. Iyengar, 
 J. Tomasi, M. Cossi, J. M. Millam, M. Klene, C. Adamo, R. Cammi, 
 J. W. Ochterski, R. L. Martin, K. Morokuma, O. Farkas, 
 J. B. Foresman, and D. J. Fox, Gaussian, Inc., Wallingford CT, 2019.
 
 ******************************************
 Gaussian 16:  ES64L-G16RevC.01  3-Jul-2019
                21-Oct-2022 
 ******************************************
 %chk=dsgdb9nsd_000672-3.chk
 %mem=60GB
 %nprocshared=32
 Will use up to   32 processors via shared memory.
 ------------------------------------
 #p opt freq b3lyp/6-311+g** em=gd3bj
 ------------------------------------
 1/18=20,19=15,26=3,38=1/1,3;
 2/9=110,12=2,17=6,18=5,40=1/2;
 3/5=4,6=6,7=111,11=2,25=1,30=1,71=1,74=-5,124=41/1,2,3;
 4//1;
 5/5=2,38=5/2;
 6/7=2,8=2,9=2,10=2,28=1/1;
 7//1,2,3,16;
 1/18=20,19=15,26=3/3(2);
 2/9=110/2;
 99//99;
 2/9=110/2;
 3/5=4,6=6,7=111,11=2,25=1,30=1,71=1,74=-5,124=41/1,2,3;
 4/5=5,16=3,69=1/1;
 5/5=2,38=5/2;
 7//1,2,3,16;
 1/18=20,19=15,26=3/3(-5);
 2/9=110/2;
 6/7=2,8=2,9=2,10=2,19=2,28=1/1;
 99/9=1/99;
 Leave Link    1 at Fri Oct 21 04:53:52 2022, MaxMem=  8053063680 cpu:               1.0 elap:               0.0
 (Enter /public3/home/scg5914/software-scg5914/g16/l101.exe)
 ------------------
 dsgdb9nsd_000672-3
 ------------------
 Symbolic Z-matrix:
 Charge =  1 Multiplicity = 1
 C                    -0.04532   1.53161   0.01228 
 C                     1.4077    1.96633   0.03989 
 C                     2.24795   0.9315   -0.04608 
 C                     1.4821   -0.35101  -0.08409 
 O                     0.68733  -0.57334   1.10527 
 C                     0.05379   0.01016  -0.03381 
 H                    -0.59805   1.87508   0.89507 
 H                    -0.5725    1.92352  -0.86714 
 H                     3.32927   0.9843   -0.05023 
 H                     1.86766  -1.25089  -0.55351 
 H                    -0.73186  -0.58698  -0.48893 
 
 ITRead=  0  0  0  0  0  0  0  0  0  0  0
 MicOpt= -1 -1 -1 -1 -1 -1 -1 -1 -1 -1 -1
 NAtoms=     11 NQM=       11 NQMF=       0 NMMI=      0 NMMIF=      0
                NMic=       0 NMicF=      0.
                    Isotopes and Nuclear Properties:
 (Nuclear quadrupole moments (NQMom) in fm**2, nuclear magnetic moments (NMagM)
  in nuclear magnetons)

  Atom         1           2           3           4           5           6           7           8           9          10
 IAtWgt=          12          12          12          12          16          12           1           1           1           1
 AtmWgt=  12.0000000  12.0000000  12.0000000  12.0000000  15.9949146  12.0000000   1.0078250   1.0078250   1.0078250   1.0078250
 NucSpn=           0           0           0           0           0           0           1           1           1           1
 AtZEff=  -0.0000000  -0.0000000  -0.0000000  -0.0000000  -0.0000000  -0.0000000  -0.0000000  -0.0000000  -0.0000000  -0.0000000
 NQMom=    0.0000000   0.0000000   0.0000000   0.0000000   0.0000000   0.0000000   0.0000000   0.0000000   0.0000000   0.0000000
 NMagM=    0.0000000   0.0000000   0.0000000   0.0000000   0.0000000   0.0000000   2.7928460   2.7928460   2.7928460   2.7928460
 AtZNuc=   6.0000000   6.0000000   6.0000000   6.0000000   8.0000000   6.0000000   1.0000000   1.0000000   1.0000000   1.0000000

  Atom        11
 IAtWgt=           1
 AtmWgt=   1.0078250
 NucSpn=           1
 AtZEff=  -0.0000000
 NQMom=    0.0000000
 NMagM=    2.7928460
 AtZNuc=   1.0000000
 Leave Link  101 at Fri Oct 21 04:53:52 2022, MaxMem=  8053063680 cpu:               4.2 elap:               0.1
 (Enter /public3/home/scg5914/software-scg5914/g16/l103.exe)

 GradGradGradGradGradGradGradGradGradGradGradGradGradGradGradGradGradGrad
 Berny optimization.
 Initialization pass.
                           ----------------------------
                           !    Initial Parameters    !
                           ! (Angstroms and Degrees)  !
 --------------------------                            --------------------------
 ! Name  Definition              Value          Derivative Info.                !
 --------------------------------------------------------------------------------
 ! R1    R(1,2)                  1.5169         estimate D2E/DX2                !
 ! R2    R(1,6)                  1.5254         estimate D2E/DX2                !
 ! R3    R(1,7)                  1.0967         estimate D2E/DX2                !
 ! R4    R(1,8)                  1.0977         estimate D2E/DX2                !
 ! R5    R(2,3)                  1.3358         estimate D2E/DX2                !
 ! R6    R(3,4)                  1.4943         estimate D2E/DX2                !
 ! R7    R(3,9)                  1.0826         estimate D2E/DX2                !
 ! R8    R(4,5)                  1.4476         estimate D2E/DX2                !
 ! R9    R(4,6)                  1.4741         estimate D2E/DX2                !
 ! R10   R(4,10)                 1.0857         estimate D2E/DX2                !
 ! R11   R(5,6)                  1.4281         estimate D2E/DX2                !
 ! R12   R(6,11)                 1.0867         estimate D2E/DX2                !
 ! A1    A(2,1,6)              102.9532         estimate D2E/DX2                !
 ! A2    A(2,1,7)              112.2311         estimate D2E/DX2                !
 ! A3    A(2,1,8)              111.8575         estimate D2E/DX2                !
 ! A4    A(6,1,7)              111.6814         estimate D2E/DX2                !
 ! A5    A(6,1,8)              111.2924         estimate D2E/DX2                !
 ! A6    A(7,1,8)              106.9193         estimate D2E/DX2                !
 ! A7    A(1,2,3)              112.2936         estimate D2E/DX2                !
 ! A8    A(2,3,4)              110.1304         estimate D2E/DX2                !
 ! A9    A(2,3,9)              126.2101         estimate D2E/DX2                !
 ! A10   A(4,3,9)              123.6199         estimate D2E/DX2                !
 ! A11   A(3,4,5)              113.0977         estimate D2E/DX2                !
 ! A12   A(3,4,6)              106.5855         estimate D2E/DX2                !
 ! A13   A(3,4,10)             122.7084         estimate D2E/DX2                !
 ! A14   A(5,4,10)             115.0171         estimate D2E/DX2                !
 ! A15   A(6,4,10)             124.1875         estimate D2E/DX2                !
 ! A16   A(1,6,4)              107.9611         estimate D2E/DX2                !
 ! A17   A(1,6,5)              114.3479         estimate D2E/DX2                !
 ! A18   A(1,6,11)             120.9139         estimate D2E/DX2                !
 ! A19   A(4,6,11)             123.4751         estimate D2E/DX2                !
 ! A20   A(5,6,11)             115.4844         estimate D2E/DX2                !
 ! D1    D(6,1,2,3)              2.8814         estimate D2E/DX2                !
 ! D2    D(7,1,2,3)            123.1162         estimate D2E/DX2                !
 ! D3    D(8,1,2,3)           -116.7049         estimate D2E/DX2                !
 ! D4    D(2,1,6,4)             -2.1666         estimate D2E/DX2                !
 ! D5    D(2,1,6,5)             62.1494         estimate D2E/DX2                !
 ! D6    D(2,1,6,11)          -152.6206         estimate D2E/DX2                !
 ! D7    D(7,1,6,4)           -122.7788         estimate D2E/DX2                !
 ! D8    D(7,1,6,5)            -58.4628         estimate D2E/DX2                !
 ! D9    D(7,1,6,11)            86.7672         estimate D2E/DX2                !
 ! D10   D(8,1,6,4)            117.8101         estimate D2E/DX2                !
 ! D11   D(8,1,6,5)           -177.8739         estimate D2E/DX2                !
 ! D12   D(8,1,6,11)           -32.6439         estimate D2E/DX2                !
 ! D13   D(1,2,3,4)             -2.4445         estimate D2E/DX2                !
 ! D14   D(1,2,3,9)            179.7882         estimate D2E/DX2                !
 ! D15   D(2,3,4,5)            -61.3368         estimate D2E/DX2                !
 ! D16   D(2,3,4,6)              0.9214         estimate D2E/DX2                !
 ! D17   D(2,3,4,10)           153.5512         estimate D2E/DX2                !
 ! D18   D(9,3,4,5)            116.4999         estimate D2E/DX2                !
 ! D19   D(9,3,4,6)            178.7581         estimate D2E/DX2                !
 ! D20   D(9,3,4,10)           -28.612          estimate D2E/DX2                !
 ! D21   D(3,4,6,1)              0.9176         estimate D2E/DX2                !
 ! D22   D(3,4,6,11)           150.44           estimate D2E/DX2                !
 ! D23   D(10,4,6,1)          -151.2009         estimate D2E/DX2                !
 ! D24   D(10,4,6,11)           -1.6785         estimate D2E/DX2                !
 --------------------------------------------------------------------------------
 Trust Radius=3.00D-01 FncErr=1.00D-07 GrdErr=1.00D-06 EigMax=2.50D+02 EigMin=1.00D-04
 Number of steps in this run=     66 maximum allowed number of steps=    100.
 GradGradGradGradGradGradGradGradGradGradGradGradGradGradGradGradGradGrad

 Leave Link  103 at Fri Oct 21 04:53:52 2022, MaxMem=  8053063680 cpu:               0.2 elap:               0.0
 (Enter /public3/home/scg5914/software-scg5914/g16/l202.exe)
                          Input orientation:                          
 ---------------------------------------------------------------------
 Center     Atomic      Atomic             Coordinates (Angstroms)
 Number     Number       Type             X           Y           Z
 ---------------------------------------------------------------------
      1          6           0       -0.045325    1.531608    0.012276
      2          6           0        1.407699    1.966334    0.039890
      3          6           0        2.247954    0.931500   -0.046081
      4          6           0        1.482099   -0.351010   -0.084094
      5          8           0        0.687334   -0.573341    1.105269
      6          6           0        0.053795    0.010162   -0.033811
      7          1           0       -0.598051    1.875083    0.895073
      8          1           0       -0.572500    1.923524   -0.867141
      9          1           0        3.329270    0.984301   -0.050226
     10          1           0        1.867662   -1.250888   -0.553511
     11          1           0       -0.731865   -0.586981   -0.488934
 ---------------------------------------------------------------------
                    Distance matrix (angstroms):
                    1          2          3          4          5
     1  C    0.000000
     2  C    1.516914   0.000000
     3  C    2.371216   1.335778   0.000000
     4  C    2.426223   2.321851   1.494259   0.000000
     5  O    2.482384   2.846737   2.454728   1.447642   0.000000
     6  C    1.525368   2.380147   2.379779   1.474118   1.428058
     7  H    1.096728   2.182360   3.142589   3.200200   2.773297
     8  H    1.097673   2.178468   3.100518   3.163549   3.422268
     9  H    3.419260   2.159849   1.082612   2.279527   3.277384
    10  H    3.423729   3.303667   2.272647   1.085722   2.145647
    11  H    2.282754   3.372952   3.373607   2.263009   2.134431
                    6          7          8          9         10
     6  C    0.000000
     7  H    2.183039   0.000000
     8  H    2.178908   1.763065   0.000000
     9  H    3.417302   4.136536   4.095521   0.000000
    10  H    2.269460   4.236724   4.016173   2.717658   0.000000
    11  H    1.086728   2.827568   2.543831   4.376551   2.683744
                   11
    11  H    0.000000
 Stoichiometry    C5H5O(1+)
 Framework group  C1[X(C5H5O)]
 Deg. of freedom    27
 Full point group                 C1      NOp   1
 Largest Abelian subgroup         C1      NOp   1
 Largest concise Abelian subgroup C1      NOp   1
                         Standard orientation:                         
 ---------------------------------------------------------------------
 Center     Atomic      Atomic             Coordinates (Angstroms)
 Number     Number       Type             X           Y           Z
 ---------------------------------------------------------------------
      1          6           0        0.859481   -1.104456    0.016308
      2          6           0        1.481579    0.260152   -0.211433
      3          6           0        0.621111    1.254740    0.022432
      4          6           0       -0.719066    0.701108    0.383303
      5          8           0       -1.304681   -0.100753   -0.670140
      6          6           0       -0.585774   -0.766897    0.368500
      7          1           0        0.921250   -1.742394   -0.873653
      8          1           0        1.352486   -1.647148    0.833204
      9          1           0        0.827944    2.313645   -0.066949
     10          1           0       -1.431489    1.242834    0.997941
     11          1           0       -1.176727   -1.428790    0.995915
 ---------------------------------------------------------------------
 Rotational constants (GHZ):           6.6026501           5.1065122           3.4484618
 Leave Link  202 at Fri Oct 21 04:53:52 2022, MaxMem=  8053063680 cpu:               0.2 elap:               0.0
 (Enter /public3/home/scg5914/software-scg5914/g16/l301.exe)
 Standard basis: 6-311+G(d,p) (5D, 7F)
 Ernie: Thresh=  0.10000D-02 Tol=  0.10000D-05 Strict=F.
 There are   168 symmetry adapted cartesian basis functions of A   symmetry.
 There are   162 symmetry adapted basis functions of A   symmetry.
   162 basis functions,   256 primitive gaussians,   168 cartesian basis functions
    21 alpha electrons       21 beta electrons
       nuclear repulsion energy       218.1523429344 Hartrees.
 IExCor=  402 DFT=T Ex+Corr=B3LYP ExCW=0 ScaHFX=  0.200000
 ScaDFX=  0.800000  0.720000  1.000000  0.810000 ScalE2=  1.000000  1.000000
 IRadAn=      5 IRanWt=     -1 IRanGd=            0 ICorTp=0 IEmpDi=141
 NAtoms=   11 NActive=   11 NUniq=   11 SFac= 1.00D+00 NAtFMM=   60 NAOKFM=F Big=F
 Integral buffers will be    131072 words long.
 Raffenetti 2 integral format.
 Two-electron integral symmetry is turned on.
 R6Disp:  Grimme-D3(BJ) Dispersion energy=       -0.0152722461 Hartrees.
 Nuclear repulsion after empirical dispersion term =      218.1370706883 Hartrees.
 Leave Link  301 at Fri Oct 21 04:53:52 2022, MaxMem=  8053063680 cpu:               1.3 elap:               0.1
 (Enter /public3/home/scg5914/software-scg5914/g16/l302.exe)
 NPDir=0 NMtPBC=     1 NCelOv=     1 NCel=       1 NClECP=     1 NCelD=      1
         NCelK=      1 NCelE2=     1 NClLst=     1 CellRange=     0.0.
 One-electron integrals computed using PRISM.
 One-electron integral symmetry used in STVInt
 NBasis=   162 RedAO= T EigKep=  1.74D-05  NBF=   162
 NBsUse=   162 1.00D-06 EigRej= -1.00D+00 NBFU=   162
 Precomputing XC quadrature grid using
 IXCGrd= 4 IRadAn=           5 IRanWt=          -1 IRanGd=           0 AccXCQ= 0.00D+00.
 Generated NRdTot=       0 NPtTot=           0 NUsed=           0 NTot=          32
 NSgBfM=   168   168   168   168   168 MxSgAt=    11 MxSgA2=    11.
 Leave Link  302 at Fri Oct 21 04:53:52 2022, MaxMem=  8053063680 cpu:               3.3 elap:               0.1
 (Enter /public3/home/scg5914/software-scg5914/g16/l303.exe)
 DipDrv:  MaxL=1.
 Leave Link  303 at Fri Oct 21 04:53:52 2022, MaxMem=  8053063680 cpu:               0.4 elap:               0.0
 (Enter /public3/home/scg5914/software-scg5914/g16/l401.exe)
 ExpMin= 4.38D-02 ExpMax= 8.59D+03 ExpMxC= 1.30D+03 IAcc=3 IRadAn=         5 AccDes= 0.00D+00
 Harris functional with IExCor=  402 and IRadAn=       5 diagonalized for initial guess.
 HarFok:  IExCor=  402 AccDes= 0.00D+00 IRadAn=         5 IDoV= 1 UseB2=F ITyADJ=14
 ICtDFT=  3500011 ScaDFX=  1.000000  1.000000  1.000000  1.000000
 FoFCou: FMM=F IPFlag=           0 FMFlag=      100000 FMFlg1=           0
         NFxFlg=           0 DoJE=T BraDBF=F KetDBF=T FulRan=T
         wScrn=  0.000000 ICntrl=       500 IOpCl=  0 I1Cent=   200000004 NGrid=           0
         NMat0=    1 NMatS0=      1 NMatT0=    0 NMatD0=    1 NMtDS0=    0 NMtDT0=    0
 Petite list used in FoFCou.
 Harris En= -268.400998164830    
 JPrj=0 DoOrth=F DoCkMO=F.
 Leave Link  401 at Fri Oct 21 04:53:53 2022, MaxMem=  8053063680 cpu:               8.9 elap:               0.3
 (Enter /public3/home/scg5914/software-scg5914/g16/l502.exe)
 Keep R1 ints in memory in canonical form, NReq=119072288.
 FoFCou: FMM=F IPFlag=           0 FMFlag=           0 FMFlg1=           0
         NFxFlg=           0 DoJE=F BraDBF=F KetDBF=F FulRan=T
         wScrn=  0.000000 ICntrl=       600 IOpCl=  0 I1Cent=           0 NGrid=           0
         NMat0=    1 NMatS0=  13203 NMatT0=    0 NMatD0=    1 NMtDS0=    0 NMtDT0=    0
 Symmetry not used in FoFCou.
 Two-electron integral symmetry not used.
 Closed shell SCF:
 Using DIIS extrapolation, IDIIS=  1040.
 NGot=  8053063680 LenX=  7965833664 LenY=  7965804999
 Requested convergence on RMS density matrix=1.00D-08 within 128 cycles.
 Requested convergence on MAX density matrix=1.00D-06.
 Requested convergence on             energy=1.00D-06.
 No special actions if energy rises.

 Cycle   1  Pass 1  IDiag  1:
 E= -268.223308911367    
 DIIS: error= 2.36D-02 at cycle   1 NSaved=   1.
 NSaved= 1 IEnMin= 1 EnMin= -268.223308911367     IErMin= 1 ErrMin= 2.36D-02
 ErrMax= 2.36D-02  0.00D+00 EMaxC= 1.00D-01 BMatC= 1.33D-01 BMatP= 1.33D-01
 IDIUse=3 WtCom= 7.64D-01 WtEn= 2.36D-01
 Coeff-Com:  0.100D+01
 Coeff-En:   0.100D+01
 Coeff:      0.100D+01
 Gap=    -0.018 Goal=   None    Shift=    0.000
 GapD=   -0.018 DampG=0.250 DampE=0.500 DampFc=0.2500 IDamp=-1.
 Damping current iteration by 2.50D-01
 RMSDP=9.61D-03 MaxDP=3.93D-01              OVMax= 6.75D-01

 Cycle   2  Pass 1  IDiag  1:
 E= -268.228486196342     Delta-E=       -0.005177284974 Rises=F Damp=T
 DIIS: error= 1.59D-02 at cycle   2 NSaved=   2.
 NSaved= 2 IEnMin= 2 EnMin= -268.228486196342     IErMin= 2 ErrMin= 1.59D-02
 ErrMax= 1.59D-02  0.00D+00 EMaxC= 1.00D-01 BMatC= 4.21D-02 BMatP= 1.33D-01
 IDIUse=3 WtCom= 8.41D-01 WtEn= 1.59D-01
 Coeff-Com:  0.145D+00 0.855D+00
 Coeff-En:   0.478D+00 0.522D+00
 Coeff:      0.198D+00 0.802D+00
 Gap=     0.042 Goal=   None    Shift=    0.000
 RMSDP=2.63D-03 MaxDP=5.28D-02 DE=-5.18D-03 OVMax= 5.45D-01

 Cycle   3  Pass 1  IDiag  1:
 E= -268.256893389717     Delta-E=       -0.028407193375 Rises=F Damp=F
 DIIS: error= 3.26D-02 at cycle   3 NSaved=   3.
 NSaved= 3 IEnMin= 3 EnMin= -268.256893389717     IErMin= 2 ErrMin= 1.59D-02
 ErrMax= 3.26D-02  0.00D+00 EMaxC= 1.00D-01 BMatC= 1.01D-01 BMatP= 4.21D-02
 IDIUse=2 WtCom= 0.00D+00 WtEn= 1.00D+00
 EnCoef did     1 forward-backward iterations
 Coeff-En:   0.792D-01 0.377D+00 0.544D+00
 Coeff:      0.792D-01 0.377D+00 0.544D+00
 Gap=     0.081 Goal=   None    Shift=    0.000
 RMSDP=5.30D-03 MaxDP=1.65D-01 DE=-2.84D-02 OVMax= 5.36D-01

 Cycle   4  Pass 1  IDiag  1:
 E= -267.918213136537     Delta-E=        0.338680253180 Rises=F Damp=F
 DIIS: error= 7.83D-02 at cycle   4 NSaved=   4.
 NSaved= 4 IEnMin= 3 EnMin= -268.256893389717     IErMin= 2 ErrMin= 1.59D-02
 ErrMax= 7.83D-02  0.00D+00 EMaxC= 1.00D-01 BMatC= 4.57D-01 BMatP= 4.21D-02
 IDIUse=2 WtCom= 0.00D+00 WtEn= 1.00D+00
 EnCoef did     3 forward-backward iterations
 Coeff-En:   0.164D+00 0.000D+00 0.592D+00 0.244D+00
 Coeff:      0.164D+00 0.000D+00 0.592D+00 0.244D+00
 Gap=     0.068 Goal=   None    Shift=    0.000
 RMSDP=3.27D-03 MaxDP=6.76D-02 DE= 3.39D-01 OVMax= 3.75D-01

 Cycle   5  Pass 1  IDiag  1:
 E= -268.340403237367     Delta-E=       -0.422190100831 Rises=F Damp=F
 DIIS: error= 9.08D-03 at cycle   5 NSaved=   5.
 NSaved= 5 IEnMin= 5 EnMin= -268.340403237367     IErMin= 5 ErrMin= 9.08D-03
 ErrMax= 9.08D-03  0.00D+00 EMaxC= 1.00D-01 BMatC= 1.09D-02 BMatP= 4.21D-02
 IDIUse=3 WtCom= 9.09D-01 WtEn= 9.08D-02
 Coeff-Com: -0.105D+00 0.212D+00 0.241D+00-0.476D-01 0.700D+00
 Coeff-En:   0.000D+00 0.000D+00 0.114D+00 0.000D+00 0.886D+00
 Coeff:     -0.957D-01 0.192D+00 0.229D+00-0.433D-01 0.717D+00
 Gap=     0.087 Goal=   None    Shift=    0.000
 RMSDP=9.61D-04 MaxDP=4.89D-02 DE=-4.22D-01 OVMax= 3.57D-02

 Cycle   6  Pass 1  IDiag  1:
 E= -268.348900457921     Delta-E=       -0.008497220553 Rises=F Damp=F
 DIIS: error= 1.71D-03 at cycle   6 NSaved=   6.
 NSaved= 6 IEnMin= 6 EnMin= -268.348900457921     IErMin= 6 ErrMin= 1.71D-03
 ErrMax= 1.71D-03  0.00D+00 EMaxC= 1.00D-01 BMatC= 5.16D-04 BMatP= 1.09D-02
 IDIUse=3 WtCom= 9.83D-01 WtEn= 1.71D-02
 Coeff-Com: -0.437D-01 0.715D-01 0.753D-01-0.199D-01 0.343D+00 0.574D+00
 Coeff-En:   0.000D+00 0.000D+00 0.000D+00 0.000D+00 0.148D-02 0.999D+00
 Coeff:     -0.430D-01 0.703D-01 0.740D-01-0.196D-01 0.337D+00 0.581D+00
 Gap=     0.087 Goal=   None    Shift=    0.000
 RMSDP=2.73D-04 MaxDP=1.43D-02 DE=-8.50D-03 OVMax= 6.07D-03

 Cycle   7  Pass 1  IDiag  1:
 E= -268.349260599495     Delta-E=       -0.000360141574 Rises=F Damp=F
 DIIS: error= 5.18D-04 at cycle   7 NSaved=   7.
 NSaved= 7 IEnMin= 7 EnMin= -268.349260599495     IErMin= 7 ErrMin= 5.18D-04
 ErrMax= 5.18D-04  0.00D+00 EMaxC= 1.00D-01 BMatC= 5.53D-05 BMatP= 5.16D-04
 IDIUse=3 WtCom= 9.95D-01 WtEn= 5.18D-03
 Coeff-Com: -0.103D-01 0.122D-01 0.222D-02-0.281D-02 0.836D-01 0.352D+00
 Coeff-Com:  0.563D+00
 Coeff-En:   0.000D+00 0.000D+00 0.000D+00 0.000D+00 0.000D+00 0.000D+00
 Coeff-En:   0.100D+01
 Coeff:     -0.102D-01 0.122D-01 0.221D-02-0.279D-02 0.831D-01 0.351D+00
 Coeff:      0.565D+00
 Gap=     0.088 Goal=   None    Shift=    0.000
 RMSDP=8.38D-05 MaxDP=4.62D-03 DE=-3.60D-04 OVMax= 3.86D-03

 Cycle   8  Pass 1  IDiag  1:
 E= -268.349323657382     Delta-E=       -0.000063057887 Rises=F Damp=F
 DIIS: error= 1.39D-04 at cycle   8 NSaved=   8.
 NSaved= 8 IEnMin= 8 EnMin= -268.349323657382     IErMin= 8 ErrMin= 1.39D-04
 ErrMax= 1.39D-04  0.00D+00 EMaxC= 1.00D-01 BMatC= 3.75D-06 BMatP= 5.53D-05
 IDIUse=3 WtCom= 9.99D-01 WtEn= 1.39D-03
 Coeff-Com: -0.279D-02 0.355D-02-0.547D-02 0.193D-03 0.339D-02 0.737D-01
 Coeff-Com:  0.166D+00 0.761D+00
 Coeff-En:   0.000D+00 0.000D+00 0.000D+00 0.000D+00 0.000D+00 0.000D+00
 Coeff-En:   0.000D+00 0.100D+01
 Coeff:     -0.278D-02 0.354D-02-0.547D-02 0.193D-03 0.339D-02 0.736D-01
 Coeff:      0.166D+00 0.762D+00
 Gap=     0.088 Goal=   None    Shift=    0.000
 RMSDP=2.48D-05 MaxDP=6.08D-04 DE=-6.31D-05 OVMax= 3.05D-03

 Cycle   9  Pass 1  IDiag  1:
 E= -268.349330066061     Delta-E=       -0.000006408680 Rises=F Damp=F
 DIIS: error= 9.02D-05 at cycle   9 NSaved=   9.
 NSaved= 9 IEnMin= 9 EnMin= -268.349330066061     IErMin= 9 ErrMin= 9.02D-05
 ErrMax= 9.02D-05  0.00D+00 EMaxC= 1.00D-01 BMatC= 1.11D-06 BMatP= 3.75D-06
 IDIUse=1 WtCom= 1.00D+00 WtEn= 0.00D+00
 Coeff-Com:  0.225D-04-0.345D-03-0.367D-02 0.814D-03-0.103D-01-0.174D-01
 Coeff-Com: -0.197D-01 0.421D+00 0.629D+00
 Coeff:      0.225D-04-0.345D-03-0.367D-02 0.814D-03-0.103D-01-0.174D-01
 Coeff:     -0.197D-01 0.421D+00 0.629D+00
 Gap=     0.088 Goal=   None    Shift=    0.000
 RMSDP=1.68D-05 MaxDP=3.88D-04 DE=-6.41D-06 OVMax= 2.10D-03

 Cycle  10  Pass 1  IDiag  1:
 E= -268.349332479970     Delta-E=       -0.000002413909 Rises=F Damp=F
 DIIS: error= 2.75D-05 at cycle  10 NSaved=  10.
 NSaved=10 IEnMin=10 EnMin= -268.349332479970     IErMin=10 ErrMin= 2.75D-05
 ErrMax= 2.75D-05  0.00D+00 EMaxC= 1.00D-01 BMatC= 1.17D-07 BMatP= 1.11D-06
 IDIUse=1 WtCom= 1.00D+00 WtEn= 0.00D+00
 Coeff-Com:  0.143D-03 0.981D-04 0.771D-03-0.948D-04-0.243D-02-0.258D-01
 Coeff-Com: -0.604D-01-0.977D-01 0.155D+00 0.103D+01
 Coeff:      0.143D-03 0.981D-04 0.771D-03-0.948D-04-0.243D-02-0.258D-01
 Coeff:     -0.604D-01-0.977D-01 0.155D+00 0.103D+01
 Gap=     0.088 Goal=   None    Shift=    0.000
 RMSDP=1.57D-05 MaxDP=3.83D-04 DE=-2.41D-06 OVMax= 2.21D-03

 Cycle  11  Pass 1  IDiag  1:
 E= -268.349333483418     Delta-E=       -0.000001003448 Rises=F Damp=F
 DIIS: error= 1.37D-05 at cycle  11 NSaved=  11.
 NSaved=11 IEnMin=11 EnMin= -268.349333483418     IErMin=11 ErrMin= 1.37D-05
 ErrMax= 1.37D-05  0.00D+00 EMaxC= 1.00D-01 BMatC= 3.73D-08 BMatP= 1.17D-07
 IDIUse=1 WtCom= 1.00D+00 WtEn= 0.00D+00
 Coeff-Com:  0.397D-03-0.445D-03 0.114D-02-0.157D-03 0.917D-03-0.702D-02
 Coeff-Com: -0.237D-01-0.125D+00-0.696D-01 0.354D+00 0.870D+00
 Coeff:      0.397D-03-0.445D-03 0.114D-02-0.157D-03 0.917D-03-0.702D-02
 Coeff:     -0.237D-01-0.125D+00-0.696D-01 0.354D+00 0.870D+00
 Gap=     0.088 Goal=   None    Shift=    0.000
 RMSDP=7.83D-06 MaxDP=1.93D-04 DE=-1.00D-06 OVMax= 1.10D-03

 Cycle  12  Pass 1  IDiag  1:
 E= -268.349333670333     Delta-E=       -0.000000186915 Rises=F Damp=F
 DIIS: error= 1.93D-05 at cycle  12 NSaved=  12.
 NSaved=12 IEnMin=12 EnMin= -268.349333670333     IErMin=11 ErrMin= 1.37D-05
 ErrMax= 1.93D-05  0.00D+00 EMaxC= 1.00D-01 BMatC= 3.87D-08 BMatP= 3.73D-08
 IDIUse=1 WtCom= 1.00D+00 WtEn= 0.00D+00
 Coeff-Com:  0.253D-03-0.276D-03 0.504D-03-0.125D-03 0.934D-03 0.294D-02
 Coeff-Com:  0.431D-02-0.206D-01-0.599D-01-0.126D+00 0.405D+00 0.793D+00
 Coeff:      0.253D-03-0.276D-03 0.504D-03-0.125D-03 0.934D-03 0.294D-02
 Coeff:      0.431D-02-0.206D-01-0.599D-01-0.126D+00 0.405D+00 0.793D+00
 Gap=     0.088 Goal=   None    Shift=    0.000
 RMSDP=3.05D-06 MaxDP=7.26D-05 DE=-1.87D-07 OVMax= 4.11D-04

 Cycle  13  Pass 1  IDiag  1:
 E= -268.349333715923     Delta-E=       -0.000000045590 Rises=F Damp=F
 DIIS: error= 9.29D-06 at cycle  13 NSaved=  13.
 NSaved=13 IEnMin=13 EnMin= -268.349333715923     IErMin=13 ErrMin= 9.29D-06
 ErrMax= 9.29D-06  0.00D+00 EMaxC= 1.00D-01 BMatC= 1.06D-08 BMatP= 3.73D-08
 IDIUse=1 WtCom= 1.00D+00 WtEn= 0.00D+00
 Coeff-Com:  0.138D-03-0.176D-03 0.856D-04-0.422D-04 0.197D-03 0.194D-02
 Coeff-Com:  0.526D-02 0.139D-01-0.886D-02-0.977D-01 0.619D-02 0.239D+00
 Coeff-Com:  0.840D+00
 Coeff:      0.138D-03-0.176D-03 0.856D-04-0.422D-04 0.197D-03 0.194D-02
 Coeff:      0.526D-02 0.139D-01-0.886D-02-0.977D-01 0.619D-02 0.239D+00
 Coeff:      0.840D+00
 Gap=     0.088 Goal=   None    Shift=    0.000
 RMSDP=9.99D-07 MaxDP=2.47D-05 DE=-4.56D-08 OVMax= 9.47D-05

 Cycle  14  Pass 1  IDiag  1:
 E= -268.349333726777     Delta-E=       -0.000000010854 Rises=F Damp=F
 DIIS: error= 2.99D-06 at cycle  14 NSaved=  14.
 NSaved=14 IEnMin=14 EnMin= -268.349333726777     IErMin=14 ErrMin= 2.99D-06
 ErrMax= 2.99D-06  0.00D+00 EMaxC= 1.00D-01 BMatC= 1.02D-09 BMatP= 1.06D-08
 IDIUse=1 WtCom= 1.00D+00 WtEn= 0.00D+00
 Coeff-Com:  0.292D-04-0.330D-04-0.136D-04-0.468D-05-0.123D-03-0.299D-03
 Coeff-Com:  0.475D-03 0.760D-02 0.728D-02-0.554D-02-0.610D-01-0.597D-01
 Coeff-Com:  0.210D+00 0.902D+00
 Coeff:      0.292D-04-0.330D-04-0.136D-04-0.468D-05-0.123D-03-0.299D-03
 Coeff:      0.475D-03 0.760D-02 0.728D-02-0.554D-02-0.610D-01-0.597D-01
 Coeff:      0.210D+00 0.902D+00
 Gap=     0.088 Goal=   None    Shift=    0.000
 RMSDP=3.10D-07 MaxDP=7.02D-06 DE=-1.09D-08 OVMax= 1.99D-05

 Cycle  15  Pass 1  IDiag  1:
 E= -268.349333727860     Delta-E=       -0.000000001083 Rises=F Damp=F
 DIIS: error= 2.92D-07 at cycle  15 NSaved=  15.
 NSaved=15 IEnMin=15 EnMin= -268.349333727860     IErMin=15 ErrMin= 2.92D-07
 ErrMax= 2.92D-07  0.00D+00 EMaxC= 1.00D-01 BMatC= 9.54D-12 BMatP= 1.02D-09
 IDIUse=1 WtCom= 1.00D+00 WtEn= 0.00D+00
 Coeff-Com:  0.326D-06-0.420D-06-0.585D-05-0.377D-06-0.359D-04-0.213D-03
 Coeff-Com: -0.176D-03 0.125D-02 0.272D-02 0.607D-02-0.182D-01-0.369D-01
 Coeff-Com: -0.183D-02 0.377D+00 0.671D+00
 Coeff:      0.326D-06-0.420D-06-0.585D-05-0.377D-06-0.359D-04-0.213D-03
 Coeff:     -0.176D-03 0.125D-02 0.272D-02 0.607D-02-0.182D-01-0.369D-01
 Coeff:     -0.183D-02 0.377D+00 0.671D+00
 Gap=     0.088 Goal=   None    Shift=    0.000
 RMSDP=4.50D-08 MaxDP=1.18D-06 DE=-1.08D-09 OVMax= 1.92D-06

 Cycle  16  Pass 1  IDiag  1:
 E= -268.349333727867     Delta-E=       -0.000000000007 Rises=F Damp=F
 DIIS: error= 1.87D-07 at cycle  16 NSaved=  16.
 NSaved=16 IEnMin=16 EnMin= -268.349333727867     IErMin=16 ErrMin= 1.87D-07
 ErrMax= 1.87D-07  0.00D+00 EMaxC= 1.00D-01 BMatC= 4.69D-12 BMatP= 9.54D-12
 IDIUse=1 WtCom= 1.00D+00 WtEn= 0.00D+00
 Coeff-Com: -0.122D-05 0.113D-05-0.197D-05 0.288D-06-0.950D-05-0.619D-04
 Coeff-Com: -0.886D-04 0.155D-04 0.541D-03 0.199D-02-0.318D-02-0.914D-02
 Coeff-Com: -0.802D-02 0.109D+00 0.239D+00 0.670D+00
 Coeff:     -0.122D-05 0.113D-05-0.197D-05 0.288D-06-0.950D-05-0.619D-04
 Coeff:     -0.886D-04 0.155D-04 0.541D-03 0.199D-02-0.318D-02-0.914D-02
 Coeff:     -0.802D-02 0.109D+00 0.239D+00 0.670D+00
 Gap=     0.088 Goal=   None    Shift=    0.000
 RMSDP=1.78D-08 MaxDP=5.43D-07 DE=-6.59D-12 OVMax= 9.57D-07

 Cycle  17  Pass 1  IDiag  1:
 E= -268.349333727871     Delta-E=       -0.000000000004 Rises=F Damp=F
 DIIS: error= 7.85D-08 at cycle  17 NSaved=  17.
 NSaved=17 IEnMin=17 EnMin= -268.349333727871     IErMin=17 ErrMin= 7.85D-08
 ErrMax= 7.85D-08  0.00D+00 EMaxC= 1.00D-01 BMatC= 6.45D-13 BMatP= 4.69D-12
 IDIUse=1 WtCom= 1.00D+00 WtEn= 0.00D+00
 Coeff-Com: -0.205D-06 0.148D-06-0.537D-06 0.210D-06 0.520D-06 0.146D-04
 Coeff-Com:  0.124D-04-0.989D-04-0.183D-03-0.480D-03 0.116D-02 0.238D-02
 Coeff-Com:  0.296D-03-0.791D-02-0.372D-01 0.193D-01 0.102D+01
 Coeff:     -0.205D-06 0.148D-06-0.537D-06 0.210D-06 0.520D-06 0.146D-04
 Coeff:      0.124D-04-0.989D-04-0.183D-03-0.480D-03 0.116D-02 0.238D-02
 Coeff:      0.296D-03-0.791D-02-0.372D-01 0.193D-01 0.102D+01
 Gap=     0.088 Goal=   None    Shift=    0.000
 RMSDP=6.40D-09 MaxDP=1.34D-07 DE=-3.75D-12 OVMax= 4.43D-07

 SCF Done:  E(RB3LYP) =  -268.349333728     A.U. after   17 cycles
            NFock= 17  Conv=0.64D-08     -V/T= 2.0045
 KE= 2.671486635793D+02 PE=-1.051833643561D+03 EE= 2.981985755656D+02
 Leave Link  502 at Fri Oct 21 04:53:58 2022, MaxMem=  8053063680 cpu:             132.2 elap:               5.0
 (Enter /public3/home/scg5914/software-scg5914/g16/l601.exe)
 Copying SCF densities to generalized density rwf, IOpCl= 0 IROHF=0.

 **********************************************************************

            Population analysis using the SCF Density.

 **********************************************************************

 Orbital symmetries:
       Occupied  (A) (A) (A) (A) (A) (A) (A) (A) (A) (A) (A) (A)
                 (A) (A) (A) (A) (A) (A) (A) (A) (A)
       Virtual   (A) (A) (A) (A) (A) (A) (A) (A) (A) (A) (A) (A)
                 (A) (A) (A) (A) (A) (A) (A) (A) (A) (A) (A) (A)
                 (A) (A) (A) (A) (A) (A) (A) (A) (A) (A) (A) (A)
                 (A) (A) (A) (A) (A) (A) (A) (A) (A) (A) (A) (A)
                 (A) (A) (A) (A) (A) (A) (A) (A) (A) (A) (A) (A)
                 (A) (A) (A) (A) (A) (A) (A) (A) (A) (A) (A) (A)
                 (A) (A) (A) (A) (A) (A) (A) (A) (A) (A) (A) (A)
                 (A) (A) (A) (A) (A) (A) (A) (A) (A) (A) (A) (A)
                 (A) (A) (A) (A) (A) (A) (A) (A) (A) (A) (A) (A)
                 (A) (A) (A) (A) (A) (A) (A) (A) (A) (A) (A) (A)
                 (A) (A) (A) (A) (A) (A) (A) (A) (A) (A) (A) (A)
                 (A) (A) (A) (A) (A) (A) (A) (A) (A)
 The electronic state is 1-A.
 Alpha  occ. eigenvalues --  -19.40963 -10.51028 -10.48465 -10.48083 -10.44054
 Alpha  occ. eigenvalues --  -10.43801  -1.33597  -1.08641  -0.97238  -0.90629
 Alpha  occ. eigenvalues --   -0.82929  -0.78443  -0.76157  -0.69818  -0.67564
 Alpha  occ. eigenvalues --   -0.65358  -0.62980  -0.62646  -0.56188  -0.53301
 Alpha  occ. eigenvalues --   -0.50955
 Alpha virt. eigenvalues --   -0.42138  -0.25596  -0.14674  -0.14246  -0.12172
 Alpha virt. eigenvalues --   -0.12156  -0.11378  -0.10160  -0.09965  -0.09340
 Alpha virt. eigenvalues --   -0.08576  -0.06620  -0.04946  -0.03481  -0.03098
 Alpha virt. eigenvalues --   -0.02329  -0.01869  -0.01436  -0.00641   0.00215
 Alpha virt. eigenvalues --    0.01147   0.02450   0.03417   0.03747   0.05601
 Alpha virt. eigenvalues --    0.05659   0.06332   0.06663   0.08929   0.09178
 Alpha virt. eigenvalues --    0.09731   0.11611   0.12636   0.13471   0.14765
 Alpha virt. eigenvalues --    0.17404   0.19078   0.21420   0.24396   0.27768
 Alpha virt. eigenvalues --    0.29691   0.31799   0.34019   0.35214   0.35363
 Alpha virt. eigenvalues --    0.37370   0.38514   0.40241   0.40844   0.42203
 Alpha virt. eigenvalues --    0.44045   0.45655   0.46330   0.48087   0.49961
 Alpha virt. eigenvalues --    0.52197   0.55777   0.57171   0.60408   0.65690
 Alpha virt. eigenvalues --    0.66494   0.73985   0.76938   0.78690   0.85237
 Alpha virt. eigenvalues --    0.91474   0.95309   0.99879   1.01532   1.02876
 Alpha virt. eigenvalues --    1.13187   1.17483   1.19123   1.24742   1.24765
 Alpha virt. eigenvalues --    1.27945   1.32058   1.35336   1.35709   1.39288
 Alpha virt. eigenvalues --    1.39498   1.43088   1.46645   1.47811   1.52483
 Alpha virt. eigenvalues --    1.58944   1.59672   1.62223   1.66267   1.67774
 Alpha virt. eigenvalues --    1.69111   1.71510   1.75283   1.80024   1.85405
 Alpha virt. eigenvalues --    1.89849   1.96169   1.99844   2.05473   2.10331
 Alpha virt. eigenvalues --    2.13060   2.21041   2.26194   2.29908   2.33193
 Alpha virt. eigenvalues --    2.38562   2.42184   2.45544   2.45781   2.47554
 Alpha virt. eigenvalues --    2.49403   2.51696   2.58714   2.60977   2.65493
 Alpha virt. eigenvalues --    2.70681   2.77089   2.81023   2.84695   2.90591
 Alpha virt. eigenvalues --    3.00095   3.02210   3.08026   3.08576   3.44119
 Alpha virt. eigenvalues --    3.47865   3.53487   3.63198   3.79496   3.89559
 Alpha virt. eigenvalues --    3.97741   4.35173   4.80831   5.23343   5.31788
 Alpha virt. eigenvalues --   23.29248  23.58224  23.60416  23.65465  23.94222
 Alpha virt. eigenvalues --   49.63106
          Condensed to atoms (all electrons):
               1          2          3          4          5          6
     1  C    6.381659  -0.094976   0.066194   0.561403  -0.191051  -0.850450
     2  C   -0.094976   4.924706   0.489796   0.051375   0.037621   0.125555
     3  C    0.066194   0.489796   5.314556  -0.461125  -0.146137   0.491843
     4  C    0.561403   0.051375  -0.461125   7.596782   0.234161  -2.196477
     5  O   -0.191051   0.037621  -0.146137   0.234161   7.816568   0.242355
     6  C   -0.850450   0.125555   0.491843  -2.196477   0.242355   7.840165
     7  H    0.406568  -0.055593  -0.001491   0.010711  -0.006134  -0.026227
     8  H    0.399817  -0.025331  -0.011475  -0.002614   0.006619  -0.040142
     9  H    0.005054  -0.022942   0.387024  -0.021072  -0.000357   0.004851
    10  H   -0.001940  -0.004984   0.001761   0.337413  -0.021350   0.028897
    11  H   -0.008505   0.002509  -0.002588   0.033905  -0.018557   0.344818
               7          8          9         10         11
     1  C    0.406568   0.399817   0.005054  -0.001940  -0.008505
     2  C   -0.055593  -0.025331  -0.022942  -0.004984   0.002509
     3  C   -0.001491  -0.011475   0.387024   0.001761  -0.002588
     4  C    0.010711  -0.002614  -0.021072   0.337413   0.033905
     5  O   -0.006134   0.006619  -0.000357  -0.021350  -0.018557
     6  C   -0.026227  -0.040142   0.004851   0.028897   0.344818
     7  H    0.422348  -0.020660   0.000038  -0.000473  -0.000901
     8  H   -0.020660   0.442777  -0.000255   0.000507  -0.001435
     9  H    0.000038  -0.000255   0.411971  -0.003370  -0.000152
    10  H   -0.000473   0.000507  -0.003370   0.403344  -0.001010
    11  H   -0.000901  -0.001435  -0.000152  -0.001010   0.383081
 Mulliken charges:
               1
     1  C   -0.673772
     2  C    0.572264
     3  C   -0.128359
     4  C   -0.144461
     5  O    0.046263
     6  C    0.034811
     7  H    0.271813
     8  H    0.252191
     9  H    0.239211
    10  H    0.261204
    11  H    0.268835
 Sum of Mulliken charges =   1.00000
 Mulliken charges with hydrogens summed into heavy atoms:
               1
     1  C   -0.149767
     2  C    0.572264
     3  C    0.110851
     4  C    0.116743
     5  O    0.046263
     6  C    0.303646
 Electronic spatial extent (au):  <R**2>=            389.8665
 Charge=              1.0000 electrons
 Dipole moment (field-independent basis, Debye):
    X=              1.8377    Y=              0.0710    Z=              1.7005  Tot=              2.5048
 Quadrupole moment (field-independent basis, Debye-Ang):
   XX=            -25.2299   YY=            -21.0158   ZZ=            -31.8078
   XY=             -0.3843   XZ=             -4.6279   YZ=             -0.4225
 Traceless Quadrupole moment (field-independent basis, Debye-Ang):
   XX=              0.7879   YY=              5.0020   ZZ=             -5.7900
   XY=             -0.3843   XZ=             -4.6279   YZ=             -0.4225
 Octapole moment (field-independent basis, Debye-Ang**2):
  XXX=              0.6569  YYY=              3.9334  ZZZ=              0.3641  XYY=              0.8132
  XXY=              0.1317  XXZ=              1.9010  XZZ=             -2.8083  YZZ=             -3.2365
  YYZ=              2.1062  XYZ=             -1.1333
 Hexadecapole moment (field-independent basis, Debye-Ang**3):
 XXXX=           -212.0402 YYYY=           -156.8106 ZZZZ=            -68.0018 XXXY=             -1.5170
 XXXZ=            -10.7667 YYYX=              4.1691 YYYZ=             -0.9437 ZZZX=             -1.7046
 ZZZY=              0.3353 XXYY=            -57.9326 XXZZ=            -45.5515 YYZZ=            -38.0832
 XXYZ=             -2.3794 YYXZ=             -4.4882 ZZXY=             -3.3866
 N-N= 2.181370706883D+02 E-N=-1.051833639965D+03  KE= 2.671486635793D+02
 No NMR shielding tensors so no spin-rotation constants.
 Leave Link  601 at Fri Oct 21 04:53:58 2022, MaxMem=  8053063680 cpu:               2.4 elap:               0.1
 (Enter /public3/home/scg5914/software-scg5914/g16/l701.exe)
 ... and contract with generalized density number  0.
 Compute integral first derivatives.
 R6Disp: Adding Grimme-D3(BJ) dispersion energy 1st derivatives to the gradient.
 Leave Link  701 at Fri Oct 21 04:53:58 2022, MaxMem=  8053063680 cpu:               3.0 elap:               0.1
 (Enter /public3/home/scg5914/software-scg5914/g16/l702.exe)
 L702 exits ... SP integral derivatives will be done elsewhere.
 Leave Link  702 at Fri Oct 21 04:53:58 2022, MaxMem=  8053063680 cpu:               0.2 elap:               0.0
 (Enter /public3/home/scg5914/software-scg5914/g16/l703.exe)
 Integral derivatives from FoFJK, PRISM(SPDF).
 Compute integral first derivatives, UseDBF=F ICtDFT=           0.
 Calling FoFJK, ICntrl=      2127 FMM=F ISym2X=0 I1Cent= 0 IOpClX= 0 NMat=1 NMatS=1 NMatT=0.
 FoFJK:  IHMeth= 1 ICntrl=    2127 DoSepK=F KAlg= 0 I1Cent=           0 FoldK=F
 IRaf=         0 NMat=       1 IRICut=       1 DoRegI=T DoRafI=F ISym2E= 0 IDoP0=0 IntGTp=1.
 FoFCou: FMM=F IPFlag=           0 FMFlag=      100000 FMFlg1=         800
         NFxFlg=           0 DoJE=F BraDBF=F KetDBF=F FulRan=T
         wScrn=  0.000000 ICntrl=      2127 IOpCl=  0 I1Cent=           0 NGrid=           0
         NMat0=    1 NMatS0=      1 NMatT0=    0 NMatD0=    1 NMtDS0=    0 NMtDT0=    0
 Symmetry not used in FoFCou.
 Leave Link  703 at Fri Oct 21 04:53:59 2022, MaxMem=  8053063680 cpu:              20.0 elap:               0.6
 (Enter /public3/home/scg5914/software-scg5914/g16/l716.exe)
 Dipole        = 7.22998908D-01 2.79499863D-02 6.69045104D-01
 ***** Axes restored to original set *****
 -------------------------------------------------------------------
 Center     Atomic                   Forces (Hartrees/Bohr)
 Number     Number              X              Y              Z
 -------------------------------------------------------------------
      1        6          -0.029717624    0.064002917    0.010600303
      2        6          -0.016867899   -0.119687330   -0.022900811
      3        6           0.040514465    0.072309008    0.014100882
      4        6          -0.028362690   -0.012658851    0.008059982
      5        8           0.005111067    0.010602027   -0.028254053
      6        6           0.024321060   -0.014825687    0.014497610
      7        1          -0.000575380   -0.002503993   -0.001144832
      8        1           0.001432086   -0.002165343    0.001436886
      9        1           0.002554067   -0.005681292    0.002713560
     10        1           0.007030584    0.003837367    0.000256629
     11        1          -0.005439737    0.006771178    0.000633845
 -------------------------------------------------------------------
 Cartesian Forces:  Max     0.119687330 RMS     0.030394209
 Leave Link  716 at Fri Oct 21 04:53:59 2022, MaxMem=  8053063680 cpu:               0.4 elap:               0.0
 (Enter /public3/home/scg5914/software-scg5914/g16/l103.exe)

 GradGradGradGradGradGradGradGradGradGradGradGradGradGradGradGradGradGrad
 Berny optimization.
 FormGI is forming the generalized inverse of G from B-inverse, IUseBI=4.
 Internal  Forces:  Max     0.073464370 RMS     0.016331764
 Search for a local minimum.
 Step number   1 out of a maximum of   66
 All quantities printed in internal units (Hartrees-Bohrs-Radians)
 RMS Force = .16332D-01 SwitMx=.10000D-02 MixMth= 1
 Mixed Optimization -- RFO/linear search
 Second derivative matrix not updated -- first step.
 ITU=  0
     Eigenvalues ---    0.00769   0.01382   0.01864   0.02237   0.02761
     Eigenvalues ---    0.05278   0.06082   0.10280   0.10476   0.12902
     Eigenvalues ---    0.14215   0.15986   0.17792   0.20553   0.22398
     Eigenvalues ---    0.26645   0.27892   0.29390   0.30580   0.32363
     Eigenvalues ---    0.33941   0.34047   0.35194   0.35312   0.35681
     Eigenvalues ---    0.38816   0.55570
 RFO step:  Lambda=-4.99413540D-02 EMin= 7.68976008D-03
 Linear search not attempted -- first point.
 Maximum step size (   0.300) exceeded in Quadratic search.
    -- Step size scaled by   0.755
 Iteration  1 RMS(Cart)=  0.04601992 RMS(Int)=  0.00315817
 Iteration  2 RMS(Cart)=  0.00321157 RMS(Int)=  0.00161607
 Iteration  3 RMS(Cart)=  0.00000695 RMS(Int)=  0.00161606
 Iteration  4 RMS(Cart)=  0.00000001 RMS(Int)=  0.00161606
 ITry= 1 IFail=0 DXMaxC= 2.19D-01 DCOld= 1.00D+10 DXMaxT= 3.00D-01 DXLimC= 3.00D+00 Rises=F
 Variable       Old X    -DE/DX   Delta X   Delta X   Delta X     New X
                                 (Linear)    (Quad)   (Total)
    R1        2.86655  -0.01559   0.00000  -0.03288  -0.03098   2.83557
    R2        2.88253   0.01050   0.00000   0.02711   0.02676   2.90929
    R3        2.07251  -0.00142   0.00000  -0.00274  -0.00274   2.06978
    R4        2.07430  -0.00261   0.00000  -0.00506  -0.00506   2.06924
    R5        2.52426  -0.04419   0.00000  -0.05503  -0.05353   2.47072
    R6        2.82374   0.01203   0.00000   0.02104   0.02014   2.84389
    R7        2.04584   0.00226   0.00000   0.00420   0.00420   2.05004
    R8        2.73565  -0.01745   0.00000  -0.03425  -0.03334   2.70230
    R9        2.78568   0.01612   0.00000   0.03815   0.03399   2.81967
   R10        2.05172  -0.00079   0.00000  -0.00149  -0.00149   2.05023
   R11        2.69864  -0.01540   0.00000  -0.02673  -0.02532   2.67332
   R12        2.05362  -0.00005   0.00000  -0.00010  -0.00010   2.05352
    A1        1.79687  -0.04544   0.00000  -0.12135  -0.12072   1.67615
    A2        1.95880   0.01592   0.00000   0.04502   0.04306   2.00186
    A3        1.95228   0.01505   0.00000   0.02842   0.02764   1.97992
    A4        1.94921   0.01138   0.00000   0.02695   0.02848   1.97769
    A5        1.94242   0.00714   0.00000   0.00808   0.00620   1.94862
    A6        1.86609  -0.00371   0.00000   0.01199   0.01084   1.87694
    A7        1.95989   0.07346   0.00000   0.18653   0.18931   2.14921
    A8        1.92214  -0.04163   0.00000  -0.11873  -0.11895   1.80319
    A9        2.20278   0.02656   0.00000   0.08042   0.08036   2.28314
   A10        2.15758   0.01513   0.00000   0.03913   0.03915   2.19672
   A11        1.97393   0.00076   0.00000  -0.00866  -0.00888   1.96505
   A12        1.86027   0.00402   0.00000   0.01846   0.01589   1.87616
   A13        2.14167  -0.00755   0.00000  -0.02725  -0.02635   2.11531
   A14        2.00743   0.00501   0.00000   0.01243   0.01189   2.01931
   A15        2.16748   0.00575   0.00000   0.02621   0.02651   2.19399
   A16        1.88428   0.00992   0.00000   0.03776   0.03525   1.91953
   A17        1.99575   0.00494   0.00000   0.01222   0.01299   2.00874
   A18        2.11035  -0.01107   0.00000  -0.04178  -0.04141   2.06893
   A19        2.15505   0.00275   0.00000   0.01514   0.01618   2.17123
   A20        2.01558   0.00493   0.00000   0.01269   0.01220   2.02779
    D1        0.05029  -0.00524   0.00000  -0.04841  -0.05051  -0.00022
    D2        2.14878  -0.01124   0.00000  -0.06725  -0.06994   2.07884
    D3       -2.03688   0.00578   0.00000  -0.00014  -0.00109  -2.03798
    D4       -0.03781   0.00352   0.00000   0.02142   0.01853  -0.01928
    D5        1.08471  -0.00099   0.00000   0.01690   0.01429   1.09900
    D6       -2.66373  -0.00092   0.00000  -0.00580  -0.00666  -2.67039
    D7       -2.14289   0.00607   0.00000   0.02698   0.02565  -2.11725
    D8       -1.02037   0.00156   0.00000   0.02246   0.02141  -0.99896
    D9        1.51437   0.00163   0.00000  -0.00023   0.00045   1.51483
   D10        2.05617  -0.00169   0.00000  -0.01179  -0.01271   2.04347
   D11       -3.10448  -0.00620   0.00000  -0.01631  -0.01695  -3.12143
   D12       -0.56974  -0.00613   0.00000  -0.03900  -0.03790  -0.60765
   D13       -0.04266   0.00651   0.00000   0.05974   0.06146   0.01880
   D14        3.13790   0.00492   0.00000   0.03652   0.03948  -3.10581
   D15       -1.07053  -0.00068   0.00000  -0.04045  -0.03684  -1.10737
   D16        0.01608  -0.00619   0.00000  -0.04887  -0.04528  -0.02920
   D17        2.67997   0.00032   0.00000  -0.00545  -0.00394   2.67604
   D18        2.03331   0.00122   0.00000  -0.01671  -0.01495   2.01836
   D19        3.11992  -0.00430   0.00000  -0.02513  -0.02339   3.09653
   D20       -0.49937   0.00222   0.00000   0.01829   0.01796  -0.48142
   D21        0.01602   0.00165   0.00000   0.01438   0.01530   0.03131
   D22        2.62567   0.00129   0.00000   0.02202   0.02187   2.64754
   D23       -2.63895  -0.00037   0.00000  -0.01132  -0.00992  -2.64887
   D24       -0.02930  -0.00073   0.00000  -0.00368  -0.00335  -0.03265
         Item               Value     Threshold  Converged?
 Maximum Force            0.073464     0.000450     NO 
 RMS     Force            0.016332     0.000300     NO 
 Maximum Displacement     0.218551     0.001800     NO 
 RMS     Displacement     0.045328     0.001200     NO 
 Predicted change in Energy=-2.624480D-02
 Lowest energy point so far.  Saving SCF results.
 GradGradGradGradGradGradGradGradGradGradGradGradGradGradGradGradGradGrad

 Leave Link  103 at Fri Oct 21 04:53:59 2022, MaxMem=  8053063680 cpu:               0.8 elap:               0.0
 (Enter /public3/home/scg5914/software-scg5914/g16/l202.exe)
                          Input orientation:                          
 ---------------------------------------------------------------------
 Center     Atomic      Atomic             Coordinates (Angstroms)
 Number     Number       Type             X           Y           Z
 ---------------------------------------------------------------------
      1          6           0       -0.090708    1.553258    0.016428
      2          6           0        1.380002    1.850682    0.005696
      3          6           0        2.297189    0.919889   -0.036966
      4          6           0        1.496660   -0.353150   -0.094468
      5          8           0        0.705194   -0.557783    1.078819
      6          6           0        0.053535    0.021371   -0.035265
      7          1           0       -0.623042    1.908769    0.905175
      8          1           0       -0.619555    1.939037   -0.861357
      9          1           0        3.379642    0.989764   -0.020278
     10          1           0        1.899740   -1.250302   -0.552429
     11          1           0       -0.750585   -0.561243   -0.476644
 ---------------------------------------------------------------------
                    Distance matrix (angstroms):
                    1          2          3          4          5
     1  C    0.000000
     2  C    1.500521   0.000000
     3  C    2.471044   1.307451   0.000000
     4  C    2.483229   2.209189   1.504919   0.000000
     5  O    2.493718   2.721702   2.441913   1.429998   0.000000
     6  C    1.539531   2.259994   2.416883   1.492106   1.414660
     7  H    1.095280   2.196502   3.223858   3.257099   2.806820
     8  H    1.094994   2.181241   3.197761   3.212570   3.428316
     9  H    3.515992   2.177249   1.084834   2.313988   3.279571
    10  H    3.485029   3.193389   2.265700   1.084935   2.137169
    11  H    2.269289   3.254141   3.417015   2.288989   2.130439
                    6          7          8          9         10
     6  C    0.000000
     7  H    2.214600   0.000000
     8  H    2.193837   1.766794   0.000000
     9  H    3.464246   4.209810   4.195486   0.000000
    10  H    2.300670   4.297530   4.076048   2.737004   0.000000
    11  H    1.086675   2.833134   2.533096   4.435387   2.739483
                   11
    11  H    0.000000
 Stoichiometry    C5H5O(1+)
 Framework group  C1[X(C5H5O)]
 Deg. of freedom    27
 Full point group                 C1      NOp   1
 RotChk:  IX=0 Diff= 4.14D-01
 Largest Abelian subgroup         C1      NOp   1
 Largest concise Abelian subgroup C1      NOp   1
                         Standard orientation:                         
 ---------------------------------------------------------------------
 Center     Atomic      Atomic             Coordinates (Angstroms)
 Number     Number       Type             X           Y           Z
 ---------------------------------------------------------------------
      1          6           0        1.176270   -0.852464   -0.003411
      2          6           0        1.247789    0.637132   -0.169403
      3          6           0        0.218374    1.425361   -0.000799
      4          6           0       -0.884143    0.477388    0.387253
      5          8           0       -1.198623   -0.453984   -0.651276
      6          6           0       -0.318606   -0.903145    0.361191
      7          1           0        1.422535   -1.425613   -0.903684
      8          1           0        1.803606   -1.230679    0.810477
      9          1           0        0.121763    2.499804   -0.115269
     10          1           0       -1.721709    0.807224    0.992872
     11          1           0       -0.675315   -1.724488    0.976833
 ---------------------------------------------------------------------
 Rotational constants (GHZ):           6.3383801           5.4043417           3.4711619
 Leave Link  202 at Fri Oct 21 04:53:59 2022, MaxMem=  8053063680 cpu:               1.4 elap:               0.1
 (Enter /public3/home/scg5914/software-scg5914/g16/l301.exe)
 Standard basis: 6-311+G(d,p) (5D, 7F)
 Ernie: Thresh=  0.10000D-02 Tol=  0.10000D-05 Strict=F.
 There are   168 symmetry adapted cartesian basis functions of A   symmetry.
 There are   162 symmetry adapted basis functions of A   symmetry.
   162 basis functions,   256 primitive gaussians,   168 cartesian basis functions
    21 alpha electrons       21 beta electrons
       nuclear repulsion energy       219.0529291052 Hartrees.
 IExCor=  402 DFT=T Ex+Corr=B3LYP ExCW=0 ScaHFX=  0.200000
 ScaDFX=  0.800000  0.720000  1.000000  0.810000 ScalE2=  1.000000  1.000000
 IRadAn=      5 IRanWt=     -1 IRanGd=            0 ICorTp=0 IEmpDi=141
 NAtoms=   11 NActive=   11 NUniq=   11 SFac= 1.00D+00 NAtFMM=   60 NAOKFM=F Big=F
 Integral buffers will be    131072 words long.
 Raffenetti 2 integral format.
 Two-electron integral symmetry is turned on.
 R6Disp:  Grimme-D3(BJ) Dispersion energy=       -0.0152067514 Hartrees.
 Nuclear repulsion after empirical dispersion term =      219.0377223538 Hartrees.
 Leave Link  301 at Fri Oct 21 04:53:59 2022, MaxMem=  8053063680 cpu:               0.7 elap:               0.0
 (Enter /public3/home/scg5914/software-scg5914/g16/l302.exe)
 NPDir=0 NMtPBC=     1 NCelOv=     1 NCel=       1 NClECP=     1 NCelD=      1
         NCelK=      1 NCelE2=     1 NClLst=     1 CellRange=     0.0.
 One-electron integrals computed using PRISM.
 One-electron integral symmetry used in STVInt
 NBasis=   162 RedAO= T EigKep=  1.65D-05  NBF=   162
 NBsUse=   162 1.00D-06 EigRej= -1.00D+00 NBFU=   162
 Precomputing XC quadrature grid using
 IXCGrd= 4 IRadAn=           5 IRanWt=          -1 IRanGd=           0 AccXCQ= 0.00D+00.
 Generated NRdTot=       0 NPtTot=           0 NUsed=           0 NTot=          32
 NSgBfM=   168   168   168   168   168 MxSgAt=    11 MxSgA2=    11.
 Leave Link  302 at Fri Oct 21 04:53:59 2022, MaxMem=  8053063680 cpu:               2.9 elap:               0.1
 (Enter /public3/home/scg5914/software-scg5914/g16/l303.exe)
 DipDrv:  MaxL=1.
 Leave Link  303 at Fri Oct 21 04:53:59 2022, MaxMem=  8053063680 cpu:               1.0 elap:               0.0
 (Enter /public3/home/scg5914/software-scg5914/g16/l401.exe)
 Initial guess from the checkpoint file:  "dsgdb9nsd_000672-3.chk"
 B after Tr=    -0.000000    0.000000   -0.000000
         Rot=    0.989254   -0.000883   -0.001745   -0.146193 Ang= -16.81 deg.
 Guess basis will be translated and rotated to current coordinates.
 JPrj=2 DoOrth=T DoCkMO=T.
 Generating alternative initial guess.
 ExpMin= 4.38D-02 ExpMax= 8.59D+03 ExpMxC= 1.30D+03 IAcc=3 IRadAn=         5 AccDes= 0.00D+00
 Harris functional with IExCor=  402 and IRadAn=       5 diagonalized for initial guess.
 HarFok:  IExCor=  402 AccDes= 0.00D+00 IRadAn=         5 IDoV= 1 UseB2=F ITyADJ=14
 ICtDFT=  3500011 ScaDFX=  1.000000  1.000000  1.000000  1.000000
 FoFCou: FMM=F IPFlag=           0 FMFlag=      100000 FMFlg1=           0
         NFxFlg=           0 DoJE=T BraDBF=F KetDBF=T FulRan=T
         wScrn=  0.000000 ICntrl=       500 IOpCl=  0 I1Cent=   200000004 NGrid=           0
         NMat0=    1 NMatS0=      1 NMatT0=    0 NMatD0=    1 NMtDS0=    0 NMtDT0=    0
 Petite list used in FoFCou.
 Harris En= -268.421991027582    
 Leave Link  401 at Fri Oct 21 04:54:00 2022, MaxMem=  8053063680 cpu:               8.7 elap:               0.3
 (Enter /public3/home/scg5914/software-scg5914/g16/l502.exe)
 Keep R1 ints in memory in canonical form, NReq=119072288.
 FoFCou: FMM=F IPFlag=           0 FMFlag=           0 FMFlg1=           0
         NFxFlg=           0 DoJE=F BraDBF=F KetDBF=F FulRan=T
         wScrn=  0.000000 ICntrl=       600 IOpCl=  0 I1Cent=           0 NGrid=           0
         NMat0=    1 NMatS0=  13203 NMatT0=    0 NMatD0=    1 NMtDS0=    0 NMtDT0=    0
 Symmetry not used in FoFCou.
 Two-electron integral symmetry not used.
 Closed shell SCF:
 Using DIIS extrapolation, IDIIS=  1040.
 NGot=  8053063680 LenX=  7965833664 LenY=  7965804999
 Requested convergence on RMS density matrix=1.00D-08 within 128 cycles.
 Requested convergence on MAX density matrix=1.00D-06.
 Requested convergence on             energy=1.00D-06.
 No special actions if energy rises.

 Cycle   1  Pass 1  IDiag  1:
 E= -268.370319279963    
 DIIS: error= 6.14D-03 at cycle   1 NSaved=   1.
 NSaved= 1 IEnMin= 1 EnMin= -268.370319279963     IErMin= 1 ErrMin= 6.14D-03
 ErrMax= 6.14D-03  0.00D+00 EMaxC= 1.00D-01 BMatC= 4.88D-03 BMatP= 4.88D-03
 IDIUse=3 WtCom= 9.39D-01 WtEn= 6.14D-02
 Coeff-Com:  0.100D+01
 Coeff-En:   0.100D+01
 Coeff:      0.100D+01
 Gap=     0.584 Goal=   None    Shift=    0.000
 GapD=    0.584 DampG=2.000 DampE=1.000 DampFc=2.0000 IDamp=-1.
 RMSDP=2.64D-03 MaxDP=1.30D-01              OVMax= 4.18D-02

 Cycle   2  Pass 1  IDiag  1:
 E= -268.377683992342     Delta-E=       -0.007364712378 Rises=F Damp=F
 DIIS: error= 1.05D-03 at cycle   2 NSaved=   2.
 NSaved= 2 IEnMin= 2 EnMin= -268.377683992342     IErMin= 2 ErrMin= 1.05D-03
 ErrMax= 1.05D-03  0.00D+00 EMaxC= 1.00D-01 BMatC= 2.97D-04 BMatP= 4.88D-03
 IDIUse=3 WtCom= 9.90D-01 WtEn= 1.05D-02
 Coeff-Com:  0.532D-01 0.947D+00
 Coeff-En:   0.000D+00 0.100D+01
 Coeff:      0.526D-01 0.947D+00
 Gap=     0.123 Goal=   None    Shift=    0.000
 RMSDP=3.76D-04 MaxDP=7.22D-03 DE=-7.36D-03 OVMax= 2.24D-02

 Cycle   3  Pass 1  IDiag  1:
 E= -268.377235689106     Delta-E=        0.000448303236 Rises=F Damp=F
 DIIS: error= 2.67D-03 at cycle   3 NSaved=   3.
 NSaved= 3 IEnMin= 2 EnMin= -268.377683992342     IErMin= 2 ErrMin= 1.05D-03
 ErrMax= 2.67D-03  0.00D+00 EMaxC= 1.00D-01 BMatC= 8.08D-04 BMatP= 2.97D-04
 IDIUse=3 WtCom= 1.62D-01 WtEn= 8.38D-01
 Coeff-Com: -0.237D-01 0.644D+00 0.380D+00
 Coeff-En:   0.000D+00 0.675D+00 0.325D+00
 Coeff:     -0.385D-02 0.670D+00 0.334D+00
 Gap=     0.121 Goal=   None    Shift=    0.000
 RMSDP=2.21D-04 MaxDP=5.20D-03 DE= 4.48D-04 OVMax= 1.14D-02

 Cycle   4  Pass 1  IDiag  1:
 E= -268.378016048180     Delta-E=       -0.000780359074 Rises=F Damp=F
 DIIS: error= 4.86D-04 at cycle   4 NSaved=   4.
 NSaved= 4 IEnMin= 4 EnMin= -268.378016048180     IErMin= 4 ErrMin= 4.86D-04
 ErrMax= 4.86D-04  0.00D+00 EMaxC= 1.00D-01 BMatC= 6.49D-05 BMatP= 2.97D-04
 IDIUse=3 WtCom= 9.95D-01 WtEn= 4.86D-03
 Coeff-Com: -0.179D-01 0.384D+00 0.220D+00 0.414D+00
 Coeff-En:   0.000D+00 0.000D+00 0.000D+00 0.100D+01
 Coeff:     -0.179D-01 0.382D+00 0.219D+00 0.417D+00
 Gap=     0.122 Goal=   None    Shift=    0.000
 RMSDP=7.85D-05 MaxDP=2.79D-03 DE=-7.80D-04 OVMax= 6.69D-03

 Cycle   5  Pass 1  IDiag  1:
 E= -268.378055803373     Delta-E=       -0.000039755193 Rises=F Damp=F
 DIIS: error= 4.29D-04 at cycle   5 NSaved=   5.
 NSaved= 5 IEnMin= 5 EnMin= -268.378055803373     IErMin= 5 ErrMin= 4.29D-04
 ErrMax= 4.29D-04  0.00D+00 EMaxC= 1.00D-01 BMatC= 2.56D-05 BMatP= 6.49D-05
 IDIUse=3 WtCom= 9.96D-01 WtEn= 4.29D-03
 Coeff-Com: -0.106D-01 0.136D+00 0.748D-01 0.359D+00 0.441D+00
 Coeff-En:   0.000D+00 0.000D+00 0.000D+00 0.304D+00 0.696D+00
 Coeff:     -0.105D-01 0.135D+00 0.745D-01 0.359D+00 0.442D+00
 Gap=     0.121 Goal=   None    Shift=    0.000
 RMSDP=3.79D-05 MaxDP=1.45D-03 DE=-3.98D-05 OVMax= 1.79D-03

 Cycle   6  Pass 1  IDiag  1:
 E= -268.378076441278     Delta-E=       -0.000020637905 Rises=F Damp=F
 DIIS: error= 9.44D-05 at cycle   6 NSaved=   6.
 NSaved= 6 IEnMin= 6 EnMin= -268.378076441278     IErMin= 6 ErrMin= 9.44D-05
 ErrMax= 9.44D-05  0.00D+00 EMaxC= 1.00D-01 BMatC= 1.35D-06 BMatP= 2.56D-05
 IDIUse=1 WtCom= 1.00D+00 WtEn= 0.00D+00
 Coeff-Com: -0.678D-03-0.102D-01-0.156D-01 0.128D+00 0.225D+00 0.673D+00
 Coeff:     -0.678D-03-0.102D-01-0.156D-01 0.128D+00 0.225D+00 0.673D+00
 Gap=     0.121 Goal=   None    Shift=    0.000
 RMSDP=1.48D-05 MaxDP=4.61D-04 DE=-2.06D-05 OVMax= 1.27D-03

 Cycle   7  Pass 1  IDiag  1:
 E= -268.378077906423     Delta-E=       -0.000001465145 Rises=F Damp=F
 DIIS: error= 4.46D-05 at cycle   7 NSaved=   7.
 NSaved= 7 IEnMin= 7 EnMin= -268.378077906423     IErMin= 7 ErrMin= 4.46D-05
 ErrMax= 4.46D-05  0.00D+00 EMaxC= 1.00D-01 BMatC= 3.50D-07 BMatP= 1.35D-06
 IDIUse=1 WtCom= 1.00D+00 WtEn= 0.00D+00
 Coeff-Com:  0.552D-03-0.184D-01-0.170D-01 0.376D-01 0.359D-01 0.360D+00
 Coeff-Com:  0.602D+00
 Coeff:      0.552D-03-0.184D-01-0.170D-01 0.376D-01 0.359D-01 0.360D+00
 Coeff:      0.602D+00
 Gap=     0.121 Goal=   None    Shift=    0.000
 RMSDP=7.04D-06 MaxDP=2.70D-04 DE=-1.47D-06 OVMax= 3.13D-04

 Cycle   8  Pass 1  IDiag  1:
 E= -268.378078257318     Delta-E=       -0.000000350895 Rises=F Damp=F
 DIIS: error= 1.64D-05 at cycle   8 NSaved=   8.
 NSaved= 8 IEnMin= 8 EnMin= -268.378078257318     IErMin= 8 ErrMin= 1.64D-05
 ErrMax= 1.64D-05  0.00D+00 EMaxC= 1.00D-01 BMatC= 5.27D-08 BMatP= 3.50D-07
 IDIUse=1 WtCom= 1.00D+00 WtEn= 0.00D+00
 Coeff-Com:  0.549D-03-0.111D-01-0.943D-02 0.333D-02-0.254D-01 0.126D+00
 Coeff-Com:  0.360D+00 0.557D+00
 Coeff:      0.549D-03-0.111D-01-0.943D-02 0.333D-02-0.254D-01 0.126D+00
 Coeff:      0.360D+00 0.557D+00
 Gap=     0.121 Goal=   None    Shift=    0.000
 RMSDP=2.27D-06 MaxDP=1.23D-04 DE=-3.51D-07 OVMax= 9.82D-05

 Cycle   9  Pass 1  IDiag  1:
 E= -268.378078310894     Delta-E=       -0.000000053576 Rises=F Damp=F
 DIIS: error= 3.48D-06 at cycle   9 NSaved=   9.
 NSaved= 9 IEnMin= 9 EnMin= -268.378078310894     IErMin= 9 ErrMin= 3.48D-06
 ErrMax= 3.48D-06  0.00D+00 EMaxC= 1.00D-01 BMatC= 2.66D-09 BMatP= 5.27D-08
 IDIUse=1 WtCom= 1.00D+00 WtEn= 0.00D+00
 Coeff-Com:  0.931D-04-0.892D-03-0.733D-03-0.278D-02-0.152D-01-0.607D-02
 Coeff-Com:  0.111D-01 0.157D+00 0.858D+00
 Coeff:      0.931D-04-0.892D-03-0.733D-03-0.278D-02-0.152D-01-0.607D-02
 Coeff:      0.111D-01 0.157D+00 0.858D+00
 Gap=     0.121 Goal=   None    Shift=    0.000
 RMSDP=6.24D-07 MaxDP=1.75D-05 DE=-5.36D-08 OVMax= 4.21D-05

 Cycle  10  Pass 1  IDiag  1:
 E= -268.378078314292     Delta-E=       -0.000000003398 Rises=F Damp=F
 DIIS: error= 1.02D-06 at cycle  10 NSaved=  10.
 NSaved=10 IEnMin=10 EnMin= -268.378078314292     IErMin=10 ErrMin= 1.02D-06
 ErrMax= 1.02D-06  0.00D+00 EMaxC= 1.00D-01 BMatC= 1.96D-10 BMatP= 2.66D-09
 IDIUse=1 WtCom= 1.00D+00 WtEn= 0.00D+00
 Coeff-Com:  0.302D-05 0.477D-03 0.399D-03-0.138D-02-0.498D-02-0.112D-01
 Coeff-Com: -0.183D-01 0.345D-01 0.398D+00 0.602D+00
 Coeff:      0.302D-05 0.477D-03 0.399D-03-0.138D-02-0.498D-02-0.112D-01
 Coeff:     -0.183D-01 0.345D-01 0.398D+00 0.602D+00
 Gap=     0.121 Goal=   None    Shift=    0.000
 RMSDP=1.42D-07 MaxDP=5.49D-06 DE=-3.40D-09 OVMax= 6.76D-06

 Cycle  11  Pass 1  IDiag  1:
 E= -268.378078314477     Delta-E=       -0.000000000184 Rises=F Damp=F
 DIIS: error= 2.99D-07 at cycle  11 NSaved=  11.
 NSaved=11 IEnMin=11 EnMin= -268.378078314477     IErMin=11 ErrMin= 2.99D-07
 ErrMax= 2.99D-07  0.00D+00 EMaxC= 1.00D-01 BMatC= 2.49D-11 BMatP= 1.96D-10
 IDIUse=1 WtCom= 1.00D+00 WtEn= 0.00D+00
 Coeff-Com: -0.783D-05 0.219D-03 0.216D-03-0.309D-03 0.209D-03-0.326D-02
 Coeff-Com: -0.647D-02-0.601D-02 0.452D-01 0.229D+00 0.741D+00
 Coeff:     -0.783D-05 0.219D-03 0.216D-03-0.309D-03 0.209D-03-0.326D-02
 Coeff:     -0.647D-02-0.601D-02 0.452D-01 0.229D+00 0.741D+00
 Gap=     0.121 Goal=   None    Shift=    0.000
 RMSDP=5.09D-08 MaxDP=1.42D-06 DE=-1.84D-10 OVMax= 3.15D-06

 Cycle  12  Pass 1  IDiag  1:
 E= -268.378078314504     Delta-E=       -0.000000000028 Rises=F Damp=F
 DIIS: error= 7.45D-08 at cycle  12 NSaved=  12.
 NSaved=12 IEnMin=12 EnMin= -268.378078314504     IErMin=12 ErrMin= 7.45D-08
 ErrMax= 7.45D-08  0.00D+00 EMaxC= 1.00D-01 BMatC= 1.20D-12 BMatP= 2.49D-11
 IDIUse=1 WtCom= 1.00D+00 WtEn= 0.00D+00
 Coeff-Com: -0.247D-05 0.407D-04 0.466D-04-0.453D-04 0.405D-03-0.404D-03
 Coeff-Com: -0.875D-03-0.440D-02-0.901D-02 0.239D-01 0.172D+00 0.819D+00
 Coeff:     -0.247D-05 0.407D-04 0.466D-04-0.453D-04 0.405D-03-0.404D-03
 Coeff:     -0.875D-03-0.440D-02-0.901D-02 0.239D-01 0.172D+00 0.819D+00
 Gap=     0.121 Goal=   None    Shift=    0.000
 RMSDP=1.58D-08 MaxDP=5.00D-07 DE=-2.80D-11 OVMax= 1.40D-06

 Cycle  13  Pass 1  IDiag  1:
 E= -268.378078314506     Delta-E=       -0.000000000002 Rises=F Damp=F
 DIIS: error= 3.41D-08 at cycle  13 NSaved=  13.
 NSaved=13 IEnMin=13 EnMin= -268.378078314506     IErMin=13 ErrMin= 3.41D-08
 ErrMax= 3.41D-08  0.00D+00 EMaxC= 1.00D-01 BMatC= 1.74D-13 BMatP= 1.20D-12
 IDIUse=1 WtCom= 1.00D+00 WtEn= 0.00D+00
 Coeff-Com:  0.924D-08-0.117D-04-0.750D-05 0.181D-04 0.162D-03 0.278D-03
 Coeff-Com:  0.546D-03-0.131D-02-0.946D-02-0.188D-01-0.255D-01 0.363D+00
 Coeff-Com:  0.691D+00
 Coeff:      0.924D-08-0.117D-04-0.750D-05 0.181D-04 0.162D-03 0.278D-03
 Coeff:      0.546D-03-0.131D-02-0.946D-02-0.188D-01-0.255D-01 0.363D+00
 Coeff:      0.691D+00
 Gap=     0.121 Goal=   None    Shift=    0.000
 RMSDP=6.17D-09 MaxDP=1.70D-07 DE=-1.71D-12 OVMax= 7.24D-07

 SCF Done:  E(RB3LYP) =  -268.378078315     A.U. after   13 cycles
            NFock= 13  Conv=0.62D-08     -V/T= 2.0044
 KE= 2.672087008613D+02 PE=-1.053707214453D+03 EE= 2.990827129234D+02
 Leave Link  502 at Fri Oct 21 04:54:03 2022, MaxMem=  8053063680 cpu:              94.7 elap:               3.6
 (Enter /public3/home/scg5914/software-scg5914/g16/l701.exe)
 ... and contract with generalized density number  0.
 Compute integral first derivatives.
 R6Disp: Adding Grimme-D3(BJ) dispersion energy 1st derivatives to the gradient.
 Leave Link  701 at Fri Oct 21 04:54:03 2022, MaxMem=  8053063680 cpu:               2.6 elap:               0.1
 (Enter /public3/home/scg5914/software-scg5914/g16/l702.exe)
 L702 exits ... SP integral derivatives will be done elsewhere.
 Leave Link  702 at Fri Oct 21 04:54:03 2022, MaxMem=  8053063680 cpu:               0.2 elap:               0.0
 (Enter /public3/home/scg5914/software-scg5914/g16/l703.exe)
 Integral derivatives from FoFJK, PRISM(SPDF).
 Compute integral first derivatives, UseDBF=F ICtDFT=           0.
 Calling FoFJK, ICntrl=      2127 FMM=F ISym2X=0 I1Cent= 0 IOpClX= 0 NMat=1 NMatS=1 NMatT=0.
 FoFJK:  IHMeth= 1 ICntrl=    2127 DoSepK=F KAlg= 0 I1Cent=           0 FoldK=F
 IRaf=         0 NMat=       1 IRICut=       1 DoRegI=T DoRafI=F ISym2E= 0 IDoP0=0 IntGTp=1.
 FoFCou: FMM=F IPFlag=           0 FMFlag=      100000 FMFlg1=         800
         NFxFlg=           0 DoJE=F BraDBF=F KetDBF=F FulRan=T
         wScrn=  0.000000 ICntrl=      2127 IOpCl=  0 I1Cent=           0 NGrid=           0
         NMat0=    1 NMatS0=      1 NMatT0=    0 NMatD0=    1 NMtDS0=    0 NMtDT0=    0
 Symmetry not used in FoFCou.
 Leave Link  703 at Fri Oct 21 04:54:04 2022, MaxMem=  8053063680 cpu:              21.1 elap:               0.7
 (Enter /public3/home/scg5914/software-scg5914/g16/l716.exe)
 Dipole        = 7.63275213D-01 2.74071737D-01 6.53512977D-01
 ***** Axes restored to original set *****
 -------------------------------------------------------------------
 Center     Atomic                   Forces (Hartrees/Bohr)
 Number     Number              X              Y              Z
 -------------------------------------------------------------------
      1        6          -0.003977895    0.040131135    0.005656127
      2        6          -0.021686240   -0.065398995   -0.015901553
      3        6           0.027066789    0.046015281    0.009015304
      4        6          -0.027705590   -0.011049785    0.008434662
      5        8           0.002693792    0.006472800   -0.016382266
      6        6           0.017949749   -0.015442059    0.010786905
      7        1           0.003022529   -0.003104199    0.000837679
      8        1           0.002658445   -0.001534565   -0.000365163
      9        1          -0.001515880   -0.003388444    0.002457682
     10        1           0.003345825    0.003232596   -0.003059859
     11        1          -0.001851524    0.004066234   -0.001479520
 -------------------------------------------------------------------
 Cartesian Forces:  Max     0.065398995 RMS     0.018786831
 Leave Link  716 at Fri Oct 21 04:54:04 2022, MaxMem=  8053063680 cpu:               0.2 elap:               0.0
 (Enter /public3/home/scg5914/software-scg5914/g16/l103.exe)

 GradGradGradGradGradGradGradGradGradGradGradGradGradGradGradGradGradGrad
 Berny optimization.
 Using GEDIIS/GDIIS optimizer.
 FormGI is forming the generalized inverse of G from B-inverse, IUseBI=4.
 Internal  Forces:  Max     0.040272937 RMS     0.009008198
 Search for a local minimum.
 Step number   2 out of a maximum of   66
 All quantities printed in internal units (Hartrees-Bohrs-Radians)
 RMS Force = .90082D-02 SwitMx=.10000D-02 MixMth= 1
 Mixed Optimization -- RFO/linear search
 Update second derivatives using D2CorX and points    1    2
 DE= -2.87D-02 DEPred=-2.62D-02 R= 1.10D+00
 TightC=F SS=  1.41D+00  RLast= 3.33D-01 DXNew= 5.0454D-01 1.0002D+00
 Trust test= 1.10D+00 RLast= 3.33D-01 DXMaxT set to 5.05D-01
 ITU=  1  0
 Use linear search instead of GDIIS.
     Eigenvalues ---    0.00807   0.01412   0.01910   0.02279   0.02809
     Eigenvalues ---    0.05700   0.05889   0.09657   0.09786   0.13208
     Eigenvalues ---    0.14121   0.15856   0.17243   0.17747   0.20414
     Eigenvalues ---    0.25510   0.27904   0.29405   0.31860   0.33693
     Eigenvalues ---    0.33941   0.34097   0.35194   0.35314   0.35928
     Eigenvalues ---    0.38626   0.54501
 RFO step:  Lambda=-9.37262845D-03 EMin= 8.06587470D-03
 Quartic linear search produced a step of  1.18004.
 Iteration  1 RMS(Cart)=  0.05556324 RMS(Int)=  0.01625662
 Iteration  2 RMS(Cart)=  0.01266881 RMS(Int)=  0.00930914
 Iteration  3 RMS(Cart)=  0.00034396 RMS(Int)=  0.00930589
 Iteration  4 RMS(Cart)=  0.00000290 RMS(Int)=  0.00930589
 Iteration  5 RMS(Cart)=  0.00000005 RMS(Int)=  0.00930589
 ITry= 1 IFail=0 DXMaxC= 2.93D-01 DCOld= 1.00D+10 DXMaxT= 5.05D-01 DXLimC= 3.00D+00 Rises=F
 Variable       Old X    -DE/DX   Delta X   Delta X   Delta X     New X
                                 (Linear)    (Quad)   (Total)
    R1        2.83557  -0.01944  -0.03655  -0.08950  -0.11712   2.71846
    R2        2.90929   0.00897   0.03158   0.03091   0.06031   2.96960
    R3        2.06978  -0.00180  -0.00323  -0.00694  -0.01017   2.05960
    R4        2.06924  -0.00153  -0.00597  -0.00179  -0.00777   2.06147
    R5        2.47072  -0.02200  -0.06317  -0.00737  -0.06285   2.40787
    R6        2.84389   0.01386   0.02377   0.05405   0.07404   2.91793
    R7        2.05004  -0.00169   0.00496  -0.01635  -0.01140   2.03864
    R8        2.70230  -0.01011  -0.03935  -0.01028  -0.04366   2.65864
    R9        2.81967  -0.00041   0.04011  -0.04366  -0.02547   2.79420
   R10        2.05023  -0.00014  -0.00176   0.00143  -0.00033   2.04990
   R11        2.67332  -0.00951  -0.02988  -0.00860  -0.03087   2.64245
   R12        2.05352  -0.00021  -0.00012  -0.00110  -0.00122   2.05230
    A1        1.67615  -0.01953  -0.14246   0.00936  -0.13204   1.54411
    A2        2.00186   0.00608   0.05081  -0.02387   0.01310   2.01496
    A3        1.97992   0.00553   0.03262  -0.02744   0.00937   1.98929
    A4        1.97769   0.00447   0.03361  -0.01667   0.02327   2.00095
    A5        1.94862   0.00190   0.00732  -0.01042  -0.01329   1.93532
    A6        1.87694   0.00049   0.01280   0.05954   0.07002   1.94696
    A7        2.14921   0.04027   0.22340   0.03277   0.25368   2.40289
    A8        1.80319  -0.02352  -0.14036  -0.03325  -0.17273   1.63046
    A9        2.28314   0.01500   0.09483   0.02372   0.11692   2.40006
   A10        2.19672   0.00854   0.04619   0.01085   0.05268   2.24940
   A11        1.96505   0.00031  -0.01048   0.00759  -0.00126   1.96379
   A12        1.87616   0.00078   0.01875   0.00604   0.01783   1.89398
   A13        2.11531  -0.00380  -0.03110  -0.01542  -0.04200   2.07332
   A14        2.01931   0.00303   0.01403   0.04110   0.05306   2.07237
   A15        2.19399   0.00317   0.03129  -0.02527   0.00164   2.19563
   A16        1.91953   0.00192   0.04160  -0.01693   0.01481   1.93433
   A17        2.00874   0.00201   0.01533   0.01935   0.03854   2.04727
   A18        2.06893  -0.00476  -0.04887  -0.00746  -0.05411   2.01482
   A19        2.17123   0.00259   0.01910  -0.01329   0.00529   2.17652
   A20        2.02779   0.00277   0.01440   0.02514   0.03777   2.06555
    D1       -0.00022  -0.00390  -0.05961  -0.10630  -0.17892  -0.17914
    D2        2.07884  -0.00784  -0.08253  -0.12922  -0.22122   1.85762
    D3       -2.03798   0.00260  -0.00129  -0.09020  -0.10008  -2.13805
    D4       -0.01928   0.00100   0.02187   0.03358   0.03483   0.01555
    D5        1.09900  -0.00062   0.01686   0.03905   0.03927   1.13828
    D6       -2.67039   0.00051  -0.00786   0.10619   0.08851  -2.58189
    D7       -2.11725   0.00328   0.03026   0.06204   0.08323  -2.03402
    D8       -0.99896   0.00166   0.02526   0.06751   0.08767  -0.91129
    D9        1.51483   0.00279   0.00053   0.13465   0.13691   1.65173
   D10        2.04347  -0.00205  -0.01500   0.00395  -0.01823   2.02524
   D11       -3.12143  -0.00367  -0.02000   0.00942  -0.01379  -3.13522
   D12       -0.60765  -0.00254  -0.04473   0.07656   0.03545  -0.57220
   D13        0.01880   0.00465   0.07252   0.12583   0.20750   0.22630
   D14       -3.10581   0.00319   0.04658   0.04046   0.10377  -3.00204
   D15       -1.10737  -0.00105  -0.04347  -0.09444  -0.11606  -1.22343
   D16       -0.02920  -0.00292  -0.05344  -0.08318  -0.11008  -0.13928
   D17        2.67604  -0.00159  -0.00465  -0.16148  -0.15154   2.52450
   D18        2.01836   0.00042  -0.01764  -0.01452  -0.02495   1.99341
   D19        3.09653  -0.00145  -0.02760  -0.00326  -0.01897   3.07755
   D20       -0.48142  -0.00012   0.02119  -0.08156  -0.06044  -0.54186
   D21        0.03131   0.00130   0.01805   0.02620   0.04813   0.07944
   D22        2.64754  -0.00069   0.02581  -0.04970  -0.03139   2.61615
   D23       -2.64887   0.00216  -0.01171   0.10530   0.10672  -2.54216
   D24       -0.03265   0.00017  -0.00395   0.02940   0.02720  -0.00545
         Item               Value     Threshold  Converged?
 Maximum Force            0.040273     0.000450     NO 
 RMS     Force            0.009008     0.000300     NO 
 Maximum Displacement     0.293299     0.001800     NO 
 RMS     Displacement     0.062396     0.001200     NO 
 Predicted change in Energy=-1.673153D-02
 Lowest energy point so far.  Saving SCF results.
 GradGradGradGradGradGradGradGradGradGradGradGradGradGradGradGradGradGrad

 Leave Link  103 at Fri Oct 21 04:54:04 2022, MaxMem=  8053063680 cpu:               0.6 elap:               0.0
 (Enter /public3/home/scg5914/software-scg5914/g16/l202.exe)
                          Input orientation:                          
 ---------------------------------------------------------------------
 Center     Atomic      Atomic             Coordinates (Angstroms)
 Number     Number       Type             X           Y           Z
 ---------------------------------------------------------------------
      1          6           0       -0.115320    1.575657    0.014139
      2          6           0        1.315343    1.695475   -0.076737
      3          6           0        2.331794    0.931513    0.005429
      4          6           0        1.485676   -0.357182   -0.081743
      5          8           0        0.715074   -0.575031    1.075002
      6          6           0        0.056196    0.013765   -0.008747
      7          1           0       -0.561329    1.970589    0.926814
      8          1           0       -0.646451    1.921629   -0.873685
      9          1           0        3.405034    1.036056    0.037701
     10          1           0        1.892667   -1.214909   -0.606501
     11          1           0       -0.750612   -0.537272   -0.482962
 ---------------------------------------------------------------------
                    Distance matrix (angstroms):
                    1          2          3          4          5
     1  C    0.000000
     2  C    1.438545   0.000000
     3  C    2.530486   1.274190   0.000000
     4  C    2.511622   2.059718   1.544101   0.000000
     5  O    2.537802   2.615726   2.455086   1.406893   0.000000
     6  C    1.571447   2.101957   2.453733   1.478629   1.398325
     7  H    1.089896   2.145857   3.209173   3.259745   2.851551
     8  H    1.090884   2.129532   3.259311   3.219645   3.447382
     9  H    3.561547   2.194251   1.078803   2.374724   3.302648
    10  H    3.493488   3.014015   2.274735   1.084761   2.150261
    11  H    2.261675   3.068933   3.449215   2.279122   2.139373
                    6          7          8          9         10
     6  C    0.000000
     7  H    2.255165   0.000000
     8  H    2.209474   1.803175   0.000000
     9  H    3.501707   4.170841   4.246103   0.000000
    10  H    2.289011   4.303550   4.044301   2.787309   0.000000
    11  H    1.086030   2.883169   2.491929   4.473908   2.731552
                   11
    11  H    0.000000
 Stoichiometry    C5H5O(1+)
 Framework group  C1[X(C5H5O)]
 Deg. of freedom    27
 Full point group                 C1      NOp   1
 RotChk:  IX=0 Diff= 5.84D-01
 Largest Abelian subgroup         C1      NOp   1
 Largest concise Abelian subgroup C1      NOp   1
                         Standard orientation:                         
 ---------------------------------------------------------------------
 Center     Atomic      Atomic             Coordinates (Angstroms)
 Number     Number       Type             X           Y           Z
 ---------------------------------------------------------------------
      1          6           0        1.463679   -0.301058   -0.042156
      2          6           0        0.811900    0.980683   -0.083804
      3          6           0       -0.378778    1.433460   -0.054819
      4          6           0       -0.979598    0.083817    0.394323
[...]
  12. BD (   1) O   5 - C   6        /156. BD*(   1) C   3 - C   4            1.32    1.05    0.033
  12. BD (   1) O   5 - C   6        /158. BD*(   1) C   4 - O   5            4.37    1.01    0.060
  12. BD (   1) O   5 - C   6        /159. BD*(   1) C   4 - C   6            2.41    1.05    0.045
  12. BD (   1) O   5 - C   6        /160. BD*(   1) C   4 - H  10            2.96    1.14    0.052
  13. BD (   1) C   6 - H  11        / 20. LP*(   1) C   2                    0.52    0.44    0.015
  13. BD (   1) C   6 - H  11        /156. BD*(   1) C   3 - C   4            1.22    0.84    0.029
  13. BD (   1) C   6 - H  11        /158. BD*(   1) C   4 - O   5            1.19    0.81    0.028
  14. CR (   1) C   1                / 20. LP*(   1) C   2                    1.55    9.97    0.126
  14. CR (   1) C   1                / 40. RY*(   1) C   2                    1.74   11.07    0.124
  14. CR (   1) C   1                / 45. RY*(   6) C   2                    0.52   11.51    0.069
  14. CR (   1) C   1                /125. RY*(   1) H   7                    0.54   11.02    0.069
  14. CR (   1) C   1                /154. BD*(   1) C   2 - C   3            2.37   10.76    0.143
  15. CR (   1) C   2                / 24. RY*(   2) C   1                    0.82   11.31    0.086
  15. CR (   1) C   2                / 57. RY*(   1) C   3                    2.24   11.07    0.141
  15. CR (   1) C   2                /155. BD*(   2) C   2 - C   3            0.78   10.17    0.080
  15. CR (   1) C   2                /157. BD*(   1) C   3 - H   9            1.57   10.55    0.115
  16. CR (   1) C   3                / 20. LP*(   1) C   2                    2.26    9.97    0.153
  16. CR (   1) C   3                / 40. RY*(   1) C   2                    3.37   11.07    0.172
  16. CR (   1) C   3                /135. RY*(   1) H   9                    0.85   11.76    0.089
  16. CR (   1) C   3                /150. BD*(   1) C   1 - C   2            3.05   10.49    0.160
  16. CR (   1) C   3                /154. BD*(   1) C   2 - C   3            1.25   10.76    0.104
  17. CR (   1) C   4                / 20. LP*(   1) C   2                    0.94   10.04    0.099
  17. CR (   1) C   4                /108. RY*(   1) C   6                    0.86   11.09    0.087
  17. CR (   1) C   4                /159. BD*(   1) C   4 - C   6            0.60   10.45    0.071
  17. CR (   1) C   4                /161. BD*(   1) O   5 - C   6            1.19   10.42    0.100
  18. CR (   1) O   5                / 74. RY*(   1) C   4                    1.56   19.87    0.157
  18. CR (   1) O   5                /108. RY*(   1) C   6                    1.54   19.87    0.156
  19. CR (   1) C   6                / 20. LP*(   1) C   2                    0.76   10.04    0.089
  19. CR (   1) C   6                / 74. RY*(   1) C   4                    0.83   11.07    0.086
  19. CR (   1) C   6                /146. RY*(   2) H  11                    0.55   12.35    0.073
  19. CR (   1) C   6                /158. BD*(   1) C   4 - O   5            1.20   10.41    0.101
  19. CR (   1) C   6                /159. BD*(   1) C   4 - C   6            0.55   10.44    0.068
  20. LP*(   1) C   2                / 25. RY*(   3) C   1                    0.53    1.01    0.043
  20. LP*(   1) C   2                / 41. RY*(   2) C   2                    0.97    0.97    0.057
  20. LP*(   1) C   2                / 45. RY*(   6) C   2                    0.76    1.54    0.063
  20. LP*(   1) C   2                / 56. RY*(  17) C   2                    0.52    1.98    0.060
  20. LP*(   1) C   2                / 59. RY*(   3) C   3                    0.76    1.29    0.058
  20. LP*(   1) C   2                /150. BD*(   1) C   1 - C   2            6.76    0.52    0.108
  20. LP*(   1) C   2                /151. BD*(   1) C   1 - C   6            2.54    0.40    0.057
  20. LP*(   1) C   2                /152. BD*(   1) C   1 - H   7            1.08    0.51    0.043
  20. LP*(   1) C   2                /154. BD*(   1) C   2 - C   3            5.68    0.79    0.122
  20. LP*(   1) C   2                /156. BD*(   1) C   3 - C   4            5.34    0.41    0.083
  20. LP*(   1) C   2                /157. BD*(   1) C   3 - H   9            5.64    0.52    0.099
  20. LP*(   1) C   2                /160. BD*(   1) C   4 - H  10            0.98    0.50    0.040
  20. LP*(   1) C   2                /162. BD*(   1) C   6 - H  11            1.01    0.51    0.041
  21. LP (   1) O   5                / 74. RY*(   1) C   4                    4.19    1.65    0.074
  21. LP (   1) O   5                /108. RY*(   1) C   6                    4.04    1.65    0.073
  22. LP (   2) O   5                / 20. LP*(   1) C   2                    0.54    0.22    0.010
  22. LP (   2) O   5                / 75. RY*(   2) C   4                    1.16    1.52    0.039
  22. LP (   2) O   5                / 76. RY*(   3) C   4                    0.59    1.73    0.030
  22. LP (   2) O   5                /108. RY*(   1) C   6                    0.56    1.26    0.025
  22. LP (   2) O   5                /109. RY*(   2) C   6                    1.16    1.54    0.040
  22. LP (   2) O   5                /151. BD*(   1) C   1 - C   6            7.96    0.61    0.065
  22. LP (   2) O   5                /156. BD*(   1) C   3 - C   4            7.72    0.62    0.064
  22. LP (   2) O   5                /160. BD*(   1) C   4 - H  10            4.87    0.72    0.055
  22. LP (   2) O   5                /162. BD*(   1) C   6 - H  11            4.89    0.72    0.055


 Natural Bond Orbitals (Summary):

                                                            Principal Delocalizations
           NBO                        Occupancy    Energy   (geminal,vicinal,remote)
 ====================================================================================
 Molecular unit  1  (C5H5O)
     1. BD (   1) C   1 - C   2          1.98857    -0.95056  20(g),58(v),162(v),57(v)
                                                    157(v),153(g),154(g),159(v)
     2. BD (   1) C   1 - C   6          1.87645    -0.81830  20(v),154(v),160(v),150(g)
                                                    158(v),155(v),91(v),156(v)
     3. BD (   1) C   1 - H   7          1.95608    -0.74308  155(v),154(v),161(v),159(v)
                                                    40(v),42(v),150(g)
     4. BD (   1) C   1 - H   8          1.96935    -0.74550  154(v),161(v),155(v),40(v)
                                                    41(v)
     5. BD (   1) C   2 - C   3          1.98879    -1.05876  20(g),157(g),24(v),160(v)
                                                    150(g),78(v)
     6. BD (   2) C   2 - C   3          1.94524    -0.54586  158(v),153(v),152(v),160(v)
                                                    23(v),150(g)
     7. BD (   1) C   3 - C   4          1.83633    -0.82401  20(v),154(g),150(v),161(v)
                                                    162(v),156(g),91(v),40(v)
                                                    157(g)
     8. BD (   1) C   3 - H   9          1.97009    -0.79556  150(v),154(g),20(v),41(v)
                                                    40(v)
     9. BD (   1) C   4 - O   5          1.96638    -0.97145  161(g),159(g),162(v),151(v)
                                                    111(v),155(v)
    10. BD (   1) C   4 - C   6          1.91803    -0.80588  20(r),157(v),152(v),92(v)
                                                    161(g),158(g),160(g),162(g)
    11. BD (   1) C   4 - H  10          1.96437    -0.77198  161(v),151(v),20(r)
    12. BD (   1) O   5 - C   6          1.97269    -0.97234  158(g),160(v),159(g),156(v)
                                                    23(v)
    13. BD (   1) C   6 - H  11          1.96418    -0.76753  156(v),158(v),20(r)
    14. CR (   1) C   1                  1.99905   -10.29787  154(v),20(v),40(v),125(v)
                                                    45(v)
    15. CR (   1) C   2                  1.99884   -10.35748  57(v),157(v),24(v),155(g)
    16. CR (   1) C   3                  1.99868   -10.30410  40(v),150(v),20(v),154(g)
                                                    135(v)
    17. CR (   1) C   4                  1.99908   -10.37459  20(r),161(v),108(v),159(g)
    18. CR (   1) O   5                  1.99981   -19.16117  74(v),108(v)
    19. CR (   1) C   6                  1.99909   -10.36645  158(v),20(r),74(v),159(g)
                                                    146(v)
    20. LP*(   1) C   2                  0.46049    -0.33094  150(g),157(v),154(g),156(v)
                                                    151(v),152(v),41(g),162(r)
                                                    160(r),59(v),45(g),25(v)
                                                    56(g)
    21. LP (   1) O   5                  1.98518    -0.94025  74(v),108(v)
    22. LP (   2) O   5                  1.80725    -0.54625  151(v),156(v),162(v),160(v)
                                                    75(v),109(v),76(v),20(r)
                                                    108(v)
    23. RY*(   1) C   1                  0.00451     0.51422   
    24. RY*(   2) C   1                  0.00203     0.95057   
    25. RY*(   3) C   1                  0.00136     0.67808   
    26. RY*(   4) C   1                  0.00065     1.03926   
    27. RY*(   5) C   1                  0.00044     1.02504   
    28. RY*(   6) C   1                  0.00031     1.06728   
    29. RY*(   7) C   1                  0.00023     1.28143   
    30. RY*(   8) C   1                  0.00009     0.67535   
    31. RY*(   9) C   1                  0.00007     1.17159   
    32. RY*(  10) C   1                  0.00004     1.07165   
    33. RY*(  11) C   1                  0.00000     0.49862   
    34. RY*(  12) C   1                  0.00000     2.38197   
    35. RY*(  13) C   1                  0.00000    22.70629   
    36. RY*(  14) C   1                  0.00000     0.86951   
    37. RY*(  15) C   1                  0.00000     2.31146   
    38. RY*(  16) C   1                  0.00000     1.95066   
    39. RY*(  17) C   1                  0.00000     1.50425   
    40. RY*(   1) C   2                  0.00310     0.77033   
    41. RY*(   2) C   2                  0.00196     0.63973   
    42. RY*(   3) C   2                  0.00117     0.86182   
    43. RY*(   4) C   2                  0.00088     1.51422   
    44. RY*(   5) C   2                  0.00063     0.83526   
    45. RY*(   6) C   2                  0.00055     1.21140   
    46. RY*(   7) C   2                  0.00021     1.42448   
    47. RY*(   8) C   2                  0.00012     2.63788   
    48. RY*(   9) C   2                  0.00005     1.66497   
    49. RY*(  10) C   2                  0.00001     2.73592   
    50. RY*(  11) C   2                  0.00001     1.14782   
    51. RY*(  12) C   2                  0.00000     1.64165   
    52. RY*(  13) C   2                  0.00001     1.43021   
    53. RY*(  14) C   2                  0.00001     1.19164   
    54. RY*(  15) C   2                  0.00000     1.47279   
    55. RY*(  16) C   2                  0.00000    20.85087   
    56. RY*(  17) C   2                  0.00000     1.65019   
    57. RY*(   1) C   3                  0.00431     0.71265   
    58. RY*(   2) C   3                  0.00306     0.62842   
    59. RY*(   3) C   3                  0.00108     0.95419   
    60. RY*(   4) C   3                  0.00062     0.66838   
    61. RY*(   5) C   3                  0.00039     1.09742   
    62. RY*(   6) C   3                  0.00025     0.99261   
    63. RY*(   7) C   3                  0.00014     0.97676   
    64. RY*(   8) C   3                  0.00010     1.02668   
    65. RY*(   9) C   3                  0.00007     0.83438   
    66. RY*(  10) C   3                  0.00004     1.46785   
    67. RY*(  11) C   3                  0.00000     0.92171   
    68. RY*(  12) C   3                  0.00000     2.37084   
    69. RY*(  13) C   3                  0.00000    22.68984   
    70. RY*(  14) C   3                  0.00000     0.83591   
    71. RY*(  15) C   3                  0.00001     0.78352   
    72. RY*(  16) C   3                  0.00000     1.87255   
    73. RY*(  17) C   3                  0.00000     2.46662   
    74. RY*(   1) C   4                  0.00650     0.70786   
    75. RY*(   2) C   4                  0.00484     0.97739   
    76. RY*(   3) C   4                  0.00267     1.18845   
    77. RY*(   4) C   4                  0.00144     1.32664   
    78. RY*(   5) C   4                  0.00091     1.01417   
    79. RY*(   6) C   4                  0.00071     0.95464   
    80. RY*(   7) C   4                  0.00031     1.51049   
    81. RY*(   8) C   4                  0.00025     2.23835   
    82. RY*(   9) C   4                  0.00015     1.40306   
    83. RY*(  10) C   4                  0.00004     1.73806   
    84. RY*(  11) C   4                  0.00000     0.54271   
    85. RY*(  12) C   4                  0.00000     2.47491   
    86. RY*(  13) C   4                  0.00001     1.52523   
    87. RY*(  14) C   4                  0.00000     1.06787   
    88. RY*(  15) C   4                  0.00001     1.04355   
    89. RY*(  16) C   4                  0.00000     1.42919   
    90. RY*(  17) C   4                  0.00000    22.55153   
    91. RY*(   1) O   5                  0.00339     0.61290   
    92. RY*(   2) O   5                  0.00114     1.22899   
    93. RY*(   3) O   5                  0.00055     0.81442   
    94. RY*(   4) O   5                  0.00036     1.63510   
    95. RY*(   5) O   5                  0.00012     2.54836   
    96. RY*(   6) O   5                  0.00006     1.32266   
    97. RY*(   7) O   5                  0.00003     2.19676   
    98. RY*(   8) O   5                  0.00000    49.40916   
    99. RY*(   9) O   5                  0.00000     4.31502   
   100. RY*(  10) O   5                  0.00000     4.58058   
   101. RY*(  11) O   5                  0.00001     1.14421   
   102. RY*(  12) O   5                  0.00001     3.86868   
   103. RY*(  13) O   5                  0.00001     2.16610   
   104. RY*(  14) O   5                  0.00001     2.77834   
   105. RY*(  15) O   5                  0.00001     2.68677   
   106. RY*(  16) O   5                  0.00001     1.25759   
   107. RY*(  17) O   5                  0.00000     2.12717   
   108. RY*(   1) C   6                  0.00652     0.71226   
   109. RY*(   2) C   6                  0.00463     0.99817   
   110. RY*(   3) C   6                  0.00211     1.01941   
   111. RY*(   4) C   6                  0.00124     0.97486   
   112. RY*(   5) C   6                  0.00071     1.61697   
   113. RY*(   6) C   6                  0.00052     0.92273   
   114. RY*(   7) C   6                  0.00036     1.87225   
   115. RY*(   8) C   6                  0.00024     1.87945   
   116. RY*(   9) C   6                  0.00019     0.90357   
   117. RY*(  10) C   6                  0.00010     1.61993   
   118. RY*(  11) C   6                  0.00003     1.80341   
   119. RY*(  12) C   6                  0.00001     2.32669   
   120. RY*(  13) C   6                  0.00001     1.97191   
   121. RY*(  14) C   6                  0.00001     1.64763   
   122. RY*(  15) C   6                  0.00000    21.92550   
   123. RY*(  16) C   6                  0.00000     0.40455   
   124. RY*(  17) C   6                  0.00000     1.14851   
   125. RY*(   1) H   7                  0.00133     0.71869   
   126. RY*(   2) H   7                  0.00018     1.62945   
   127. RY*(   3) H   7                  0.00015     1.81096   
   128. RY*(   4) H   7                  0.00011     2.34813   
   129. RY*(   5) H   7                  0.00004     1.94445   
   130. RY*(   1) H   8                  0.00110     0.68786   
   131. RY*(   2) H   8                  0.00017     1.85559   
   132. RY*(   3) H   8                  0.00014     1.71818   
   133. RY*(   4) H   8                  0.00011     2.13822   
   134. RY*(   5) H   8                  0.00004     2.01475   
   135. RY*(   1) H   9                  0.00050     1.45156   
   136. RY*(   2) H   9                  0.00036     1.59701   
   137. RY*(   3) H   9                  0.00023     1.45124   
   138. RY*(   4) H   9                  0.00015     1.12299   
   139. RY*(   5) H   9                  0.00002     2.56302   
   140. RY*(   1) H  10                  0.00044     0.68420   
   141. RY*(   2) H  10                  0.00022     2.13793   
   142. RY*(   3) H  10                  0.00018     1.79789   
   143. RY*(   4) H  10                  0.00010     1.68477   
   144. RY*(   5) H  10                  0.00006     1.66489   
   145. RY*(   1) H  11                  0.00040     0.82668   
   146. RY*(   2) H  11                  0.00020     1.98825   
   147. RY*(   3) H  11                  0.00015     1.86307   
   148. RY*(   4) H  11                  0.00010     1.57802   
   149. RY*(   5) H  11                  0.00006     1.74553   
   150. BD*(   1) C   1 - C   2          0.01939     0.18670   
   151. BD*(   1) C   1 - C   6          0.03908     0.06534   
   152. BD*(   1) C   1 - H   7          0.01462     0.17788   
   153. BD*(   1) C   1 - H   8          0.01484     0.18051   
   154. BD*(   1) C   2 - C   3          0.01990     0.46014   
   155. BD*(   2) C   2 - C   3          0.05512    -0.18506   
   156. BD*(   1) C   3 - C   4          0.04256     0.07674   
   157. BD*(   1) C   3 - H   9          0.01482     0.18789   
   158. BD*(   1) C   4 - O   5          0.04147     0.04088   
   159. BD*(   1) C   4 - C   6          0.01926     0.07310   
   160. BD*(   1) C   4 - H  10          0.02706     0.17184   
   161. BD*(   1) O   5 - C   6          0.02904     0.04195   
   162. BD*(   1) C   6 - H  11          0.02354     0.17632   
       -------------------------------
              Total Lewis   41.10353  ( 97.8655%)
        Valence non-Lewis    0.82120  (  1.9552%)
        Rydberg non-Lewis    0.07527  (  0.1792%)
       -------------------------------
            Total unit  1   42.00000  (100.0000%)
           Charge unit  1    1.00000
 Leave Link  607 at Fri Oct 21 04:55:07 2022, MaxMem=  8053063680 cpu:              45.7 elap:               1.4
 (Enter /public3/home/scg5914/software-scg5914/g16/l9999.exe)
 Unable to Open any file for archive entry.
 1\1\GINC-E0404\SP\RB3LYP\Gen\C5H5O1(1+)\SCG5914\21-Oct-2022\0\\#p b3ly
 p/chkbas pop=nbo geom=allcheck guess=tcheck em=gd3bj\\dsgdb9nsd_000672
 -3\\1,1\C,0,-0.1199756317,1.585621107,-0.0041027317\C,0,1.3053939881,1
 .6631008981,-0.1857578467\C,0,2.3450073851,0.9433689469,-0.0055511608\
 C,0,1.4858712003,-0.3661794927,-0.0655467224\O,0,0.7085738825,-0.55430
 86259,1.0785145707\C,0,0.0393506002,0.0101724747,-0.0103854881\H,0,-0.
 4663032132,1.9734418529,0.9552059638\H,0,-0.7305513156,1.9301507719,-0
 .8375041312\H,0,3.4092579933,1.0400029286,0.1354527905\H,0,1.887624786
 ,-1.2075790435,-0.6191658302\H,0,-0.7361780571,-0.5575003845,-0.512449
 0307\\Version=ES64L-G16RevC.01\State=1-A\HF=-268.3975449\RMSD=1.113e-0
 9\Dipole=0.1582576,0.6021503,-0.818753\Quadrupole=4.9063017,0.5097311,
 -5.4160328,-1.1399054,0.6144841,1.8870185\PG=C01 [X(C5H5O1)]\\@
 The archive entry for this job was punched.


 IN-LAWS ARE LIKE SEEDS. YOU DON'T NEED THEM
 BUT THEY COME WITH THE TOMATO.
 Job cpu time:       0 days  0 hours  1 minutes 31.6 seconds.
 Elapsed time:       0 days  0 hours  0 minutes  3.1 seconds.
 File lengths (MBytes):  RWF=     14 Int=      0 D2E=      0 Chk=      3 Scr=      1
 Normal termination of Gaussian 16 at Fri Oct 21 04:55:07 2022.
