 Entering Gaussian System, Link 0=/public3/home/scg5914/software-scg5914/g16/g16
 Input=dsgdb9nsd_004517-4-.gjf
 Output=dsgdb9nsd_004517-4-.log
 Initial command:
 /public3/home/scg5914/software-scg5914/g16/l1.exe "/public3/home/scg5914/software-scg5914/test/tmp/dsgdb9nsd_004517-4-/Gau-248756.inp" -scrdir="/public3/home/scg5914/software-scg5914/test/tmp/dsgdb9nsd_004517-4-/"
 Entering Link 1 = /public3/home/scg5914/software-scg5914/g16/l1.exe PID=    248757.
  
 Copyright (c) 1988-2019, Gaussian, Inc.  All Rights Reserved.
  
 This is part of the Gaussian(R) 16 program.  It is based on
 the Gaussian(R) 09 system (copyright 2009, Gaussian, Inc.),
 the Gaussian(R) 03 system (copyright 2003, Gaussian, Inc.),
 the Gaussian(R) 98 system (copyright 1998, Gaussian, Inc.),
 the Gaussian(R) 94 system (copyright 1995, Gaussian, Inc.),
 the Gaussian 92(TM) system (copyright 1992, Gaussian, Inc.),
 the Gaussian 90(TM) system (copyright 1990, Gaussian, Inc.),
 the Gaussian 88(TM) system (copyright 1988, Gaussian, Inc.),
 the Gaussian 86(TM) system (copyright 1986, Carnegie Mellon
 University), and the Gaussian 82(TM) system (copyright 1983,
 Carnegie Mellon University). Gaussian is a federally registered
 trademark of Gaussian, Inc.
  
 This software contains proprietary and confidential information,
 including trade secrets, belonging to Gaussian, Inc.
  
 This software is provided under written license and may be
 used, copied, transmitted, or stored only in accord with that
 written license.
  
 The following legend is applicable only to US Government
 contracts under FAR:
  
                    RESTRICTED RIGHTS LEGEND
  
 Use, reproduction and disclosure by the US Government is
 subject to restrictions as set forth in subparagraphs (a)
 and (c) of the Commercial Computer Software - Restricted
 Rights clause in FAR 52.227-19.
  
 Gaussian, Inc.
 340 Quinnipiac St., Bldg. 40, Wallingford CT 06492
  
  
 ---------------------------------------------------------------
 Warning -- This program may not be used in any manner that
 competes with the business of Gaussian, Inc. or will provide
 assistance to any competitor of Gaussian, Inc.  The licensee
 of this program is prohibited from giving any competitor of
 Gaussian, Inc. access to this program.  By using this program,
 the user acknowledges that Gaussian, Inc. is engaged in the
 business of creating and licensing software in the field of
 computational chemistry and represents and warrants to the
 licensee that it is not a competitor of Gaussian, Inc. and that
 it will not use this program in any manner prohibited above.
 ---------------------------------------------------------------
  

 Cite this work as:
 Gaussian 16, Revision C.01,
 M. J. Frisch, G. W. Trucks, H. B. Schlegel, G. E. Scuseria, 
 M. A. Robb, J. R. Cheeseman, G. Scalmani, V. Barone, 
 G. A. Petersson, H. Nakatsuji, X. Li, M. Caricato, A. V. Marenich, 
 J. Bloino, B. G. Janesko, R. Gomperts, B. Mennucci, H. P. Hratchian, 
 J. V. Ortiz, A. F. Izmaylov, J. L. Sonnenberg, D. Williams-Young, 
 F. Ding, F. Lipparini, F. Egidi, J. Goings, B. Peng, A. Petrone, 
 T. Henderson, D. Ranasinghe, V. G. Zakrzewski, J. Gao, N. Rega, 
 G. Zheng, W. Liang, M. Hada, M. Ehara, K. Toyota, R. Fukuda, 
 J. Hasegawa, M. Ishida, T. Nakajima, Y. Honda, O. Kitao, H. Nakai, 
 T. Vreven, K. Throssell, J. A. Montgomery, Jr., J. E. Peralta, 
 F. Ogliaro, M. J. Bearpark, J. J. Heyd, E. N. Brothers, K. N. Kudin, 
 V. N. Staroverov, T. A. Keith, R. Kobayashi, J. Normand, 
 K. Raghavachari, A. P. Rendell, J. C. Burant, S. S. Iyengar, 
 J. Tomasi, M. Cossi, J. M. Millam, M. Klene, C. Adamo, R. Cammi, 
 J. W. Ochterski, R. L. Martin, K. Morokuma, O. Farkas, 
 J. B. Foresman, and D. J. Fox, Gaussian, Inc., Wallingford CT, 2019.
 
 ******************************************
 Gaussian 16:  ES64L-G16RevC.01  3-Jul-2019
                29-Oct-2022 
 ******************************************
 %chk=dsgdb9nsd_004517-4.chk
 %mem=60GB
 %nprocshared=32
 Will use up to   32 processors via shared memory.
 ------------------------------------
 #p opt freq b3lyp/6-311+g** em=gd3bj
 ------------------------------------
 1/18=20,19=15,26=3,38=1/1,3;
 2/9=110,12=2,17=6,18=5,40=1/2;
 3/5=4,6=6,7=111,11=2,25=1,30=1,71=1,74=-5,124=41/1,2,3;
 4//1;
 5/5=2,38=5/2;
 6/7=2,8=2,9=2,10=2,28=1/1;
 7//1,2,3,16;
 1/18=20,19=15,26=3/3(2);
 2/9=110/2;
 99//99;
 2/9=110/2;
 3/5=4,6=6,7=111,11=2,25=1,30=1,71=1,74=-5,124=41/1,2,3;
 4/5=5,16=3,69=1/1;
 5/5=2,38=5/2;
 7//1,2,3,16;
 1/18=20,19=15,26=3/3(-5);
 2/9=110/2;
 6/7=2,8=2,9=2,10=2,19=2,28=1/1;
 99/9=1/99;
 Leave Link    1 at Sat Oct 29 00:05:52 2022, MaxMem=  8053063680 cpu:               0.8 elap:               0.0
 (Enter /public3/home/scg5914/software-scg5914/g16/l101.exe)
 ------------------
 dsgdb9nsd_004517-4
 ------------------
 Symbolic Z-matrix:
 Charge = -1 Multiplicity = 1
 N                     0.08824   1.40349  -0.16614 
 C                    -0.00071   0.00788  -0.08171 
 C                    -1.11608  -0.77432  -0.02147 
 O                    -2.44364  -0.48928   0.09958 
 N                    -0.64419  -2.10212  -0.03878 
 C                     0.70093  -2.01196  -0.09738 
 O                     1.45446  -3.12681  -0.10797 
 N                     1.13904  -0.78045  -0.13513 
 H                     0.99593   1.7174    0.1549 
 H                    -0.63945   1.86219   0.36853 
 H                    -2.8144   -0.30994  -0.7736 
 H                     2.37124  -2.82681  -0.1492 
 
 ITRead=  0  0  0  0  0  0  0  0  0  0  0  0
 MicOpt= -1 -1 -1 -1 -1 -1 -1 -1 -1 -1 -1 -1
 NAtoms=     12 NQM=       12 NQMF=       0 NMMI=      0 NMMIF=      0
                NMic=       0 NMicF=      0.
                    Isotopes and Nuclear Properties:
 (Nuclear quadrupole moments (NQMom) in fm**2, nuclear magnetic moments (NMagM)
  in nuclear magnetons)

  Atom         1           2           3           4           5           6           7           8           9          10
 IAtWgt=          14          12          12          16          14          12          16          14           1           1
 AtmWgt=  14.0030740  12.0000000  12.0000000  15.9949146  14.0030740  12.0000000  15.9949146  14.0030740   1.0078250   1.0078250
 NucSpn=           2           0           0           0           2           0           0           2           1           1
 AtZEff=  -0.0000000  -0.0000000  -0.0000000  -0.0000000  -0.0000000  -0.0000000  -0.0000000  -0.0000000  -0.0000000  -0.0000000
 NQMom=    2.0440000   0.0000000   0.0000000   0.0000000   2.0440000   0.0000000   0.0000000   2.0440000   0.0000000   0.0000000
 NMagM=    0.4037610   0.0000000   0.0000000   0.0000000   0.4037610   0.0000000   0.0000000   0.4037610   2.7928460   2.7928460
 AtZNuc=   7.0000000   6.0000000   6.0000000   8.0000000   7.0000000   6.0000000   8.0000000   7.0000000   1.0000000   1.0000000

  Atom        11          12
 IAtWgt=           1           1
 AtmWgt=   1.0078250   1.0078250
 NucSpn=           1           1
 AtZEff=  -0.0000000  -0.0000000
 NQMom=    0.0000000   0.0000000
 NMagM=    2.7928460   2.7928460
 AtZNuc=   1.0000000   1.0000000
 Leave Link  101 at Sat Oct 29 00:05:52 2022, MaxMem=  8053063680 cpu:               4.1 elap:               0.1
 (Enter /public3/home/scg5914/software-scg5914/g16/l103.exe)

 GradGradGradGradGradGradGradGradGradGradGradGradGradGradGradGradGradGrad
 Berny optimization.
 Initialization pass.
                           ----------------------------
                           !    Initial Parameters    !
                           ! (Angstroms and Degrees)  !
 --------------------------                            --------------------------
 ! Name  Definition              Value          Derivative Info.                !
 --------------------------------------------------------------------------------
 ! R1    R(1,2)                  1.401          estimate D2E/DX2                !
 ! R2    R(1,9)                  1.0127         estimate D2E/DX2                !
 ! R3    R(1,10)                 1.0128         estimate D2E/DX2                !
 ! R4    R(2,3)                  1.3636         estimate D2E/DX2                !
 ! R5    R(2,8)                  1.3868         estimate D2E/DX2                !
 ! R6    R(3,4)                  1.3632         estimate D2E/DX2                !
 ! R7    R(3,5)                  1.4093         estimate D2E/DX2                !
 ! R8    R(4,11)                 0.9654         estimate D2E/DX2                !
 ! R9    R(5,6)                  1.3494         estimate D2E/DX2                !
 ! R10   R(6,7)                  1.3457         estimate D2E/DX2                !
 ! R11   R(6,8)                  1.3077         estimate D2E/DX2                !
 ! R12   R(7,12)                 0.9655         estimate D2E/DX2                !
 ! A1    A(2,1,9)              110.2794         estimate D2E/DX2                !
 ! A2    A(2,1,10)             111.9461         estimate D2E/DX2                !
 ! A3    A(9,1,10)             109.6485         estimate D2E/DX2                !
 ! A4    A(1,2,3)              128.7554         estimate D2E/DX2                !
 ! A5    A(1,2,8)              120.7807         estimate D2E/DX2                !
 ! A6    A(3,2,8)              110.3558         estimate D2E/DX2                !
 ! A7    A(2,3,4)              132.8859         estimate D2E/DX2                !
 ! A8    A(2,3,5)              105.4279         estimate D2E/DX2                !
 ! A9    A(4,3,5)              121.6134         estimate D2E/DX2                !
 ! A10   A(3,4,11)             109.4216         estimate D2E/DX2                !
 ! A11   A(3,5,6)              105.7452         estimate D2E/DX2                !
 ! A12   A(5,6,7)              120.2102         estimate D2E/DX2                !
 ! A13   A(5,6,8)              113.4618         estimate D2E/DX2                !
 ! A14   A(7,6,8)              126.3276         estimate D2E/DX2                !
 ! A15   A(6,7,12)             105.9397         estimate D2E/DX2                !
 ! A16   A(2,8,6)              105.0039         estimate D2E/DX2                !
 ! D1    D(9,1,2,3)            158.3701         estimate D2E/DX2                !
 ! D2    D(9,1,2,8)            -25.7936         estimate D2E/DX2                !
 ! D3    D(10,1,2,3)            36.0019         estimate D2E/DX2                !
 ! D4    D(10,1,2,8)          -148.1618         estimate D2E/DX2                !
 ! D5    D(1,2,3,4)             -7.0013         estimate D2E/DX2                !
 ! D6    D(1,2,3,5)            176.1714         estimate D2E/DX2                !
 ! D7    D(8,2,3,4)            176.8136         estimate D2E/DX2                !
 ! D8    D(8,2,3,5)             -0.0137         estimate D2E/DX2                !
 ! D9    D(1,2,8,6)           -176.9611         estimate D2E/DX2                !
 ! D10   D(3,2,8,6)             -0.4235         estimate D2E/DX2                !
 ! D11   D(2,3,4,11)            85.1281         estimate D2E/DX2                !
 ! D12   D(5,3,4,11)           -98.4637         estimate D2E/DX2                !
 ! D13   D(2,3,5,6)              0.4335         estimate D2E/DX2                !
 ! D14   D(4,3,5,6)           -176.8371         estimate D2E/DX2                !
 ! D15   D(3,5,6,7)            179.0422         estimate D2E/DX2                !
 ! D16   D(3,5,6,8)             -0.7533         estimate D2E/DX2                !
 ! D17   D(5,6,7,12)          -179.7994         estimate D2E/DX2                !
 ! D18   D(8,6,7,12)            -0.0321         estimate D2E/DX2                !
 ! D19   D(5,6,8,2)              0.7343         estimate D2E/DX2                !
 ! D20   D(7,6,8,2)           -179.0464         estimate D2E/DX2                !
 --------------------------------------------------------------------------------
 Trust Radius=3.00D-01 FncErr=1.00D-07 GrdErr=1.00D-06 EigMax=2.50D+02 EigMin=1.00D-04
 Number of steps in this run=     58 maximum allowed number of steps=    100.
 GradGradGradGradGradGradGradGradGradGradGradGradGradGradGradGradGradGrad

 Leave Link  103 at Sat Oct 29 00:05:52 2022, MaxMem=  8053063680 cpu:               0.2 elap:               0.0
 (Enter /public3/home/scg5914/software-scg5914/g16/l202.exe)
                          Input orientation:                          
 ---------------------------------------------------------------------
 Center     Atomic      Atomic             Coordinates (Angstroms)
 Number     Number       Type             X           Y           Z
 ---------------------------------------------------------------------
      1          7           0        0.088241    1.403486   -0.166135
      2          6           0       -0.000705    0.007877   -0.081713
      3          6           0       -1.116079   -0.774316   -0.021474
      4          8           0       -2.443641   -0.489281    0.099581
      5          7           0       -0.644194   -2.102121   -0.038781
      6          6           0        0.700934   -2.011960   -0.097382
      7          8           0        1.454458   -3.126807   -0.107966
      8          7           0        1.139036   -0.780446   -0.135128
      9          1           0        0.995925    1.717397    0.154900
     10          1           0       -0.639452    1.862193    0.368532
     11          1           0       -2.814397   -0.309938   -0.773598
     12          1           0        2.371239   -2.826809   -0.149204
 ---------------------------------------------------------------------
                    Distance matrix (angstroms):
                    1          2          3          4          5
     1  N    0.000000
     2  C    1.400987   0.000000
     3  C    2.492817   1.363640   0.000000
     4  O    3.172318   2.499593   1.363202   0.000000
     5  N    3.583568   2.206357   1.409270   2.420413   0.000000
     6  C    3.470648   2.138291   2.199787   3.499385   1.349419
     7  O    4.732176   3.456072   3.485592   4.711134   2.336474
     8  N    2.423776   1.386837   2.257986   3.602143   2.221715
     9  H    1.012666   1.992917   3.271132   4.086943   4.161276
    10  H    1.012827   2.012264   2.707482   2.976049   3.985187
    11  H    3.424930   2.914888   1.914582   0.965436   2.908893
    12  H    4.807054   3.696772   4.048510   5.358078   3.103258
                    6          7          8          9         10
     6  C    0.000000
     7  O    1.345657   0.000000
     8  N    1.307664   2.367623   0.000000
     9  H    3.749503   4.872952   2.518694   0.000000
    10  H    4.125867   5.431540   3.224940   1.655616   0.000000
    11  H    3.963799   5.157610   4.032203   4.414833   3.279177
    12  H    1.859189   0.965499   2.388750   4.757497   5.596343
                   11         12
    11  H    0.000000
    12  H    5.797873   0.000000
 Stoichiometry    C3H4N3O2(1-)
 Framework group  C1[X(C3H4N3O2)]
 Deg. of freedom    30
 Full point group                 C1      NOp   1
 Largest Abelian subgroup         C1      NOp   1
 Largest concise Abelian subgroup C1      NOp   1
                         Standard orientation:                         
 ---------------------------------------------------------------------
 Center     Atomic      Atomic             Coordinates (Angstroms)
 Number     Number       Type             X           Y           Z
 ---------------------------------------------------------------------
      1          7           0        1.715789    1.610097    0.088523
      2          6           0        0.677326    0.673100    0.008546
      3          6           0        0.755695   -0.688080   -0.015108
      4          8           0        1.804159   -1.555736   -0.093950
      5          7           0       -0.578953   -1.140563   -0.011425
      6          6           0       -1.342692   -0.028180    0.004014
      7          8           0       -2.684590   -0.127945   -0.008269
      8          7           0       -0.648435    1.079744    0.026352
      9          1           0        1.405849    2.508290   -0.261735
     10          1           0        2.536727    1.309900   -0.423103
     11          1           0        2.158047   -1.712833    0.790442
     12          1           0       -3.017951    0.778104    0.003285
 ---------------------------------------------------------------------
 Rotational constants (GHZ):           3.7812844           1.8277230           1.2387777
 Leave Link  202 at Sat Oct 29 00:05:52 2022, MaxMem=  8053063680 cpu:               0.2 elap:               0.0
 (Enter /public3/home/scg5914/software-scg5914/g16/l301.exe)
 Standard basis: 6-311+G(d,p) (5D, 7F)
 Ernie: Thresh=  0.10000D-02 Tol=  0.10000D-05 Strict=F.
 There are   208 symmetry adapted cartesian basis functions of A   symmetry.
 There are   200 symmetry adapted basis functions of A   symmetry.
   200 basis functions,   320 primitive gaussians,   208 cartesian basis functions
    30 alpha electrons       30 beta electrons
       nuclear repulsion energy       363.2942162462 Hartrees.
 IExCor=  402 DFT=T Ex+Corr=B3LYP ExCW=0 ScaHFX=  0.200000
 ScaDFX=  0.800000  0.720000  1.000000  0.810000 ScalE2=  1.000000  1.000000
 IRadAn=      5 IRanWt=     -1 IRanGd=            0 ICorTp=0 IEmpDi=141
 NAtoms=   12 NActive=   12 NUniq=   12 SFac= 1.00D+00 NAtFMM=   60 NAOKFM=F Big=F
 Integral buffers will be    131072 words long.
 Raffenetti 2 integral format.
 Two-electron integral symmetry is turned on.
 R6Disp:  Grimme-D3(BJ) Dispersion energy=       -0.0173161764 Hartrees.
 Nuclear repulsion after empirical dispersion term =      363.2769000698 Hartrees.
 Leave Link  301 at Sat Oct 29 00:05:52 2022, MaxMem=  8053063680 cpu:               0.9 elap:               0.0
 (Enter /public3/home/scg5914/software-scg5914/g16/l302.exe)
 NPDir=0 NMtPBC=     1 NCelOv=     1 NCel=       1 NClECP=     1 NCelD=      1
         NCelK=      1 NCelE2=     1 NClLst=     1 CellRange=     0.0.
 One-electron integrals computed using PRISM.
 One-electron integral symmetry used in STVInt
 NBasis=   200 RedAO= T EigKep=  1.75D-05  NBF=   200
 NBsUse=   200 1.00D-06 EigRej= -1.00D+00 NBFU=   200
 Precomputing XC quadrature grid using
 IXCGrd= 4 IRadAn=           5 IRanWt=          -1 IRanGd=           0 AccXCQ= 0.00D+00.
 Generated NRdTot=       0 NPtTot=           0 NUsed=           0 NTot=          32
 NSgBfM=   208   208   208   208   208 MxSgAt=    12 MxSgA2=    12.
 Leave Link  302 at Sat Oct 29 00:05:52 2022, MaxMem=  8053063680 cpu:               3.7 elap:               0.1
 (Enter /public3/home/scg5914/software-scg5914/g16/l303.exe)
 DipDrv:  MaxL=1.
 Leave Link  303 at Sat Oct 29 00:05:52 2022, MaxMem=  8053063680 cpu:               0.5 elap:               0.0
 (Enter /public3/home/scg5914/software-scg5914/g16/l401.exe)
 ExpMin= 4.38D-02 ExpMax= 8.59D+03 ExpMxC= 1.30D+03 IAcc=3 IRadAn=         5 AccDes= 0.00D+00
 Harris functional with IExCor=  402 and IRadAn=       5 diagonalized for initial guess.
 HarFok:  IExCor=  402 AccDes= 0.00D+00 IRadAn=         5 IDoV= 1 UseB2=F ITyADJ=14
 ICtDFT=  3500011 ScaDFX=  1.000000  1.000000  1.000000  1.000000
 FoFCou: FMM=F IPFlag=           0 FMFlag=      100000 FMFlg1=           0
         NFxFlg=           0 DoJE=T BraDBF=F KetDBF=T FulRan=T
         wScrn=  0.000000 ICntrl=       500 IOpCl=  0 I1Cent=   200000004 NGrid=           0
         NMat0=    1 NMatS0=      1 NMatT0=    0 NMatD0=    1 NMtDS0=    0 NMtDT0=    0
 Petite list used in FoFCou.
 Harris En= -431.749931672945    
 JPrj=0 DoOrth=F DoCkMO=F.
 Leave Link  401 at Sat Oct 29 00:05:53 2022, MaxMem=  8053063680 cpu:              10.3 elap:               0.3
 (Enter /public3/home/scg5914/software-scg5914/g16/l502.exe)
 Keep R1 ints in memory in canonical form, NReq=235246854.
 FoFCou: FMM=F IPFlag=           0 FMFlag=           0 FMFlg1=           0
         NFxFlg=           0 DoJE=F BraDBF=F KetDBF=F FulRan=T
         wScrn=  0.000000 ICntrl=       600 IOpCl=  0 I1Cent=           0 NGrid=           0
         NMat0=    1 NMatS0=  20100 NMatT0=    0 NMatD0=    1 NMtDS0=    0 NMtDT0=    0
 Symmetry not used in FoFCou.
 Two-electron integral symmetry not used.
 Closed shell SCF:
 Using DIIS extrapolation, IDIIS=  1040.
 NGot=  8053063680 LenX=  7850953144 LenY=  7850909439
 Requested convergence on RMS density matrix=1.00D-08 within 128 cycles.
 Requested convergence on MAX density matrix=1.00D-06.
 Requested convergence on             energy=1.00D-06.
 No special actions if energy rises.

 Cycle   1  Pass 1  IDiag  1:
 E= -431.306666542313    
 DIIS: error= 3.04D-02 at cycle   1 NSaved=   1.
 NSaved= 1 IEnMin= 1 EnMin= -431.306666542313     IErMin= 1 ErrMin= 3.04D-02
 ErrMax= 3.04D-02  0.00D+00 EMaxC= 1.00D-01 BMatC= 3.63D-01 BMatP= 3.63D-01
 IDIUse=3 WtCom= 6.96D-01 WtEn= 3.04D-01
 Coeff-Com:  0.100D+01
 Coeff-En:   0.100D+01
 Coeff:      0.100D+01
 Gap=     0.054 Goal=   None    Shift=    0.000
 GapD=    0.054 DampG=0.500 DampE=0.500 DampFc=0.2500 IDamp=-1.
 Damping current iteration by 2.50D-01
 RMSDP=6.68D-01 MaxDP=6.40D+01              OVMax= 6.05D-01

 Cycle   2  Pass 1  IDiag  1:
 E= -431.391711726591     Delta-E=       -0.085045184279 Rises=F Damp=T
 DIIS: error= 1.17D-02 at cycle   2 NSaved=   2.
 NSaved= 2 IEnMin= 2 EnMin= -431.391711726591     IErMin= 2 ErrMin= 1.17D-02
 ErrMax= 1.17D-02  0.00D+00 EMaxC= 1.00D-01 BMatC= 5.99D-02 BMatP= 3.63D-01
 IDIUse=3 WtCom= 8.83D-01 WtEn= 1.17D-01
 Coeff-Com: -0.549D+00 0.155D+01
 Coeff-En:   0.000D+00 0.100D+01
 Coeff:     -0.485D+00 0.148D+01
 Gap=     0.060 Goal=   None    Shift=    0.000
 RMSDP=1.65D-01 MaxDP=1.58D+01 DE=-8.50D-02 OVMax= 4.91D-01

 Cycle   3  Pass 1  IDiag  1:
 E= -431.565659040700     Delta-E=       -0.173947314109 Rises=F Damp=F
 DIIS: error= 1.21D-02 at cycle   3 NSaved=   3.
 NSaved= 3 IEnMin= 3 EnMin= -431.565659040700     IErMin= 2 ErrMin= 1.17D-02
 ErrMax= 1.21D-02  0.00D+00 EMaxC= 1.00D-01 BMatC= 2.74D-02 BMatP= 5.99D-02
 IDIUse=3 WtCom= 8.79D-01 WtEn= 1.21D-01
 Coeff-Com: -0.381D+00 0.937D+00 0.444D+00
 Coeff-En:   0.000D+00 0.000D+00 0.100D+01
 Coeff:     -0.334D+00 0.823D+00 0.511D+00
 Gap=     0.113 Goal=   None    Shift=    0.000
 RMSDP=2.83D-03 MaxDP=1.59D-01 DE=-1.74D-01 OVMax= 5.44D-02

 Cycle   4  Pass 1  IDiag  1:
 E= -431.587198441122     Delta-E=       -0.021539400422 Rises=F Damp=F
 DIIS: error= 3.60D-03 at cycle   4 NSaved=   4.
 NSaved= 4 IEnMin= 4 EnMin= -431.587198441122     IErMin= 4 ErrMin= 3.60D-03
 ErrMax= 3.60D-03  0.00D+00 EMaxC= 1.00D-01 BMatC= 5.81D-03 BMatP= 2.74D-02
 IDIUse=3 WtCom= 9.64D-01 WtEn= 3.60D-02
 Coeff-Com: -0.165D+00 0.282D+00 0.298D+00 0.586D+00
 Coeff-En:   0.000D+00 0.000D+00 0.688D-01 0.931D+00
 Coeff:     -0.159D+00 0.271D+00 0.289D+00 0.599D+00
 Gap=     0.108 Goal=   None    Shift=    0.000
 RMSDP=1.38D-03 MaxDP=3.22D-02 DE=-2.15D-02 OVMax= 1.82D-02

 Cycle   5  Pass 1  IDiag  1:
 E= -431.591270168988     Delta-E=       -0.004071727865 Rises=F Damp=F
 DIIS: error= 1.90D-03 at cycle   5 NSaved=   5.
 NSaved= 5 IEnMin= 5 EnMin= -431.591270168988     IErMin= 5 ErrMin= 1.90D-03
 ErrMax= 1.90D-03  0.00D+00 EMaxC= 1.00D-01 BMatC= 4.61D-04 BMatP= 5.81D-03
 IDIUse=3 WtCom= 9.81D-01 WtEn= 1.90D-02
 Coeff-Com: -0.720D-01 0.110D+00 0.812D-01 0.280D+00 0.601D+00
 Coeff-En:   0.000D+00 0.000D+00 0.000D+00 0.000D+00 0.100D+01
 Coeff:     -0.706D-01 0.108D+00 0.796D-01 0.275D+00 0.608D+00
 Gap=     0.109 Goal=   None    Shift=    0.000
 RMSDP=5.06D-04 MaxDP=1.82D-02 DE=-4.07D-03 OVMax= 1.26D-02

 Cycle   6  Pass 1  IDiag  1:
 E= -431.591573474450     Delta-E=       -0.000303305462 Rises=F Damp=F
 DIIS: error= 1.05D-03 at cycle   6 NSaved=   6.
 NSaved= 6 IEnMin= 6 EnMin= -431.591573474450     IErMin= 6 ErrMin= 1.05D-03
 ErrMax= 1.05D-03  0.00D+00 EMaxC= 1.00D-01 BMatC= 1.44D-04 BMatP= 4.61D-04
 IDIUse=3 WtCom= 9.90D-01 WtEn= 1.05D-02
 Coeff-Com: -0.172D-01 0.208D-01-0.146D-01 0.687D-01 0.439D+00 0.503D+00
 Coeff-En:   0.000D+00 0.000D+00 0.000D+00 0.000D+00 0.198D+00 0.802D+00
 Coeff:     -0.170D-01 0.206D-01-0.145D-01 0.679D-01 0.437D+00 0.506D+00
 Gap=     0.109 Goal=   None    Shift=    0.000
 RMSDP=3.11D-04 MaxDP=1.44D-02 DE=-3.03D-04 OVMax= 5.77D-03

 Cycle   7  Pass 1  IDiag  1:
 E= -431.591712582635     Delta-E=       -0.000139108186 Rises=F Damp=F
 DIIS: error= 2.47D-04 at cycle   7 NSaved=   7.
 NSaved= 7 IEnMin= 7 EnMin= -431.591712582635     IErMin= 7 ErrMin= 2.47D-04
 ErrMax= 2.47D-04  0.00D+00 EMaxC= 1.00D-01 BMatC= 9.70D-06 BMatP= 1.44D-04
 IDIUse=3 WtCom= 9.98D-01 WtEn= 2.47D-03
 Coeff-Com:  0.194D-02-0.590D-02-0.232D-01-0.507D-02 0.166D+00 0.279D+00
 Coeff-Com:  0.587D+00
 Coeff-En:   0.000D+00 0.000D+00 0.000D+00 0.000D+00 0.000D+00 0.000D+00
 Coeff-En:   0.100D+01
 Coeff:      0.193D-02-0.588D-02-0.232D-01-0.505D-02 0.166D+00 0.278D+00
 Coeff:      0.588D+00
 Gap=     0.109 Goal=   None    Shift=    0.000
 RMSDP=1.60D-04 MaxDP=5.71D-03 DE=-1.39D-04 OVMax= 2.37D-03

 Cycle   8  Pass 1  IDiag  1:
 E= -431.591721572046     Delta-E=       -0.000008989411 Rises=F Damp=F
 DIIS: error= 7.01D-05 at cycle   8 NSaved=   8.
 NSaved= 8 IEnMin= 8 EnMin= -431.591721572046     IErMin= 8 ErrMin= 7.01D-05
 ErrMax= 7.01D-05  0.00D+00 EMaxC= 1.00D-01 BMatC= 1.28D-06 BMatP= 9.70D-06
 IDIUse=1 WtCom= 1.00D+00 WtEn= 0.00D+00
 Coeff-Com:  0.190D-02-0.274D-02-0.548D-02-0.670D-02 0.215D-01 0.586D-01
 Coeff-Com:  0.297D+00 0.636D+00
 Coeff:      0.190D-02-0.274D-02-0.548D-02-0.670D-02 0.215D-01 0.586D-01
 Coeff:      0.297D+00 0.636D+00
 Gap=     0.109 Goal=   None    Shift=    0.000
 RMSDP=4.69D-05 MaxDP=1.58D-03 DE=-8.99D-06 OVMax= 9.04D-04

 Cycle   9  Pass 1  IDiag  1:
 E= -431.591723015983     Delta-E=       -0.000001443937 Rises=F Damp=F
 DIIS: error= 1.40D-05 at cycle   9 NSaved=   9.
 NSaved= 9 IEnMin= 9 EnMin= -431.591723015983     IErMin= 9 ErrMin= 1.40D-05
 ErrMax= 1.40D-05  0.00D+00 EMaxC= 1.00D-01 BMatC= 4.89D-08 BMatP= 1.28D-06
 IDIUse=1 WtCom= 1.00D+00 WtEn= 0.00D+00
 Coeff-Com:  0.507D-03-0.602D-03-0.353D-04-0.137D-02-0.128D-02 0.381D-02
 Coeff-Com:  0.625D-01 0.186D+00 0.751D+00
 Coeff:      0.507D-03-0.602D-03-0.353D-04-0.137D-02-0.128D-02 0.381D-02
 Coeff:      0.625D-01 0.186D+00 0.751D+00
 Gap=     0.109 Goal=   None    Shift=    0.000
 RMSDP=1.89D-05 MaxDP=7.08D-04 DE=-1.44D-06 OVMax= 3.92D-04

 Cycle  10  Pass 1  IDiag  1:
 E= -431.591723099288     Delta-E=       -0.000000083305 Rises=F Damp=F
 DIIS: error= 8.96D-06 at cycle  10 NSaved=  10.
 NSaved=10 IEnMin=10 EnMin= -431.591723099288     IErMin=10 ErrMin= 8.96D-06
 ErrMax= 8.96D-06  0.00D+00 EMaxC= 1.00D-01 BMatC= 2.65D-08 BMatP= 4.89D-08
 IDIUse=1 WtCom= 1.00D+00 WtEn= 0.00D+00
 Coeff-Com:  0.480D-04-0.430D-04 0.982D-03 0.218D-03-0.533D-02-0.922D-02
 Coeff-Com: -0.211D-01-0.185D-01 0.479D+00 0.574D+00
 Coeff:      0.480D-04-0.430D-04 0.982D-03 0.218D-03-0.533D-02-0.922D-02
 Coeff:     -0.211D-01-0.185D-01 0.479D+00 0.574D+00
 Gap=     0.109 Goal=   None    Shift=    0.000
 RMSDP=1.08D-05 MaxDP=5.34D-04 DE=-8.33D-08 OVMax= 2.09D-04

 Cycle  11  Pass 1  IDiag  1:
 E= -431.591723132577     Delta-E=       -0.000000033288 Rises=F Damp=F
 DIIS: error= 1.98D-06 at cycle  11 NSaved=  11.
 NSaved=11 IEnMin=11 EnMin= -431.591723132577     IErMin=11 ErrMin= 1.98D-06
 ErrMax= 1.98D-06  0.00D+00 EMaxC= 1.00D-01 BMatC= 1.13D-09 BMatP= 2.65D-08
 IDIUse=1 WtCom= 1.00D+00 WtEn= 0.00D+00
 Coeff-Com: -0.106D-04-0.281D-05 0.345D-03 0.126D-03-0.201D-02-0.388D-02
 Coeff-Com: -0.139D-01-0.255D-01 0.102D+00 0.227D+00 0.716D+00
 Coeff:     -0.106D-04-0.281D-05 0.345D-03 0.126D-03-0.201D-02-0.388D-02
 Coeff:     -0.139D-01-0.255D-01 0.102D+00 0.227D+00 0.716D+00
 Gap=     0.109 Goal=   None    Shift=    0.000
 RMSDP=3.25D-06 MaxDP=2.05D-04 DE=-3.33D-08 OVMax= 6.14D-05

 Cycle  12  Pass 1  IDiag  1:
 E= -431.591723134271     Delta-E=       -0.000000001694 Rises=F Damp=F
 DIIS: error= 7.26D-07 at cycle  12 NSaved=  12.
 NSaved=12 IEnMin=12 EnMin= -431.591723134271     IErMin=12 ErrMin= 7.26D-07
 ErrMax= 7.26D-07  0.00D+00 EMaxC= 1.00D-01 BMatC= 1.95D-10 BMatP= 1.13D-09
 IDIUse=1 WtCom= 1.00D+00 WtEn= 0.00D+00
 Coeff-Com: -0.201D-04 0.254D-04 0.114D-03 0.572D-04-0.638D-03-0.127D-02
 Coeff-Com: -0.533D-02-0.109D-01 0.125D-01 0.689D-01 0.365D+00 0.571D+00
 Coeff:     -0.201D-04 0.254D-04 0.114D-03 0.572D-04-0.638D-03-0.127D-02
 Coeff:     -0.533D-02-0.109D-01 0.125D-01 0.689D-01 0.365D+00 0.571D+00
 Gap=     0.109 Goal=   None    Shift=    0.000
 RMSDP=4.78D-07 MaxDP=2.03D-05 DE=-1.69D-09 OVMax= 1.10D-05

 Cycle  13  Pass 1  IDiag  1:
 E= -431.591723134442     Delta-E=       -0.000000000171 Rises=F Damp=F
 DIIS: error= 2.64D-07 at cycle  13 NSaved=  13.
 NSaved=13 IEnMin=13 EnMin= -431.591723134442     IErMin=13 ErrMin= 2.64D-07
 ErrMax= 2.64D-07  0.00D+00 EMaxC= 1.00D-01 BMatC= 2.09D-11 BMatP= 1.95D-10
 IDIUse=1 WtCom= 1.00D+00 WtEn= 0.00D+00
 Coeff-Com: -0.532D-05 0.878D-05-0.788D-05-0.511D-05-0.120D-05 0.482D-04
 Coeff-Com: -0.143D-03-0.488D-03-0.118D-01-0.729D-02 0.524D-01 0.273D+00
 Coeff-Com:  0.695D+00
 Coeff:     -0.532D-05 0.878D-05-0.788D-05-0.511D-05-0.120D-05 0.482D-04
 Coeff:     -0.143D-03-0.488D-03-0.118D-01-0.729D-02 0.524D-01 0.273D+00
 Coeff:      0.695D+00
 Gap=     0.109 Goal=   None    Shift=    0.000
 RMSDP=2.95D-07 MaxDP=2.25D-05 DE=-1.71D-10 OVMax= 4.79D-06

 Cycle  14  Pass 1  IDiag  1:
 E= -431.591723134462     Delta-E=       -0.000000000020 Rises=F Damp=F
 DIIS: error= 9.36D-08 at cycle  14 NSaved=  14.
 NSaved=14 IEnMin=14 EnMin= -431.591723134462     IErMin=14 ErrMin= 9.36D-08
 ErrMax= 9.36D-08  0.00D+00 EMaxC= 1.00D-01 BMatC= 2.01D-12 BMatP= 2.09D-11
 IDIUse=1 WtCom= 1.00D+00 WtEn= 0.00D+00
 Coeff-Com: -0.171D-05 0.328D-05-0.109D-04-0.675D-05 0.301D-04 0.914D-04
 Coeff-Com:  0.203D-03 0.371D-03-0.645D-02-0.699D-02 0.977D-02 0.113D+00
 Coeff-Com:  0.354D+00 0.535D+00
 Coeff:     -0.171D-05 0.328D-05-0.109D-04-0.675D-05 0.301D-04 0.914D-04
 Coeff:      0.203D-03 0.371D-03-0.645D-02-0.699D-02 0.977D-02 0.113D+00
 Coeff:      0.354D+00 0.535D+00
 Gap=     0.109 Goal=   None    Shift=    0.000
 RMSDP=2.30D-08 MaxDP=1.47D-06 DE=-2.05D-11 OVMax= 5.00D-07

 Cycle  15  Pass 1  IDiag  1:
 E= -431.591723134464     Delta-E=       -0.000000000001 Rises=F Damp=F
 DIIS: error= 3.81D-08 at cycle  15 NSaved=  15.
 NSaved=15 IEnMin=15 EnMin= -431.591723134464     IErMin=15 ErrMin= 3.81D-08
 ErrMax= 3.81D-08  0.00D+00 EMaxC= 1.00D-01 BMatC= 2.63D-13 BMatP= 2.01D-12
 IDIUse=1 WtCom= 1.00D+00 WtEn= 0.00D+00
 Coeff-Com: -0.388D-06 0.865D-06-0.398D-05-0.195D-05 0.134D-04 0.341D-04
 Coeff-Com:  0.109D-03 0.263D-03-0.123D-02-0.221D-02-0.283D-02 0.135D-01
 Coeff-Com:  0.628D-01 0.277D+00 0.653D+00
 Coeff:     -0.388D-06 0.865D-06-0.398D-05-0.195D-05 0.134D-04 0.341D-04
 Coeff:      0.109D-03 0.263D-03-0.123D-02-0.221D-02-0.283D-02 0.135D-01
 Coeff:      0.628D-01 0.277D+00 0.653D+00
 Gap=     0.109 Goal=   None    Shift=    0.000
 RMSDP=1.66D-08 MaxDP=6.31D-07 DE=-1.25D-12 OVMax= 2.38D-07

 Cycle  16  Pass 1  IDiag  1:
 E= -431.591723134464     Delta-E=       -0.000000000001 Rises=F Damp=F
 DIIS: error= 8.15D-09 at cycle  16 NSaved=  16.
 NSaved=16 IEnMin=16 EnMin= -431.591723134464     IErMin=16 ErrMin= 8.15D-09
 ErrMax= 8.15D-09  0.00D+00 EMaxC= 1.00D-01 BMatC= 1.98D-14 BMatP= 2.63D-13
 IDIUse=1 WtCom= 1.00D+00 WtEn= 0.00D+00
 Coeff-Com:  0.343D-07-0.309D-07-0.775D-06-0.344D-06 0.237D-05 0.503D-05
 Coeff-Com:  0.229D-04 0.704D-04 0.153D-03-0.204D-03-0.219D-02-0.658D-02
 Coeff-Com: -0.126D-01 0.593D-01 0.283D+00 0.679D+00
 Coeff:      0.343D-07-0.309D-07-0.775D-06-0.344D-06 0.237D-05 0.503D-05
 Coeff:      0.229D-04 0.704D-04 0.153D-03-0.204D-03-0.219D-02-0.658D-02
 Coeff:     -0.126D-01 0.593D-01 0.283D+00 0.679D+00
 Gap=     0.109 Goal=   None    Shift=    0.000
 RMSDP=4.53D-09 MaxDP=1.77D-07 DE=-6.82D-13 OVMax= 7.23D-08

 SCF Done:  E(RB3LYP) =  -431.591723134     A.U. after   16 cycles
            NFock= 16  Conv=0.45D-08     -V/T= 2.0032
 KE= 4.302235680516D+02 PE=-1.750535245156D+03 EE= 5.254430539002D+02
 Leave Link  502 at Sat Oct 29 00:05:59 2022, MaxMem=  8053063680 cpu:             151.8 elap:               6.5
 (Enter /public3/home/scg5914/software-scg5914/g16/l601.exe)
 Copying SCF densities to generalized density rwf, IOpCl= 0 IROHF=0.

 **********************************************************************

            Population analysis using the SCF Density.

 **********************************************************************

 Orbital symmetries:
       Occupied  (A) (A) (A) (A) (A) (A) (A) (A) (A) (A) (A) (A)
                 (A) (A) (A) (A) (A) (A) (A) (A) (A) (A) (A) (A)
                 (A) (A) (A) (A) (A) (A)
       Virtual   (A) (A) (A) (A) (A) (A) (A) (A) (A) (A) (A) (A)
                 (A) (A) (A) (A) (A) (A) (A) (A) (A) (A) (A) (A)
                 (A) (A) (A) (A) (A) (A) (A) (A) (A) (A) (A) (A)
                 (A) (A) (A) (A) (A) (A) (A) (A) (A) (A) (A) (A)
                 (A) (A) (A) (A) (A) (A) (A) (A) (A) (A) (A) (A)
                 (A) (A) (A) (A) (A) (A) (A) (A) (A) (A) (A) (A)
                 (A) (A) (A) (A) (A) (A) (A) (A) (A) (A) (A) (A)
                 (A) (A) (A) (A) (A) (A) (A) (A) (A) (A) (A) (A)
                 (A) (A) (A) (A) (A) (A) (A) (A) (A) (A) (A) (A)
                 (A) (A) (A) (A) (A) (A) (A) (A) (A) (A) (A) (A)
                 (A) (A) (A) (A) (A) (A) (A) (A) (A) (A) (A) (A)
                 (A) (A) (A) (A) (A) (A) (A) (A) (A) (A) (A) (A)
                 (A) (A) (A) (A) (A) (A) (A) (A) (A) (A) (A) (A)
                 (A) (A) (A) (A) (A) (A) (A) (A) (A) (A) (A) (A)
                 (A) (A)
 The electronic state is 1-A.
 Alpha  occ. eigenvalues --  -18.98577 -18.98535 -14.15408 -14.09337 -14.07760
 Alpha  occ. eigenvalues --  -10.05898 -10.02914 -10.02009  -0.90692  -0.89136
 Alpha  occ. eigenvalues --   -0.78648  -0.73014  -0.62207  -0.51989  -0.42413
 Alpha  occ. eigenvalues --   -0.42261  -0.37873  -0.31894  -0.30786  -0.28896
 Alpha  occ. eigenvalues --   -0.26645  -0.24573  -0.21877  -0.18871  -0.17019
 Alpha  occ. eigenvalues --   -0.12623  -0.11236  -0.05316  -0.04878   0.00991
 Alpha virt. eigenvalues --    0.11911   0.13346   0.13995   0.18062   0.18727
 Alpha virt. eigenvalues --    0.19020   0.21109   0.21309   0.21786   0.22505
 Alpha virt. eigenvalues --    0.25468   0.26219   0.26606   0.26643   0.27198
 Alpha virt. eigenvalues --    0.28614   0.29857   0.30369   0.31273   0.32187
 Alpha virt. eigenvalues --    0.33101   0.33976   0.35196   0.37326   0.37720
 Alpha virt. eigenvalues --    0.38244   0.39719   0.40424   0.40975   0.41272
 Alpha virt. eigenvalues --    0.42261   0.42589   0.43973   0.44406   0.44959
 Alpha virt. eigenvalues --    0.45932   0.47050   0.48196   0.50129   0.50611
 Alpha virt. eigenvalues --    0.52692   0.54220   0.55369   0.64774   0.67058
 Alpha virt. eigenvalues --    0.68468   0.70749   0.72514   0.74546   0.75045
 Alpha virt. eigenvalues --    0.75727   0.78121   0.81195   0.83981   0.89353
 Alpha virt. eigenvalues --    0.90829   0.93416   0.96260   0.97222   0.99914
 Alpha virt. eigenvalues --    1.00314   1.03192   1.04240   1.06234   1.08089
 Alpha virt. eigenvalues --    1.08350   1.08959   1.10730   1.14027   1.19487
 Alpha virt. eigenvalues --    1.21177   1.25041   1.26884   1.29899   1.30117
 Alpha virt. eigenvalues --    1.32192   1.35255   1.36324   1.39742   1.41192
 Alpha virt. eigenvalues --    1.44994   1.46647   1.49340   1.53176   1.55176
 Alpha virt. eigenvalues --    1.57950   1.61671   1.63884   1.72358   1.75915
 Alpha virt. eigenvalues --    1.76584   1.80517   1.84355   1.85121   1.86941
 Alpha virt. eigenvalues --    1.91454   1.93137   1.95213   2.00214   2.02009
 Alpha virt. eigenvalues --    2.06032   2.14320   2.17986   2.19522   2.23798
 Alpha virt. eigenvalues --    2.25031   2.29705   2.32846   2.34964   2.44049
 Alpha virt. eigenvalues --    2.50319   2.51617   2.67782   2.69705   2.74676
 Alpha virt. eigenvalues --    2.75253   2.77441   2.79690   2.82010   2.85889
 Alpha virt. eigenvalues --    2.88467   2.93780   2.96250   2.97901   3.06330
 Alpha virt. eigenvalues --    3.07195   3.09026   3.13783   3.15057   3.18925
 Alpha virt. eigenvalues --    3.26545   3.27383   3.34882   3.36031   3.36769
 Alpha virt. eigenvalues --    3.40893   3.49286   3.50758   3.59745   3.61381
 Alpha virt. eigenvalues --    3.71061   3.82566   3.89663   3.98897   4.01169
 Alpha virt. eigenvalues --    4.13256   4.13511   4.13595   4.17973   4.29237
 Alpha virt. eigenvalues --    4.64847   4.72101   4.84972   4.92464   5.15332
 Alpha virt. eigenvalues --    5.17538   5.25850   5.47814   5.53172   5.65480
 Alpha virt. eigenvalues --    5.88929   5.96296  23.86017  24.07382  24.31738
 Alpha virt. eigenvalues --   35.71396  35.80917  35.93384  50.08812  50.13170
          Condensed to atoms (all electrons):
               1          2          3          4          5          6
     1  N    7.026210  -0.208461  -0.022811   0.023426   0.000829   0.120645
     2  C   -0.208461   8.217975  -1.712001  -0.292272  -0.224857  -0.335034
     3  C   -0.022811  -1.712001   7.439778   0.377562   0.449039  -0.281926
     4  O    0.023426  -0.292272   0.377562   8.181222  -0.111750   0.004928
     5  N    0.000829  -0.224857   0.449039  -0.111750   6.977930   0.439257
     6  C    0.120645  -0.335034  -0.281926   0.004928   0.439257   5.479459
     7  O   -0.000706   0.061914  -0.013367   0.000579  -0.173732   0.209999
     8  N   -0.229648   0.583252  -0.162933   0.017729  -0.002029   0.198833
     9  H    0.394512  -0.085050   0.076472  -0.000645   0.000349  -0.014315
    10  H    0.370183  -0.021819  -0.014561  -0.000802   0.000967   0.003568
    11  H   -0.004542   0.092578  -0.148434   0.207193   0.002872   0.007342
    12  H   -0.001427  -0.020449   0.013062  -0.000118   0.019086   0.011885
               7          8          9         10         11         12
     1  N   -0.000706  -0.229648   0.394512   0.370183  -0.004542  -0.001427
     2  C    0.061914   0.583252  -0.085050  -0.021819   0.092578  -0.020449
     3  C   -0.013367  -0.162933   0.076472  -0.014561  -0.148434   0.013062
     4  O    0.000579   0.017729  -0.000645  -0.000802   0.207193  -0.000118
     5  N   -0.173732  -0.002029   0.000349   0.000967   0.002872   0.019086
     6  C    0.209999   0.198833  -0.014315   0.003568   0.007342   0.011885
     7  O    8.245816  -0.187130  -0.000622   0.000048  -0.000150   0.186892
     8  N   -0.187130   7.161907  -0.006053   0.014554   0.000772   0.013193
     9  H   -0.000622  -0.006053   0.474281  -0.049058  -0.000345   0.000091
    10  H    0.000048   0.014554  -0.049058   0.492778   0.000210   0.000016
    11  H   -0.000150   0.000772  -0.000345   0.000210   0.605182   0.000001
    12  H    0.186892   0.013193   0.000091   0.000016   0.000001   0.543877
 Mulliken charges:
               1
     1  N   -0.468211
     2  C   -0.055776
     3  C    0.000121
     4  O   -0.407053
     5  N   -0.377962
     6  C    0.155358
     7  O   -0.329540
     8  N   -0.402446
     9  H    0.210383
    10  H    0.203915
    11  H    0.237321
    12  H    0.233890
 Sum of Mulliken charges =  -1.00000
 Mulliken charges with hydrogens summed into heavy atoms:
               1
     1  N   -0.053913
     2  C   -0.055776
     3  C    0.000121
     4  O   -0.169731
     5  N   -0.377962
     6  C    0.155358
     7  O   -0.095650
     8  N   -0.402446
 Electronic spatial extent (au):  <R**2>=            915.4686
 Charge=             -1.0000 electrons
 Dipole moment (field-independent basis, Debye):
    X=              2.2650    Y=              2.4242    Z=              0.2197  Tot=              3.3250
 Quadrupole moment (field-independent basis, Debye-Ang):
   XX=            -54.4667   YY=            -60.8191   ZZ=            -50.7493
   XY=             -4.9672   XZ=              0.4947   YZ=             -5.6510
 Traceless Quadrupole moment (field-independent basis, Debye-Ang):
   XX=              0.8783   YY=             -5.4741   ZZ=              4.5957
   XY=             -4.9672   XZ=              0.4947   YZ=             -5.6510
 Octapole moment (field-independent basis, Debye-Ang**2):
  XXX=              5.8639  YYY=              8.3148  ZZZ=              0.1568  XYY=              4.1308
  XXY=             13.2469  XXZ=              1.0344  XZZ=              1.5956  YZZ=             -4.9314
  YYZ=             -0.2296  XYZ=            -12.1471
 Hexadecapole moment (field-independent basis, Debye-Ang**3):
 XXXX=           -724.5548 YYYY=           -440.1708 ZZZZ=            -63.6220 XXXY=            -64.0995
 XXXZ=             -0.1971 YYYX=             -5.3215 YYYZ=            -23.6004 ZZZX=              0.5031
 ZZZY=             -5.5764 XXYY=           -196.8578 XXZZ=           -134.9197 YYZZ=            -84.4018
 XXYZ=            -28.1732 YYXZ=              0.9738 ZZXY=            -11.7563
 N-N= 3.632769000698D+02 E-N=-1.750535244015D+03  KE= 4.302235680516D+02
 No NMR shielding tensors so no spin-rotation constants.
 Leave Link  601 at Sat Oct 29 00:06:00 2022, MaxMem=  8053063680 cpu:               7.6 elap:               0.3
 (Enter /public3/home/scg5914/software-scg5914/g16/l701.exe)
 ... and contract with generalized density number  0.
 Compute integral first derivatives.
 R6Disp: Adding Grimme-D3(BJ) dispersion energy 1st derivatives to the gradient.
 Leave Link  701 at Sat Oct 29 00:06:00 2022, MaxMem=  8053063680 cpu:               2.9 elap:               0.1
 (Enter /public3/home/scg5914/software-scg5914/g16/l702.exe)
 L702 exits ... SP integral derivatives will be done elsewhere.
 Leave Link  702 at Sat Oct 29 00:06:00 2022, MaxMem=  8053063680 cpu:               0.4 elap:               0.0
 (Enter /public3/home/scg5914/software-scg5914/g16/l703.exe)
 Integral derivatives from FoFJK, PRISM(SPDF).
 Compute integral first derivatives, UseDBF=F ICtDFT=           0.
 Calling FoFJK, ICntrl=      2127 FMM=F ISym2X=0 I1Cent= 0 IOpClX= 0 NMat=1 NMatS=1 NMatT=0.
 FoFJK:  IHMeth= 1 ICntrl=    2127 DoSepK=F KAlg= 0 I1Cent=           0 FoldK=F
 IRaf=         0 NMat=       1 IRICut=       1 DoRegI=T DoRafI=F ISym2E= 0 IDoP0=0 IntGTp=1.
 FoFCou: FMM=F IPFlag=           0 FMFlag=      100000 FMFlg1=         800
         NFxFlg=           0 DoJE=F BraDBF=F KetDBF=F FulRan=T
         wScrn=  0.000000 ICntrl=      2127 IOpCl=  0 I1Cent=           0 NGrid=           0
         NMat0=    1 NMatS0=      1 NMatT0=    0 NMatD0=    1 NMtDS0=    0 NMtDT0=    0
 Symmetry not used in FoFCou.
 Leave Link  703 at Sat Oct 29 00:06:01 2022, MaxMem=  8053063680 cpu:              27.5 elap:               0.9
 (Enter /public3/home/scg5914/software-scg5914/g16/l716.exe)
 Dipole        = 8.91116203D-01 9.53770284D-01 8.64510679D-02
 ***** Axes restored to original set *****
 -------------------------------------------------------------------
 Center     Atomic                   Forces (Hartrees/Bohr)
 Number     Number              X              Y              Z
 -------------------------------------------------------------------
      1        7           0.003486053    0.021953761   -0.005297672
      2        6           0.006504563   -0.005392022    0.000802898
      3        6           0.046376677   -0.045741108   -0.002573620
      4        8          -0.016965829    0.011881527    0.000029620
      5        7          -0.010210567   -0.014048216    0.001760433
      6        6          -0.078862996    0.012971004    0.001643711
      7        8           0.023335568   -0.015507037   -0.000991490
      8        7           0.026069112    0.035901592   -0.000075943
      9        1           0.000289121    0.000526650    0.001362662
     10        1           0.000370830   -0.000455852    0.002253407
     11        1           0.001281834   -0.002579788    0.001086370
     12        1          -0.001674366    0.000489490   -0.000000376
 -------------------------------------------------------------------
 Cartesian Forces:  Max     0.078862996 RMS     0.020236527
 Leave Link  716 at Sat Oct 29 00:06:01 2022, MaxMem=  8053063680 cpu:               0.3 elap:               0.0
 (Enter /public3/home/scg5914/software-scg5914/g16/l103.exe)

 GradGradGradGradGradGradGradGradGradGradGradGradGradGradGradGradGradGrad
 Berny optimization.
 FormGI is forming the generalized inverse of G from B-inverse, IUseBI=4.
 Internal  Forces:  Max     0.035008389 RMS     0.012743952
 Search for a local minimum.
 Step number   1 out of a maximum of   58
 All quantities printed in internal units (Hartrees-Bohrs-Radians)
 RMS Force = .12744D-01 SwitMx=.10000D-02 MixMth= 1
 Mixed Optimization -- RFO/linear search
 Second derivative matrix not updated -- first step.
 ITU=  0
     Eigenvalues ---    0.01679   0.01989   0.02179   0.02206   0.02275
     Eigenvalues ---    0.02407   0.02411   0.02611   0.05626   0.16000
     Eigenvalues ---    0.16000   0.16000   0.16000   0.24939   0.24965
     Eigenvalues ---    0.24986   0.24999   0.25000   0.42059   0.45416
     Eigenvalues ---    0.45457   0.45502   0.45529   0.48805   0.52306
     Eigenvalues ---    0.53924   0.54307   0.54320   0.55956   0.62419
 RFO step:  Lambda=-2.18483166D-02 EMin= 1.67872948D-02
 Linear search not attempted -- first point.
 Iteration  1 RMS(Cart)=  0.04685509 RMS(Int)=  0.00157473
 Iteration  2 RMS(Cart)=  0.00188838 RMS(Int)=  0.00021963
 Iteration  3 RMS(Cart)=  0.00000158 RMS(Int)=  0.00021963
 Iteration  4 RMS(Cart)=  0.00000000 RMS(Int)=  0.00021963
 ITry= 1 IFail=0 DXMaxC= 1.42D-01 DCOld= 1.00D+10 DXMaxT= 3.00D-01 DXLimC= 3.00D+00 Rises=F
 Variable       Old X    -DE/DX   Delta X   Delta X   Delta X     New X
                                 (Linear)    (Quad)   (Total)
    R1        2.64748   0.02230   0.00000   0.04682   0.04682   2.69430
    R2        1.91366   0.00085   0.00000   0.00179   0.00179   1.91545
    R3        1.91397   0.00072   0.00000   0.00150   0.00150   1.91547
    R4        2.57691   0.01463   0.00000   0.02551   0.02555   2.60246
    R5        2.62074  -0.01832   0.00000  -0.03485  -0.03477   2.58597
    R6        2.57608   0.01732   0.00000   0.03178   0.03178   2.60786
    R7        2.66313  -0.01598   0.00000  -0.03747  -0.03752   2.62561
    R8        1.82441  -0.00195   0.00000  -0.00346  -0.00346   1.82095
    R9        2.55003  -0.01626   0.00000  -0.02833  -0.02840   2.52163
   R10        2.54292   0.02458   0.00000   0.04228   0.04228   2.58520
   R11        2.47113   0.03501   0.00000   0.05399   0.05398   2.52511
   R12        1.82453  -0.00144   0.00000  -0.00254  -0.00254   1.82198
    A1        1.92474  -0.00004   0.00000  -0.00487  -0.00499   1.91975
    A2        1.95383  -0.00209   0.00000  -0.01601  -0.01613   1.93770
    A3        1.91373  -0.00068   0.00000  -0.01211  -0.01234   1.90139
    A4        2.24721   0.00764   0.00000   0.02817   0.02811   2.27531
    A5        2.10802   0.00157   0.00000   0.00584   0.00580   2.11382
    A6        1.92607  -0.00920   0.00000  -0.03372  -0.03363   1.89244
    A7        2.31930  -0.02111   0.00000  -0.07366  -0.07369   2.24561
    A8        1.84006   0.02829   0.00000   0.09668   0.09663   1.93669
    A9        2.12255  -0.00716   0.00000  -0.02233  -0.02234   2.10022
   A10        1.90977  -0.00201   0.00000  -0.01108  -0.01108   1.89869
   A11        1.84560  -0.02833   0.00000  -0.11171  -0.11192   1.73368
   A12        2.09806  -0.00072   0.00000  -0.00464  -0.00461   2.09346
   A13        1.98028   0.02755   0.00000   0.10533   0.10524   2.08552
   A14        2.20483  -0.02684   0.00000  -0.10071  -0.10067   2.10416
   A15        1.84900  -0.00180   0.00000  -0.00990  -0.00990   1.83910
   A16        1.83266  -0.01830   0.00000  -0.05631  -0.05624   1.77643
    D1        2.76408  -0.00081   0.00000  -0.00786  -0.00773   2.75635
    D2       -0.45018  -0.00082   0.00000  -0.00373  -0.00368  -0.45386
    D3        0.62835   0.00154   0.00000   0.02222   0.02216   0.65052
    D4       -2.58591   0.00153   0.00000   0.02635   0.02622  -2.55970
    D5       -0.12220   0.00113   0.00000   0.02361   0.02351  -0.09869
    D6        3.07477   0.00045   0.00000   0.00789   0.00782   3.08259
    D7        3.08598   0.00085   0.00000   0.01875   0.01884   3.10482
    D8       -0.00024   0.00017   0.00000   0.00303   0.00315   0.00291
    D9       -3.08855   0.00000   0.00000   0.00304   0.00275  -3.08581
   D10       -0.00739   0.00057   0.00000   0.00860   0.00808   0.00069
   D11        1.48577   0.00104   0.00000   0.03138   0.03168   1.51744
   D12       -1.71852   0.00258   0.00000   0.05172   0.05143  -1.66708
   D13        0.00757  -0.00070   0.00000  -0.01307  -0.01261  -0.00504
   D14       -3.08639  -0.00056   0.00000  -0.02399  -0.02435  -3.11074
   D15        3.12488   0.00063   0.00000   0.01260   0.01195   3.13682
   D16       -0.01315   0.00101   0.00000   0.01932   0.01924   0.00609
   D17       -3.13809   0.00010   0.00000   0.00248   0.00235  -3.13574
   D18       -0.00056  -0.00020   0.00000  -0.00469  -0.00456  -0.00512
   D19        0.01282  -0.00075   0.00000  -0.01669  -0.01737  -0.00455
   D20       -3.12495  -0.00042   0.00000  -0.00975  -0.01027  -3.13522
         Item               Value     Threshold  Converged?
 Maximum Force            0.035008     0.000450     NO 
 RMS     Force            0.012744     0.000300     NO 
 Maximum Displacement     0.141976     0.001800     NO 
 RMS     Displacement     0.047510     0.001200     NO 
 Predicted change in Energy=-1.173534D-02
 Lowest energy point so far.  Saving SCF results.
 GradGradGradGradGradGradGradGradGradGradGradGradGradGradGradGradGradGrad

 Leave Link  103 at Sat Oct 29 00:06:01 2022, MaxMem=  8053063680 cpu:               2.1 elap:               0.1
 (Enter /public3/home/scg5914/software-scg5914/g16/l202.exe)
                          Input orientation:                          
 ---------------------------------------------------------------------
 Center     Atomic      Atomic             Coordinates (Angstroms)
 Number     Number       Type             X           Y           Z
 ---------------------------------------------------------------------
      1          7           0        0.099738    1.422432   -0.172676
      2          6           0        0.018080    0.001837   -0.083034
      3          6           0       -1.080439   -0.825836   -0.013836
      4          8           0       -2.412928   -0.482957    0.092749
      5          7           0       -0.697365   -2.161399   -0.013656
      6          6           0        0.625803   -2.007009   -0.091039
      7          8           0        1.441316   -3.105159   -0.113543
      8          7           0        1.143051   -0.775678   -0.133353
      9          1           0        1.006503    1.738606    0.151707
     10          1           0       -0.621798    1.864073    0.385688
     11          1           0       -2.769172   -0.343461   -0.791653
     12          1           0        2.338575   -2.756171   -0.165722
 ---------------------------------------------------------------------
                    Distance matrix (angstroms):
                    1          2          3          4          5
     1  N    0.000000
     2  C    1.425761   0.000000
     3  C    2.544161   1.377162   0.000000
     4  O    3.164561   2.485101   1.380020   0.000000
     5  N    3.674848   2.279532   1.389415   2.402426   0.000000
     6  C    3.470515   2.098774   2.076630   3.404468   1.334391
     7  O    4.722543   3.417595   3.400662   4.666230   2.339790
     8  N    2.433462   1.368437   2.227264   3.575164   2.306877
     9  H    1.013614   2.012076   3.310452   4.078152   4.259172
    10  H    1.013622   2.024121   2.757821   2.966902   4.045937
    11  H    3.425223   2.896575   1.920809   0.963606   2.864012
    12  H    4.740587   3.605294   3.929239   5.273623   3.097388
                    6          7          8          9         10
     6  C    0.000000
     7  O    1.368028   0.000000
     8  N    1.336231   2.348582   0.000000
     9  H    3.772730   4.870470   2.534073   0.000000
    10  H    4.095003   5.403603   3.217511   1.649803   0.000000
    11  H    3.845012   5.080849   3.990697   4.413689   3.297052
    12  H    1.870938   0.964152   2.313586   4.698744   5.514935
                   11         12
    11  H    0.000000
    12  H    5.683489   0.000000
 Stoichiometry    C3H4N3O2(1-)
 Framework group  C1[X(C3H4N3O2)]
 Deg. of freedom    30
 Full point group                 C1      NOp   1
 RotChk:  IX=0 Diff= 4.12D-02
 Largest Abelian subgroup         C1      NOp   1
 Largest concise Abelian subgroup C1      NOp   1
                         Standard orientation:                         
 ---------------------------------------------------------------------
 Center     Atomic      Atomic             Coordinates (Angstroms)
 Number     Number       Type             X           Y           Z
 ---------------------------------------------------------------------
      1          7           0        1.771787    1.586217    0.091427
      2          6           0        0.682214    0.670356    0.008825
      3          6           0        0.674622   -0.706467   -0.020751
      4          8           0        1.746510   -1.573417   -0.083272
      5          7           0       -0.625538   -1.196340   -0.029897
      6          6           0       -1.292340   -0.040944    0.002273
      7          8           0       -2.660367   -0.041712    0.000480
      8          7           0       -0.613632    1.109890    0.023419
      9          1           0        1.490338    2.492651   -0.264350
     10          1           0        2.566499    1.255068   -0.443551
     11          1           0        2.055230   -1.750284    0.812242
     12          1           0       -2.916510    0.887561    0.021272
 ---------------------------------------------------------------------
 Rotational constants (GHZ):           3.7052696           1.8679361           1.2488566
 Leave Link  202 at Sat Oct 29 00:06:01 2022, MaxMem=  8053063680 cpu:               0.1 elap:               0.0
 (Enter /public3/home/scg5914/software-scg5914/g16/l301.exe)
 Standard basis: 6-311+G(d,p) (5D, 7F)
 Ernie: Thresh=  0.10000D-02 Tol=  0.10000D-05 Strict=F.
 There are   208 symmetry adapted cartesian basis functions of A   symmetry.
 There are   200 symmetry adapted basis functions of A   symmetry.
   200 basis functions,   320 primitive gaussians,   208 cartesian basis functions
    30 alpha electrons       30 beta electrons
       nuclear repulsion energy       363.2437586134 Hartrees.
 IExCor=  402 DFT=T Ex+Corr=B3LYP ExCW=0 ScaHFX=  0.200000
 ScaDFX=  0.800000  0.720000  1.000000  0.810000 ScalE2=  1.000000  1.000000
 IRadAn=      5 IRanWt=     -1 IRanGd=            0 ICorTp=0 IEmpDi=141
 NAtoms=   12 NActive=   12 NUniq=   12 SFac= 1.00D+00 NAtFMM=   60 NAOKFM=F Big=F
 Integral buffers will be    131072 words long.
 Raffenetti 2 integral format.
 Two-electron integral symmetry is turned on.
 R6Disp:  Grimme-D3(BJ) Dispersion energy=       -0.0169015189 Hartrees.
 Nuclear repulsion after empirical dispersion term =      363.2268570945 Hartrees.
 Leave Link  301 at Sat Oct 29 00:06:01 2022, MaxMem=  8053063680 cpu:               1.0 elap:               0.0
 (Enter /public3/home/scg5914/software-scg5914/g16/l302.exe)
 NPDir=0 NMtPBC=     1 NCelOv=     1 NCel=       1 NClECP=     1 NCelD=      1
         NCelK=      1 NCelE2=     1 NClLst=     1 CellRange=     0.0.
 One-electron integrals computed using PRISM.
 One-electron integral symmetry used in STVInt
 NBasis=   200 RedAO= T EigKep=  1.74D-05  NBF=   200
 NBsUse=   200 1.00D-06 EigRej= -1.00D+00 NBFU=   200
 Precomputing XC quadrature grid using
 IXCGrd= 4 IRadAn=           5 IRanWt=          -1 IRanGd=           0 AccXCQ= 0.00D+00.
 Generated NRdTot=       0 NPtTot=           0 NUsed=           0 NTot=          32
 NSgBfM=   208   208   208   208   208 MxSgAt=    12 MxSgA2=    12.
 Leave Link  302 at Sat Oct 29 00:06:01 2022, MaxMem=  8053063680 cpu:               3.3 elap:               0.1
 (Enter /public3/home/scg5914/software-scg5914/g16/l303.exe)
 DipDrv:  MaxL=1.
 Leave Link  303 at Sat Oct 29 00:06:02 2022, MaxMem=  8053063680 cpu:               2.1 elap:               0.1
 (Enter /public3/home/scg5914/software-scg5914/g16/l401.exe)
 Initial guess from the checkpoint file:  "dsgdb9nsd_004517-4.chk"
 B after Tr=     0.000000   -0.000000    0.000000
         Rot=    0.999916    0.000121    0.000122    0.012923 Ang=   1.48 deg.
 Guess basis will be translated and rotated to current coordinates.
 JPrj=2 DoOrth=T DoCkMO=T.
 Generating alternative initial guess.
 ExpMin= 4.38D-02 ExpMax= 8.59D+03 ExpMxC= 1.30D+03 IAcc=3 IRadAn=         5 AccDes= 0.00D+00
 Harris functional with IExCor=  402 and IRadAn=       5 diagonalized for initial guess.
 HarFok:  IExCor=  402 AccDes= 0.00D+00 IRadAn=         5 IDoV= 1 UseB2=F ITyADJ=14
 ICtDFT=  3500011 ScaDFX=  1.000000  1.000000  1.000000  1.000000
 FoFCou: FMM=F IPFlag=           0 FMFlag=      100000 FMFlg1=           0
         NFxFlg=           0 DoJE=T BraDBF=F KetDBF=T FulRan=T
         wScrn=  0.000000 ICntrl=       500 IOpCl=  0 I1Cent=   200000004 NGrid=           0
         NMat0=    1 NMatS0=      1 NMatT0=    0 NMatD0=    1 NMtDS0=    0 NMtDT0=    0
 Petite list used in FoFCou.
 Harris En= -431.749042562202    
 Leave Link  401 at Sat Oct 29 00:06:02 2022, MaxMem=  8053063680 cpu:              11.2 elap:               0.4
 (Enter /public3/home/scg5914/software-scg5914/g16/l502.exe)
 Keep R1 ints in memory in canonical form, NReq=235246854.
 FoFCou: FMM=F IPFlag=           0 FMFlag=           0 FMFlg1=           0
         NFxFlg=           0 DoJE=F BraDBF=F KetDBF=F FulRan=T
         wScrn=  0.000000 ICntrl=       600 IOpCl=  0 I1Cent=           0 NGrid=           0
         NMat0=    1 NMatS0=  20100 NMatT0=    0 NMatD0=    1 NMtDS0=    0 NMtDT0=    0
 Symmetry not used in FoFCou.
 Two-electron integral symmetry not used.
 Closed shell SCF:
 Using DIIS extrapolation, IDIIS=  1040.
 NGot=  8053063680 LenX=  7850953144 LenY=  7850909439
 Requested convergence on RMS density matrix=1.00D-08 within 128 cycles.
 Requested convergence on MAX density matrix=1.00D-06.
 Requested convergence on             energy=1.00D-06.
 No special actions if energy rises.

 Cycle   1  Pass 1  IDiag  1:
 E= -431.593466402844    
 DIIS: error= 3.69D-03 at cycle   1 NSaved=   1.
 NSaved= 1 IEnMin= 1 EnMin= -431.593466402844     IErMin= 1 ErrMin= 3.69D-03
 ErrMax= 3.69D-03  0.00D+00 EMaxC= 1.00D-01 BMatC= 6.04D-03 BMatP= 6.04D-03
 IDIUse=3 WtCom= 9.63D-01 WtEn= 3.69D-02
 Coeff-Com:  0.100D+01
 Coeff-En:   0.100D+01
 Coeff:      0.100D+01
 Gap=     0.377 Goal=   None    Shift=    0.000
 GapD=    0.377 DampG=1.000 DampE=1.000 DampFc=1.0000 IDamp=-1.
 RMSDP=1.59D-03 MaxDP=9.48D-02              OVMax= 2.99D-02

 Cycle   2  Pass 1  IDiag  1:
 E= -431.600375630074     Delta-E=       -0.006909227229 Rises=F Damp=F
 DIIS: error= 2.33D-03 at cycle   2 NSaved=   2.
 NSaved= 2 IEnMin= 2 EnMin= -431.600375630074     IErMin= 2 ErrMin= 2.33D-03
 ErrMax= 2.33D-03  0.00D+00 EMaxC= 1.00D-01 BMatC= 1.22D-03 BMatP= 6.04D-03
 IDIUse=3 WtCom= 9.77D-01 WtEn= 2.33D-02
 Coeff-Com:  0.196D+00 0.804D+00
 Coeff-En:   0.000D+00 0.100D+01
 Coeff:      0.191D+00 0.809D+00
 Gap=     0.110 Goal=   None    Shift=    0.000
 RMSDP=5.61D-04 MaxDP=2.76D-02 DE=-6.91D-03 OVMax= 2.23D-02

 Cycle   3  Pass 1  IDiag  1:
 E= -431.599454097114     Delta-E=        0.000921532959 Rises=F Damp=F
 DIIS: error= 3.86D-03 at cycle   3 NSaved=   3.
 NSaved= 3 IEnMin= 2 EnMin= -431.600375630074     IErMin= 2 ErrMin= 2.33D-03
 ErrMax= 3.86D-03  0.00D+00 EMaxC= 1.00D-01 BMatC= 2.24D-03 BMatP= 1.22D-03
 IDIUse=3 WtCom= 1.39D-01 WtEn= 8.61D-01
 Coeff-Com: -0.234D-01 0.587D+00 0.437D+00
 Coeff-En:   0.000D+00 0.630D+00 0.370D+00
 Coeff:     -0.324D-02 0.624D+00 0.379D+00
 Gap=     0.110 Goal=   None    Shift=    0.000
 RMSDP=3.33D-04 MaxDP=1.32D-02 DE= 9.22D-04 OVMax= 1.25D-02

 Cycle   4  Pass 1  IDiag  1:
 E= -431.601291704924     Delta-E=       -0.001837607809 Rises=F Damp=F
 DIIS: error= 4.42D-04 at cycle   4 NSaved=   4.
 NSaved= 4 IEnMin= 4 EnMin= -431.601291704924     IErMin= 4 ErrMin= 4.42D-04
 ErrMax= 4.42D-04  0.00D+00 EMaxC= 1.00D-01 BMatC= 4.63D-05 BMatP= 1.22D-03
 IDIUse=3 WtCom= 9.96D-01 WtEn= 4.42D-03
 Coeff-Com: -0.164D-01 0.306D+00 0.178D+00 0.532D+00
 Coeff-En:   0.000D+00 0.000D+00 0.000D+00 0.100D+01
 Coeff:     -0.163D-01 0.305D+00 0.177D+00 0.534D+00
 Gap=     0.110 Goal=   None    Shift=    0.000
 RMSDP=7.37D-05 MaxDP=2.47D-03 DE=-1.84D-03 OVMax= 2.12D-03

 Cycle   5  Pass 1  IDiag  1:
 E= -431.601322086768     Delta-E=       -0.000030381844 Rises=F Damp=F
 DIIS: error= 1.88D-04 at cycle   5 NSaved=   5.
 NSaved= 5 IEnMin= 5 EnMin= -431.601322086768     IErMin= 5 ErrMin= 1.88D-04
 ErrMax= 1.88D-04  0.00D+00 EMaxC= 1.00D-01 BMatC= 7.30D-06 BMatP= 4.63D-05
 IDIUse=3 WtCom= 9.98D-01 WtEn= 1.88D-03
 Coeff-Com: -0.478D-02 0.659D-01 0.226D-01 0.347D+00 0.570D+00
 Coeff-En:   0.000D+00 0.000D+00 0.000D+00 0.147D+00 0.853D+00
 Coeff:     -0.477D-02 0.658D-01 0.225D-01 0.346D+00 0.570D+00
 Gap=     0.110 Goal=   None    Shift=    0.000
 RMSDP=2.01D-05 MaxDP=6.17D-04 DE=-3.04D-05 OVMax= 7.57D-04

 Cycle   6  Pass 1  IDiag  1:
 E= -431.601328209653     Delta-E=       -0.000006122885 Rises=F Damp=F
 DIIS: error= 2.16D-05 at cycle   6 NSaved=   6.
 NSaved= 6 IEnMin= 6 EnMin= -431.601328209653     IErMin= 6 ErrMin= 2.16D-05
 ErrMax= 2.16D-05  0.00D+00 EMaxC= 1.00D-01 BMatC= 1.80D-07 BMatP= 7.30D-06
 IDIUse=1 WtCom= 1.00D+00 WtEn= 0.00D+00
 Coeff-Com: -0.158D-02 0.164D-01 0.214D-02 0.139D+00 0.258D+00 0.585D+00
 Coeff:     -0.158D-02 0.164D-01 0.214D-02 0.139D+00 0.258D+00 0.585D+00
 Gap=     0.110 Goal=   None    Shift=    0.000
 RMSDP=7.04D-06 MaxDP=4.18D-04 DE=-6.12D-06 OVMax= 9.61D-05

 Cycle   7  Pass 1  IDiag  1:
 E= -431.601328315288     Delta-E=       -0.000000105635 Rises=F Damp=F
 DIIS: error= 1.11D-05 at cycle   7 NSaved=   7.
 NSaved= 7 IEnMin= 7 EnMin= -431.601328315288     IErMin= 7 ErrMin= 1.11D-05
 ErrMax= 1.11D-05  0.00D+00 EMaxC= 1.00D-01 BMatC= 4.19D-08 BMatP= 1.80D-07
 IDIUse=1 WtCom= 1.00D+00 WtEn= 0.00D+00
 Coeff-Com: -0.869D-04-0.236D-02-0.341D-02 0.249D-01 0.590D-01 0.345D+00
 Coeff-Com:  0.577D+00
 Coeff:     -0.869D-04-0.236D-02-0.341D-02 0.249D-01 0.590D-01 0.345D+00
 Coeff:      0.577D+00
 Gap=     0.110 Goal=   None    Shift=    0.000
 RMSDP=2.25D-06 MaxDP=9.37D-05 DE=-1.06D-07 OVMax= 4.87D-05

 Cycle   8  Pass 1  IDiag  1:
 E= -431.601328344976     Delta-E=       -0.000000029688 Rises=F Damp=F
 DIIS: error= 2.67D-06 at cycle   8 NSaved=   8.
 NSaved= 8 IEnMin= 8 EnMin= -431.601328344976     IErMin= 8 ErrMin= 2.67D-06
 ErrMax= 2.67D-06  0.00D+00 EMaxC= 1.00D-01 BMatC= 1.19D-09 BMatP= 4.19D-08
 IDIUse=1 WtCom= 1.00D+00 WtEn= 0.00D+00
 Coeff-Com:  0.287D-04-0.158D-02-0.149D-02 0.354D-02 0.124D-01 0.107D+00
 Coeff-Com:  0.233D+00 0.647D+00
 Coeff:      0.287D-04-0.158D-02-0.149D-02 0.354D-02 0.124D-01 0.107D+00
 Coeff:      0.233D+00 0.647D+00
 Gap=     0.110 Goal=   None    Shift=    0.000
 RMSDP=8.76D-07 MaxDP=6.17D-05 DE=-2.97D-08 OVMax= 1.73D-05

 Cycle   9  Pass 1  IDiag  1:
 E= -431.601328345816     Delta-E=       -0.000000000840 Rises=F Damp=F
 DIIS: error= 1.13D-06 at cycle   9 NSaved=   9.
 NSaved= 9 IEnMin= 9 EnMin= -431.601328345816     IErMin= 9 ErrMin= 1.13D-06
 ErrMax= 1.13D-06  0.00D+00 EMaxC= 1.00D-01 BMatC= 2.96D-10 BMatP= 1.19D-09
 IDIUse=1 WtCom= 1.00D+00 WtEn= 0.00D+00
 Coeff-Com:  0.280D-04-0.630D-03-0.481D-03-0.938D-03 0.385D-03 0.191D-01
 Coeff-Com:  0.636D-01 0.370D+00 0.549D+00
 Coeff:      0.280D-04-0.630D-03-0.481D-03-0.938D-03 0.385D-03 0.191D-01
 Coeff:      0.636D-01 0.370D+00 0.549D+00
 Gap=     0.110 Goal=   None    Shift=    0.000
 RMSDP=3.67D-07 MaxDP=2.15D-05 DE=-8.40D-10 OVMax= 7.93D-06

 Cycle  10  Pass 1  IDiag  1:
 E= -431.601328346071     Delta-E=       -0.000000000255 Rises=F Damp=F
 DIIS: error= 3.07D-07 at cycle  10 NSaved=  10.
 NSaved=10 IEnMin=10 EnMin= -431.601328346071     IErMin=10 ErrMin= 3.07D-07
 ErrMax= 3.07D-07  0.00D+00 EMaxC= 1.00D-01 BMatC= 1.63D-11 BMatP= 2.96D-10
 IDIUse=1 WtCom= 1.00D+00 WtEn= 0.00D+00
 Coeff-Com:  0.120D-04-0.185D-03-0.132D-03-0.652D-03-0.588D-03 0.164D-02
 Coeff-Com:  0.125D-01 0.124D+00 0.260D+00 0.604D+00
 Coeff:      0.120D-04-0.185D-03-0.132D-03-0.652D-03-0.588D-03 0.164D-02
 Coeff:      0.125D-01 0.124D+00 0.260D+00 0.604D+00
 Gap=     0.110 Goal=   None    Shift=    0.000
 RMSDP=1.41D-07 MaxDP=7.47D-06 DE=-2.55D-10 OVMax= 2.73D-06

 Cycle  11  Pass 1  IDiag  1:
 E= -431.601328346084     Delta-E=       -0.000000000013 Rises=F Damp=F
 DIIS: error= 9.04D-08 at cycle  11 NSaved=  11.
 NSaved=11 IEnMin=11 EnMin= -431.601328346084     IErMin=11 ErrMin= 9.04D-08
 ErrMax= 9.04D-08  0.00D+00 EMaxC= 1.00D-01 BMatC= 2.09D-12 BMatP= 1.63D-11
 IDIUse=1 WtCom= 1.00D+00 WtEn= 0.00D+00
 Coeff-Com:  0.906D-06 0.184D-04 0.165D-04-0.167D-03-0.381D-03-0.249D-02
 Coeff-Com: -0.525D-02 0.157D-02 0.426D-01 0.290D+00 0.674D+00
 Coeff:      0.906D-06 0.184D-04 0.165D-04-0.167D-03-0.381D-03-0.249D-02
 Coeff:     -0.525D-02 0.157D-02 0.426D-01 0.290D+00 0.674D+00
 Gap=     0.110 Goal=   None    Shift=    0.000
 RMSDP=6.10D-08 MaxDP=2.78D-06 DE=-1.32D-11 OVMax= 1.49D-06

 Cycle  12  Pass 1  IDiag  1:
 E= -431.601328346088     Delta-E=       -0.000000000004 Rises=F Damp=F
 DIIS: error= 2.29D-08 at cycle  12 NSaved=  12.
 NSaved=12 IEnMin=12 EnMin= -431.601328346088     IErMin=12 ErrMin= 2.29D-08
 ErrMax= 2.29D-08  0.00D+00 EMaxC= 1.00D-01 BMatC= 1.11D-13 BMatP= 2.09D-12
 IDIUse=1 WtCom= 1.00D+00 WtEn= 0.00D+00
 Coeff-Com: -0.354D-06 0.173D-04 0.149D-04-0.279D-04-0.122D-03-0.104D-02
 Coeff-Com: -0.292D-02-0.777D-02-0.203D-02 0.603D-01 0.246D+00 0.708D+00
 Coeff:     -0.354D-06 0.173D-04 0.149D-04-0.279D-04-0.122D-03-0.104D-02
 Coeff:     -0.292D-02-0.777D-02-0.203D-02 0.603D-01 0.246D+00 0.708D+00
 Gap=     0.110 Goal=   None    Shift=    0.000
 RMSDP=1.96D-08 MaxDP=7.95D-07 DE=-3.87D-12 OVMax= 5.18D-07

 Cycle  13  Pass 1  IDiag  1:
 E= -431.601328346088     Delta-E=        0.000000000000 Rises=F Damp=F
 DIIS: error= 1.19D-08 at cycle  13 NSaved=  13.
 NSaved=13 IEnMin=12 EnMin= -431.601328346088     IErMin=13 ErrMin= 1.19D-08
 ErrMax= 1.19D-08  0.00D+00 EMaxC= 1.00D-01 BMatC= 3.70D-14 BMatP= 1.11D-13
 IDIUse=1 WtCom= 1.00D+00 WtEn= 0.00D+00
 Coeff-Com: -0.289D-06 0.693D-05 0.598D-05 0.637D-05-0.169D-04-0.259D-03
 Coeff-Com: -0.979D-03-0.482D-02-0.681D-02-0.326D-02 0.560D-01 0.408D+00
 Coeff-Com:  0.552D+00
 Coeff:     -0.289D-06 0.693D-05 0.598D-05 0.637D-05-0.169D-04-0.259D-03
 Coeff:     -0.979D-03-0.482D-02-0.681D-02-0.326D-02 0.560D-01 0.408D+00
 Coeff:      0.552D+00
 Gap=     0.110 Goal=   None    Shift=    0.000
 RMSDP=7.79D-09 MaxDP=3.23D-07 DE= 3.41D-13 OVMax= 1.78D-07

 SCF Done:  E(RB3LYP) =  -431.601328346     A.U. after   13 cycles
            NFock= 13  Conv=0.78D-08     -V/T= 2.0033
 KE= 4.301820234360D+02 PE=-1.750409380679D+03 EE= 5.253991718028D+02
 Leave Link  502 at Sat Oct 29 00:06:07 2022, MaxMem=  8053063680 cpu:             125.7 elap:               5.4
 (Enter /public3/home/scg5914/software-scg5914/g16/l701.exe)
 ... and contract with generalized density number  0.
 Compute integral first derivatives.
 R6Disp: Adding Grimme-D3(BJ) dispersion energy 1st derivatives to the gradient.
 Leave Link  701 at Sat Oct 29 00:06:07 2022, MaxMem=  8053063680 cpu:               3.7 elap:               0.1
 (Enter /public3/home/scg5914/software-scg5914/g16/l702.exe)
 L702 exits ... SP integral derivatives will be done elsewhere.
 Leave Link  702 at Sat Oct 29 00:06:07 2022, MaxMem=  8053063680 cpu:               0.4 elap:               0.0
 (Enter /public3/home/scg5914/software-scg5914/g16/l703.exe)
 Integral derivatives from FoFJK, PRISM(SPDF).
 Compute integral first derivatives, UseDBF=F ICtDFT=           0.
 Calling FoFJK, ICntrl=      2127 FMM=F ISym2X=0 I1Cent= 0 IOpClX= 0 NMat=1 NMatS=1 NMatT=0.
 FoFJK:  IHMeth= 1 ICntrl=    2127 DoSepK=F KAlg= 0 I1Cent=           0 FoldK=F
 IRaf=         0 NMat=       1 IRICut=       1 DoRegI=T DoRafI=F ISym2E= 0 IDoP0=0 IntGTp=1.
 FoFCou: FMM=F IPFlag=           0 FMFlag=      100000 FMFlg1=         800
         NFxFlg=           0 DoJE=F BraDBF=F KetDBF=F FulRan=T
         wScrn=  0.000000 ICntrl=      2127 IOpCl=  0 I1Cent=           0 NGrid=           0
         NMat0=    1 NMatS0=      1 NMatT0=    0 NMatD0=    1 NMtDS0=    0 NMtDT0=    0
 Symmetry not used in FoFCou.
 Leave Link  703 at Sat Oct 29 00:06:08 2022, MaxMem=  8053063680 cpu:              29.2 elap:               0.9
 (Enter /public3/home/scg5914/software-scg5914/g16/l716.exe)
 Dipole        = 9.13713322D-01 9.08249057D-01 9.36762504D-02
 ***** Axes restored to original set *****
 -------------------------------------------------------------------
 Center     Atomic                   Forces (Hartrees/Bohr)
 Number     Number              X              Y              Z
 -------------------------------------------------------------------
      1        7          -0.002777138    0.004008549   -0.003289763
      2        6          -0.008055764    0.000629712    0.001493027
      3        6           0.003242680   -0.004843955    0.000125868
      4        8          -0.012626844    0.010105061    0.000715028
      5        7           0.013047258    0.015852094   -0.001986558
      6        6          -0.008576000   -0.009581121    0.000960802
      7        8           0.012152469   -0.012048349   -0.000469781
      8        7           0.004798258   -0.001496881   -0.000391907
      9        1           0.000296371   -0.001472799    0.001195113
     10        1          -0.000024837   -0.000380867    0.001404092
     11        1           0.000208982   -0.001952292    0.000182423
     12        1          -0.001685436    0.001180849    0.000061656
 -------------------------------------------------------------------
 Cartesian Forces:  Max     0.015852094 RMS     0.006060638
 Leave Link  716 at Sat Oct 29 00:06:08 2022, MaxMem=  8053063680 cpu:               0.3 elap:               0.0
 (Enter /public3/home/scg5914/software-scg5914/g16/l103.exe)

 GradGradGradGradGradGradGradGradGradGradGradGradGradGradGradGradGradGrad
 Berny optimization.
 Using GEDIIS/GDIIS optimizer.
 FormGI is forming the generalized inverse of G from B-inverse, IUseBI=4.
 Internal  Forces:  Max     0.014969997 RMS     0.005026090
 Search for a local minimum.
 Step number   2 out of a maximum of   58
 All quantities printed in internal units (Hartrees-Bohrs-Radians)
 RMS Force = .50261D-02 SwitMx=.10000D-02 MixMth= 1
 Mixed Optimization -- RFO/linear search
 Update second derivatives using D2CorX and points    1    2
 DE= -9.61D-03 DEPred=-1.17D-02 R= 8.18D-01
 TightC=F SS=  1.41D+00  RLast= 2.73D-01 DXNew= 5.0454D-01 8.1858D-01
 Trust test= 8.18D-01 RLast= 2.73D-01 DXMaxT set to 5.05D-01
 ITU=  1  0
 Use linear search instead of GDIIS.
     Eigenvalues ---    0.01679   0.01990   0.02166   0.02213   0.02280
     Eigenvalues ---    0.02411   0.02427   0.02609   0.05810   0.15859
     Eigenvalues ---    0.16000   0.16000   0.16010   0.22923   0.24953
     Eigenvalues ---    0.24990   0.24991   0.33984   0.41095   0.44276
     Eigenvalues ---    0.45502   0.45529   0.46123   0.48834   0.53678
     Eigenvalues ---    0.54010   0.54294   0.54338   0.54860   0.62811
 RFO step:  Lambda=-2.79877086D-03 EMin= 1.67916638D-02
 Quartic linear search produced a step of -0.10605.
 Iteration  1 RMS(Cart)=  0.02020074 RMS(Int)=  0.00069913
 Iteration  2 RMS(Cart)=  0.00059263 RMS(Int)=  0.00011428
 Iteration  3 RMS(Cart)=  0.00000109 RMS(Int)=  0.00011428
 Iteration  4 RMS(Cart)=  0.00000000 RMS(Int)=  0.00011428
 ITry= 1 IFail=0 DXMaxC= 8.15D-02 DCOld= 1.00D+10 DXMaxT= 5.05D-01 DXLimC= 3.00D+00 Rises=F
 Variable       Old X    -DE/DX   Delta X   Delta X   Delta X     New X
                                 (Linear)    (Quad)   (Total)
    R1        2.69430   0.00205  -0.00497   0.01495   0.00998   2.70428
    R2        1.91545   0.00019  -0.00019   0.00079   0.00060   1.91605
    R3        1.91547   0.00062  -0.00016   0.00157   0.00141   1.91688
    R4        2.60246  -0.00450  -0.00271  -0.00192  -0.00466   2.59780
    R5        2.58597   0.01176   0.00369   0.01457   0.01820   2.60418
    R6        2.60786   0.01409  -0.00337   0.03133   0.02796   2.63582
    R7        2.62561   0.00125   0.00398  -0.00742  -0.00340   2.62221
    R8        1.82095  -0.00053   0.00037  -0.00167  -0.00130   1.81965
    R9        2.52163  -0.00376   0.00301  -0.01294  -0.00988   2.51176
   R10        2.58520   0.01497  -0.00448   0.03362   0.02914   2.61434
   R11        2.52511   0.00437  -0.00572   0.01908   0.01335   2.53846
   R12        1.82198  -0.00114   0.00027  -0.00247  -0.00220   1.81979
    A1        1.91975  -0.00299   0.00053  -0.02297  -0.02267   1.89707
    A2        1.93770  -0.00118   0.00171  -0.01561  -0.01412   1.92357
    A3        1.90139   0.00048   0.00131  -0.01060  -0.00975   1.89164
    A4        2.27531  -0.00298  -0.00298  -0.00435  -0.00730   2.26801
    A5        2.11382   0.00199  -0.00061   0.00796   0.00738   2.12119
    A6        1.89244   0.00099   0.00357  -0.00314   0.00034   1.89278
    A7        2.24561  -0.00256   0.00781  -0.02523  -0.01745   2.22816
    A8        1.93669  -0.00644  -0.01025  -0.00201  -0.01226   1.92443
    A9        2.10022   0.00900   0.00237   0.02773   0.03007   2.13029
   A10        1.89869  -0.00097   0.00117  -0.00796  -0.00678   1.89191
   A11        1.73368   0.01369   0.01187   0.01767   0.02968   1.76336
   A12        2.09346   0.00964   0.00049   0.03272   0.03318   2.12664
   A13        2.08552  -0.01117  -0.01116  -0.01407  -0.02519   2.06033
   A14        2.10416   0.00153   0.01068  -0.01862  -0.00797   2.09619
   A15        1.83910  -0.00312   0.00105  -0.01946  -0.01841   1.82069
   A16        1.77643   0.00293   0.00596   0.00155   0.00744   1.78386
    D1        2.75635  -0.00110   0.00082  -0.01755  -0.01656   2.73979
    D2       -0.45386  -0.00088   0.00039  -0.00769  -0.00709  -0.46095
    D3        0.65052   0.00105  -0.00235   0.02111   0.01855   0.66906
    D4       -2.55970   0.00127  -0.00278   0.03097   0.02802  -2.53168
    D5       -0.09869   0.00063  -0.00249   0.02415   0.02153  -0.07716
    D6        3.08259   0.00021  -0.00083   0.00897   0.00816   3.09074
    D7        3.10482   0.00038  -0.00200   0.01489   0.01275   3.11757
    D8        0.00291  -0.00005  -0.00033  -0.00029  -0.00062   0.00229
    D9       -3.08581  -0.00007  -0.00029  -0.00717  -0.00752  -3.09333
   D10        0.00069  -0.00005  -0.00086   0.00059  -0.00022   0.00047
   D11        1.51744   0.00151  -0.00336   0.06127   0.05781   1.57525
   D12       -1.66708   0.00164  -0.00545   0.07697   0.07162  -1.59547
   D13       -0.00504   0.00008   0.00134  -0.00023   0.00107  -0.00397
   D14       -3.11074  -0.00004   0.00258  -0.01266  -0.01025  -3.12099
   D15        3.13682   0.00000  -0.00127   0.00311   0.00193   3.13875
   D16        0.00609  -0.00016  -0.00204   0.00063  -0.00141   0.00468
   D17       -3.13574  -0.00005  -0.00025  -0.00171  -0.00197  -3.13771
   D18       -0.00512   0.00004   0.00048   0.00083   0.00133  -0.00379
   D19       -0.00455   0.00017   0.00184  -0.00077   0.00114  -0.00341
   D20       -3.13522  -0.00004   0.00109  -0.00360  -0.00240  -3.13762
         Item               Value     Threshold  Converged?
 Maximum Force            0.014970     0.000450     NO 
 RMS     Force            0.005026     0.000300     NO 
 Maximum Displacement     0.081519     0.001800     NO 
 RMS     Displacement     0.020093     0.001200     NO 
 Predicted change in Energy=-1.565113D-03
 Lowest energy point so far.  Saving SCF results.
 GradGradGradGradGradGradGradGradGradGradGradGradGradGradGradGradGradGrad

 Leave Link  103 at Sat Oct 29 00:06:08 2022, MaxMem=  8053063680 cpu:               0.5 elap:               0.0
 (Enter /public3/home/scg5914/software-scg5914/g16/l202.exe)
                          Input orientation:                          
 ---------------------------------------------------------------------
 Center     Atomic      Atomic             Coordinates (Angstroms)
 Number     Number       Type             X           Y           Z
 ---------------------------------------------------------------------
      1          7           0        0.092460    1.429877   -0.179603
      2          6           0        0.014596    0.003789   -0.089621
      3          6           0       -1.085388   -0.816856   -0.009859
      4          8           0       -2.424726   -0.439818    0.087719
      5          7           0       -0.692664   -2.147726   -0.004540
      6          6           0        0.628078   -2.023535   -0.087574
      7          8           0        1.464826   -3.125004   -0.110942
      8          7           0        1.143894   -0.784354   -0.140568
      9          1           0        1.002404    1.727381    0.154380
     10          1           0       -0.618154    1.857228    0.404642
     11          1           0       -2.783959   -0.361281   -0.802220
     12          1           0        2.349998   -2.750423   -0.170181
 ---------------------------------------------------------------------
                    Distance matrix (angstroms):
                    1          2          3          4          5
     1  N    0.000000
     2  C    1.431044   0.000000
     3  C    2.542429   1.374695   0.000000
     4  O    3.146974   2.485665   1.394813   0.000000
     5  N    3.666921   2.266378   1.387615   2.434234   0.000000
     6  C    3.495913   2.118113   2.097160   3.443617   1.329165
     7  O    4.757630   3.448618   3.441128   4.730571   2.370898
     8  N    2.451500   1.378070   2.233348   3.592475   2.291339
     9  H    1.013929   2.001517   3.295299   4.055419   4.232607
    10  H    1.014368   2.019878   2.746060   2.939484   4.026492
    11  H    3.445241   2.910839   1.928867   0.962916   2.863772
    12  H    4.750945   3.611963   3.945411   5.310687   3.106200
                    6          7          8          9         10
     6  C    0.000000
     7  O    1.383448   0.000000
     8  N    1.343296   2.362736   0.000000
     9  H    3.777305   4.881585   2.532948   0.000000
    10  H    4.105568   5.424691   3.221804   1.644901   0.000000
    11  H    3.862098   5.115486   4.005597   4.428786   3.327013
    12  H    1.870882   0.962990   2.306728   4.687439   5.510971
                   11         12
    11  H    0.000000
    12  H    5.697806   0.000000
 Stoichiometry    C3H4N3O2(1-)
 Framework group  C1[X(C3H4N3O2)]
 Deg. of freedom    30
 Full point group                 C1      NOp   1
 RotChk:  IX=0 Diff= 1.11D-02
 Largest Abelian subgroup         C1      NOp   1
 Largest concise Abelian subgroup C1      NOp   1
                         Standard orientation:                         
 ---------------------------------------------------------------------
 Center     Atomic      Atomic             Coordinates (Angstroms)
 Number     Number       Type             X           Y           Z
 ---------------------------------------------------------------------
      1          7           0        1.767692    1.595876    0.092665
      2          6           0        0.678284    0.671384    0.012730
      3          6           0        0.687713   -0.702757   -0.025140
      4          8           0        1.797257   -1.546285   -0.078784
      5          7           0       -0.610708   -1.192079   -0.037049
      6          6           0       -1.308896   -0.061667    0.000119
      7          8           0       -2.692338   -0.057811    0.000513
      8          7           0       -0.631919    1.098208    0.029069
      9          1           0        1.462228    2.490565   -0.273773
     10          1           0        2.546540    1.269169   -0.469120
     11          1           0        2.061694   -1.758312    0.822506
     12          1           0       -2.927875    0.875540    0.027513
[...]
  30. LP (   1) N   8                / 48. RY*(   1) C   2                    3.72    1.37    0.065
  30. LP (   1) N   8                / 50. RY*(   3) C   2                    0.77    1.36    0.029
  30. LP (   1) N   8                /116. RY*(   1) C   6                    4.45    1.42    0.072
  30. LP (   1) N   8                /117. RY*(   2) C   6                    2.67    2.02    0.067
  30. LP (   1) N   8                /126. RY*(  11) C   6                    0.53    5.68    0.050
  30. LP (   1) N   8                /127. RY*(  12) C   6                    0.84   11.34    0.089
  30. LP (   1) N   8                /129. RY*(  14) C   6                    1.01    2.94    0.049
  30. LP (   1) N   8                /132. RY*(  17) C   6                    0.72    9.15    0.074
  30. LP (   1) N   8                /187. BD*(   1) N   1 - C   2            1.04    0.76    0.025
  30. LP (   1) N   8                /190. BD*(   1) C   2 - C   3            3.29    0.98    0.051
  30. LP (   1) N   8                /193. BD*(   1) C   3 - O   4            0.93    0.68    0.023
  30. LP (   1) N   8                /196. BD*(   1) N   5 - C   6            8.51    0.92    0.080
  30. LP (   1) N   8                /197. BD*(   1) C   6 - O   7            2.63    0.70    0.038
  30. LP (   1) N   8                /200. BD*(   1) O   7 - H  12            0.56    0.77    0.019
 191. BD*(   2) C   2 - C   3        / 53. RY*(   6) C   2                    0.57    1.23    0.051
 191. BD*(   2) C   2 - C   3        / 54. RY*(   7) C   2                    0.64    1.01    0.049
 191. BD*(   2) C   2 - C   3        / 71. RY*(   7) C   3                    1.65    0.78    0.070
 191. BD*(   2) C   2 - C   3        /100. RY*(   2) N   5                    0.77    0.47    0.037
 191. BD*(   2) C   2 - C   3        /188. BD*(   1) N   1 - H   9            1.54    0.35    0.044
 199. BD*(   2) C   6 - N   8        /100. RY*(   2) N   5                    0.81    0.50    0.035
 199. BD*(   2) C   6 - N   8        /119. RY*(   4) C   6                    1.91    1.58    0.095
 199. BD*(   2) C   6 - N   8        /123. RY*(   8) C   6                    0.85    0.56    0.038
 199. BD*(   2) C   6 - N   8        /134. RY*(   2) O   7                    0.82    0.71    0.042
 199. BD*(   2) C   6 - N   8        /151. RY*(   2) N   8                    0.88    0.71    0.043
 199. BD*(   2) C   6 - N   8        /157. RY*(   8) N   8                    0.63    1.01    0.044
 199. BD*(   2) C   6 - N   8        /191. BD*(   2) C   2 - C   3           65.06    0.03    0.057


 Natural Bond Orbitals (Summary):

                                                            Principal Delocalizations
           NBO                        Occupancy    Energy   (geminal,vicinal,remote)
 ====================================================================================
 Molecular unit  1  (C3H4N3O2)
     1. BD (   1) N   1 - C   2          1.99310    -0.59247  190(g),194(v),198(v),67(v)
                                                    192(g)
     2. BD (   1) N   1 - H   9          1.98494    -0.46124  191(v),50(v),190(v)
     3. BD (   1) N   1 - H  10          1.98698    -0.46534  192(v),49(v)
     4. BD (   1) C   2 - C   3          1.98034    -0.52520  187(g),197(r),194(g),193(g)
                                                    192(g),195(v),99(v),150(v)
                                                    188(v)
     5. BD (   2) C   2 - C   3          1.89106    -0.08133  27(v),199(v),188(v),100(v)
                                                    151(v),83(v),31(v)
     6. BD (   1) C   2 - N   8          1.96749    -0.55634  197(v),193(v),116(v),190(g)
                                                    189(v),198(g),187(g)
     7. BD (   1) C   3 - O   4          1.99527    -0.70874  192(v),190(g),196(v)
     8. BD (   1) C   3 - N   5          1.97034    -0.57320  197(v),187(v),190(g),116(v)
                                                    117(v),196(g)
     9. BD (   1) O   4 - H  11          1.98790    -0.57088  190(v),66(v),194(v)
    10. BD (   1) N   5 - C   6          1.97813    -0.62070  193(v),67(v),198(g),200(v)
                                                    66(v),187(r),194(g)
    11. BD (   1) C   6 - O   7          1.99475    -0.71241  192(v),194(v)
    12. BD (   1) C   6 - N   8          1.98333    -0.62200  187(v),49(v),196(g),193(r)
                                                    192(g)
    13. BD (   2) C   6 - N   8          1.89911    -0.11134  27(v),191(v),51(v),199(g)
                                                    100(v),134(v),50(v)
    14. BD (   1) O   7 - H  12          1.98579    -0.56333  196(v),116(v),118(v),121(v)
                                                    198(v)
    15. CR (   1) N   1                  1.99949   -13.97772  53(v),175(v),50(v),170(v)
    16. CR (   1) C   2                  1.99888    -9.89160  193(v),67(v),190(g),198(v)
    17. CR (   1) C   3                  1.99865    -9.91894  49(v),190(g),187(v),193(g)
                                                    101(v),196(v)
    18. CR (   1) O   4                  1.99976   -18.77210  66(v),67(v),177(v)
    19. CR (   1) N   5                  1.99932   -13.90598  116(v),66(v),118(v),197(v)
                                                    65(v),198(v),193(v)
    20. CR (   1) C   6                  1.99914    -9.94967  197(g),192(v),194(v),152(v)
    21. CR (   1) O   7                  1.99976   -18.76414  118(v)
    22. CR (   1) N   8                  1.99934   -13.90423  116(v),48(v),197(v),187(v)
                                                    196(v)
    23. LP (   1) N   1                  1.94277    -0.16736  191(v),190(v),172(v),168(v)
                                                    52(v),192(v)
    24. LP (   1) O   4                  1.98017    -0.46323  194(v),66(v),67(v),177(v)
                                                    179(v)
    25. LP (   2) O   4                  1.92949    -0.15876  191(v),178(v),68(v),69(v)
    26. LP (   1) N   5                  1.92464    -0.19628  198(v),116(v),65(v),190(v)
                                                    193(v),197(v),117(v),66(v)
                                                    102(g),76(v),118(v),126(v)
                                                    187(r)
    27. LP (   2) N   5                  1.41668     0.00970  199(v),191(v),100(g),120(v)
                                                    68(v),119(v),69(v),113(g)
    28. LP (   1) O   7                  1.98024    -0.45971  198(v),118(v),116(v),183(v)
    29. LP (   2) O   7                  1.91515    -0.15336  199(v),182(v),120(v),27(r)
    30. LP (   1) N   8                  1.93152    -0.19206  196(v),116(v),48(v),190(v)
                                                    117(v),197(v),187(v),129(v)
                                                    193(r),127(v),50(v),132(v)
                                                    200(r),126(v)
    31. RY*(   1) N   1                  0.00392     0.73173   
    32. RY*(   2) N   1                  0.00150     1.05935   
    33. RY*(   3) N   1                  0.00068     1.28152   
    34. RY*(   4) N   1                  0.00036     1.04393   
    35. RY*(   5) N   1                  0.00024     1.02590   
    36. RY*(   6) N   1                  0.00015     1.78656   
    37. RY*(   7) N   1                  0.00008     1.36870   
    38. RY*(   8) N   1                  0.00002     2.47429   
    39. RY*(   9) N   1                  0.00003     1.85541   
    40. RY*(  10) N   1                  0.00000    35.46565   
    41. RY*(  11) N   1                  0.00001     1.07676   
    42. RY*(  12) N   1                  0.00000     3.97302   
    43. RY*(  13) N   1                  0.00001     2.61605   
    44. RY*(  14) N   1                  0.00000     3.94140   
    45. RY*(  15) N   1                  0.00000     2.39162   
    46. RY*(  16) N   1                  0.00000     3.86602   
    47. RY*(  17) N   1                  0.00000     2.54786   
    48. RY*(   1) C   2                  0.00688     1.18120   
    49. RY*(   2) C   2                  0.00491     1.44676   
    50. RY*(   3) C   2                  0.00309     1.16621   
    51. RY*(   4) C   2                  0.00190     1.76463   
    52. RY*(   5) C   2                  0.00160     2.00416   
    53. RY*(   6) C   2                  0.00078     1.45371   
    54. RY*(   7) C   2                  0.00071     1.23769   
    55. RY*(   8) C   2                  0.00053     1.72129   
    56. RY*(   9) C   2                  0.00026     2.02139   
    57. RY*(  10) C   2                  0.00009     2.31390   
    58. RY*(  11) C   2                  0.00006     3.62818   
    59. RY*(  12) C   2                  0.00003     1.25654   
    60. RY*(  13) C   2                  0.00003     6.22289   
    61. RY*(  14) C   2                  0.00001     6.29949   
    62. RY*(  15) C   2                  0.00000     2.72829   
    63. RY*(  16) C   2                  0.00001    12.83606   
    64. RY*(  17) C   2                  0.00000     0.65744   
    65. RY*(   1) C   3                  0.01053     1.05534   
    66. RY*(   2) C   3                  0.00601     1.19567   
    67. RY*(   3) C   3                  0.00323     1.68615   
    68. RY*(   4) C   3                  0.00234     1.74748   
    69. RY*(   5) C   3                  0.00200     1.62949   
    70. RY*(   6) C   3                  0.00183     1.51192   
    71. RY*(   7) C   3                  0.00061     1.00617   
    72. RY*(   8) C   3                  0.00050     1.57228   
    73. RY*(   9) C   3                  0.00035     1.87565   
    74. RY*(  10) C   3                  0.00009     1.35925   
    75. RY*(  11) C   3                  0.00007     7.89553   
    76. RY*(  12) C   3                  0.00004     3.77208   
    77. RY*(  13) C   3                  0.00004     2.69015   
    78. RY*(  14) C   3                  0.00001     2.53228   
    79. RY*(  15) C   3                  0.00000     2.91037   
    80. RY*(  16) C   3                  0.00001    12.57560   
    81. RY*(  17) C   3                  0.00001     2.38222   
    82. RY*(   1) O   4                  0.00244     0.76968   
    83. RY*(   2) O   4                  0.00179     0.96237   
    84. RY*(   3) O   4                  0.00042     0.89054   
    85. RY*(   4) O   4                  0.00028     1.76694   
    86. RY*(   5) O   4                  0.00009     1.86063   
    87. RY*(   6) O   4                  0.00006     1.47692   
    88. RY*(   7) O   4                  0.00004     1.42212   
    89. RY*(   8) O   4                  0.00005     1.40575   
    90. RY*(   9) O   4                  0.00000     5.40176   
    91. RY*(  10) O   4                  0.00000    49.86064   
    92. RY*(  11) O   4                  0.00000     5.05591   
    93. RY*(  12) O   4                  0.00000     5.03421   
    94. RY*(  13) O   4                  0.00000     3.43015   
    95. RY*(  14) O   4                  0.00000     2.86813   
    96. RY*(  15) O   4                  0.00001     2.79362   
    97. RY*(  16) O   4                  0.00001     2.71529   
    98. RY*(  17) O   4                  0.00001     3.16574   
    99. RY*(   1) N   5                  0.00336     0.94595   
   100. RY*(   2) N   5                  0.00172     0.69505   
   101. RY*(   3) N   5                  0.00116     1.22304   
   102. RY*(   4) N   5                  0.00055     1.59751   
   103. RY*(   5) N   5                  0.00037     2.29036   
   104. RY*(   6) N   5                  0.00030     1.50301   
   105. RY*(   7) N   5                  0.00017     1.87604   
   106. RY*(   8) N   5                  0.00007     1.47606   
   107. RY*(   9) N   5                  0.00004     3.94692   
   108. RY*(  10) N   5                  0.00003     2.47594   
   109. RY*(  11) N   5                  0.00002     4.21172   
   110. RY*(  12) N   5                  0.00001     1.93757   
   111. RY*(  13) N   5                  0.00000    34.98394   
   112. RY*(  14) N   5                  0.00000     1.52627   
   113. RY*(  15) N   5                  0.00000     1.91988   
   114. RY*(  16) N   5                  0.00000     4.00934   
   115. RY*(  17) N   5                  0.00001     3.11571   
   116. RY*(   1) C   6                  0.01390     1.22397   
   117. RY*(   2) C   6                  0.00775     1.83188   
   118. RY*(   3) C   6                  0.00403     1.41575   
   119. RY*(   4) C   6                  0.00386     1.76894   
   120. RY*(   5) C   6                  0.00288     1.71092   
   121. RY*(   6) C   6                  0.00261     1.79797   
   122. RY*(   7) C   6                  0.00105     1.15708   
   123. RY*(   8) C   6                  0.00093     0.75031   
   124. RY*(   9) C   6                  0.00037     2.30691   
   125. RY*(  10) C   6                  0.00009     1.10882   
   126. RY*(  11) C   6                  0.00006     5.48618   
   127. RY*(  12) C   6                  0.00002    11.15024   
   128. RY*(  13) C   6                  0.00002     0.48262   
   129. RY*(  14) C   6                  0.00000     2.74427   
   130. RY*(  15) C   6                  0.00000     2.87655   
   131. RY*(  16) C   6                  0.00001     1.76205   
   132. RY*(  17) C   6                  0.00000     8.95886   
   133. RY*(   1) O   7                  0.00211     0.80905   
   134. RY*(   2) O   7                  0.00179     0.90158   
   135. RY*(   3) O   7                  0.00059     1.67330   
   136. RY*(   4) O   7                  0.00033     0.99913   
   137. RY*(   5) O   7                  0.00008     2.05728   
   138. RY*(   6) O   7                  0.00004     2.49141   
   139. RY*(   7) O   7                  0.00002     2.34659   
   140. RY*(   8) O   7                  0.00002     2.89989   
   141. RY*(   9) O   7                  0.00000     5.34872   
   142. RY*(  10) O   7                  0.00000    49.90574   
   143. RY*(  11) O   7                  0.00000     1.55630   
   144. RY*(  12) O   7                  0.00000     5.08945   
   145. RY*(  13) O   7                  0.00000     5.07899   
   146. RY*(  14) O   7                  0.00001     1.24959   
   147. RY*(  15) O   7                  0.00001     1.63844   
   148. RY*(  16) O   7                  0.00000     3.56595   
   149. RY*(  17) O   7                  0.00000     3.31888   
   150. RY*(   1) N   8                  0.00430     0.54260   
   151. RY*(   2) N   8                  0.00185     0.90801   
   152. RY*(   3) N   8                  0.00163     1.03428   
   153. RY*(   4) N   8                  0.00077     1.46966   
   154. RY*(   5) N   8                  0.00045     1.72809   
   155. RY*(   6) N   8                  0.00035     1.95737   
   156. RY*(   7) N   8                  0.00018     2.17072   
   157. RY*(   8) N   8                  0.00012     1.20498   
   158. RY*(   9) N   8                  0.00007     1.04009   
   159. RY*(  10) N   8                  0.00006     2.88398   
   160. RY*(  11) N   8                  0.00003     2.59787   
   161. RY*(  12) N   8                  0.00002     4.09272   
   162. RY*(  13) N   8                  0.00002     3.54054   
   163. RY*(  14) N   8                  0.00000    34.52504   
   164. RY*(  15) N   8                  0.00000     2.47059   
   165. RY*(  16) N   8                  0.00000     4.04851   
   166. RY*(  17) N   8                  0.00000     3.63193   
   167. RY*(   1) H   9                  0.00231     0.84033   
   168. RY*(   2) H   9                  0.00115     2.06066   
   169. RY*(   3) H   9                  0.00041     1.72429   
   170. RY*(   4) H   9                  0.00015     2.27875   
   171. RY*(   5) H   9                  0.00003     2.65548   
   172. RY*(   1) H  10                  0.00107     1.90713   
   173. RY*(   2) H  10                  0.00071     1.31426   
   174. RY*(   3) H  10                  0.00033     1.45759   
   175. RY*(   4) H  10                  0.00014     2.37632   
   176. RY*(   5) H  10                  0.00003     2.61725   
   177. RY*(   1) H  11                  0.00197     1.73597   
   178. RY*(   2) H  11                  0.00170     1.66105   
   179. RY*(   3) H  11                  0.00090     1.55259   
   180. RY*(   4) H  11                  0.00034     1.69004   
   181. RY*(   5) H  11                  0.00001     2.69293   
   182. RY*(   1) H  12                  0.00163     1.66425   
   183. RY*(   2) H  12                  0.00130     1.97751   
   184. RY*(   3) H  12                  0.00100     1.00804   
   185. RY*(   4) H  12                  0.00035     2.04079   
   186. RY*(   5) H  12                  0.00000     2.72610   
   187. BD*(   1) N   1 - C   2          0.02685     0.56825   
   188. BD*(   1) N   1 - H   9          0.01642     0.56831   
   189. BD*(   1) N   1 - H  10          0.00412     0.57700   
   190. BD*(   1) C   2 - C   3          0.03533     0.79059   
   191. BD*(   2) C   2 - C   3          0.42355     0.22299  199(v),27(v),71(g),188(v)
                                                    100(v),54(g),53(g)
   192. BD*(   1) C   2 - N   8          0.02089     0.66590   
   193. BD*(   1) C   3 - O   4          0.03983     0.49132   
   194. BD*(   1) C   3 - N   5          0.02041     0.68070   
   195. BD*(   1) O   4 - H  11          0.00851     0.57606   
   196. BD*(   1) N   5 - C   6          0.03271     0.72530   
   197. BD*(   1) C   6 - O   7          0.05185     0.50720   
   198. BD*(   1) C   6 - N   8          0.03212     0.73166   
   199. BD*(   2) C   6 - N   8          0.52987     0.19332  191(v),27(v),119(g),151(g)
                                                    123(g),134(v),100(v),157(g)
   200. BD*(   1) O   7 - H  12          0.00745     0.57339   
       -------------------------------
              Total Lewis   58.61352  ( 97.6892%)
        Valence non-Lewis    1.24992  (  2.0832%)
        Rydberg non-Lewis    0.13656  (  0.2276%)
       -------------------------------
            Total unit  1   60.00000  (100.0000%)
           Charge unit  1   -1.00000
 Leave Link  607 at Sat Oct 29 00:09:21 2022, MaxMem=  8053063680 cpu:              62.0 elap:               2.0
 (Enter /public3/home/scg5914/software-scg5914/g16/l9999.exe)
 Unable to Open any file for archive entry.
 1\1\GINC-E0406\SP\RB3LYP\Gen\C3H4N3O2(1-)\SCG5914\29-Oct-2022\0\\#p b3
 lyp/chkbas pop=nbo geom=allcheck guess=tcheck em=gd3bj\\dsgdb9nsd_0045
 17-4\\-1,1\N,0,0.3257520381,1.4956089472,-0.1036897153\C,0,0.137844472
 ,0.0753569019,-0.1089161871\C,0,-1.0158968439,-0.6636607926,-0.1390069
 913\O,0,-2.3366651278,-0.2114578545,-0.1389441827\N,0,-0.7366059493,-2
 .0073687185,-0.1927247112\C,0,0.5992017595,-1.9948353697,-0.1706278092
 \O,0,1.3336747502,-3.1702936212,-0.1881736512\N,0,1.2087837094,-0.8098
 615368,-0.1282539245\H,0,0.7687276082,1.792303199,0.7638963829\H,0,-0.
 5830604647,1.9449404694,-0.1454662936\H,0,-2.8573090082,-1.0192545794,
 -0.2046104978\H,0,2.2469186242,-2.8621992079,-0.1918498227\\Version=ES
 64L-G16RevC.01\State=1-A\HF=-431.6058501\RMSD=2.590e-09\Dipole=-0.3411
 292,0.6079107,0.4372096\Quadrupole=1.4851024,-5.2412011,3.7560987,-1.0
 408847,1.2028849,2.3505387\PG=C01 [X(C3H4N3O2)]\\@
 The archive entry for this job was punched.


 IT IS NOT EASY TO DESCRIBE
     THE SEA WITH THE MOUTH

                   -- KOKYU
 Job cpu time:       0 days  0 hours  1 minutes 52.0 seconds.
 Elapsed time:       0 days  0 hours  0 minutes  3.8 seconds.
 File lengths (MBytes):  RWF=     21 Int=      0 D2E=      0 Chk=      4 Scr=      1
 Normal termination of Gaussian 16 at Sat Oct 29 00:09:21 2022.
