 Entering Gaussian System, Link 0=/public3/home/scg5914/software-scg5914/g16/g16
 Input=dsgdb9nsd_125334-4.gjf
 Output=dsgdb9nsd_125334-4.log
 Initial command:
 /public3/home/scg5914/software-scg5914/g16/l1.exe "/public3/home/scg5914/software-scg5914/test/tmp/dsgdb9nsd_125334-4/Gau-195553.inp" -scrdir="/public3/home/scg5914/software-scg5914/test/tmp/dsgdb9nsd_125334-4/"
 Entering Link 1 = /public3/home/scg5914/software-scg5914/g16/l1.exe PID=    195556.
  
 Copyright (c) 1988-2019, Gaussian, Inc.  All Rights Reserved.
  
 This is part of the Gaussian(R) 16 program.  It is based on
 the Gaussian(R) 09 system (copyright 2009, Gaussian, Inc.),
 the Gaussian(R) 03 system (copyright 2003, Gaussian, Inc.),
 the Gaussian(R) 98 system (copyright 1998, Gaussian, Inc.),
 the Gaussian(R) 94 system (copyright 1995, Gaussian, Inc.),
 the Gaussian 92(TM) system (copyright 1992, Gaussian, Inc.),
 the Gaussian 90(TM) system (copyright 1990, Gaussian, Inc.),
 the Gaussian 88(TM) system (copyright 1988, Gaussian, Inc.),
 the Gaussian 86(TM) system (copyright 1986, Carnegie Mellon
 University), and the Gaussian 82(TM) system (copyright 1983,
 Carnegie Mellon University). Gaussian is a federally registered
 trademark of Gaussian, Inc.
  
 This software contains proprietary and confidential information,
 including trade secrets, belonging to Gaussian, Inc.
  
 This software is provided under written license and may be
 used, copied, transmitted, or stored only in accord with that
 written license.
  
 The following legend is applicable only to US Government
 contracts under FAR:
  
                    RESTRICTED RIGHTS LEGEND
  
 Use, reproduction and disclosure by the US Government is
 subject to restrictions as set forth in subparagraphs (a)
 and (c) of the Commercial Computer Software - Restricted
 Rights clause in FAR 52.227-19.
  
 Gaussian, Inc.
 340 Quinnipiac St., Bldg. 40, Wallingford CT 06492
  
  
 ---------------------------------------------------------------
 Warning -- This program may not be used in any manner that
 competes with the business of Gaussian, Inc. or will provide
 assistance to any competitor of Gaussian, Inc.  The licensee
 of this program is prohibited from giving any competitor of
 Gaussian, Inc. access to this program.  By using this program,
 the user acknowledges that Gaussian, Inc. is engaged in the
 business of creating and licensing software in the field of
 computational chemistry and represents and warrants to the
 licensee that it is not a competitor of Gaussian, Inc. and that
 it will not use this program in any manner prohibited above.
 ---------------------------------------------------------------
  

 Cite this work as:
 Gaussian 16, Revision C.01,
 M. J. Frisch, G. W. Trucks, H. B. Schlegel, G. E. Scuseria, 
 M. A. Robb, J. R. Cheeseman, G. Scalmani, V. Barone, 
 G. A. Petersson, H. Nakatsuji, X. Li, M. Caricato, A. V. Marenich, 
 J. Bloino, B. G. Janesko, R. Gomperts, B. Mennucci, H. P. Hratchian, 
 J. V. Ortiz, A. F. Izmaylov, J. L. Sonnenberg, D. Williams-Young, 
 F. Ding, F. Lipparini, F. Egidi, J. Goings, B. Peng, A. Petrone, 
 T. Henderson, D. Ranasinghe, V. G. Zakrzewski, J. Gao, N. Rega, 
 G. Zheng, W. Liang, M. Hada, M. Ehara, K. Toyota, R. Fukuda, 
 J. Hasegawa, M. Ishida, T. Nakajima, Y. Honda, O. Kitao, H. Nakai, 
 T. Vreven, K. Throssell, J. A. Montgomery, Jr., J. E. Peralta, 
 F. Ogliaro, M. J. Bearpark, J. J. Heyd, E. N. Brothers, K. N. Kudin, 
 V. N. Staroverov, T. A. Keith, R. Kobayashi, J. Normand, 
 K. Raghavachari, A. P. Rendell, J. C. Burant, S. S. Iyengar, 
 J. Tomasi, M. Cossi, J. M. Millam, M. Klene, C. Adamo, R. Cammi, 
 J. W. Ochterski, R. L. Martin, K. Morokuma, O. Farkas, 
 J. B. Foresman, and D. J. Fox, Gaussian, Inc., Wallingford CT, 2019.
 
 ******************************************
 Gaussian 16:  ES64L-G16RevC.01  3-Jul-2019
                 1-Mar-2023 
 ******************************************
 %chk=dsgdb9nsd_125334-4.chk
 %mem=60GB
 %nprocshared=32
 Will use up to   32 processors via shared memory.
 ------------------------------------
 #p opt freq b3lyp/6-311+g** em=gd3bj
 ------------------------------------
 1/18=20,19=15,26=3,38=1/1,3;
 2/9=110,12=2,17=6,18=5,40=1/2;
 3/5=4,6=6,7=111,11=2,25=1,30=1,71=1,74=-5,124=41/1,2,3;
 4//1;
 5/5=2,38=5/2;
 6/7=2,8=2,9=2,10=2,28=1/1;
 7//1,2,3,16;
 1/18=20,19=15,26=3/3(2);
 2/9=110/2;
 99//99;
 2/9=110/2;
 3/5=4,6=6,7=111,11=2,25=1,30=1,71=1,74=-5,124=41/1,2,3;
 4/5=5,16=3,69=1/1;
 5/5=2,38=5/2;
 7//1,2,3,16;
 1/18=20,19=15,26=3/3(-5);
 2/9=110/2;
 6/7=2,8=2,9=2,10=2,19=2,28=1/1;
 99/9=1/99;
 Leave Link    1 at Wed Mar  1 00:41:46 2023, MaxMem=  8053063680 cpu:               1.4 elap:               0.1
 (Enter /public3/home/scg5914/software-scg5914/g16/l101.exe)
 ----------------------
 dsgdb9nsd_125334-4.gjf
 ----------------------
 Symbolic Z-matrix:
 Charge =  0 Multiplicity = 2
 C                    -3.06198   0.00318   0.08806 
 C                    -1.59278   0.16006  -0.18703 
 C                    -0.74636   1.20462  -0.49509 
 N                     0.54337   0.72583   0.64915 
 N                     1.84844   1.11011  -0.05518 
 C                     2.45275  -0.0777   -0.19781 
 N                     1.64545  -1.18775  -0.14312 
 C                     0.46274  -0.63097   0.42908 
 O                    -0.81881  -1.03055  -0.13208 
 H                    -3.23238  -0.57656   1.01755 
 H                    -3.53063   0.98756   0.18702 
 H                    -3.56247  -0.51066  -0.75333 
 H                     3.52885  -0.14844  -0.35185 
 
 ITRead=  0  0  0  0  0  0  0  0  0  0  0  0  0
 MicOpt= -1 -1 -1 -1 -1 -1 -1 -1 -1 -1 -1 -1 -1
 NAtoms=     13 NQM=       13 NQMF=       0 NMMI=      0 NMMIF=      0
                NMic=       0 NMicF=      0.
                    Isotopes and Nuclear Properties:
 (Nuclear quadrupole moments (NQMom) in fm**2, nuclear magnetic moments (NMagM)
  in nuclear magnetons)

  Atom         1           2           3           4           5           6           7           8           9          10
 IAtWgt=          12          12          12          14          14          12          14          12          16           1
 AtmWgt=  12.0000000  12.0000000  12.0000000  14.0030740  14.0030740  12.0000000  14.0030740  12.0000000  15.9949146   1.0078250
 NucSpn=           0           0           0           2           2           0           2           0           0           1
 AtZEff=  -0.0000000  -0.0000000  -0.0000000  -0.0000000  -0.0000000  -0.0000000  -0.0000000  -0.0000000  -0.0000000  -0.0000000
 NQMom=    0.0000000   0.0000000   0.0000000   2.0440000   2.0440000   0.0000000   2.0440000   0.0000000   0.0000000   0.0000000
 NMagM=    0.0000000   0.0000000   0.0000000   0.4037610   0.4037610   0.0000000   0.4037610   0.0000000   0.0000000   2.7928460
 AtZNuc=   6.0000000   6.0000000   6.0000000   7.0000000   7.0000000   6.0000000   7.0000000   6.0000000   8.0000000   1.0000000

  Atom        11          12          13
 IAtWgt=           1           1           1
 AtmWgt=   1.0078250   1.0078250   1.0078250
 NucSpn=           1           1           1
 AtZEff=  -0.0000000  -0.0000000  -0.0000000
 NQMom=    0.0000000   0.0000000   0.0000000
 NMagM=    2.7928460   2.7928460   2.7928460
 AtZNuc=   1.0000000   1.0000000   1.0000000
 Leave Link  101 at Wed Mar  1 00:41:46 2023, MaxMem=  8053063680 cpu:               4.3 elap:               0.2
 (Enter /public3/home/scg5914/software-scg5914/g16/l103.exe)

 GradGradGradGradGradGradGradGradGradGradGradGradGradGradGradGradGradGrad
 Berny optimization.
 Initialization pass.
                           ----------------------------
                           !    Initial Parameters    !
                           ! (Angstroms and Degrees)  !
 --------------------------                            --------------------------
 ! Name  Definition              Value          Derivative Info.                !
 --------------------------------------------------------------------------------
 ! R1    R(1,2)                  1.5029         estimate D2E/DX2                !
 ! R2    R(1,10)                 1.1086         estimate D2E/DX2                !
 ! R3    R(1,11)                 1.0947         estimate D2E/DX2                !
 ! R4    R(1,12)                 1.1056         estimate D2E/DX2                !
 ! R5    R(2,3)                  1.3793         estimate D2E/DX2                !
 ! R6    R(2,9)                  1.4211         estimate D2E/DX2                !
 ! R7    R(4,5)                  1.532          estimate D2E/DX2                !
 ! R8    R(4,8)                  1.3769         estimate D2E/DX2                !
 ! R9    R(5,6)                  1.3403         estimate D2E/DX2                !
 ! R10   R(6,7)                  1.3737         estimate D2E/DX2                !
 ! R11   R(6,13)                 1.0894         estimate D2E/DX2                !
 ! R12   R(7,8)                  1.427          estimate D2E/DX2                !
 ! R13   R(8,9)                  1.455          estimate D2E/DX2                !
 ! A1    A(2,1,10)             110.9949         estimate D2E/DX2                !
 ! A2    A(2,1,11)             109.9481         estimate D2E/DX2                !
 ! A3    A(2,1,12)             110.5932         estimate D2E/DX2                !
 ! A4    A(10,1,11)            109.1855         estimate D2E/DX2                !
 ! A5    A(10,1,12)            108.9911         estimate D2E/DX2                !
 ! A6    A(11,1,12)            107.032          estimate D2E/DX2                !
 ! A7    A(1,2,3)              136.0395         estimate D2E/DX2                !
 ! A8    A(1,2,9)              115.9673         estimate D2E/DX2                !
 ! A9    A(3,2,9)              107.9932         estimate D2E/DX2                !
 ! A10   A(5,4,8)              102.9198         estimate D2E/DX2                !
 ! A11   A(4,5,6)              102.1644         estimate D2E/DX2                !
 ! A12   A(5,6,7)              116.5475         estimate D2E/DX2                !
 ! A13   A(5,6,13)             121.1969         estimate D2E/DX2                !
 ! A14   A(7,6,13)             122.2553         estimate D2E/DX2                !
 ! A15   A(6,7,8)              100.8222         estimate D2E/DX2                !
 ! A16   A(4,8,7)              113.5808         estimate D2E/DX2                !
 ! A17   A(4,8,9)              112.5725         estimate D2E/DX2                !
 ! A18   A(7,8,9)              117.9194         estimate D2E/DX2                !
 ! A19   A(2,9,8)              105.339          estimate D2E/DX2                !
 ! D1    D(10,1,2,3)          -130.3604         estimate D2E/DX2                !
 ! D2    D(10,1,2,9)            49.6274         estimate D2E/DX2                !
 ! D3    D(11,1,2,3)            -9.4467         estimate D2E/DX2                !
 ! D4    D(11,1,2,9)           170.5412         estimate D2E/DX2                !
 ! D5    D(12,1,2,3)           108.5385         estimate D2E/DX2                !
 ! D6    D(12,1,2,9)           -71.4736         estimate D2E/DX2                !
 ! D7    D(1,2,9,8)           -144.2084         estimate D2E/DX2                !
 ! D8    D(3,2,9,8)             35.7827         estimate D2E/DX2                !
 ! D9    D(8,4,5,6)            -17.033          estimate D2E/DX2                !
 ! D10   D(5,4,8,7)              9.123          estimate D2E/DX2                !
 ! D11   D(5,4,8,9)           -128.1607         estimate D2E/DX2                !
 ! D12   D(4,5,6,7)             21.1014         estimate D2E/DX2                !
 ! D13   D(4,5,6,13)          -159.0828         estimate D2E/DX2                !
 ! D14   D(5,6,7,8)            -15.6501         estimate D2E/DX2                !
 ! D15   D(13,6,7,8)           164.5362         estimate D2E/DX2                !
 ! D16   D(6,7,8,4)              2.2992         estimate D2E/DX2                !
 ! D17   D(6,7,8,9)            137.1525         estimate D2E/DX2                !
 ! D18   D(4,8,9,2)             -3.2905         estimate D2E/DX2                !
 ! D19   D(7,8,9,2)           -138.5724         estimate D2E/DX2                !
 --------------------------------------------------------------------------------
 Trust Radius=3.00D-01 FncErr=1.00D-07 GrdErr=1.00D-06 EigMax=2.50D+02 EigMin=1.00D-04
 Number of steps in this run=     61 maximum allowed number of steps=    100.
 GradGradGradGradGradGradGradGradGradGradGradGradGradGradGradGradGradGrad

 Leave Link  103 at Wed Mar  1 00:41:46 2023, MaxMem=  8053063680 cpu:               1.1 elap:               0.1
 (Enter /public3/home/scg5914/software-scg5914/g16/l202.exe)
                          Input orientation:                          
 ---------------------------------------------------------------------
 Center     Atomic      Atomic             Coordinates (Angstroms)
 Number     Number       Type             X           Y           Z
 ---------------------------------------------------------------------
      1          6           0       -3.061981    0.003180    0.088055
      2          6           0       -1.592775    0.160061   -0.187033
      3          6           0       -0.746355    1.204620   -0.495086
      4          7           0        0.543371    0.725830    0.649154
      5          7           0        1.848443    1.110114   -0.055175
      6          6           0        2.452752   -0.077697   -0.197812
      7          7           0        1.645452   -1.187751   -0.143120
      8          6           0        0.462735   -0.630971    0.429081
      9          8           0       -0.818812   -1.030551   -0.132079
     10          1           0       -3.232375   -0.576557    1.017546
     11          1           0       -3.530626    0.987557    0.187018
     12          1           0       -3.562473   -0.510661   -0.753334
     13          1           0        3.528852   -0.148441   -0.351845
 ---------------------------------------------------------------------
                    Distance matrix (angstroms):
                    1          2          3          4          5
     1  C    0.000000
     2  C    1.502948   0.000000
     3  C    2.673132   1.379285   0.000000
     4  N    3.719626   2.362715   1.789390   0.000000
     5  N    5.035681   3.572390   2.633520   1.531981   0.000000
     6  C    5.522729   4.052522   3.459334   2.238022   1.340310
     7  N    4.861243   3.507797   3.401185   2.346076   2.308489
     8  C    3.597509   2.287018   2.384403   1.376896   2.277294
     9  O    2.479691   1.421125   2.265615   2.356001   3.420908
    10  H    1.108640   2.163771   3.411883   4.011008   5.459881
    11  H    1.094724   2.140077   2.874813   4.108470   5.385913
    12  H    1.105649   2.156450   3.307477   4.511523   5.691428
    13  H    6.607237   5.133556   4.486501   3.267942   2.120318
                    6          7          8          9         10
     6  C    0.000000
     7  N    1.373661   0.000000
     8  C    2.158535   1.426968   0.000000
     9  O    3.408135   2.469298   1.454966   0.000000
    10  H    5.834949   5.051129   3.742070   2.711648   0.000000
    11  H    6.089636   5.624299   4.315688   3.395367   1.795879
    12  H    6.056319   5.287088   4.197008   2.860755   1.802588
    13  H    1.089368   2.161233   3.200587   4.441689   6.911780
                   11         12         13
    11  H    0.000000
    12  H    1.769162   0.000000
    13  H    7.170571   7.111912   0.000000
 Stoichiometry    C5H4N3O(2)
 Framework group  C1[X(C5H4N3O)]
 Deg. of freedom    33
 Full point group                 C1      NOp   1
 Largest Abelian subgroup         C1      NOp   1
 Largest concise Abelian subgroup C1      NOp   1
                         Standard orientation:                         
 ---------------------------------------------------------------------
 Center     Atomic      Atomic             Coordinates (Angstroms)
 Number     Number       Type             X           Y           Z
 ---------------------------------------------------------------------
      1          6           0       -3.062329    0.002767    0.074581
      2          6           0       -1.591967    0.160537   -0.193736
      3          6           0       -0.744299    1.206048   -0.495056
      4          7           0        0.540538    0.723929    0.653280
      5          7           0        1.848595    1.110366   -0.044302
      6          6           0        2.453584   -0.076987   -0.187869
      7          7           0        1.646126   -1.187238   -0.139934
      8          6           0        0.460931   -0.632217    0.428839
      9          8           0       -0.818172   -1.030194   -0.138996
     10          1           0       -3.236672   -0.579733    1.001609
     11          1           0       -3.531456    0.986823    0.174453
     12          1           0       -3.559176   -0.508600   -0.770467
     13          1           0        3.530339   -0.147220   -0.337494
 ---------------------------------------------------------------------
 Rotational constants (GHZ):           5.0555488           1.3042342           1.1019431
 Leave Link  202 at Wed Mar  1 00:41:46 2023, MaxMem=  8053063680 cpu:               0.7 elap:               0.0
 (Enter /public3/home/scg5914/software-scg5914/g16/l301.exe)
 Standard basis: 6-311+G(d,p) (5D, 7F)
 Ernie: Thresh=  0.10000D-02 Tol=  0.10000D-05 Strict=F.
 There are   231 symmetry adapted cartesian basis functions of A   symmetry.
 There are   222 symmetry adapted basis functions of A   symmetry.
   222 basis functions,   356 primitive gaussians,   231 cartesian basis functions
    32 alpha electrons       31 beta electrons
       nuclear repulsion energy       406.2928444634 Hartrees.
 IExCor=  402 DFT=T Ex+Corr=B3LYP ExCW=0 ScaHFX=  0.200000
 ScaDFX=  0.800000  0.720000  1.000000  0.810000 ScalE2=  1.000000  1.000000
 IRadAn=      5 IRanWt=     -1 IRanGd=            0 ICorTp=0 IEmpDi=141
 NAtoms=   13 NActive=   13 NUniq=   13 SFac= 1.00D+00 NAtFMM=   60 NAOKFM=F Big=F
 Integral buffers will be    131072 words long.
 Raffenetti 2 integral format.
 Two-electron integral symmetry is turned on.
 R6Disp:  Grimme-D3(BJ) Dispersion energy=       -0.0213443913 Hartrees.
 Nuclear repulsion after empirical dispersion term =      406.2715000721 Hartrees.
 Leave Link  301 at Wed Mar  1 00:41:47 2023, MaxMem=  8053063680 cpu:               1.8 elap:               0.1
 (Enter /public3/home/scg5914/software-scg5914/g16/l302.exe)
 NPDir=0 NMtPBC=     1 NCelOv=     1 NCel=       1 NClECP=     1 NCelD=      1
         NCelK=      1 NCelE2=     1 NClLst=     1 CellRange=     0.0.
 One-electron integrals computed using PRISM.
 One-electron integral symmetry used in STVInt
 NBasis=   222 RedAO= T EigKep=  1.85D-05  NBF=   222
 NBsUse=   222 1.00D-06 EigRej= -1.00D+00 NBFU=   222
 Precomputing XC quadrature grid using
 IXCGrd= 4 IRadAn=           5 IRanWt=          -1 IRanGd=           0 AccXCQ= 0.00D+00.
 Generated NRdTot=       0 NPtTot=           0 NUsed=           0 NTot=          32
 NSgBfM=   231   231   231   231   231 MxSgAt=    13 MxSgA2=    13.
 Leave Link  302 at Wed Mar  1 00:41:47 2023, MaxMem=  8053063680 cpu:               4.9 elap:               0.2
 (Enter /public3/home/scg5914/software-scg5914/g16/l303.exe)
 DipDrv:  MaxL=1.
 Leave Link  303 at Wed Mar  1 00:41:47 2023, MaxMem=  8053063680 cpu:               2.4 elap:               0.1
 (Enter /public3/home/scg5914/software-scg5914/g16/l401.exe)
 ExpMin= 4.38D-02 ExpMax= 8.59D+03 ExpMxC= 1.30D+03 IAcc=3 IRadAn=         5 AccDes= 0.00D+00
 Harris functional with IExCor=  402 and IRadAn=       5 diagonalized for initial guess.
 HarFok:  IExCor=  402 AccDes= 0.00D+00 IRadAn=         5 IDoV= 1 UseB2=F ITyADJ=14
 ICtDFT=  3500011 ScaDFX=  1.000000  1.000000  1.000000  1.000000
 FoFCou: FMM=F IPFlag=           0 FMFlag=      100000 FMFlg1=           0
         NFxFlg=           0 DoJE=T BraDBF=F KetDBF=T FulRan=T
         wScrn=  0.000000 ICntrl=       500 IOpCl=  0 I1Cent=   200000004 NGrid=           0
         NMat0=    1 NMatS0=      1 NMatT0=    0 NMatD0=    1 NMtDS0=    0 NMtDT0=    0
 Petite list used in FoFCou.
 Harris En= -432.228970047828    
 JPrj=0 DoOrth=F DoCkMO=F.
 Initial guess <Sx>= 0.0000 <Sy>= 0.0000 <Sz>= 0.5000 <S**2>= 0.7500 S= 0.5000
 Leave Link  401 at Wed Mar  1 00:41:47 2023, MaxMem=  8053063680 cpu:              13.4 elap:               0.4
 (Enter /public3/home/scg5914/software-scg5914/g16/l502.exe)
 Integral symmetry usage will be decided dynamically.
 UHF open shell SCF:
 Using DIIS extrapolation, IDIIS=  1040.
 NGot=  8053063680 LenX=  8052947020 LenY=  8052893218
 Requested convergence on RMS density matrix=1.00D-08 within 128 cycles.
 Requested convergence on MAX density matrix=1.00D-06.
 Requested convergence on             energy=1.00D-06.
 No special actions if energy rises.
 Fock matrices will be formed incrementally for  20 cycles.

 Cycle   1  Pass 1  IDiag  1:
 FoFJK:  IHMeth= 1 ICntrl=       0 DoSepK=F KAlg= 0 I1Cent=           0 FoldK=F
 IRaf= 930000000 NMat=       1 IRICut=       1 DoRegI=T DoRafI=F ISym2E= 0 IDoP0=0 IntGTp=1.
 FoFCou: FMM=F IPFlag=           0 FMFlag=      100000 FMFlg1=           0
         NFxFlg=           0 DoJE=F BraDBF=F KetDBF=F FulRan=T
         wScrn=  0.000000 ICntrl=         0 IOpCl=  1 I1Cent=           0 NGrid=           0
         NMat0=    1 NMatS0=      1 NMatT0=    0 NMatD0=    1 NMtDS0=    0 NMtDT0=    0
 Symmetry not used in FoFCou.
 E= -432.094693694102    
 DIIS: error= 2.32D-02 at cycle   1 NSaved=   1.
 NSaved= 1 IEnMin= 1 EnMin= -432.094693694102     IErMin= 1 ErrMin= 2.32D-02
 ErrMax= 2.32D-02  0.00D+00 EMaxC= 1.00D-01 BMatC= 8.28D-01 BMatP= 8.28D-01
 IDIUse=3 WtCom= 7.68D-01 WtEn= 2.32D-01
 Coeff-Com:  0.100D+01
 Coeff-En:   0.100D+01
 Coeff:      0.100D+01
 Gap=     0.110 Goal=   None    Shift=    0.000
 Gap=     0.064 Goal=   None    Shift=    0.000
 GapD=    0.064 DampG=0.500 DampE=0.500 DampFc=0.2500 IDamp=-1.
 Damping current iteration by 2.50D-01
 RMSDP=1.00D-02 MaxDP=5.78D-01              OVMax= 3.87D-01

 Cycle   2  Pass 1  IDiag  1:
 RMSU=  2.40D-03    CP:  1.04D+00
 E= -432.147411546328     Delta-E=       -0.052717852227 Rises=F Damp=T
 DIIS: error= 9.03D-03 at cycle   2 NSaved=   2.
 NSaved= 2 IEnMin= 2 EnMin= -432.147411546328     IErMin= 2 ErrMin= 9.03D-03
 ErrMax= 9.03D-03  0.00D+00 EMaxC= 1.00D-01 BMatC= 1.71D-01 BMatP= 8.28D-01
 IDIUse=3 WtCom= 9.10D-01 WtEn= 9.03D-02
 Coeff-Com: -0.310D+00 0.131D+01
 Coeff-En:   0.985D-01 0.901D+00
 Coeff:     -0.273D+00 0.127D+01
 Gap=     0.160 Goal=   None    Shift=    0.000
 Gap=     0.151 Goal=   None    Shift=    0.000
 RMSDP=2.32D-03 MaxDP=8.39D-02 DE=-5.27D-02 OVMax= 4.19D-01

 Cycle   3  Pass 1  IDiag  1:
 RMSU=  2.21D-03    CP:  1.06D+00  1.26D+00
 E= -432.220811882943     Delta-E=       -0.073400336614 Rises=F Damp=F
 DIIS: error= 1.16D-02 at cycle   3 NSaved=   3.
 NSaved= 3 IEnMin= 3 EnMin= -432.220811882943     IErMin= 2 ErrMin= 9.03D-03
 ErrMax= 1.16D-02  0.00D+00 EMaxC= 1.00D-01 BMatC= 1.99D-01 BMatP= 1.71D-01
 IDIUse=2 WtCom= 0.00D+00 WtEn= 1.00D+00
 Coeff-En:   0.000D+00 0.000D+00 0.100D+01
 Coeff:      0.000D+00 0.000D+00 0.100D+01
 Gap=     0.148 Goal=   None    Shift=    0.000
 Gap=     0.051 Goal=   None    Shift=    0.000
 RMSDP=4.62D-03 MaxDP=1.54D-01 DE=-7.34D-02 OVMax= 3.08D-01

 Cycle   4  Pass 1  IDiag  1:
 RMSU=  1.57D-03    CP:  1.13D+00  2.61D+00 -2.06D-01
 E= -431.900890281406     Delta-E=        0.319921601537 Rises=F Damp=F
 DIIS: error= 3.78D-02 at cycle   4 NSaved=   4.
 NSaved= 4 IEnMin= 3 EnMin= -432.220811882943     IErMin= 2 ErrMin= 9.03D-03
 ErrMax= 3.78D-02  0.00D+00 EMaxC= 1.00D-01 BMatC= 1.53D+00 BMatP= 1.71D-01
 IDIUse=2 WtCom= 0.00D+00 WtEn= 1.00D+00
 Coeff-En:   0.000D+00 0.000D+00 0.827D+00 0.173D+00
 Coeff:      0.000D+00 0.000D+00 0.827D+00 0.173D+00
 Gap=     0.138 Goal=   None    Shift=    0.000
 Gap=     0.084 Goal=   None    Shift=    0.000
 RMSDP=2.62D-03 MaxDP=1.13D-01 DE= 3.20D-01 OVMax= 2.42D-01

 Cycle   5  Pass 1  IDiag  1:
 RMSU=  5.03D-04    CP:  1.09D+00  1.72D+00  3.30D-01  6.63D-01
 E= -432.238460048845     Delta-E=       -0.337569767440 Rises=F Damp=F
 DIIS: error= 9.69D-03 at cycle   5 NSaved=   5.
 NSaved= 5 IEnMin= 5 EnMin= -432.238460048845     IErMin= 2 ErrMin= 9.03D-03
 ErrMax= 9.69D-03  0.00D+00 EMaxC= 1.00D-01 BMatC= 1.32D-01 BMatP= 1.71D-01
 IDIUse=3 WtCom= 9.03D-01 WtEn= 9.69D-02
 Coeff-Com: -0.469D-01 0.101D+00 0.373D+00-0.779D-01 0.651D+00
 Coeff-En:   0.000D+00 0.000D+00 0.417D+00 0.000D+00 0.583D+00
 Coeff:     -0.423D-01 0.908D-01 0.377D+00-0.703D-01 0.644D+00
 Gap=     0.142 Goal=   None    Shift=    0.000
 Gap=     0.099 Goal=   None    Shift=    0.000
 RMSDP=1.05D-03 MaxDP=4.47D-02 DE=-3.38D-01 OVMax= 7.48D-02

 Cycle   6  Pass 1  IDiag  1:
 RMSU=  2.54D-04    CP:  1.07D+00  1.42D+00  5.81D-01  4.60D-01  7.94D-01
 E= -432.268628534803     Delta-E=       -0.030168485957 Rises=F Damp=F
 DIIS: error= 1.13D-03 at cycle   6 NSaved=   6.
 NSaved= 6 IEnMin= 6 EnMin= -432.268628534803     IErMin= 6 ErrMin= 1.13D-03
 ErrMax= 1.13D-03  0.00D+00 EMaxC= 1.00D-01 BMatC= 1.70D-03 BMatP= 1.32D-01
 IDIUse=3 WtCom= 9.89D-01 WtEn= 1.13D-02
 Coeff-Com: -0.334D-01 0.589D-01 0.199D+00-0.656D-01 0.425D+00 0.416D+00
 Coeff-En:   0.000D+00 0.000D+00 0.000D+00 0.000D+00 0.000D+00 0.100D+01
 Coeff:     -0.330D-01 0.582D-01 0.197D+00-0.648D-01 0.420D+00 0.423D+00
 Gap=     0.144 Goal=   None    Shift=    0.000
 Gap=     0.103 Goal=   None    Shift=    0.000
 RMSDP=1.50D-04 MaxDP=5.57D-03 DE=-3.02D-02 OVMax= 1.22D-02

 Cycle   7  Pass 1  IDiag  1:
 RMSU=  1.12D-04    CP:  1.07D+00  1.43D+00  5.78D-01  4.53D-01  9.23D-01
                    CP:  7.36D-01
 E= -432.269038918279     Delta-E=       -0.000410383477 Rises=F Damp=F
 DIIS: error= 4.11D-04 at cycle   7 NSaved=   7.
 NSaved= 7 IEnMin= 7 EnMin= -432.269038918279     IErMin= 7 ErrMin= 4.11D-04
 ErrMax= 4.11D-04  0.00D+00 EMaxC= 1.00D-01 BMatC= 2.20D-04 BMatP= 1.70D-03
 IDIUse=3 WtCom= 9.96D-01 WtEn= 4.11D-03
 Coeff-Com:  0.332D-02-0.904D-02 0.186D-01-0.837D-02 0.527D-01 0.250D+00
 Coeff-Com:  0.693D+00
 Coeff-En:   0.000D+00 0.000D+00 0.000D+00 0.000D+00 0.000D+00 0.604D-01
 Coeff-En:   0.940D+00
 Coeff:      0.330D-02-0.900D-02 0.186D-01-0.834D-02 0.525D-01 0.249D+00
 Coeff:      0.694D+00
 Gap=     0.144 Goal=   None    Shift=    0.000
 Gap=     0.103 Goal=   None    Shift=    0.000
 RMSDP=8.40D-05 MaxDP=5.04D-03 DE=-4.10D-04 OVMax= 9.29D-03

 Cycle   8  Pass 1  IDiag  1:
 RMSU=  5.56D-05    CP:  1.07D+00  1.42D+00  5.85D-01  4.62D-01  9.21D-01
                    CP:  9.13D-01  1.12D+00
 E= -432.269127289096     Delta-E=       -0.000088370816 Rises=F Damp=F
 DIIS: error= 1.49D-04 at cycle   8 NSaved=   8.
 NSaved= 8 IEnMin= 8 EnMin= -432.269127289096     IErMin= 8 ErrMin= 1.49D-04
 ErrMax= 1.49D-04  0.00D+00 EMaxC= 1.00D-01 BMatC= 4.26D-05 BMatP= 2.20D-04
 IDIUse=3 WtCom= 9.99D-01 WtEn= 1.49D-03
 Coeff-Com:  0.542D-02-0.115D-01-0.224D-01 0.438D-02-0.376D-01 0.703D-01
 Coeff-Com:  0.373D+00 0.618D+00
 Coeff-En:   0.000D+00 0.000D+00 0.000D+00 0.000D+00 0.000D+00 0.000D+00
 Coeff-En:   0.000D+00 0.100D+01
 Coeff:      0.542D-02-0.114D-01-0.224D-01 0.437D-02-0.376D-01 0.702D-01
 Coeff:      0.373D+00 0.619D+00
 Gap=     0.143 Goal=   None    Shift=    0.000
 Gap=     0.103 Goal=   None    Shift=    0.000
 RMSDP=6.51D-05 MaxDP=4.91D-03 DE=-8.84D-05 OVMax= 3.56D-03

 Cycle   9  Pass 1  IDiag  1:
 RMSU=  3.86D-05    CP:  1.07D+00  1.41D+00  5.80D-01  4.76D-01  9.49D-01
                    CP:  1.03D+00  1.33D+00  1.13D+00
 E= -432.269151299146     Delta-E=       -0.000024010051 Rises=F Damp=F
 DIIS: error= 1.13D-04 at cycle   9 NSaved=   9.
 NSaved= 9 IEnMin= 9 EnMin= -432.269151299146     IErMin= 9 ErrMin= 1.13D-04
 ErrMax= 1.13D-04  0.00D+00 EMaxC= 1.00D-01 BMatC= 1.66D-05 BMatP= 4.26D-05
 IDIUse=3 WtCom= 9.99D-01 WtEn= 1.13D-03
 Coeff-Com:  0.325D-02-0.478D-02-0.292D-01 0.959D-02-0.628D-01-0.793D-01
 Coeff-Com: -0.836D-01 0.440D+00 0.807D+00
 Coeff-En:   0.000D+00 0.000D+00 0.000D+00 0.000D+00 0.000D+00 0.000D+00
 Coeff-En:   0.000D+00 0.000D+00 0.100D+01
 Coeff:      0.324D-02-0.477D-02-0.292D-01 0.958D-02-0.627D-01-0.793D-01
 Coeff:     -0.835D-01 0.440D+00 0.807D+00
 Gap=     0.143 Goal=   None    Shift=    0.000
 Gap=     0.104 Goal=   None    Shift=    0.000
 RMSDP=4.90D-05 MaxDP=3.13D-03 DE=-2.40D-05 OVMax= 6.40D-03

 Cycle  10  Pass 1  IDiag  1:
 RMSU=  1.81D-05    CP:  1.07D+00  1.41D+00  5.78D-01  4.82D-01  9.69D-01
                    CP:  1.12D+00  1.57D+00  1.57D+00  1.11D+00
 E= -432.269166205003     Delta-E=       -0.000014905856 Rises=F Damp=F
 DIIS: error= 6.56D-05 at cycle  10 NSaved=  10.
 NSaved=10 IEnMin=10 EnMin= -432.269166205003     IErMin=10 ErrMin= 6.56D-05
 ErrMax= 6.56D-05  0.00D+00 EMaxC= 1.00D-01 BMatC= 5.65D-06 BMatP= 1.66D-05
 IDIUse=1 WtCom= 1.00D+00 WtEn= 0.00D+00
 Coeff-Com: -0.412D-03 0.133D-02-0.125D-01 0.353D-02-0.255D-01-0.601D-01
 Coeff-Com: -0.130D+00 0.106D+00 0.497D+00 0.621D+00
 Coeff:     -0.412D-03 0.133D-02-0.125D-01 0.353D-02-0.255D-01-0.601D-01
 Coeff:     -0.130D+00 0.106D+00 0.497D+00 0.621D+00
 Gap=     0.143 Goal=   None    Shift=    0.000
 Gap=     0.104 Goal=   None    Shift=    0.000
 RMSDP=2.50D-05 MaxDP=1.98D-03 DE=-1.49D-05 OVMax= 1.75D-03

 Cycle  11  Pass 1  IDiag  1:
 RMSU=  7.98D-06    CP:  1.07D+00  1.40D+00  5.77D-01  4.84D-01  9.77D-01
                    CP:  1.16D+00  1.67D+00  1.72D+00  1.34D+00  1.02D+00
 E= -432.269168993926     Delta-E=       -0.000002788923 Rises=F Damp=F
 DIIS: error= 2.83D-05 at cycle  11 NSaved=  11.
 NSaved=11 IEnMin=11 EnMin= -432.269168993926     IErMin=11 ErrMin= 2.83D-05
 ErrMax= 2.83D-05  0.00D+00 EMaxC= 1.00D-01 BMatC= 1.11D-06 BMatP= 5.65D-06
 IDIUse=1 WtCom= 1.00D+00 WtEn= 0.00D+00
 Coeff-Com: -0.621D-03 0.116D-02 0.190D-02-0.364D-03 0.440D-02-0.934D-02
 Coeff-Com: -0.457D-01-0.903D-01 0.451D-01 0.353D+00 0.741D+00
 Coeff:     -0.621D-03 0.116D-02 0.190D-02-0.364D-03 0.440D-02-0.934D-02
 Coeff:     -0.457D-01-0.903D-01 0.451D-01 0.353D+00 0.741D+00
 Gap=     0.143 Goal=   None    Shift=    0.000
 Gap=     0.104 Goal=   None    Shift=    0.000
 RMSDP=1.07D-05 MaxDP=7.76D-04 DE=-2.79D-06 OVMax= 9.53D-04

 Cycle  12  Pass 1  IDiag  1:
 RMSU=  4.07D-06    CP:  1.07D+00  1.40D+00  5.76D-01  4.86D-01  9.81D-01
                    CP:  1.18D+00  1.71D+00  1.81D+00  1.44D+00  1.18D+00
                    CP:  1.15D+00
 E= -432.269169695280     Delta-E=       -0.000000701354 Rises=F Damp=F
 DIIS: error= 1.19D-05 at cycle  12 NSaved=  12.
 NSaved=12 IEnMin=12 EnMin= -432.269169695280     IErMin=12 ErrMin= 1.19D-05
 ErrMax= 1.19D-05  0.00D+00 EMaxC= 1.00D-01 BMatC= 2.40D-07 BMatP= 1.11D-06
 IDIUse=1 WtCom= 1.00D+00 WtEn= 0.00D+00
 Coeff-Com: -0.106D-03 0.170D-03 0.272D-02-0.657D-03 0.565D-02 0.497D-02
 Coeff-Com:  0.117D-02-0.591D-01-0.513D-01 0.637D-01 0.386D+00 0.647D+00
 Coeff:     -0.106D-03 0.170D-03 0.272D-02-0.657D-03 0.565D-02 0.497D-02
 Coeff:      0.117D-02-0.591D-01-0.513D-01 0.637D-01 0.386D+00 0.647D+00
 Gap=     0.143 Goal=   None    Shift=    0.000
 Gap=     0.104 Goal=   None    Shift=    0.000
 RMSDP=3.55D-06 MaxDP=2.91D-04 DE=-7.01D-07 OVMax= 2.29D-04

 Cycle  13  Pass 1  IDiag  1:
 RMSU=  1.46D-06    CP:  1.07D+00  1.40D+00  5.76D-01  4.86D-01  9.82D-01
                    CP:  1.18D+00  1.72D+00  1.83D+00  1.48D+00  1.23D+00
                    CP:  1.31D+00  1.16D+00
 E= -432.269169812283     Delta-E=       -0.000000117003 Rises=F Damp=F
 DIIS: error= 7.20D-06 at cycle  13 NSaved=  13.
 NSaved=13 IEnMin=13 EnMin= -432.269169812283     IErMin=13 ErrMin= 7.20D-06
 ErrMax= 7.20D-06  0.00D+00 EMaxC= 1.00D-01 BMatC= 7.50D-08 BMatP= 2.40D-07
 IDIUse=1 WtCom= 1.00D+00 WtEn= 0.00D+00
 Coeff-Com:  0.673D-04-0.121D-03 0.999D-03-0.340D-03 0.191D-02 0.546D-02
 Coeff-Com:  0.135D-01-0.859D-02-0.438D-01-0.739D-01 0.245D-01 0.363D+00
 Coeff-Com:  0.717D+00
 Coeff:      0.673D-04-0.121D-03 0.999D-03-0.340D-03 0.191D-02 0.546D-02
 Coeff:      0.135D-01-0.859D-02-0.438D-01-0.739D-01 0.245D-01 0.363D+00
 Coeff:      0.717D+00
 Gap=     0.143 Goal=   None    Shift=    0.000
 Gap=     0.104 Goal=   None    Shift=    0.000
 RMSDP=2.18D-06 MaxDP=1.02D-04 DE=-1.17D-07 OVMax= 2.15D-04

 Cycle  14  Pass 1  IDiag  1:
 RMSU=  1.08D-06    CP:  1.07D+00  1.40D+00  5.76D-01  4.86D-01  9.83D-01
                    CP:  1.18D+00  1.72D+00  1.84D+00  1.50D+00  1.30D+00
                    CP:  1.42D+00  1.34D+00  1.25D+00
 E= -432.269169870664     Delta-E=       -0.000000058380 Rises=F Damp=F
 DIIS: error= 5.28D-06 at cycle  14 NSaved=  14.
 NSaved=14 IEnMin=14 EnMin= -432.269169870664     IErMin=14 ErrMin= 5.28D-06
 ErrMax= 5.28D-06  0.00D+00 EMaxC= 1.00D-01 BMatC= 2.35D-08 BMatP= 7.50D-08
 IDIUse=1 WtCom= 1.00D+00 WtEn= 0.00D+00
 Coeff-Com:  0.120D-03-0.185D-03-0.232D-03 0.521D-04-0.684D-03 0.127D-02
 Coeff-Com:  0.570D-02 0.118D-01-0.359D-02-0.544D-01-0.867D-01-0.636D-01
 Coeff-Com:  0.374D+00 0.816D+00
 Coeff:      0.120D-03-0.185D-03-0.232D-03 0.521D-04-0.684D-03 0.127D-02
 Coeff:      0.570D-02 0.118D-01-0.359D-02-0.544D-01-0.867D-01-0.636D-01
 Coeff:      0.374D+00 0.816D+00
 Gap=     0.143 Goal=   None    Shift=    0.000
 Gap=     0.104 Goal=   None    Shift=    0.000
 RMSDP=1.35D-06 MaxDP=5.21D-05 DE=-5.84D-08 OVMax= 1.78D-04

 Cycle  15  Pass 1  IDiag  1:
 RMSU=  6.50D-07    CP:  1.07D+00  1.40D+00  5.76D-01  4.86D-01  9.83D-01
                    CP:  1.18D+00  1.73D+00  1.84D+00  1.50D+00  1.31D+00
                    CP:  1.48D+00  1.51D+00  1.61D+00  1.28D+00
 E= -432.269169899349     Delta-E=       -0.000000028686 Rises=F Damp=F
 DIIS: error= 2.73D-06 at cycle  15 NSaved=  15.
 NSaved=15 IEnMin=15 EnMin= -432.269169899349     IErMin=15 ErrMin= 2.73D-06
 ErrMax= 2.73D-06  0.00D+00 EMaxC= 1.00D-01 BMatC= 9.84D-09 BMatP= 2.35D-08
 IDIUse=1 WtCom= 1.00D+00 WtEn= 0.00D+00
 Coeff-Com:  0.535D-04-0.877D-04-0.311D-03 0.932D-04-0.717D-03-0.371D-03
 Coeff-Com:  0.380D-04 0.751D-02 0.802D-02-0.190D-01-0.556D-01-0.122D+00
 Coeff-Com:  0.599D-01 0.469D+00 0.654D+00
 Coeff:      0.535D-04-0.877D-04-0.311D-03 0.932D-04-0.717D-03-0.371D-03
 Coeff:      0.380D-04 0.751D-02 0.802D-02-0.190D-01-0.556D-01-0.122D+00
 Coeff:      0.599D-01 0.469D+00 0.654D+00
 Gap=     0.143 Goal=   None    Shift=    0.000
 Gap=     0.104 Goal=   None    Shift=    0.000
 RMSDP=8.76D-07 MaxDP=4.17D-05 DE=-2.87D-08 OVMax= 1.15D-04

 Cycle  16  Pass 1  IDiag  1:
 RMSU=  4.14D-07    CP:  1.07D+00  1.40D+00  5.76D-01  4.86D-01  9.83D-01
                    CP:  1.18D+00  1.73D+00  1.84D+00  1.51D+00  1.31D+00
                    CP:  1.52D+00  1.57D+00  1.83D+00  1.57D+00  1.32D+00
 E= -432.269169912362     Delta-E=       -0.000000013012 Rises=F Damp=F
 DIIS: error= 2.36D-06 at cycle  16 NSaved=  16.
 NSaved=16 IEnMin=16 EnMin= -432.269169912362     IErMin=16 ErrMin= 2.36D-06
 ErrMax= 2.36D-06  0.00D+00 EMaxC= 1.00D-01 BMatC= 5.03D-09 BMatP= 9.84D-09
 IDIUse=1 WtCom= 1.00D+00 WtEn= 0.00D+00
 Coeff-Com: -0.669D-04 0.101D-03-0.144D-03 0.455D-04-0.162D-03-0.135D-02
 Coeff-Com: -0.465D-02-0.266D-02 0.120D-01 0.281D-01 0.246D-01-0.452D-01
 Coeff-Com: -0.234D+00-0.255D+00 0.502D+00 0.977D+00
 Coeff:     -0.669D-04 0.101D-03-0.144D-03 0.455D-04-0.162D-03-0.135D-02
 Coeff:     -0.465D-02-0.266D-02 0.120D-01 0.281D-01 0.246D-01-0.452D-01
 Coeff:     -0.234D+00-0.255D+00 0.502D+00 0.977D+00
 Gap=     0.143 Goal=   None    Shift=    0.000
 Gap=     0.104 Goal=   None    Shift=    0.000
 RMSDP=9.52D-07 MaxDP=2.56D-05 DE=-1.30D-08 OVMax= 1.58D-04

 Cycle  17  Pass 1  IDiag  1:
 RMSU=  3.27D-07    CP:  1.07D+00  1.40D+00  5.76D-01  4.86D-01  9.83D-01
                    CP:  1.18D+00  1.73D+00  1.84D+00  1.51D+00  1.31D+00
                    CP:  1.53D+00  1.62D+00  2.07D+00  2.03D+00  2.14D+00
                    CP:  1.55D+00
 E= -432.269169924917     Delta-E=       -0.000000012556 Rises=F Damp=F
 DIIS: error= 1.09D-06 at cycle  17 NSaved=  17.
 NSaved=17 IEnMin=17 EnMin= -432.269169924917     IErMin=17 ErrMin= 1.09D-06
 ErrMax= 1.09D-06  0.00D+00 EMaxC= 1.00D-01 BMatC= 1.77D-09 BMatP= 5.03D-09
 IDIUse=1 WtCom= 1.00D+00 WtEn= 0.00D+00
 Coeff-Com: -0.557D-04 0.824D-04 0.706D-04-0.194D-04 0.244D-03-0.330D-03
 Coeff-Com: -0.185D-02-0.392D-02 0.942D-03 0.201D-01 0.279D-01 0.364D-01
 Coeff-Com: -0.147D+00-0.345D+00-0.148D-01 0.462D+00 0.965D+00
 Coeff:     -0.557D-04 0.824D-04 0.706D-04-0.194D-04 0.244D-03-0.330D-03
 Coeff:     -0.185D-02-0.392D-02 0.942D-03 0.201D-01 0.279D-01 0.364D-01
 Coeff:     -0.147D+00-0.345D+00-0.148D-01 0.462D+00 0.965D+00
 Gap=     0.143 Goal=   None    Shift=    0.000
 Gap=     0.104 Goal=   None    Shift=    0.000
 RMSDP=7.40D-07 MaxDP=2.00D-05 DE=-1.26D-08 OVMax= 1.24D-04

 Cycle  18  Pass 1  IDiag  1:
 RMSU=  1.52D-07    CP:  1.07D+00  1.40D+00  5.76D-01  4.86D-01  9.83D-01
                    CP:  1.18D+00  1.73D+00  1.84D+00  1.51D+00  1.32D+00
                    CP:  1.54D+00  1.66D+00  2.25D+00  2.34D+00  2.81D+00
                    CP:  2.33D+00  1.41D+00
 E= -432.269169930512     Delta-E=       -0.000000005595 Rises=F Damp=F
 DIIS: error= 9.09D-07 at cycle  18 NSaved=  18.
 NSaved=18 IEnMin=18 EnMin= -432.269169930512     IErMin=18 ErrMin= 9.09D-07
 ErrMax= 9.09D-07  0.00D+00 EMaxC= 1.00D-01 BMatC= 1.05D-09 BMatP= 1.77D-09
 IDIUse=1 WtCom= 1.00D+00 WtEn= 0.00D+00
 Coeff-Com:  0.204D-05-0.569D-05 0.148D-03-0.324D-04 0.289D-03 0.423D-03
 Coeff-Com:  0.897D-03-0.193D-02-0.554D-02 0.286D-02 0.101D-01 0.561D-01
 Coeff-Com:  0.426D-02-0.129D+00-0.224D+00-0.154D+00 0.679D+00 0.761D+00
 Coeff:      0.204D-05-0.569D-05 0.148D-03-0.324D-04 0.289D-03 0.423D-03
 Coeff:      0.897D-03-0.193D-02-0.554D-02 0.286D-02 0.101D-01 0.561D-01
 Coeff:      0.426D-02-0.129D+00-0.224D+00-0.154D+00 0.679D+00 0.761D+00
 Gap=     0.143 Goal=   None    Shift=    0.000
 Gap=     0.104 Goal=   None    Shift=    0.000
 RMSDP=4.41D-07 MaxDP=1.15D-05 DE=-5.59D-09 OVMax= 7.08D-05

 Cycle  19  Pass 1  IDiag  1:
 RMSU=  1.90D-07    CP:  1.07D+00  1.40D+00  5.76D-01  4.86D-01  9.83D-01
                    CP:  1.18D+00  1.73D+00  1.84D+00  1.51D+00  1.31D+00
                    CP:  1.54D+00  1.67D+00  2.32D+00  2.50D+00  3.00D+00
                    CP:  2.72D+00  1.87D+00  1.22D+00
 E= -432.269169932311     Delta-E=       -0.000000001799 Rises=F Damp=F
 DIIS: error= 3.38D-07 at cycle  19 NSaved=  19.
 NSaved=19 IEnMin=19 EnMin= -432.269169932311     IErMin=19 ErrMin= 3.38D-07
 ErrMax= 3.38D-07  0.00D+00 EMaxC= 1.00D-01 BMatC= 1.82D-10 BMatP= 1.05D-09
 IDIUse=1 WtCom= 1.00D+00 WtEn= 0.00D+00
 Coeff-Com:  0.214D-04-0.284D-04-0.865D-05-0.404D-06-0.679D-04 0.155D-03
 Coeff-Com:  0.106D-02 0.153D-02-0.134D-02-0.798D-02-0.130D-01-0.293D-02
 Coeff-Com:  0.535D-01 0.122D+00-0.216D-01-0.235D+00-0.225D+00 0.118D+00
 Coeff-Com:  0.121D+01
 Coeff:      0.214D-04-0.284D-04-0.865D-05-0.404D-06-0.679D-04 0.155D-03
 Coeff:      0.106D-02 0.153D-02-0.134D-02-0.798D-02-0.130D-01-0.293D-02
 Coeff:      0.535D-01 0.122D+00-0.216D-01-0.235D+00-0.225D+00 0.118D+00
 Coeff:      0.121D+01
 Gap=     0.143 Goal=   None    Shift=    0.000
 Gap=     0.104 Goal=   None    Shift=    0.000
 RMSDP=2.56D-07 MaxDP=7.30D-06 DE=-1.80D-09 OVMax= 4.35D-05

 Cycle  20  Pass 1  IDiag  1:
 RMSU=  7.23D-08    CP:  1.07D+00  1.40D+00  5.76D-01  4.86D-01  9.83D-01
                    CP:  1.18D+00  1.73D+00  1.84D+00  1.51D+00  1.32D+00
                    CP:  1.53D+00  1.67D+00  2.36D+00  2.58D+00  3.00D+00
                    CP:  2.98D+00  2.19D+00  1.77D+00  1.72D+00
 E= -432.269169932816     Delta-E=       -0.000000000505 Rises=F Damp=F
 DIIS: error= 1.52D-07 at cycle  20 NSaved=  20.
 NSaved=20 IEnMin=20 EnMin= -432.269169932816     IErMin=20 ErrMin= 1.52D-07
 ErrMax= 1.52D-07  0.00D+00 EMaxC= 1.00D-01 BMatC= 3.33D-11 BMatP= 1.82D-10
 IDIUse=1 WtCom= 1.00D+00 WtEn= 0.00D+00
 Coeff-Com:  0.541D-05-0.751D-05-0.203D-04 0.456D-05-0.506D-04-0.236D-04
 Coeff-Com:  0.105D-03 0.529D-03 0.579D-03-0.245D-02-0.456D-02-0.105D-01
 Coeff-Com:  0.112D-01 0.481D-01 0.371D-01-0.124D-01-0.171D+00-0.155D+00
 Coeff-Com:  0.240D+00 0.102D+01
 Coeff:      0.541D-05-0.751D-05-0.203D-04 0.456D-05-0.506D-04-0.236D-04
 Coeff:      0.105D-03 0.529D-03 0.579D-03-0.245D-02-0.456D-02-0.105D-01
 Coeff:      0.112D-01 0.481D-01 0.371D-01-0.124D-01-0.171D+00-0.155D+00
 Coeff:      0.240D+00 0.102D+01
 Gap=     0.143 Goal=   None    Shift=    0.000
 Gap=     0.104 Goal=   None    Shift=    0.000
 RMSDP=9.34D-08 MaxDP=2.45D-06 DE=-5.05D-10 OVMax= 1.44D-05

 Cycle  21  Pass 1  IDiag  1:
 Restarting incremental Fock formation.
 E= -432.269169932902     Delta-E=       -0.000000000086 Rises=F Damp=F
 DIIS: error= 8.87D-08 at cycle  21 NSaved=  20.
 NSaved=20 IEnMin=20 EnMin= -432.269169932902     IErMin=20 ErrMin= 8.87D-08
 ErrMax= 8.87D-08  0.00D+00 EMaxC= 1.00D-01 BMatC= 9.42D-12 BMatP= 3.33D-11
 IDIUse=1 WtCom= 1.00D+00 WtEn= 0.00D+00
 Coeff-Com: -0.590D-05 0.819D-05-0.304D-05 0.806D-05-0.293D-04-0.210D-03
 Coeff-Com: -0.201D-03 0.399D-03 0.136D-02 0.215D-02-0.135D-02-0.967D-02
 Coeff-Com: -0.204D-01 0.114D-01 0.568D-01 0.170D-01-0.666D-01-0.244D+00
 Coeff-Com:  0.206D+00 0.105D+01
 Coeff:     -0.590D-05 0.819D-05-0.304D-05 0.806D-05-0.293D-04-0.210D-03
 Coeff:     -0.201D-03 0.399D-03 0.136D-02 0.215D-02-0.135D-02-0.967D-02
 Coeff:     -0.204D-01 0.114D-01 0.568D-01 0.170D-01-0.666D-01-0.244D+00
 Coeff:      0.206D+00 0.105D+01
 Gap=     0.143 Goal=   None    Shift=    0.000
 Gap=     0.104 Goal=   None    Shift=    0.000
 RMSDP=4.77D-08 MaxDP=1.22D-06 DE=-8.59D-11 OVMax= 6.20D-06

 Cycle  22  Pass 1  IDiag  1:
 RMSU=  4.76D-08    CP:  1.00D+00
 E= -432.269169932921     Delta-E=       -0.000000000019 Rises=F Damp=F
 DIIS: error= 4.52D-08 at cycle  22 NSaved=  20.
 NSaved=20 IEnMin=20 EnMin= -432.269169932921     IErMin=20 ErrMin= 4.52D-08
 ErrMax= 4.52D-08  0.00D+00 EMaxC= 1.00D-01 BMatC= 2.44D-12 BMatP= 9.42D-12
 IDIUse=1 WtCom= 1.00D+00 WtEn= 0.00D+00
 Coeff-Com: -0.799D-06 0.295D-05 0.848D-05 0.214D-04 0.355D-04-0.779D-04
 Coeff-Com: -0.289D-03 0.343D-03 0.945D-03 0.292D-02-0.164D-02-0.107D-01
 Coeff-Com: -0.109D-01 0.101D-02 0.418D-01 0.446D-01-0.681D-01-0.288D+00
 Coeff-Com:  0.118D+00 0.117D+01
 Coeff:     -0.799D-06 0.295D-05 0.848D-05 0.214D-04 0.355D-04-0.779D-04
 Coeff:     -0.289D-03 0.343D-03 0.945D-03 0.292D-02-0.164D-02-0.107D-01
 Coeff:     -0.109D-01 0.101D-02 0.418D-01 0.446D-01-0.681D-01-0.288D+00
 Coeff:      0.118D+00 0.117D+01
 Gap=     0.143 Goal=   None    Shift=    0.000
 Gap=     0.104 Goal=   None    Shift=    0.000
 RMSDP=2.80D-08 MaxDP=1.04D-06 DE=-1.91D-11 OVMax= 2.78D-06

 Cycle  23  Pass 1  IDiag  1:
 RMSU=  1.60D-08    CP:  1.00D+00  1.48D+00
 E= -432.269169932928     Delta-E=       -0.000000000007 Rises=F Damp=F
 DIIS: error= 1.73D-08 at cycle  23 NSaved=  20.
 NSaved=20 IEnMin=20 EnMin= -432.269169932928     IErMin=20 ErrMin= 1.73D-08
 ErrMax= 1.73D-08  0.00D+00 EMaxC= 1.00D-01 BMatC= 3.45D-13 BMatP= 2.44D-12
 IDIUse=1 WtCom= 1.00D+00 WtEn= 0.00D+00
 Coeff-Com: -0.684D-07 0.778D-06-0.507D-05-0.964D-05-0.347D-04-0.762D-05
 Coeff-Com:  0.172D-03 0.295D-03 0.709D-03-0.105D-02-0.288D-02-0.265D-02
 Coeff-Com:  0.300D-03 0.106D-01 0.127D-01-0.160D-02-0.812D-01-0.916D-01
 Coeff-Com:  0.180D+00 0.977D+00
 Coeff:     -0.684D-07 0.778D-06-0.507D-05-0.964D-05-0.347D-04-0.762D-05
 Coeff:      0.172D-03 0.295D-03 0.709D-03-0.105D-02-0.288D-02-0.265D-02
 Coeff:      0.300D-03 0.106D-01 0.127D-01-0.160D-02-0.812D-01-0.916D-01
 Coeff:      0.180D+00 0.977D+00
 Gap=     0.143 Goal=   None    Shift=    0.000
 Gap=     0.104 Goal=   None    Shift=    0.000
 RMSDP=1.04D-08 MaxDP=4.89D-07 DE=-6.59D-12 OVMax= 9.87D-07

 Cycle  24  Pass 1  IDiag  1:
 RMSU=  5.06D-09    CP:  1.00D+00  1.66D+00  1.22D+00
 E= -432.269169932928     Delta-E=       -0.000000000000 Rises=F Damp=F
 DIIS: error= 8.45D-09 at cycle  24 NSaved=  20.
 NSaved=20 IEnMin=20 EnMin= -432.269169932928     IErMin=20 ErrMin= 8.45D-09
 ErrMax= 8.45D-09  0.00D+00 EMaxC= 1.00D-01 BMatC= 6.29D-14 BMatP= 3.45D-13
 IDIUse=1 WtCom= 1.00D+00 WtEn= 0.00D+00
 Coeff-Com: -0.135D-05-0.723D-06 0.629D-05 0.235D-04 0.241D-04-0.115D-03
 Coeff-Com: -0.247D-03-0.512D-03 0.697D-03 0.241D-02 0.202D-02-0.430D-03
 Coeff-Com: -0.981D-02-0.983D-02 0.130D-01 0.723D-01 0.434D-02-0.277D+00
 Coeff-Com: -0.296D+00 0.150D+01
 Coeff:     -0.135D-05-0.723D-06 0.629D-05 0.235D-04 0.241D-04-0.115D-03
 Coeff:     -0.247D-03-0.512D-03 0.697D-03 0.241D-02 0.202D-02-0.430D-03
 Coeff:     -0.981D-02-0.983D-02 0.130D-01 0.723D-01 0.434D-02-0.277D+00
 Coeff:     -0.296D+00 0.150D+01
 Gap=     0.143 Goal=   None    Shift=    0.000
 Gap=     0.104 Goal=   None    Shift=    0.000
 RMSDP=5.20D-09 MaxDP=2.10D-07 DE=-3.41D-13 OVMax= 5.28D-07

 SCF Done:  E(UB3LYP) =  -432.269169933     A.U. after   24 cycles
            NFock= 24  Conv=0.52D-08     -V/T= 2.0056
 <Sx>= 0.0000 <Sy>= 0.0000 <Sz>= 0.5000 <S**2>= 0.7641 S= 0.5070
 <L.S>=  0.00000000000    
 KE= 4.298471584961D+02 PE=-1.820390513488D+03 EE= 5.520026849865D+02
 Annihilation of the first spin contaminant:
 S**2 before annihilation     0.7641,   after     0.7500
 Leave Link  502 at Wed Mar  1 00:42:06 2023, MaxMem=  8053063680 cpu:             593.9 elap:              18.6
 (Enter /public3/home/scg5914/software-scg5914/g16/l601.exe)
 Copying SCF densities to generalized density rwf, IOpCl= 1 IROHF=0.

 **********************************************************************

            Population analysis using the SCF Density.

 **********************************************************************

 Orbital symmetries:
 Alpha Orbitals:
       Occupied  (A) (A) (A) (A) (A) (A) (A) (A) (A) (A) (A) (A)
                 (A) (A) (A) (A) (A) (A) (A) (A) (A) (A) (A) (A)
                 (A) (A) (A) (A) (A) (A) (A) (A)
       Virtual   (A) (A) (A) (A) (A) (A) (A) (A) (A) (A) (A) (A)
                 (A) (A) (A) (A) (A) (A) (A) (A) (A) (A) (A) (A)
                 (A) (A) (A) (A) (A) (A) (A) (A) (A) (A) (A) (A)
                 (A) (A) (A) (A) (A) (A) (A) (A) (A) (A) (A) (A)
                 (A) (A) (A) (A) (A) (A) (A) (A) (A) (A) (A) (A)
                 (A) (A) (A) (A) (A) (A) (A) (A) (A) (A) (A) (A)
                 (A) (A) (A) (A) (A) (A) (A) (A) (A) (A) (A) (A)
                 (A) (A) (A) (A) (A) (A) (A) (A) (A) (A) (A) (A)
                 (A) (A) (A) (A) (A) (A) (A) (A) (A) (A) (A) (A)
                 (A) (A) (A) (A) (A) (A) (A) (A) (A) (A) (A) (A)
                 (A) (A) (A) (A) (A) (A) (A) (A) (A) (A) (A) (A)
                 (A) (A) (A) (A) (A) (A) (A) (A) (A) (A) (A) (A)
                 (A) (A) (A) (A) (A) (A) (A) (A) (A) (A) (A) (A)
                 (A) (A) (A) (A) (A) (A) (A) (A) (A) (A) (A) (A)
                 (A) (A) (A) (A) (A) (A) (A) (A) (A) (A) (A) (A)
                 (A) (A) (A) (A) (A) (A) (A) (A) (A) (A)
 Beta  Orbitals:
       Occupied  (A) (A) (A) (A) (A) (A) (A) (A) (A) (A) (A) (A)
                 (A) (A) (A) (A) (A) (A) (A) (A) (A) (A) (A) (A)
                 (A) (A) (A) (A) (A) (A) (A)
       Virtual   (A) (A) (A) (A) (A) (A) (A) (A) (A) (A) (A) (A)
                 (A) (A) (A) (A) (A) (A) (A) (A) (A) (A) (A) (A)
                 (A) (A) (A) (A) (A) (A) (A) (A) (A) (A) (A) (A)
                 (A) (A) (A) (A) (A) (A) (A) (A) (A) (A) (A) (A)
                 (A) (A) (A) (A) (A) (A) (A) (A) (A) (A) (A) (A)
                 (A) (A) (A) (A) (A) (A) (A) (A) (A) (A) (A) (A)
                 (A) (A) (A) (A) (A) (A) (A) (A) (A) (A) (A) (A)
                 (A) (A) (A) (A) (A) (A) (A) (A) (A) (A) (A) (A)
                 (A) (A) (A) (A) (A) (A) (A) (A) (A) (A) (A) (A)
                 (A) (A) (A) (A) (A) (A) (A) (A) (A) (A) (A) (A)
                 (A) (A) (A) (A) (A) (A) (A) (A) (A) (A) (A) (A)
                 (A) (A) (A) (A) (A) (A) (A) (A) (A) (A) (A) (A)
                 (A) (A) (A) (A) (A) (A) (A) (A) (A) (A) (A) (A)
                 (A) (A) (A) (A) (A) (A) (A) (A) (A) (A) (A) (A)
                 (A) (A) (A) (A) (A) (A) (A) (A) (A) (A) (A) (A)
                 (A) (A) (A) (A) (A) (A) (A) (A) (A) (A) (A)
 The electronic state is 2-A.
 Alpha  occ. eigenvalues --  -19.23942 -14.42419 -14.36240 -14.34904 -10.33752
 Alpha  occ. eigenvalues --  -10.31222 -10.27772 -10.25733 -10.23312  -1.14330
 Alpha  occ. eigenvalues --   -1.03711  -0.89801  -0.84337  -0.83017  -0.74672
 Alpha  occ. eigenvalues --   -0.64738  -0.62196  -0.57871  -0.52518  -0.50167
 Alpha  occ. eigenvalues --   -0.48133  -0.46761  -0.45796  -0.45217  -0.43594
 Alpha  occ. eigenvalues --   -0.38818  -0.37131  -0.33949  -0.31680  -0.30222
 Alpha  occ. eigenvalues --   -0.28784  -0.26017
 Alpha virt. eigenvalues --   -0.11709  -0.09426  -0.02832  -0.00819   0.01693
 Alpha virt. eigenvalues --    0.02588   0.03091   0.03281   0.04274   0.05321
 Alpha virt. eigenvalues --    0.05513   0.06270   0.07039   0.07595   0.08187
 Alpha virt. eigenvalues --    0.09033   0.09397   0.10252   0.11896   0.12446
 Alpha virt. eigenvalues --    0.12956   0.14351   0.15230   0.15605   0.15978
 Alpha virt. eigenvalues --    0.16552   0.17046   0.17920   0.18348   0.19503
 Alpha virt. eigenvalues --    0.20373   0.21092   0.22092   0.22303   0.22980
 Alpha virt. eigenvalues --    0.23529   0.24121   0.24594   0.25338   0.26721
 Alpha virt. eigenvalues --    0.27363   0.28494   0.29362   0.30015   0.31658
 Alpha virt. eigenvalues --    0.32609   0.33255   0.34150   0.35572   0.37051
 Alpha virt. eigenvalues --    0.38402   0.39895   0.41602   0.43088   0.45671
 Alpha virt. eigenvalues --    0.48990   0.51988   0.53674   0.55268   0.55756
 Alpha virt. eigenvalues --    0.57253   0.58117   0.59948   0.61433   0.62348
 Alpha virt. eigenvalues --    0.63434   0.64641   0.66452   0.68027   0.70493
 Alpha virt. eigenvalues --    0.73097   0.73798   0.76007   0.79956   0.82220
 Alpha virt. eigenvalues --    0.84367   0.87030   0.87493   0.89153   0.89904
 Alpha virt. eigenvalues --    0.91594   0.93503   0.94311   0.96909   0.98009
 Alpha virt. eigenvalues --    0.99462   1.04463   1.07112   1.10095   1.12604
 Alpha virt. eigenvalues --    1.16614   1.19444   1.21728   1.26819   1.27025
 Alpha virt. eigenvalues --    1.31087   1.32916   1.33998   1.35505   1.37904
 Alpha virt. eigenvalues --    1.39898   1.43129   1.47552   1.50105   1.51857
 Alpha virt. eigenvalues --    1.55944   1.58118   1.60031   1.62605   1.64154
 Alpha virt. eigenvalues --    1.65879   1.68430   1.71017   1.73779   1.75303
 Alpha virt. eigenvalues --    1.76797   1.81023   1.85011   1.86138   1.89873
 Alpha virt. eigenvalues --    1.92318   1.95226   1.97739   2.03627   2.10764
 Alpha virt. eigenvalues --    2.17401   2.21049   2.26688   2.29379   2.30048
 Alpha virt. eigenvalues --    2.32773   2.35233   2.37637   2.41041   2.42552
 Alpha virt. eigenvalues --    2.45057   2.48664   2.49537   2.52254   2.53484
 Alpha virt. eigenvalues --    2.53861   2.58402   2.61715   2.65823   2.70862
 Alpha virt. eigenvalues --    2.74059   2.76622   2.79629   2.81416   2.84616
 Alpha virt. eigenvalues --    2.85297   2.87184   2.93563   2.99802   3.00822
 Alpha virt. eigenvalues --    3.02560   3.07809   3.11286   3.12785   3.26658
 Alpha virt. eigenvalues --    3.33039   3.44350   3.48393   3.61467   3.71778
 Alpha virt. eigenvalues --    3.74060   3.78195   3.81760   3.86439   3.90565
 Alpha virt. eigenvalues --    3.92609   4.05078   4.11526   4.34333   4.42563
 Alpha virt. eigenvalues --    4.53501   4.67377   4.99779   5.06595   5.30297
 Alpha virt. eigenvalues --    5.51993  23.42259  23.62193  23.84091  23.86801
 Alpha virt. eigenvalues --   23.94071  35.40253  35.44802  35.54380  49.81287
  Beta  occ. eigenvalues --  -19.23518 -14.42225 -14.36203 -14.34891 -10.33751
  Beta  occ. eigenvalues --  -10.30872 -10.26801 -10.25728 -10.23328  -1.13509
  Beta  occ. eigenvalues --   -1.03441  -0.89429  -0.84120  -0.82094  -0.73578
  Beta  occ. eigenvalues --   -0.64183  -0.62068  -0.57246  -0.51657  -0.49448
  Beta  occ. eigenvalues --   -0.47946  -0.46312  -0.45180  -0.44621  -0.42969
  Beta  occ. eigenvalues --   -0.38062  -0.36527  -0.33497  -0.30548  -0.29892
  Beta  occ. eigenvalues --   -0.26519
  Beta virt. eigenvalues --   -0.16142  -0.11026  -0.07398  -0.02652  -0.00660
  Beta virt. eigenvalues --    0.02161   0.02694   0.03188   0.03410   0.04743
  Beta virt. eigenvalues --    0.05488   0.05648   0.06375   0.07233   0.07724
  Beta virt. eigenvalues --    0.08526   0.09264   0.09758   0.10438   0.12082
  Beta virt. eigenvalues --    0.12501   0.13107   0.14654   0.15407   0.15762
  Beta virt. eigenvalues --    0.16148   0.16738   0.17119   0.18054   0.18549
  Beta virt. eigenvalues --    0.19553   0.20471   0.21268   0.22400   0.22452
  Beta virt. eigenvalues --    0.23125   0.23597   0.24236   0.24758   0.25413
  Beta virt. eigenvalues --    0.26837   0.27495   0.28660   0.29426   0.30226
  Beta virt. eigenvalues --    0.31753   0.32720   0.33398   0.34330   0.35684
  Beta virt. eigenvalues --    0.37853   0.38615   0.40154   0.41779   0.43216
  Beta virt. eigenvalues --    0.45735   0.49552   0.52282   0.54015   0.55551
  Beta virt. eigenvalues --    0.56217   0.58417   0.58751   0.60265   0.61725
  Beta virt. eigenvalues --    0.63053   0.63659   0.65087   0.66708   0.68137
  Beta virt. eigenvalues --    0.70708   0.73727   0.74144   0.76711   0.80318
  Beta virt. eigenvalues --    0.82389   0.84658   0.87408   0.87631   0.89583
  Beta virt. eigenvalues --    0.90174   0.91707   0.93705   0.94589   0.97068
  Beta virt. eigenvalues --    0.98688   0.99652   1.04840   1.07845   1.10335
  Beta virt. eigenvalues --    1.12763   1.17108   1.19816   1.21934   1.27281
  Beta virt. eigenvalues --    1.27917   1.31351   1.33174   1.34210   1.36720
  Beta virt. eigenvalues --    1.38848   1.40033   1.43729   1.48428   1.50593
  Beta virt. eigenvalues --    1.52253   1.56522   1.58594   1.60307   1.63042
  Beta virt. eigenvalues --    1.64371   1.66635   1.68977   1.71693   1.74368
  Beta virt. eigenvalues --    1.76088   1.77207   1.81204   1.85904   1.86678
  Beta virt. eigenvalues --    1.90490   1.92840   1.95689   1.98539   2.04745
  Beta virt. eigenvalues --    2.11334   2.18035   2.21200   2.27382   2.29473
  Beta virt. eigenvalues --    2.30323   2.33031   2.35397   2.37891   2.41338
  Beta virt. eigenvalues --    2.42812   2.45275   2.48773   2.49744   2.52602
  Beta virt. eigenvalues --    2.53657   2.54055   2.58727   2.61832   2.65924
  Beta virt. eigenvalues --    2.72623   2.74325   2.77562   2.79968   2.82480
  Beta virt. eigenvalues --    2.84808   2.85875   2.87749   2.94019   3.00282
  Beta virt. eigenvalues --    3.01242   3.03426   3.08398   3.12082   3.13766
  Beta virt. eigenvalues --    3.27201   3.33852   3.44476   3.48503   3.61512
  Beta virt. eigenvalues --    3.71927   3.74136   3.78313   3.82167   3.86643
  Beta virt. eigenvalues --    3.90824   3.93081   4.05494   4.12043   4.34493
  Beta virt. eigenvalues --    4.42789   4.53589   4.67504   5.00991   5.06695
  Beta virt. eigenvalues --    5.30876   5.52394  23.43038  23.62198  23.84097
  Beta virt. eigenvalues --   23.86801  23.94830  35.40334  35.44953  35.54411
  Beta virt. eigenvalues --   49.81713
          Condensed to atoms (all electrons):
               1          2          3          4          5          6
     1  C    6.770388  -0.238083  -0.797155  -0.009788  -0.010736   0.039730
     2  C   -0.238083   7.545832  -1.281560  -0.128843  -0.114746  -0.051314
     3  C   -0.797155  -1.281560   8.065870   0.201604   0.166492  -0.016081
     4  N   -0.009788  -0.128843   0.201604   6.804675   0.180740  -0.043263
     5  N   -0.010736  -0.114746   0.166492   0.180740   6.813668   0.182870
     6  C    0.039730  -0.051314  -0.016081  -0.043263   0.182870   5.569547
     7  N   -0.001886   0.080662  -0.022419  -0.034130  -0.015260   0.089081
     8  C   -0.092284   0.025380  -0.422683   0.098624  -0.049445  -0.267004
     9  O   -0.287245  -0.099157   0.324888  -0.130115   0.046311   0.029508
    10  H    0.333991   0.039784  -0.016028   0.000390  -0.000218  -0.000150
    11  H    0.413423  -0.098429   0.041606   0.001122   0.000251   0.000252
    12  H    0.428956  -0.022748  -0.035646  -0.001999  -0.000018  -0.000352
    13  H    0.000339  -0.006692   0.003338   0.003532  -0.066353   0.456048
               7          8          9         10         11         12
     1  C   -0.001886  -0.092284  -0.287245   0.333991   0.413423   0.428956
     2  C    0.080662   0.025380  -0.099157   0.039784  -0.098429  -0.022748
     3  C   -0.022419  -0.422683   0.324888  -0.016028   0.041606  -0.035646
     4  N   -0.034130   0.098624  -0.130115   0.000390   0.001122  -0.001999
     5  N   -0.015260  -0.049445   0.046311  -0.000218   0.000251  -0.000018
     6  C    0.089081  -0.267004   0.029508  -0.000150   0.000252  -0.000352
     7  N    6.825954   0.359127  -0.116700  -0.000564   0.000137   0.000054
     8  C    0.359127   6.344701   0.133856   0.018021  -0.002573  -0.006469
     9  O   -0.116700   0.133856   8.094300  -0.006382   0.011857  -0.002829
    10  H   -0.000564   0.018021  -0.006382   0.485876  -0.020365  -0.022037
    11  H    0.000137  -0.002573   0.011857  -0.020365   0.492735  -0.022310
    12  H    0.000054  -0.006469  -0.002829  -0.022037  -0.022310   0.496803
    13  H   -0.079613   0.023091   0.000608  -0.000000   0.000000   0.000000
              13
     1  C    0.000339
     2  C   -0.006692
     3  C    0.003338
     4  N    0.003532
     5  N   -0.066353
     6  C    0.456048
     7  N   -0.079613
     8  C    0.023091
     9  O    0.000608
    10  H   -0.000000
    11  H    0.000000
    12  H    0.000000
    13  H    0.501643
          Atomic-Atomic Spin Densities.
               1          2          3          4          5          6
     1  C   -0.042734  -0.045534   0.067266  -0.014077   0.003075  -0.000379
     2  C   -0.045534   0.354372   0.034348   0.042114  -0.015256   0.011688
     3  C    0.067266   0.034348   0.557101  -0.098220   0.021420  -0.013143
     4  N   -0.014077   0.042114  -0.098220   0.178072  -0.045218   0.020073
     5  N    0.003075  -0.015256   0.021420  -0.045218   0.045242  -0.011812
     6  C   -0.000379   0.011688  -0.013143   0.020073  -0.011812   0.009241
     7  N   -0.000946   0.009324  -0.004668   0.012181  -0.010281   0.008909
     8  C   -0.009532  -0.022184   0.038740  -0.023872   0.021319  -0.018025
     9  O    0.027864  -0.131844  -0.016387  -0.037405   0.011642  -0.007943
    10  H   -0.003275   0.005016  -0.002958   0.001165  -0.000060   0.000096
    11  H    0.004097  -0.000079  -0.003755   0.000443  -0.000026   0.000008
    12  H    0.011327  -0.022672   0.006075  -0.001002   0.000078  -0.000095
    13  H    0.000043   0.000006   0.000237  -0.000579   0.000777  -0.001297
               7          8          9         10         11         12
     1  C   -0.000946  -0.009532   0.027864  -0.003275   0.004097   0.011327
     2  C    0.009324  -0.022184  -0.131844   0.005016  -0.000079  -0.022672
     3  C   -0.004668   0.038740  -0.016387  -0.002958  -0.003755   0.006075
     4  N    0.012181  -0.023872  -0.037405   0.001165   0.000443  -0.001002
     5  N   -0.010281   0.021319   0.011642  -0.000060  -0.000026   0.000078
     6  C    0.008909  -0.018025  -0.007943   0.000096   0.000008  -0.000095
     7  N    0.004386  -0.004369  -0.010430   0.000075   0.000013  -0.000106
     8  C   -0.004369   0.032284   0.001043   0.001019   0.000419  -0.001128
     9  O   -0.010430   0.001043   0.262380  -0.001039  -0.000640   0.004352
    10  H    0.000075   0.001019  -0.001039   0.006064   0.000912  -0.003617
    11  H    0.000013   0.000419  -0.000640   0.000912   0.000622  -0.001348
    12  H   -0.000106  -0.001128   0.004352  -0.003617  -0.001348   0.026678
    13  H   -0.000231   0.000772   0.000153  -0.000000  -0.000000   0.000000
              13
     1  C    0.000043
     2  C    0.000006
     3  C    0.000237
     4  N   -0.000579
     5  N    0.000777
     6  C   -0.001297
     7  N   -0.000231
     8  C    0.000772
     9  O    0.000153
    10  H   -0.000000
    11  H   -0.000000
    12  H    0.000000
    13  H    0.000977
 Mulliken charges and spin densities:
               1          2
     1  C   -0.549652  -0.002806
     2  C    0.349914   0.219299
     3  C   -0.212226   0.586055
     4  N    0.057450   0.033675
     5  N   -0.133558   0.020901
     6  C    0.011129  -0.002679
     7  N   -0.084444   0.003857
     8  C   -0.162343   0.016487
     9  O    0.001098   0.101745
    10  H    0.187682   0.003398
    11  H    0.182294   0.000666
    12  H    0.188596   0.018543
    13  H    0.164059   0.000858
 Sum of Mulliken charges =  -0.00000   1.00000
 Mulliken charges and spin densities with hydrogens summed into heavy atoms:
               1          2
     1  C    0.008920   0.019802
     2  C    0.349914   0.219299
     3  C   -0.212226   0.586055
     4  N    0.057450   0.033675
     5  N   -0.133558   0.020901
     6  C    0.175188  -0.001821
     7  N   -0.084444   0.003857
     8  C   -0.162343   0.016487
     9  O    0.001098   0.101745
 Electronic spatial extent (au):  <R**2>=           1049.8770
 Charge=              0.0000 electrons
 Dipole moment (field-independent basis, Debye):
    X=             -3.8418    Y=             -0.7910    Z=              0.7287  Tot=              3.9895
 Quadrupole moment (field-independent basis, Debye-Ang):
   XX=            -37.2686   YY=            -62.4894   ZZ=            -52.9592
   XY=             -1.2747   XZ=             -1.2580   YZ=             -0.4012
 Traceless Quadrupole moment (field-independent basis, Debye-Ang):
   XX=             13.6371   YY=            -11.5837   ZZ=             -2.0534
   XY=             -1.2747   XZ=             -1.2580   YZ=             -0.4012
 Octapole moment (field-independent basis, Debye-Ang**2):
  XXX=            -16.1085  YYY=             -7.1503  ZZZ=              2.0056  XYY=            -14.8181
  XXY=             -4.7899  XXZ=             -2.1915  XZZ=             -3.3580  YZZ=             -5.6977
  YYZ=              3.7530  XYZ=             -1.7386
 Hexadecapole moment (field-independent basis, Debye-Ang**3):
 XXXX=           -860.6922 YYYY=           -312.7174 ZZZZ=            -99.0708 XXXY=             -6.5750
 XXXZ=            -14.9468 YYYX=              5.2423 YYYZ=              5.8604 ZZZX=             -3.4862
 ZZZY=              3.7765 XXYY=           -249.7329 XXZZ=           -189.0293 YYZZ=            -67.5288
 XXYZ=              0.5916 YYXZ=             -2.1243 ZZXY=              6.4205
 N-N= 4.062715000721D+02 E-N=-1.820390513395D+03  KE= 4.298471584961D+02
                          Isotropic Fermi Contact Couplings
        Atom                 a.u.       MegaHertz       Gauss      10(-4) cm-1
     1  C(13)             -0.00651      -7.31570      -2.61043      -2.44026
     2  C(13)              0.02774      31.18460      11.12744      10.40206
     3  C(13)              0.16944     190.48319      67.96914      63.53835
     4  N(14)              0.08450      27.30275       9.74230       9.10722
     5  N(14)              0.00071       0.22979       0.08200       0.07665
     6  C(13)              0.00335       3.76190       1.34234       1.25483
     7  N(14)             -0.00144      -0.46642      -0.16643      -0.15558
     8  C(13)             -0.00474      -5.32910      -1.90155      -1.77760
     9  O(17)              0.07478     -45.33380     -16.17623     -15.12173
    10  H(1)               0.00150       6.69439       2.38872       2.23301
    11  H(1)               0.00157       7.02274       2.50589       2.34253
    12  H(1)               0.00911      40.73840      14.53647      13.58887
    13  H(1)               0.00034       1.54100       0.54987       0.51402
 --------------------------------------------------------
       Center         ----  Spin Dipole Couplings  ----
                      3XX-RR        3YY-RR        3ZZ-RR
 --------------------------------------------------------
     1   Atom        0.002066      0.002530     -0.004596
     2   Atom       -0.138233     -0.142495      0.280728
     3   Atom       -0.315833      0.652380     -0.336547
     4   Atom        0.094346      0.023012     -0.117358
     5   Atom        0.031866     -0.022533     -0.009334
     6   Atom        0.004506     -0.002364     -0.002142
     7   Atom       -0.001935      0.042683     -0.040748
     8   Atom        0.001161      0.017572     -0.018733
     9   Atom       -0.287310      0.054943      0.232367
    10   Atom        0.002981     -0.000913     -0.002068
    11   Atom        0.010843     -0.004539     -0.006304
    12   Atom        0.005916     -0.002555     -0.003360
    13   Atom        0.002845     -0.001087     -0.001759
 --------------------------------------------------------
                        XY            XZ            YZ
 --------------------------------------------------------
     1   Atom        0.010000      0.001913      0.005628
     2   Atom        0.024420      0.002418      0.032217
     3   Atom       -0.296403     -0.057814      0.349594
     4   Atom       -0.144441      0.041472     -0.034753
     5   Atom        0.017154      0.039983      0.015805
     6   Atom       -0.001694     -0.007345     -0.000927
     7   Atom       -0.022743     -0.002940     -0.006263
     8   Atom        0.005444      0.016638      0.011932
     9   Atom        0.095789     -0.127439     -0.415556
    10   Atom        0.004050     -0.004811     -0.002515
    11   Atom       -0.000539     -0.003191      0.000020
    12   Atom        0.004595      0.001931      0.001295
    13   Atom       -0.001066     -0.000246      0.000220
 --------------------------------------------------------


 ---------------------------------------------------------------------------------
              Anisotropic Spin Dipole Couplings in Principal Axis System
 ---------------------------------------------------------------------------------

       Atom             a.u.   MegaHertz   Gauss  10(-4) cm-1        Axes

              Baa    -0.0095    -1.278    -0.456    -0.426 -0.4790  0.6649 -0.5731
     1 C(13)  Bbb    -0.0044    -0.585    -0.209    -0.195 -0.5945  0.2347  0.7691
              Bcc     0.0139     1.863     0.665     0.621  0.6459  0.7091  0.2828
 
              Baa    -0.1660   -22.276    -7.948    -7.430 -0.6571  0.7521 -0.0507
     2 C(13)  Bbb    -0.1172   -15.729    -5.612    -5.246  0.7538  0.6546 -0.0576
              Bcc     0.2832    38.004    13.561    12.677  0.0101  0.0760  0.9971
 
              Baa    -0.4638   -62.233   -22.206   -20.759 -0.4193 -0.3709  0.8286
     3 C(13)  Bbb    -0.3776   -50.664   -18.078   -16.900  0.8724  0.0879  0.4808
              Bcc     0.8413   112.897    40.284    37.658 -0.2511  0.9245  0.2867
 
              Baa    -0.1262    -4.868    -1.737    -1.624 -0.0956  0.1370  0.9859
     4 N(14)  Bbb    -0.0900    -3.472    -1.239    -1.158  0.6227  0.7810 -0.0481
              Bcc     0.2162     8.339     2.976     2.782  0.7766 -0.6093  0.1600
 
              Baa    -0.0363    -1.399    -0.499    -0.467 -0.3473 -0.4875  0.8011
     5 N(14)  Bbb    -0.0261    -1.008    -0.360    -0.336 -0.4589  0.8333  0.3082
              Bcc     0.0624     2.407     0.859     0.803  0.8178  0.2606  0.5131
 
              Baa    -0.0075    -1.000    -0.357    -0.334  0.5284  0.3193  0.7867
     6 C(13)  Bbb    -0.0019    -0.250    -0.089    -0.083 -0.1075  0.9443 -0.3110
              Bcc     0.0093     1.250     0.446     0.417  0.8422 -0.0798 -0.5333
 
              Baa    -0.0418    -1.614    -0.576    -0.538  0.1348  0.1092  0.9848
     7 N(14)  Bbb    -0.0106    -0.410    -0.146    -0.137  0.9139  0.3704 -0.1662
              Bcc     0.0525     2.023     0.722     0.675 -0.3830  0.9224 -0.0499
 
              Baa    -0.0295    -3.960    -1.413    -1.321 -0.4462 -0.1710  0.8784
     8 C(13)  Bbb     0.0035     0.471     0.168     0.157  0.7830 -0.5499  0.2907
              Bcc     0.0260     3.488     1.245     1.164  0.4333  0.8175  0.3793
 
              Baa    -0.3169    22.930     8.182     7.649  0.9723  0.0107  0.2337
     9 O(17)  Bbb    -0.2804    20.289     7.239     6.768 -0.1526  0.7860  0.5991
              Bcc     0.5973   -43.218   -15.421   -14.416 -0.1773 -0.6181  0.7658
 
              Baa    -0.0050    -2.656    -0.948    -0.886  0.5063  0.0288  0.8619
    10 H(1)   Bbb    -0.0034    -1.796    -0.641    -0.599 -0.4078  0.8886  0.2100
              Bcc     0.0083     4.452     1.589     1.485  0.7598  0.4578 -0.4617
 
              Baa    -0.0069    -3.671    -1.310    -1.225  0.1781  0.0325  0.9835
    11 H(1)   Bbb    -0.0046    -2.430    -0.867    -0.811  0.0271  0.9989 -0.0380
              Bcc     0.0114     6.101     2.177     2.035  0.9836 -0.0334 -0.1770
 
              Baa    -0.0047    -2.531    -0.903    -0.844 -0.3043  0.8694 -0.3893
    12 H(1)   Bbb    -0.0036    -1.938    -0.692    -0.647 -0.3221  0.2907  0.9010
              Bcc     0.0084     4.469     1.595     1.491  0.8965  0.3995  0.1916
 
              Baa    -0.0018    -0.974    -0.348    -0.325 -0.0217 -0.3141  0.9491
    13 H(1)   Bbb    -0.0013    -0.698    -0.249    -0.233  0.2537  0.9166  0.3091
              Bcc     0.0031     1.672     0.597     0.558  0.9670 -0.2475 -0.0598
 

 ---------------------------------------------------------------------------------

 No NMR shielding tensors so no spin-rotation constants.
 Leave Link  601 at Wed Mar  1 00:42:07 2023, MaxMem=  8053063680 cpu:              11.3 elap:               0.4
 (Enter /public3/home/scg5914/software-scg5914/g16/l701.exe)
 ... and contract with generalized density number  0.
 Compute integral first derivatives.
 R6Disp: Adding Grimme-D3(BJ) dispersion energy 1st derivatives to the gradient.
 Leave Link  701 at Wed Mar  1 00:42:07 2023, MaxMem=  8053063680 cpu:               6.4 elap:               0.2
 (Enter /public3/home/scg5914/software-scg5914/g16/l702.exe)
 L702 exits ... SP integral derivatives will be done elsewhere.
 Leave Link  702 at Wed Mar  1 00:42:07 2023, MaxMem=  8053063680 cpu:               0.6 elap:               0.0
 (Enter /public3/home/scg5914/software-scg5914/g16/l703.exe)
 Integral derivatives from FoFJK, PRISM(SPDF).
 Compute integral first derivatives, UseDBF=F ICtDFT=           0.
 Calling FoFJK, ICntrl=      2127 FMM=F ISym2X=0 I1Cent= 0 IOpClX= 1 NMat=1 NMatS=1 NMatT=0.
 FoFJK:  IHMeth= 1 ICntrl=    2127 DoSepK=F KAlg= 0 I1Cent=           0 FoldK=F
 IRaf=         0 NMat=       1 IRICut=       1 DoRegI=T DoRafI=F ISym2E= 0 IDoP0=0 IntGTp=1.
 FoFCou: FMM=F IPFlag=           0 FMFlag=      100000 FMFlg1=         800
         NFxFlg=           0 DoJE=F BraDBF=F KetDBF=F FulRan=T
         wScrn=  0.000000 ICntrl=      2127 IOpCl=  1 I1Cent=           0 NGrid=           0
         NMat0=    1 NMatS0=      1 NMatT0=    0 NMatD0=    1 NMtDS0=    0 NMtDT0=    0
 Symmetry not used in FoFCou.
 Leave Link  703 at Wed Mar  1 00:42:09 2023, MaxMem=  8053063680 cpu:              65.6 elap:               2.1
 (Enter /public3/home/scg5914/software-scg5914/g16/l716.exe)
 Dipole        =-1.51149625D+00-3.11194807D-01 2.86686682D-01
 ***** Axes restored to original set *****
 -------------------------------------------------------------------
 Center     Atomic                   Forces (Hartrees/Bohr)
 Number     Number              X              Y              Z
 -------------------------------------------------------------------
      1        6           0.001982500    0.002526413   -0.015759038
      2        6           0.014717619   -0.027788651    0.001206388
      3        6           0.013939911   -0.000951053    0.061870058
      4        7           0.001304239    0.018251982   -0.106449390
      5        7          -0.000159364   -0.022268831    0.054120221
      6        6          -0.028224554    0.016812045    0.005617917
      7        7          -0.055815367    0.020637800    0.051443419
      8        6           0.037081486   -0.025174099   -0.091261205
      9        8           0.009914897    0.014623087    0.051772179
     10        1           0.006462973    0.004451174   -0.009609600
     11        1           0.002737915   -0.001791853    0.000259526
     12        1           0.002540293   -0.000220718    0.006763111
     13        1          -0.006482547    0.000892705   -0.009973586
 -------------------------------------------------------------------
 Cartesian Forces:  Max     0.106449390 RMS     0.032561949
 Leave Link  716 at Wed Mar  1 00:42:09 2023, MaxMem=  8053063680 cpu:               0.8 elap:               0.0
 (Enter /public3/home/scg5914/software-scg5914/g16/l103.exe)

 GradGradGradGradGradGradGradGradGradGradGradGradGradGradGradGradGradGrad
 Berny optimization.
 FormGI is forming the generalized inverse of G from B-inverse, IUseBI=4.
 GSVD:  received Info=                   1 from GESDD.
 Internal  Forces:  Max     0.148523870 RMS     0.039373304
 Search for a local minimum.
 Step number   1 out of a maximum of   61
 All quantities printed in internal units (Hartrees-Bohrs-Radians)
 RMS Force = .39373D-01 SwitMx=.10000D-02 MixMth= 1
 Mixed Optimization -- RFO/linear search
 Second derivative matrix not updated -- first step.
 ITU=  0
     Eigenvalues ---    0.00727   0.00830   0.00965   0.01412   0.01620
     Eigenvalues ---    0.02151   0.02262   0.04542   0.07206   0.07410
     Eigenvalues ---    0.16000   0.16000   0.16000   0.16000   0.21186
     Eigenvalues ---    0.22873   0.23807   0.25000   0.25000   0.25000
     Eigenvalues ---    0.28802   0.32070   0.32744   0.33065   0.34272
     Eigenvalues ---    0.34886   0.37602   0.39752   0.42291   0.45621
     Eigenvalues ---    0.49233   0.49711   0.55064
 RFO step:  Lambda=-2.22270876D-01 EMin= 7.26957142D-03
 Linear search not attempted -- first point.
 Maximum step size (   0.300) exceeded in Quadratic search.
    -- Step size scaled by   0.676
 Iteration  1 RMS(Cart)=  0.22439192 RMS(Int)=  0.02655768
 Iteration  2 RMS(Cart)=  0.06748888 RMS(Int)=  0.00150277
 Iteration  3 RMS(Cart)=  0.00206080 RMS(Int)=  0.00054305
 Iteration  4 RMS(Cart)=  0.00000236 RMS(Int)=  0.00054305
 Iteration  5 RMS(Cart)=  0.00000000 RMS(Int)=  0.00054305
 ITry= 1 IFail=0 DXMaxC= 9.01D-01 DCOld= 1.00D+10 DXMaxT= 3.00D-01 DXLimC= 3.00D+00 Rises=F
 Variable       Old X    -DE/DX   Delta X   Delta X   Delta X     New X
                                 (Linear)    (Quad)   (Total)
    R1        2.84016  -0.01729   0.00000  -0.02154  -0.02154   2.81862
    R2        2.09503  -0.01138   0.00000  -0.01400  -0.01400   2.08103
    R3        2.06873  -0.00276   0.00000  -0.00330  -0.00330   2.06542
    R4        2.08937  -0.00619   0.00000  -0.00758  -0.00758   2.08180
    R5        2.60647  -0.00598   0.00000  -0.00566  -0.00566   2.60081
    R6        2.68554  -0.04473   0.00000  -0.04690  -0.04690   2.63864
    R7        2.89502  -0.04809   0.00000  -0.06139  -0.06141   2.83361
    R8        2.60196   0.00096   0.00000   0.00161   0.00142   2.60338
    R9        2.53282  -0.02481   0.00000  -0.02175  -0.02144   2.51138
   R10        2.59584  -0.00314   0.00000  -0.00391  -0.00384   2.59200
   R11        2.05861  -0.00505   0.00000  -0.00598  -0.00598   2.05262
   R12        2.69658  -0.08222   0.00000  -0.08794  -0.08809   2.60849
   R13        2.74949  -0.08077   0.00000  -0.09132  -0.09132   2.65817
    A1        1.93723  -0.00808   0.00000  -0.01499  -0.01500   1.92222
    A2        1.91896  -0.00050   0.00000  -0.00040  -0.00042   1.91853
    A3        1.93022   0.00328   0.00000   0.00601   0.00600   1.93622
    A4        1.90565   0.00342   0.00000   0.00563   0.00560   1.91125
    A5        1.90225   0.00031   0.00000  -0.00036  -0.00036   1.90189
    A6        1.86806   0.00198   0.00000   0.00489   0.00487   1.87293
    A7        2.37434   0.00488   0.00000   0.00699   0.00637   2.38070
    A8        2.02401   0.01471   0.00000   0.02107   0.02047   2.04448
    A9        1.88484  -0.01959   0.00000  -0.02806  -0.02866   1.85618
   A10        1.79629   0.00837   0.00000   0.01771   0.01663   1.81292
   A11        1.78311  -0.01378   0.00000  -0.01477  -0.01542   1.76768
   A12        2.03414   0.01061   0.00000   0.01758   0.01725   2.05139
   A13        2.11528  -0.00535   0.00000  -0.00887  -0.00872   2.10657
   A14        2.13376  -0.00527   0.00000  -0.00873  -0.00858   2.12518
   A15        1.75968  -0.00517   0.00000  -0.00847  -0.00930   1.75038
   A16        1.98236   0.00570   0.00000   0.00657   0.00663   1.98899
   A17        1.96476  -0.06386   0.00000  -0.10309  -0.10196   1.86280
   A18        2.05808   0.05076   0.00000   0.07510   0.07468   2.13276
   A19        1.83851  -0.14852   0.00000  -0.21274  -0.21274   1.62578
    D1       -2.27522   0.01281   0.00000   0.03790   0.03797  -2.23725
    D2        0.86616  -0.01280   0.00000  -0.03724  -0.03734   0.82883
    D3       -0.16488   0.01149   0.00000   0.03491   0.03499  -0.12989
    D4        2.97651  -0.01412   0.00000  -0.04024  -0.04031   2.93619
    D5        1.89435   0.01563   0.00000   0.04435   0.04444   1.93879
    D6       -1.24745  -0.00999   0.00000  -0.03080  -0.03087  -1.27832
    D7       -2.51691  -0.08140   0.00000  -0.23225  -0.23263  -2.74954
    D8        0.62453  -0.10009   0.00000  -0.28709  -0.28672   0.33781
    D9       -0.29728   0.02227   0.00000   0.06448   0.06345  -0.23383
   D10        0.15923  -0.02272   0.00000  -0.06675  -0.06719   0.09204
   D11       -2.23683  -0.03720   0.00000  -0.07672  -0.07866  -2.31549
   D12        0.36829  -0.01188   0.00000  -0.03943  -0.03927   0.32902
   D13       -2.77652  -0.01727   0.00000  -0.04663  -0.04656  -2.82308
   D14       -0.27315  -0.00373   0.00000  -0.00183  -0.00183  -0.27498
   D15        2.87170   0.00173   0.00000   0.00546   0.00554   2.87724
   D16        0.04013   0.01727   0.00000   0.04652   0.04576   0.08588
   D17        2.39376  -0.02069   0.00000  -0.02570  -0.02672   2.36704
   D18       -0.05743  -0.07186   0.00000  -0.20993  -0.21112  -0.26855
   D19       -2.41854  -0.06321   0.00000  -0.18406  -0.18286  -2.60140
         Item               Value     Threshold  Converged?
 Maximum Force            0.148524     0.000450     NO 
 RMS     Force            0.039373     0.000300     NO 
 Maximum Displacement     0.900892     0.001800     NO 
 RMS     Displacement     0.280149     0.001200     NO 
 Predicted change in Energy=-1.363645D-01
 Lowest energy point so far.  Saving SCF results.
 GradGradGradGradGradGradGradGradGradGradGradGradGradGradGradGradGradGrad

 Leave Link  103 at Wed Mar  1 00:42:10 2023, MaxMem=  8053063680 cpu:              28.8 elap:               1.0
 (Enter /public3/home/scg5914/software-scg5914/g16/l202.exe)
                          Input orientation:                          
 ---------------------------------------------------------------------
 Center     Atomic      Atomic             Coordinates (Angstroms)
 Number     Number       Type             X           Y           Z
 ---------------------------------------------------------------------
      1          6           0       -2.952667    0.040273    0.066540
      2          6           0       -1.463675    0.053954   -0.019651
      3          6           0       -0.473938    1.010294   -0.018354
      4          7           0        0.309370    0.724438    0.260479
      5          7           0        1.606524    1.095418   -0.393902
      6          6           0        2.312436   -0.017219   -0.221078
      7          7           0        1.622369   -1.168680    0.060550
      8          6           0        0.398545   -0.641031    0.420022
      9          8           0       -0.815447   -1.182600   -0.039941
     10          1           0       -3.280203   -0.651224    0.858540
     11          1           0       -3.322415    1.045576    0.283903
     12          1           0       -3.399507   -0.273597   -0.890240
     13          1           0        3.394818   -0.006871   -0.311497
[...]
 221. BD*(   2) N   7 - C   8        /136. RY*(   3) N   7                    1.10    0.56    0.072
 221. BD*(   2) N   7 - C   8        /152. RY*(   2) C   8                    0.64    1.38    0.086
 221. BD*(   2) N   7 - C   8        /154. RY*(   4) C   8                    0.28    1.81    0.066
 221. BD*(   2) N   7 - C   8        /158. RY*(   8) C   8                    0.28    0.98    0.048
 221. BD*(   2) N   7 - C   8        /215. BD*(   1) N   4 - C   8            0.42    0.41    0.034


 Natural Bond Orbitals (Summary):

                                                            Principal Delocalizations
           NBO                        Occupancy    Energy   (geminal,vicinal,remote)
 ====================================================================================
 Molecular unit  1  (C5H4N3O)
     1. BD (   1) C   1 - C   2          0.99373    -0.71449  209(g),222(v),170(v),212(v)
                                                    67(v),206(g)
     2. BD (   1) C   1 - H  10          0.98349    -0.53818  209(v),210(v)
     3. BD (   1) C   1 - H  11          0.98840    -0.54008  211(v)
     4. BD (   1) C   1 - H  12          0.98049    -0.53727  210(v),209(v),52(v)
     5. BD (   1) C   2 - C   3          0.98596    -0.76014  214(v),210(g),205(g),206(v)
                                                    32(v),213(g),84(v),220(r)
     6. BD (   2) C   2 - C   3          0.86195    -0.27928  213(g),212(g),209(g),214(v)
                                                    215(v),206(v),208(v),211(g)
                                                    205(g),83(v),168(v),69(g)
                                                    220(r)
     7. BD (   1) C   2 - O   9          0.98846    -0.88977  220(v),213(v),215(v),153(v)
                                                    207(v),156(v),221(v),151(v)
     8. BD (   1) C   3 - N   4          0.99245    -0.85327  205(v),220(v),210(g),214(g)
                                                    216(v),211(v),49(v),153(v)
                                                    221(v),215(g)
     9. BD (   2) C   3 - N   4          0.86212    -0.36728  221(v),217(v),215(g),101(v)
                                                    155(v),211(v),102(v),213(g)
    10. BD (   1) N   4 - N   5          0.99194    -0.87560  219(v),222(v),117(v),118(v)
                                                    218(v),212(g),215(g),221(v)
    11. BD (   1) N   4 - C   8          0.98485    -0.84562  210(v),212(g),66(v),100(v)
                                                    220(g),221(g),135(v),205(r)
                                                    219(r)
    12. BD (   1) N   5 - C   6          0.99285    -0.86618  212(v),84(v),222(r),83(v)
    13. BD (   2) N   5 - C   6          0.95933    -0.33886  221(v),213(v),86(v),85(v)
    14. BD (   1) C   6 - N   7          0.98266    -0.79014  222(v),153(v),215(v),220(g)
                                                    157(v)
    15. BD (   1) C   6 - H  13          0.99155    -0.56695  214(v),220(v),134(v)
    16. BD (   1) N   7 - C   8          0.99077    -0.89207  219(v),212(v),222(g),211(v)
                                                    117(v),215(g),118(v)
    17. BD (   2) N   7 - C   8          0.91314    -0.34945  217(v),213(v),215(g),221(g)
                                                    119(v),171(v),120(v)
    18. BD (   1) C   8 - O   9          0.99446    -0.96964  205(v),49(v),220(g),214(v)
                                                    218(v),51(v)
    19. CR (   1) C   1                  0.99963   -10.06706  54(v),209(v)
    20. CR (   1) C   2                  0.99947   -10.16612  66(v),211(g),34(v),222(v)
    21. CR (   1) C   3                  0.99879   -10.12756  210(g),49(v),214(v),205(v)
                                                    213(g)
    22. CR (   1) N   4                  0.99953   -14.26842  67(v),153(v),151(v),215(g)
                                                    213(g),102(v)
    23. CR (   1) N   5                  0.99973   -14.18178  117(v),212(v)
    24. CR (   1) C   6                  0.99972   -10.12748  100(v),203(v),220(v)
    25. CR (   1) N   7                  0.99965   -14.14239  222(v),117(v),151(v),157(v)
                                                    158(v),123(v)
    26. CR (   1) C   8                  0.99950   -10.19994  211(v),212(v),84(v),218(v)
                                                    135(v),222(g)
    27. CR (   1) O   9                  0.99985   -19.01464  49(v),154(v),220(v),153(v)
                                                    50(v),156(v)
    28. LP (   1) N   5                  0.97275    -0.44229  218(v),215(v),117(v),83(v)
                                                    219(v),118(v),132(v),85(v)
    29. LP (   1) N   7                  0.94406    -0.40891  215(v),216(v),151(v),117(v)
                                                    219(v),154(v),118(v),222(v)
                                                    162(v),217(v),132(v)
    30. LP (   1) O   9                  0.98294    -0.64207  215(v),209(v),154(v),49(v)
                                                    50(v),153(v),152(v)
    31. LP (   2) O   9                  0.86783    -0.37750  221(v),210(v),152(v),51(v)
                                                    209(v),154(v),49(v),155(v)
    32. RY*(   1) C   1                  0.00144     0.59662   
    33. RY*(   2) C   1                  0.00064     0.70485   
    34. RY*(   3) C   1                  0.00020     1.43402   
    35. RY*(   4) C   1                  0.00013     1.61002   
    36. RY*(   5) C   1                  0.00007     0.80715   
    37. RY*(   6) C   1                  0.00003     0.53440   
    38. RY*(   7) C   1                  0.00003     2.28227   
    39. RY*(   8) C   1                  0.00000    22.06136   
    40. RY*(   9) C   1                  0.00000     2.99980   
    41. RY*(  10) C   1                  0.00000     0.93401   
    42. RY*(  11) C   1                  0.00001     0.38975   
    43. RY*(  12) C   1                  0.00000     3.00860   
    44. RY*(  13) C   1                  0.00000     1.92273   
    45. RY*(  14) C   1                  0.00001     1.64348   
    46. RY*(  15) C   1                  0.00001     1.88077   
    47. RY*(  16) C   1                  0.00000     1.56989   
    48. RY*(  17) C   1                  0.00000     1.94108   
    49. RY*(   1) C   2                  0.00298     0.87916   
    50. RY*(   2) C   2                  0.00231     1.49947   
    51. RY*(   3) C   2                  0.00098     1.24494   
    52. RY*(   4) C   2                  0.00076     1.10145   
    53. RY*(   5) C   2                  0.00058     1.64593   
    54. RY*(   6) C   2                  0.00039     1.11052   
    55. RY*(   7) C   2                  0.00027     1.43313   
    56. RY*(   8) C   2                  0.00019     1.20880   
    57. RY*(   9) C   2                  0.00012     1.26159   
    58. RY*(  10) C   2                  0.00009     1.45266   
    59. RY*(  11) C   2                  0.00004     1.31019   
    60. RY*(  12) C   2                  0.00000     2.33249   
    61. RY*(  13) C   2                  0.00001     1.89552   
    62. RY*(  14) C   2                  0.00000     3.01008   
    63. RY*(  15) C   2                  0.00000    22.80057   
    64. RY*(  16) C   2                  0.00000     0.81443   
    65. RY*(  17) C   2                  0.00000     1.92314   
    66. RY*(   1) C   3                  0.00198     0.78929   
    67. RY*(   2) C   3                  0.00083     0.91199   
    68. RY*(   3) C   3                  0.00045     0.65096   
    69. RY*(   4) C   3                  0.00033     0.70230   
    70. RY*(   5) C   3                  0.00022     0.97128   
    71. RY*(   6) C   3                  0.00012     1.23503   
    72. RY*(   7) C   3                  0.00008     1.56860   
    73. RY*(   8) C   3                  0.00007     0.75991   
    74. RY*(   9) C   3                  0.00005     1.44279   
    75. RY*(  10) C   3                  0.00003     2.84745   
    76. RY*(  11) C   3                  0.00003     2.02935   
    77. RY*(  12) C   3                  0.00000     2.46473   
    78. RY*(  13) C   3                  0.00001     2.50828   
    79. RY*(  14) C   3                  0.00000     2.51384   
    80. RY*(  15) C   3                  0.00000     1.47369   
    81. RY*(  16) C   3                  0.00000    20.76575   
    82. RY*(  17) C   3                  0.00001     1.95376   
    83. RY*(   1) N   4                  0.00391     1.03727   
    84. RY*(   2) N   4                  0.00160     1.21145   
    85. RY*(   3) N   4                  0.00131     1.38428   
    86. RY*(   4) N   4                  0.00078     2.22742   
    87. RY*(   5) N   4                  0.00041     1.46493   
    88. RY*(   6) N   4                  0.00027     1.50749   
    89. RY*(   7) N   4                  0.00024     1.59101   
    90. RY*(   8) N   4                  0.00007     1.86851   
    91. RY*(   9) N   4                  0.00004     1.88796   
    92. RY*(  10) N   4                  0.00002     1.99100   
    93. RY*(  11) N   4                  0.00001     0.79658   
    94. RY*(  12) N   4                  0.00001     0.99540   
    95. RY*(  13) N   4                  0.00000    34.91413   
    96. RY*(  14) N   4                  0.00000     3.62456   
    97. RY*(  15) N   4                  0.00000     3.48348   
    98. RY*(  16) N   4                  0.00000     4.34215   
    99. RY*(  17) N   4                  0.00001     2.63892   
   100. RY*(   1) N   5                  0.00147     0.91185   
   101. RY*(   2) N   5                  0.00105     1.01353   
   102. RY*(   3) N   5                  0.00086     0.94380   
   103. RY*(   4) N   5                  0.00031     0.86523   
   104. RY*(   5) N   5                  0.00024     1.48406   
   105. RY*(   6) N   5                  0.00016     1.11217   
   106. RY*(   7) N   5                  0.00010     1.09649   
   107. RY*(   8) N   5                  0.00006     0.89404   
   108. RY*(   9) N   5                  0.00002     2.87177   
   109. RY*(  10) N   5                  0.00002     2.57017   
   110. RY*(  11) N   5                  0.00000     3.38482   
   111. RY*(  12) N   5                  0.00000     3.79089   
   112. RY*(  13) N   5                  0.00000     3.27113   
   113. RY*(  14) N   5                  0.00000    35.06087   
   114. RY*(  15) N   5                  0.00000     1.71004   
   115. RY*(  16) N   5                  0.00001     2.30028   
   116. RY*(  17) N   5                  0.00001     2.30961   
   117. RY*(   1) C   6                  0.00561     0.78476   
   118. RY*(   2) C   6                  0.00286     1.32497   
   119. RY*(   3) C   6                  0.00129     1.55766   
   120. RY*(   4) C   6                  0.00072     0.93444   
   121. RY*(   5) C   6                  0.00051     1.46143   
   122. RY*(   6) C   6                  0.00034     1.27833   
   123. RY*(   7) C   6                  0.00016     1.02391   
   124. RY*(   8) C   6                  0.00009     0.73824   
   125. RY*(   9) C   6                  0.00003     1.81367   
   126. RY*(  10) C   6                  0.00000     2.93429   
   127. RY*(  11) C   6                  0.00001     0.27029   
   128. RY*(  12) C   6                  0.00000     2.65782   
   129. RY*(  13) C   6                  0.00000    22.75565   
   130. RY*(  14) C   6                  0.00001     1.21415   
   131. RY*(  15) C   6                  0.00000     0.65557   
   132. RY*(  16) C   6                  0.00000     2.40537   
   133. RY*(  17) C   6                  0.00000     1.96936   
   134. RY*(   1) N   7                  0.00115     0.87629   
   135. RY*(   2) N   7                  0.00088     1.06770   
   136. RY*(   3) N   7                  0.00046     0.53337   
   137. RY*(   4) N   7                  0.00028     1.08264   
   138. RY*(   5) N   7                  0.00013     2.00188   
   139. RY*(   6) N   7                  0.00009     1.05642   
   140. RY*(   7) N   7                  0.00005     2.87010   
   141. RY*(   8) N   7                  0.00003     2.52083   
   142. RY*(   9) N   7                  0.00001     4.84475   
   143. RY*(  10) N   7                  0.00001     2.47865   
   144. RY*(  11) N   7                  0.00001     0.69135   
   145. RY*(  12) N   7                  0.00001     2.57546   
   146. RY*(  13) N   7                  0.00000    34.23391   
   147. RY*(  14) N   7                  0.00001     1.48089   
   148. RY*(  15) N   7                  0.00001     2.20169   
   149. RY*(  16) N   7                  0.00001     2.33405   
   150. RY*(  17) N   7                  0.00000     3.78745   
   151. RY*(   1) C   8                  0.00456     1.40010   
   152. RY*(   2) C   8                  0.00330     1.35894   
   153. RY*(   3) C   8                  0.00288     1.18756   
   154. RY*(   4) C   8                  0.00198     1.78922   
   155. RY*(   5) C   8                  0.00089     1.42116   
   156. RY*(   6) C   8                  0.00072     1.58368   
   157. RY*(   7) C   8                  0.00058     1.22784   
   158. RY*(   8) C   8                  0.00034     0.95580   
   159. RY*(   9) C   8                  0.00010     0.77501   
   160. RY*(  10) C   8                  0.00007     1.24798   
   161. RY*(  11) C   8                  0.00005     7.17868   
   162. RY*(  12) C   8                  0.00004     1.58578   
   163. RY*(  13) C   8                  0.00000    13.28672   
   164. RY*(  14) C   8                  0.00000     1.54615   
   165. RY*(  15) C   8                  0.00001     0.90701   
   166. RY*(  16) C   8                  0.00001     2.46828   
   167. RY*(  17) C   8                  0.00000     6.09718   
   168. RY*(   1) O   9                  0.00277     0.65746   
   169. RY*(   2) O   9                  0.00178     0.51949   
   170. RY*(   3) O   9                  0.00121     0.69877   
   171. RY*(   4) O   9                  0.00065     0.95520   
   172. RY*(   5) O   9                  0.00035     1.18804   
   173. RY*(   6) O   9                  0.00015     1.37266   
   174. RY*(   7) O   9                  0.00007     1.75610   
   175. RY*(   8) O   9                  0.00003     3.45605   
   176. RY*(   9) O   9                  0.00003     1.82426   
   177. RY*(  10) O   9                  0.00000     5.02815   
   178. RY*(  11) O   9                  0.00001     1.67533   
   179. RY*(  12) O   9                  0.00001     3.20154   
   180. RY*(  13) O   9                  0.00000    49.48369   
   181. RY*(  14) O   9                  0.00000     4.29815   
   182. RY*(  15) O   9                  0.00000     2.70784   
   183. RY*(  16) O   9                  0.00000     4.88906   
   184. RY*(  17) O   9                  0.00001     3.13331   
   185. RY*(   1) H  10                  0.00051     0.76329   
   186. RY*(   2) H  10                  0.00007     2.01790   
   187. RY*(   3) H  10                  0.00007     1.69971   
   188. RY*(   4) H  10                  0.00005     1.83283   
   189. RY*(   5) H  10                  0.00002     2.47398   
   190. RY*(   1) H  11                  0.00036     0.76232   
   191. RY*(   2) H  11                  0.00007     1.65669   
   192. RY*(   3) H  11                  0.00005     2.04420   
   193. RY*(   4) H  11                  0.00003     1.76744   
   194. RY*(   5) H  11                  0.00001     2.50916   
   195. RY*(   1) H  12                  0.00038     0.70718   
   196. RY*(   2) H  12                  0.00008     1.70759   
   197. RY*(   3) H  12                  0.00006     1.94710   
   198. RY*(   4) H  12                  0.00004     1.82358   
   199. RY*(   5) H  12                  0.00002     2.61744   
   200. RY*(   1) H  13                  0.00015     0.75201   
   201. RY*(   2) H  13                  0.00012     2.48537   
   202. RY*(   3) H  13                  0.00008     1.58072   
   203. RY*(   4) H  13                  0.00006     2.14420   
   204. RY*(   5) H  13                  0.00002     1.86991   
   205. BD*(   1) C   1 - C   2          0.00634     0.40172   
   206. BD*(   1) C   1 - H  10          0.00492     0.35794   
   207. BD*(   1) C   1 - H  11          0.00157     0.36451   
   208. BD*(   1) C   1 - H  12          0.00426     0.35807   
   209. BD*(   1) C   2 - C   3          0.01664     0.51606   
   210. BD*(   2) C   2 - C   3          0.10697    -0.04231  213(g),209(g),212(g),211(g)
                                                    49(g),70(g),208(v),215(v)
                                                    221(r),206(v)
   211. BD*(   1) C   2 - O   9          0.01522     0.25741   
   212. BD*(   1) C   3 - N   4          0.01375     0.40800   
   213. BD*(   2) C   3 - N   4          0.10482    -0.01571  217(v),221(v),210(g),211(v)
                                                    69(g),212(g),209(g),74(g)
   214. BD*(   1) N   4 - N   5          0.01586     0.33061   
   215. BD*(   1) N   4 - C   8          0.04230     0.38204   
   216. BD*(   1) N   5 - C   6          0.00941     0.51751   
   217. BD*(   2) N   5 - C   6          0.14796    -0.02035  221(v),213(v),120(g),103(g)
   218. BD*(   1) C   6 - N   7          0.01088     0.43625   
   219. BD*(   1) C   6 - H  13          0.00988     0.39371   
   220. BD*(   1) N   7 - C   8          0.00872     0.54026   
   221. BD*(   2) N   7 - C   8          0.18708    -0.02401  217(v),213(v),136(g),152(g)
                                                    210(r),215(g),154(g),158(g)
   222. BD*(   1) C   8 - O   9          0.02323     0.31291   
       -------------------------------
              Total Lewis   30.20204  ( 97.4259%)
        Valence non-Lewis    0.72982  (  2.3543%)
        Rydberg non-Lewis    0.06814  (  0.2198%)
       -------------------------------
            Total unit  1   31.00000  (100.0000%)
           Charge unit  1    0.50000
 Leave Link  607 at Wed Mar  1 00:49:23 2023, MaxMem=  8053063680 cpu:              74.2 elap:               2.4
 (Enter /public3/home/scg5914/software-scg5914/g16/l9999.exe)
 Unable to Open any file for archive entry.
 1\1\GINC-E0708\SP\UB3LYP\Gen\C5H4N3O1(2)\SCG5914\01-Mar-2023\0\\#p b3l
 yp/chkbas pop=nbo geom=allcheck guess=tcheck em=gd3bj\\dsgdb9nsd_12533
 4-4.gjf\\0,2\C,0,-3.0388279683,0.0043847348,0.1124059181\C,0,-1.574834
 4953,0.1443368745,0.0027099283\C,0,-0.7401677264,1.2274793396,-0.07383
 81849\N,0,0.5223705446,0.7234034286,0.1065650761\N,0,1.826696909,1.108
 4181685,-0.0574513436\C,0,2.4310023493,-0.0660495048,-0.1397671272\N,0
 ,1.6234996902,-1.1895535008,-0.1224561089\C,0,0.4576856917,-0.64307215
 98,0.0478517614\O,0,-0.8264990531,-1.0464694383,-0.0159084271\H,0,-3.3
 064096078,-0.5714783243,1.0030244261\H,0,-3.4937289608,0.9926919743,0.
 1717355062\H,0,-3.4488270328,-0.5175613332,-0.7581357736\H,0,3.5042476
 597,-0.1377972592,-0.2213656508\\Version=ES64L-G16RevC.01\State=2-A\HF
 =-432.4003783\S2=0.756661\S2-1=0.\S2A=0.750016\RMSD=3.120e-09\Dipole=-
 1.1930195,-0.1017191,0.2443149\Quadrupole=7.1511088,-7.0065481,-0.1445
 607,-0.3662019,-0.6797655,0.3461669\PG=C01 [X(C5H4N3O1)]\\@
 The archive entry for this job was punched.


 IN NATURE THERE ARE NEITHER REWARDS OR
 PUNISHMENTS -- THERE ARE CONSEQUENCES.

                            -- ROBERT GREEN INGERSOLL
 Job cpu time:       0 days  0 hours  2 minutes 38.5 seconds.
 Elapsed time:       0 days  0 hours  0 minutes  5.2 seconds.
 File lengths (MBytes):  RWF=     51 Int=      0 D2E=      0 Chk=      6 Scr=      1
 Normal termination of Gaussian 16 at Wed Mar  1 00:49:23 2023.
