 Entering Gaussian System, Link 0=/public3/home/scg5914/software-scg5914/g16/g16
 Input=dsgdb9nsd_125328-4.gjf
 Output=dsgdb9nsd_125328-4.log
 Initial command:
 /public3/home/scg5914/software-scg5914/g16/l1.exe "/public3/home/scg5914/software-scg5914/test/tmp/dsgdb9nsd_125328-4/Gau-12738.inp" -scrdir="/public3/home/scg5914/software-scg5914/test/tmp/dsgdb9nsd_125328-4/"
 Entering Link 1 = /public3/home/scg5914/software-scg5914/g16/l1.exe PID=     12739.
  
 Copyright (c) 1988-2019, Gaussian, Inc.  All Rights Reserved.
  
 This is part of the Gaussian(R) 16 program.  It is based on
 the Gaussian(R) 09 system (copyright 2009, Gaussian, Inc.),
 the Gaussian(R) 03 system (copyright 2003, Gaussian, Inc.),
 the Gaussian(R) 98 system (copyright 1998, Gaussian, Inc.),
 the Gaussian(R) 94 system (copyright 1995, Gaussian, Inc.),
 the Gaussian 92(TM) system (copyright 1992, Gaussian, Inc.),
 the Gaussian 90(TM) system (copyright 1990, Gaussian, Inc.),
 the Gaussian 88(TM) system (copyright 1988, Gaussian, Inc.),
 the Gaussian 86(TM) system (copyright 1986, Carnegie Mellon
 University), and the Gaussian 82(TM) system (copyright 1983,
 Carnegie Mellon University). Gaussian is a federally registered
 trademark of Gaussian, Inc.
  
 This software contains proprietary and confidential information,
 including trade secrets, belonging to Gaussian, Inc.
  
 This software is provided under written license and may be
 used, copied, transmitted, or stored only in accord with that
 written license.
  
 The following legend is applicable only to US Government
 contracts under FAR:
  
                    RESTRICTED RIGHTS LEGEND
  
 Use, reproduction and disclosure by the US Government is
 subject to restrictions as set forth in subparagraphs (a)
 and (c) of the Commercial Computer Software - Restricted
 Rights clause in FAR 52.227-19.
  
 Gaussian, Inc.
 340 Quinnipiac St., Bldg. 40, Wallingford CT 06492
  
  
 ---------------------------------------------------------------
 Warning -- This program may not be used in any manner that
 competes with the business of Gaussian, Inc. or will provide
 assistance to any competitor of Gaussian, Inc.  The licensee
 of this program is prohibited from giving any competitor of
 Gaussian, Inc. access to this program.  By using this program,
 the user acknowledges that Gaussian, Inc. is engaged in the
 business of creating and licensing software in the field of
 computational chemistry and represents and warrants to the
 licensee that it is not a competitor of Gaussian, Inc. and that
 it will not use this program in any manner prohibited above.
 ---------------------------------------------------------------
  

 Cite this work as:
 Gaussian 16, Revision C.01,
 M. J. Frisch, G. W. Trucks, H. B. Schlegel, G. E. Scuseria, 
 M. A. Robb, J. R. Cheeseman, G. Scalmani, V. Barone, 
 G. A. Petersson, H. Nakatsuji, X. Li, M. Caricato, A. V. Marenich, 
 J. Bloino, B. G. Janesko, R. Gomperts, B. Mennucci, H. P. Hratchian, 
 J. V. Ortiz, A. F. Izmaylov, J. L. Sonnenberg, D. Williams-Young, 
 F. Ding, F. Lipparini, F. Egidi, J. Goings, B. Peng, A. Petrone, 
 T. Henderson, D. Ranasinghe, V. G. Zakrzewski, J. Gao, N. Rega, 
 G. Zheng, W. Liang, M. Hada, M. Ehara, K. Toyota, R. Fukuda, 
 J. Hasegawa, M. Ishida, T. Nakajima, Y. Honda, O. Kitao, H. Nakai, 
 T. Vreven, K. Throssell, J. A. Montgomery, Jr., J. E. Peralta, 
 F. Ogliaro, M. J. Bearpark, J. J. Heyd, E. N. Brothers, K. N. Kudin, 
 V. N. Staroverov, T. A. Keith, R. Kobayashi, J. Normand, 
 K. Raghavachari, A. P. Rendell, J. C. Burant, S. S. Iyengar, 
 J. Tomasi, M. Cossi, J. M. Millam, M. Klene, C. Adamo, R. Cammi, 
 J. W. Ochterski, R. L. Martin, K. Morokuma, O. Farkas, 
 J. B. Foresman, and D. J. Fox, Gaussian, Inc., Wallingford CT, 2019.
 
 ******************************************
 Gaussian 16:  ES64L-G16RevC.01  3-Jul-2019
                 1-Mar-2023 
 ******************************************
 %chk=dsgdb9nsd_125328-4.chk
 %mem=60GB
 %nprocshared=32
 Will use up to   32 processors via shared memory.
 ------------------------------------
 #p opt freq b3lyp/6-311+g** em=gd3bj
 ------------------------------------
 1/18=20,19=15,26=3,38=1/1,3;
 2/9=110,12=2,17=6,18=5,40=1/2;
 3/5=4,6=6,7=111,11=2,25=1,30=1,71=1,74=-5,124=41/1,2,3;
 4//1;
 5/5=2,38=5/2;
 6/7=2,8=2,9=2,10=2,28=1/1;
 7//1,2,3,16;
 1/18=20,19=15,26=3/3(2);
 2/9=110/2;
 99//99;
 2/9=110/2;
 3/5=4,6=6,7=111,11=2,25=1,30=1,71=1,74=-5,124=41/1,2,3;
 4/5=5,16=3,69=1/1;
 5/5=2,38=5/2;
 7//1,2,3,16;
 1/18=20,19=15,26=3/3(-5);
 2/9=110/2;
 6/7=2,8=2,9=2,10=2,19=2,28=1/1;
 99/9=1/99;
 Leave Link    1 at Wed Mar  1 00:40:50 2023, MaxMem=  8053063680 cpu:               0.8 elap:               0.0
 (Enter /public3/home/scg5914/software-scg5914/g16/l101.exe)
 ----------------------
 dsgdb9nsd_125328-4.gjf
 ----------------------
 Symbolic Z-matrix:
 Charge =  0 Multiplicity = 2
 C                    -3.06748   0.01589  -0.16578 
 C                    -1.5979    0.16914   0.11044 
 C                    -0.75449   1.21279   0.61775 
 N                     0.54737   0.7498   -0.56207 
 C                     1.90575   0.98628   0.03301 
 N                     2.54053  -0.162     0.07662 
 N                     1.62033  -1.20147   0.19852 
 C                     0.45906  -0.62497  -0.39671 
 O                    -0.83022  -1.01995   0.15472 
 H                    -3.56702  -0.42191   0.73027 
 H                    -3.52525   1.00008  -0.33166 
 H                    -3.2243   -0.64286  -1.03988 
 H                     2.35315   1.96517  -0.12124 
 
 ITRead=  0  0  0  0  0  0  0  0  0  0  0  0  0
 MicOpt= -1 -1 -1 -1 -1 -1 -1 -1 -1 -1 -1 -1 -1
 NAtoms=     13 NQM=       13 NQMF=       0 NMMI=      0 NMMIF=      0
                NMic=       0 NMicF=      0.
                    Isotopes and Nuclear Properties:
 (Nuclear quadrupole moments (NQMom) in fm**2, nuclear magnetic moments (NMagM)
  in nuclear magnetons)

  Atom         1           2           3           4           5           6           7           8           9          10
 IAtWgt=          12          12          12          14          12          14          14          12          16           1
 AtmWgt=  12.0000000  12.0000000  12.0000000  14.0030740  12.0000000  14.0030740  14.0030740  12.0000000  15.9949146   1.0078250
 NucSpn=           0           0           0           2           0           2           2           0           0           1
 AtZEff=  -0.0000000  -0.0000000  -0.0000000  -0.0000000  -0.0000000  -0.0000000  -0.0000000  -0.0000000  -0.0000000  -0.0000000
 NQMom=    0.0000000   0.0000000   0.0000000   2.0440000   0.0000000   2.0440000   2.0440000   0.0000000   0.0000000   0.0000000
 NMagM=    0.0000000   0.0000000   0.0000000   0.4037610   0.0000000   0.4037610   0.4037610   0.0000000   0.0000000   2.7928460
 AtZNuc=   6.0000000   6.0000000   6.0000000   7.0000000   6.0000000   7.0000000   7.0000000   6.0000000   8.0000000   1.0000000

  Atom        11          12          13
 IAtWgt=           1           1           1
 AtmWgt=   1.0078250   1.0078250   1.0078250
 NucSpn=           1           1           1
 AtZEff=  -0.0000000  -0.0000000  -0.0000000
 NQMom=    0.0000000   0.0000000   0.0000000
 NMagM=    2.7928460   2.7928460   2.7928460
 AtZNuc=   1.0000000   1.0000000   1.0000000
 Leave Link  101 at Wed Mar  1 00:40:50 2023, MaxMem=  8053063680 cpu:               3.8 elap:               0.1
 (Enter /public3/home/scg5914/software-scg5914/g16/l103.exe)

 GradGradGradGradGradGradGradGradGradGradGradGradGradGradGradGradGradGrad
 Berny optimization.
 Initialization pass.
                           ----------------------------
                           !    Initial Parameters    !
                           ! (Angstroms and Degrees)  !
 --------------------------                            --------------------------
 ! Name  Definition              Value          Derivative Info.                !
 --------------------------------------------------------------------------------
 ! R1    R(1,2)                  1.5031         estimate D2E/DX2                !
 ! R2    R(1,10)                 1.1154         estimate D2E/DX2                !
 ! R3    R(1,11)                 1.098          estimate D2E/DX2                !
 ! R4    R(1,12)                 1.1057         estimate D2E/DX2                !
 ! R5    R(2,3)                  1.4345         estimate D2E/DX2                !
 ! R6    R(2,9)                  1.4161         estimate D2E/DX2                !
 ! R7    R(4,5)                  1.5017         estimate D2E/DX2                !
 ! R8    R(4,8)                  1.3875         estimate D2E/DX2                !
 ! R9    R(5,6)                  1.3128         estimate D2E/DX2                !
 ! R10   R(5,13)                 1.0873         estimate D2E/DX2                !
 ! R11   R(6,7)                  1.3936         estimate D2E/DX2                !
 ! R12   R(7,8)                  1.4266         estimate D2E/DX2                !
 ! R13   R(8,9)                  1.4568         estimate D2E/DX2                !
 ! A1    A(2,1,10)             109.2837         estimate D2E/DX2                !
 ! A2    A(2,1,11)             110.1187         estimate D2E/DX2                !
 ! A3    A(2,1,12)             110.1622         estimate D2E/DX2                !
 ! A4    A(10,1,11)            106.6461         estimate D2E/DX2                !
 ! A5    A(10,1,12)            109.7368         estimate D2E/DX2                !
 ! A6    A(11,1,12)            110.8207         estimate D2E/DX2                !
 ! A7    A(1,2,3)              135.558          estimate D2E/DX2                !
 ! A8    A(1,2,9)              116.753          estimate D2E/DX2                !
 ! A9    A(3,2,9)              106.3274         estimate D2E/DX2                !
 ! A10   A(5,4,8)               99.5767         estimate D2E/DX2                !
 ! A11   A(4,5,6)              108.2285         estimate D2E/DX2                !
 ! A12   A(4,5,13)             117.2427         estimate D2E/DX2                !
 ! A13   A(6,5,13)             126.387          estimate D2E/DX2                !
 ! A14   A(5,6,7)              109.6361         estimate D2E/DX2                !
 ! A15   A(6,7,8)              101.5125         estimate D2E/DX2                !
 ! A16   A(4,8,7)              113.4733         estimate D2E/DX2                !
 ! A17   A(4,8,9)              111.7202         estimate D2E/DX2                !
 ! A18   A(7,8,9)              116.9304         estimate D2E/DX2                !
 ! A19   A(2,9,8)              103.9025         estimate D2E/DX2                !
 ! D1    D(10,1,2,3)           -92.514          estimate D2E/DX2                !
 ! D2    D(10,1,2,9)            71.9911         estimate D2E/DX2                !
 ! D3    D(11,1,2,3)            24.318          estimate D2E/DX2                !
 ! D4    D(11,1,2,9)          -171.177          estimate D2E/DX2                !
 ! D5    D(12,1,2,3)           146.8491         estimate D2E/DX2                !
 ! D6    D(12,1,2,9)           -48.6459         estimate D2E/DX2                !
 ! D7    D(1,2,9,8)            145.5951         estimate D2E/DX2                !
 ! D8    D(3,2,9,8)            -45.6449         estimate D2E/DX2                !
 ! D9    D(8,4,5,6)             17.7693         estimate D2E/DX2                !
 ! D10   D(8,4,5,13)           168.4694         estimate D2E/DX2                !
 ! D11   D(5,4,8,7)             -1.1954         estimate D2E/DX2                !
 ! D12   D(5,4,8,9)            133.5932         estimate D2E/DX2                !
 ! D13   D(4,5,6,7)            -28.6328         estimate D2E/DX2                !
 ! D14   D(13,5,6,7)          -175.9169         estimate D2E/DX2                !
 ! D15   D(5,6,7,8)             26.2099         estimate D2E/DX2                !
 ! D16   D(6,7,8,4)            -14.2869         estimate D2E/DX2                !
 ! D17   D(6,7,8,9)           -146.5966         estimate D2E/DX2                !
 ! D18   D(4,8,9,2)              9.2102         estimate D2E/DX2                !
 ! D19   D(7,8,9,2)            142.3104         estimate D2E/DX2                !
 --------------------------------------------------------------------------------
 Trust Radius=3.00D-01 FncErr=1.00D-07 GrdErr=1.00D-06 EigMax=2.50D+02 EigMin=1.00D-04
 Number of steps in this run=     61 maximum allowed number of steps=    100.
 GradGradGradGradGradGradGradGradGradGradGradGradGradGradGradGradGradGrad

 Leave Link  103 at Wed Mar  1 00:40:50 2023, MaxMem=  8053063680 cpu:               0.1 elap:               0.0
 (Enter /public3/home/scg5914/software-scg5914/g16/l202.exe)
                          Input orientation:                          
 ---------------------------------------------------------------------
 Center     Atomic      Atomic             Coordinates (Angstroms)
 Number     Number       Type             X           Y           Z
 ---------------------------------------------------------------------
      1          6           0       -3.067476    0.015892   -0.165782
      2          6           0       -1.597898    0.169143    0.110442
      3          6           0       -0.754492    1.212790    0.617746
      4          7           0        0.547365    0.749804   -0.562065
      5          6           0        1.905747    0.986282    0.033008
      6          7           0        2.540530   -0.161999    0.076624
      7          7           0        1.620328   -1.201471    0.198517
      8          6           0        0.459060   -0.624971   -0.396706
      9          8           0       -0.830224   -1.019953    0.154716
     10          1           0       -3.567017   -0.421914    0.730274
     11          1           0       -3.525247    1.000080   -0.331662
     12          1           0       -3.224304   -0.642864   -1.039882
     13          1           0        2.353149    1.965173   -0.121236
 ---------------------------------------------------------------------
                    Distance matrix (angstroms):
                    1          2          3          4          5
     1  C    0.000000
     2  C    1.503145   0.000000
     3  C    2.719628   1.434535   0.000000
     4  N    3.709817   2.321979   1.816904   0.000000
     5  C    5.070909   3.598505   2.733148   1.501744   0.000000
     6  N    5.616061   4.151793   3.611098   2.282984   1.312784
     7  N    4.856974   3.499045   3.412357   2.353127   2.212492
     8  C    3.591725   2.262497   2.424703   1.387497   2.207644
     9  O    2.486160   1.416062   2.281507   2.354478   3.394897
    10  H    1.115406   2.147317   3.255029   4.468915   5.693886
    11  H    1.098042   2.144898   2.936614   4.086795   5.443241
    12  H    1.105715   2.151232   3.505874   4.048867   5.488409
    13  H    5.760630   4.346282   3.281708   2.220880   1.087284
                    6          7          8          9         10
     6  N    0.000000
     7  N    1.393604   0.000000
     8  C    2.184239   1.426599   0.000000
     9  O    3.479104   2.457656   1.456822   0.000000
    10  H    6.147922   5.272478   4.185763   2.859887   0.000000
    11  H    6.189570   5.621820   4.303455   3.402976   1.775252
    12  H    5.891615   5.031514   3.739140   2.702014   1.816514
    13  H    2.144556   3.266022   3.220606   4.372755   6.439846
                   11         12         13
    11  H    0.000000
    12  H    1.814224   0.000000
    13  H    5.960807   6.225251   0.000000
 Stoichiometry    C5H4N3O(2)
 Framework group  C1[X(C5H4N3O)]
 Deg. of freedom    33
 Full point group                 C1      NOp   1
 Largest Abelian subgroup         C1      NOp   1
 Largest concise Abelian subgroup C1      NOp   1
                         Standard orientation:                         
 ---------------------------------------------------------------------
 Center     Atomic      Atomic             Coordinates (Angstroms)
 Number     Number       Type             X           Y           Z
 ---------------------------------------------------------------------
      1          6           0        3.068249    0.014898    0.152143
      2          6           0        1.597962    0.169138   -0.119725
      3          6           0        0.753398    1.214248   -0.622064
      4          7           0       -0.545367    0.748471    0.560054
      5          6           0       -1.905301    0.986738   -0.030746
      6          7           0       -2.540424   -0.161306   -0.075609
      7          7           0       -1.620758   -1.200635   -0.202658
      8          6           0       -0.457778   -0.625890    0.390917
      9          8           0        0.829938   -1.019694   -0.164993
     10          1           0        3.565288   -0.420693   -0.746381
     11          1           0        3.526659    0.998568    0.319323
     12          1           0        3.227302   -0.646138    1.024117
     13          1           0       -2.352093    1.965314    0.127224
 ---------------------------------------------------------------------
 Rotational constants (GHZ):           5.1050586           1.2827994           1.0876181
 Leave Link  202 at Wed Mar  1 00:40:50 2023, MaxMem=  8053063680 cpu:               0.1 elap:               0.0
 (Enter /public3/home/scg5914/software-scg5914/g16/l301.exe)
 Standard basis: 6-311+G(d,p) (5D, 7F)
 Ernie: Thresh=  0.10000D-02 Tol=  0.10000D-05 Strict=F.
 There are   231 symmetry adapted cartesian basis functions of A   symmetry.
 There are   222 symmetry adapted basis functions of A   symmetry.
   222 basis functions,   356 primitive gaussians,   231 cartesian basis functions
    32 alpha electrons       31 beta electrons
       nuclear repulsion energy       405.5192917676 Hartrees.
 IExCor=  402 DFT=T Ex+Corr=B3LYP ExCW=0 ScaHFX=  0.200000
 ScaDFX=  0.800000  0.720000  1.000000  0.810000 ScalE2=  1.000000  1.000000
 IRadAn=      5 IRanWt=     -1 IRanGd=            0 ICorTp=0 IEmpDi=141
 NAtoms=   13 NActive=   13 NUniq=   13 SFac= 1.00D+00 NAtFMM=   60 NAOKFM=F Big=F
 Integral buffers will be    131072 words long.
 Raffenetti 2 integral format.
 Two-electron integral symmetry is turned on.
 R6Disp:  Grimme-D3(BJ) Dispersion energy=       -0.0213605333 Hartrees.
 Nuclear repulsion after empirical dispersion term =      405.4979312343 Hartrees.
 Leave Link  301 at Wed Mar  1 00:40:50 2023, MaxMem=  8053063680 cpu:               0.7 elap:               0.0
 (Enter /public3/home/scg5914/software-scg5914/g16/l302.exe)
 NPDir=0 NMtPBC=     1 NCelOv=     1 NCel=       1 NClECP=     1 NCelD=      1
         NCelK=      1 NCelE2=     1 NClLst=     1 CellRange=     0.0.
 One-electron integrals computed using PRISM.
 One-electron integral symmetry used in STVInt
 NBasis=   222 RedAO= T EigKep=  1.40D-05  NBF=   222
 NBsUse=   222 1.00D-06 EigRej= -1.00D+00 NBFU=   222
 Precomputing XC quadrature grid using
 IXCGrd= 4 IRadAn=           5 IRanWt=          -1 IRanGd=           0 AccXCQ= 0.00D+00.
 Generated NRdTot=       0 NPtTot=           0 NUsed=           0 NTot=          32
 NSgBfM=   231   231   231   231   231 MxSgAt=    13 MxSgA2=    13.
 Leave Link  302 at Wed Mar  1 00:40:50 2023, MaxMem=  8053063680 cpu:               3.4 elap:               0.1
 (Enter /public3/home/scg5914/software-scg5914/g16/l303.exe)
 DipDrv:  MaxL=1.
 Leave Link  303 at Wed Mar  1 00:40:50 2023, MaxMem=  8053063680 cpu:               0.4 elap:               0.0
 (Enter /public3/home/scg5914/software-scg5914/g16/l401.exe)
 ExpMin= 4.38D-02 ExpMax= 8.59D+03 ExpMxC= 1.30D+03 IAcc=3 IRadAn=         5 AccDes= 0.00D+00
 Harris functional with IExCor=  402 and IRadAn=       5 diagonalized for initial guess.
 HarFok:  IExCor=  402 AccDes= 0.00D+00 IRadAn=         5 IDoV= 1 UseB2=F ITyADJ=14
 ICtDFT=  3500011 ScaDFX=  1.000000  1.000000  1.000000  1.000000
 FoFCou: FMM=F IPFlag=           0 FMFlag=      100000 FMFlg1=           0
         NFxFlg=           0 DoJE=T BraDBF=F KetDBF=T FulRan=T
         wScrn=  0.000000 ICntrl=       500 IOpCl=  0 I1Cent=   200000004 NGrid=           0
         NMat0=    1 NMatS0=      1 NMatT0=    0 NMatD0=    1 NMtDS0=    0 NMtDT0=    0
 Petite list used in FoFCou.
 Harris En= -432.199400228603    
 JPrj=0 DoOrth=F DoCkMO=F.
 Initial guess <Sx>= 0.0000 <Sy>= 0.0000 <Sz>= 0.5000 <S**2>= 0.7500 S= 0.5000
 Leave Link  401 at Wed Mar  1 00:40:51 2023, MaxMem=  8053063680 cpu:              10.0 elap:               0.3
 (Enter /public3/home/scg5914/software-scg5914/g16/l502.exe)
 Integral symmetry usage will be decided dynamically.
 UHF open shell SCF:
 Using DIIS extrapolation, IDIIS=  1040.
 NGot=  8053063680 LenX=  8052947020 LenY=  8052893218
 Requested convergence on RMS density matrix=1.00D-08 within 128 cycles.
 Requested convergence on MAX density matrix=1.00D-06.
 Requested convergence on             energy=1.00D-06.
 No special actions if energy rises.
 Fock matrices will be formed incrementally for  20 cycles.

 Cycle   1  Pass 1  IDiag  1:
 FoFJK:  IHMeth= 1 ICntrl=       0 DoSepK=F KAlg= 0 I1Cent=           0 FoldK=F
 IRaf= 940000000 NMat=       1 IRICut=       1 DoRegI=T DoRafI=F ISym2E= 0 IDoP0=0 IntGTp=1.
 FoFCou: FMM=F IPFlag=           0 FMFlag=      100000 FMFlg1=           0
         NFxFlg=           0 DoJE=F BraDBF=F KetDBF=F FulRan=T
         wScrn=  0.000000 ICntrl=         0 IOpCl=  1 I1Cent=           0 NGrid=           0
         NMat0=    1 NMatS0=      1 NMatT0=    0 NMatD0=    1 NMtDS0=    0 NMtDT0=    0
 Symmetry not used in FoFCou.
 E= -432.115490341831    
 DIIS: error= 1.89D-02 at cycle   1 NSaved=   1.
 NSaved= 1 IEnMin= 1 EnMin= -432.115490341831     IErMin= 1 ErrMin= 1.89D-02
 ErrMax= 1.89D-02  0.00D+00 EMaxC= 1.00D-01 BMatC= 6.70D-01 BMatP= 6.70D-01
 IDIUse=3 WtCom= 8.11D-01 WtEn= 1.89D-01
 Coeff-Com:  0.100D+01
 Coeff-En:   0.100D+01
 Coeff:      0.100D+01
 Gap=     0.128 Goal=   None    Shift=    0.000
 Gap=     0.073 Goal=   None    Shift=    0.000
 GapD=    0.073 DampG=0.500 DampE=0.500 DampFc=0.2500 IDamp=-1.
 Damping current iteration by 2.50D-01
 RMSDP=8.45D-03 MaxDP=4.64D-01              OVMax= 3.01D-01

 Cycle   2  Pass 1  IDiag  1:
 RMSU=  1.95D-03    CP:  1.04D+00
 E= -432.159707409948     Delta-E=       -0.044217068117 Rises=F Damp=T
 DIIS: error= 7.78D-03 at cycle   2 NSaved=   2.
 NSaved= 2 IEnMin= 2 EnMin= -432.159707409948     IErMin= 2 ErrMin= 7.78D-03
 ErrMax= 7.78D-03  0.00D+00 EMaxC= 1.00D-01 BMatC= 1.69D-01 BMatP= 6.70D-01
 IDIUse=3 WtCom= 9.22D-01 WtEn= 7.78D-02
 Coeff-Com: -0.492D+00 0.149D+01
 Coeff-En:   0.000D+00 0.100D+01
 Coeff:     -0.453D+00 0.145D+01
 Gap=     0.194 Goal=   None    Shift=    0.000
 Gap=     0.145 Goal=   None    Shift=    0.000
 RMSDP=2.68D-03 MaxDP=1.46D-01 DE=-4.42D-02 OVMax= 3.54D-01

 Cycle   3  Pass 1  IDiag  1:
 RMSU=  2.25D-03    CP:  1.08D+00  1.61D+00
 E= -432.200492688456     Delta-E=       -0.040785278508 Rises=F Damp=F
 DIIS: error= 1.23D-02 at cycle   3 NSaved=   3.
 NSaved= 3 IEnMin= 3 EnMin= -432.200492688456     IErMin= 2 ErrMin= 7.78D-03
 ErrMax= 1.23D-02  0.00D+00 EMaxC= 1.00D-01 BMatC= 2.09D-01 BMatP= 1.69D-01
 IDIUse=2 WtCom= 0.00D+00 WtEn= 1.00D+00
 Coeff-En:   0.000D+00 0.113D+00 0.887D+00
 Coeff:      0.000D+00 0.113D+00 0.887D+00
 Gap=     0.136 Goal=   None    Shift=    0.000
 Gap=     0.053 Goal=   None    Shift=    0.000
 RMSDP=4.58D-03 MaxDP=1.67D-01 DE=-4.08D-02 OVMax= 2.86D-01

 Cycle   4  Pass 1  IDiag  1:
 RMSU=  1.74D-03    CP:  1.13D+00  3.00D+00 -2.74D-01
 E= -431.913913004461     Delta-E=        0.286579683995 Rises=F Damp=F
 DIIS: error= 3.46D-02 at cycle   4 NSaved=   4.
 NSaved= 4 IEnMin= 3 EnMin= -432.200492688456     IErMin= 2 ErrMin= 7.78D-03
 ErrMax= 3.46D-02  0.00D+00 EMaxC= 1.00D-01 BMatC= 1.37D+00 BMatP= 1.69D-01
 IDIUse=2 WtCom= 0.00D+00 WtEn= 1.00D+00
 Coeff-En:   0.000D+00 0.000D+00 0.801D+00 0.199D+00
 Coeff:      0.000D+00 0.000D+00 0.801D+00 0.199D+00
 Gap=     0.132 Goal=   None    Shift=    0.000
 Gap=     0.086 Goal=   None    Shift=    0.000
 RMSDP=2.66D-03 MaxDP=1.01D-01 DE= 2.87D-01 OVMax= 1.90D-01

 Cycle   5  Pass 1  IDiag  1:
 RMSU=  6.50D-04    CP:  1.10D+00  2.11D+00  3.13D-01  5.50D-01
 E= -432.223916642662     Delta-E=       -0.310003638201 Rises=F Damp=F
 DIIS: error= 9.54D-03 at cycle   5 NSaved=   5.
 NSaved= 5 IEnMin= 5 EnMin= -432.223916642662     IErMin= 2 ErrMin= 7.78D-03
 ErrMax= 9.54D-03  0.00D+00 EMaxC= 1.00D-01 BMatC= 1.17D-01 BMatP= 1.69D-01
 IDIUse=3 WtCom= 9.05D-01 WtEn= 9.54D-02
 Coeff-Com: -0.724D-01 0.124D+00 0.349D+00-0.870D-01 0.686D+00
 Coeff-En:   0.000D+00 0.000D+00 0.394D+00 0.000D+00 0.606D+00
 Coeff:     -0.655D-01 0.112D+00 0.353D+00-0.787D-01 0.679D+00
 Gap=     0.137 Goal=   None    Shift=    0.000
 Gap=     0.106 Goal=   None    Shift=    0.000
 RMSDP=9.14D-04 MaxDP=3.21D-02 DE=-3.10D-01 OVMax= 7.77D-02

 Cycle   6  Pass 1  IDiag  1:
 RMSU=  2.42D-04    CP:  1.09D+00  1.82D+00  5.64D-01  3.78D-01  9.01D-01
 E= -432.251745364883     Delta-E=       -0.027828722221 Rises=F Damp=F
 DIIS: error= 1.09D-03 at cycle   6 NSaved=   6.
 NSaved= 6 IEnMin= 6 EnMin= -432.251745364883     IErMin= 6 ErrMin= 1.09D-03
 ErrMax= 1.09D-03  0.00D+00 EMaxC= 1.00D-01 BMatC= 1.07D-03 BMatP= 1.17D-01
 IDIUse=3 WtCom= 9.89D-01 WtEn= 1.09D-02
 Coeff-Com: -0.399D-01 0.618D-01 0.188D+00-0.616D-01 0.422D+00 0.429D+00
 Coeff-En:   0.000D+00 0.000D+00 0.000D+00 0.000D+00 0.000D+00 0.100D+01
 Coeff:     -0.394D-01 0.612D-01 0.186D+00-0.609D-01 0.418D+00 0.435D+00
 Gap=     0.135 Goal=   None    Shift=    0.000
 Gap=     0.107 Goal=   None    Shift=    0.000
 RMSDP=1.41D-04 MaxDP=4.48D-03 DE=-2.78D-02 OVMax= 8.63D-03

 Cycle   7  Pass 1  IDiag  1:
 RMSU=  1.03D-04    CP:  1.09D+00  1.83D+00  5.83D-01  3.73D-01  8.94D-01
                    CP:  6.64D-01
 E= -432.252001978587     Delta-E=       -0.000256613704 Rises=F Damp=F
 DIIS: error= 3.69D-04 at cycle   7 NSaved=   7.
 NSaved= 7 IEnMin= 7 EnMin= -432.252001978587     IErMin= 7 ErrMin= 3.69D-04
 ErrMax= 3.69D-04  0.00D+00 EMaxC= 1.00D-01 BMatC= 1.63D-04 BMatP= 1.07D-03
 IDIUse=3 WtCom= 9.96D-01 WtEn= 3.69D-03
 Coeff-Com:  0.226D-02-0.651D-02 0.162D-01-0.966D-02 0.483D-01 0.250D+00
 Coeff-Com:  0.700D+00
 Coeff-En:   0.000D+00 0.000D+00 0.000D+00 0.000D+00 0.000D+00 0.365D-01
 Coeff-En:   0.964D+00
 Coeff:      0.225D-02-0.649D-02 0.162D-01-0.963D-02 0.481D-01 0.249D+00
 Coeff:      0.701D+00
 Gap=     0.135 Goal=   None    Shift=    0.000
 Gap=     0.108 Goal=   None    Shift=    0.000
 RMSDP=7.54D-05 MaxDP=3.98D-03 DE=-2.57D-04 OVMax= 5.25D-03

 Cycle   8  Pass 1  IDiag  1:
 RMSU=  4.53D-05    CP:  1.09D+00  1.82D+00  5.85D-01  3.86D-01  9.14D-01
                    CP:  8.71D-01  1.13D+00
 E= -432.252072003412     Delta-E=       -0.000070024825 Rises=F Damp=F
 DIIS: error= 1.27D-04 at cycle   8 NSaved=   8.
 NSaved= 8 IEnMin= 8 EnMin= -432.252072003412     IErMin= 8 ErrMin= 1.27D-04
 ErrMax= 1.27D-04  0.00D+00 EMaxC= 1.00D-01 BMatC= 3.49D-05 BMatP= 1.63D-04
 IDIUse=3 WtCom= 9.99D-01 WtEn= 1.27D-03
 Coeff-Com:  0.115D-01-0.192D-01-0.286D-01 0.906D-02-0.616D-01 0.515D-01
 Coeff-Com:  0.383D+00 0.654D+00
 Coeff-En:   0.000D+00 0.000D+00 0.000D+00 0.000D+00 0.000D+00 0.000D+00
 Coeff-En:   0.000D+00 0.100D+01
 Coeff:      0.115D-01-0.192D-01-0.286D-01 0.905D-02-0.615D-01 0.514D-01
 Coeff:      0.382D+00 0.655D+00
 Gap=     0.135 Goal=   None    Shift=    0.000
 Gap=     0.108 Goal=   None    Shift=    0.000
 RMSDP=5.16D-05 MaxDP=3.29D-03 DE=-7.00D-05 OVMax= 3.77D-03

 Cycle   9  Pass 1  IDiag  1:
 RMSU=  2.77D-05    CP:  1.09D+00  1.83D+00  5.88D-01  3.96D-01  9.32D-01
                    CP:  9.55D-01  1.37D+00  1.18D+00
 E= -432.252094593476     Delta-E=       -0.000022590064 Rises=F Damp=F
 DIIS: error= 8.69D-05 at cycle   9 NSaved=   9.
 NSaved= 9 IEnMin= 9 EnMin= -432.252094593476     IErMin= 9 ErrMin= 8.69D-05
 ErrMax= 8.69D-05  0.00D+00 EMaxC= 1.00D-01 BMatC= 1.10D-05 BMatP= 3.49D-05
 IDIUse=1 WtCom= 1.00D+00 WtEn= 0.00D+00
 Coeff-Com:  0.192D-02-0.229D-02-0.220D-01 0.725D-02-0.472D-01-0.843D-01
 Coeff-Com: -0.117D+00 0.336D+00 0.928D+00
 Coeff:      0.192D-02-0.229D-02-0.220D-01 0.725D-02-0.472D-01-0.843D-01
 Coeff:     -0.117D+00 0.336D+00 0.928D+00
 Gap=     0.135 Goal=   None    Shift=    0.000
 Gap=     0.108 Goal=   None    Shift=    0.000
 RMSDP=4.90D-05 MaxDP=3.17D-03 DE=-2.26D-05 OVMax= 3.55D-03

 Cycle  10  Pass 1  IDiag  1:
 RMSU=  1.70D-05    CP:  1.09D+00  1.83D+00  5.87D-01  4.05D-01  9.41D-01
                    CP:  1.04D+00  1.62D+00  1.74D+00  1.30D+00
 E= -432.252105504220     Delta-E=       -0.000010910744 Rises=F Damp=F
 DIIS: error= 5.44D-05 at cycle  10 NSaved=  10.
 NSaved=10 IEnMin=10 EnMin= -432.252105504220     IErMin=10 ErrMin= 5.44D-05
 ErrMax= 5.44D-05  0.00D+00 EMaxC= 1.00D-01 BMatC= 4.32D-06 BMatP= 1.10D-05
 IDIUse=1 WtCom= 1.00D+00 WtEn= 0.00D+00
 Coeff-Com: -0.142D-02 0.294D-02-0.931D-02 0.286D-02-0.185D-01-0.682D-01
 Coeff-Com: -0.164D+00 0.771D-01 0.593D+00 0.585D+00
 Coeff:     -0.142D-02 0.294D-02-0.931D-02 0.286D-02-0.185D-01-0.682D-01
 Coeff:     -0.164D+00 0.771D-01 0.593D+00 0.585D+00
 Gap=     0.135 Goal=   None    Shift=    0.000
 Gap=     0.108 Goal=   None    Shift=    0.000
 RMSDP=1.93D-05 MaxDP=8.04D-04 DE=-1.09D-05 OVMax= 1.62D-03

 Cycle  11  Pass 1  IDiag  1:
 RMSU=  8.91D-06    CP:  1.09D+00  1.83D+00  5.86D-01  4.06D-01  9.50D-01
                    CP:  1.07D+00  1.70D+00  1.85D+00  1.56D+00  7.08D-01
 E= -432.252107701263     Delta-E=       -0.000002197042 Rises=F Damp=F
 DIIS: error= 4.17D-05 at cycle  11 NSaved=  11.
 NSaved=11 IEnMin=11 EnMin= -432.252107701263     IErMin=11 ErrMin= 4.17D-05
 ErrMax= 4.17D-05  0.00D+00 EMaxC= 1.00D-01 BMatC= 1.30D-06 BMatP= 4.32D-06
 IDIUse=1 WtCom= 1.00D+00 WtEn= 0.00D+00
 Coeff-Com: -0.897D-03 0.143D-02 0.184D-02-0.403D-03 0.479D-02-0.130D-01
 Coeff-Com: -0.634D-01-0.514D-01 0.473D-01 0.401D+00 0.672D+00
 Coeff:     -0.897D-03 0.143D-02 0.184D-02-0.403D-03 0.479D-02-0.130D-01
 Coeff:     -0.634D-01-0.514D-01 0.473D-01 0.401D+00 0.672D+00
 Gap=     0.135 Goal=   None    Shift=    0.000
 Gap=     0.108 Goal=   None    Shift=    0.000
 RMSDP=1.06D-05 MaxDP=6.66D-04 DE=-2.20D-06 OVMax= 7.05D-04

 Cycle  12  Pass 1  IDiag  1:
 RMSU=  3.81D-06    CP:  1.09D+00  1.83D+00  5.86D-01  4.08D-01  9.48D-01
                    CP:  1.08D+00  1.74D+00  1.97D+00  1.64D+00  1.03D+00
                    CP:  9.01D-01
 E= -432.252108252260     Delta-E=       -0.000000550998 Rises=F Damp=F
 DIIS: error= 1.12D-05 at cycle  12 NSaved=  12.
 NSaved=12 IEnMin=12 EnMin= -432.252108252260     IErMin=12 ErrMin= 1.12D-05
 ErrMax= 1.12D-05  0.00D+00 EMaxC= 1.00D-01 BMatC= 2.16D-07 BMatP= 1.30D-06
 IDIUse=1 WtCom= 1.00D+00 WtEn= 0.00D+00
 Coeff-Com: -0.256D-03 0.377D-03 0.211D-02-0.541D-03 0.466D-02 0.159D-02
 Coeff-Com: -0.141D-01-0.336D-01-0.576D-01 0.181D+00 0.383D+00 0.533D+00
 Coeff:     -0.256D-03 0.377D-03 0.211D-02-0.541D-03 0.466D-02 0.159D-02
 Coeff:     -0.141D-01-0.336D-01-0.576D-01 0.181D+00 0.383D+00 0.533D+00
 Gap=     0.135 Goal=   None    Shift=    0.000
 Gap=     0.108 Goal=   None    Shift=    0.000
 RMSDP=2.43D-06 MaxDP=9.06D-05 DE=-5.51D-07 OVMax= 2.13D-04

 Cycle  13  Pass 1  IDiag  1:
 RMSU=  1.88D-06    CP:  1.09D+00  1.83D+00  5.86D-01  4.08D-01  9.48D-01
                    CP:  1.08D+00  1.74D+00  1.98D+00  1.63D+00  1.04D+00
                    CP:  1.01D+00  1.01D+00
 E= -432.252108326942     Delta-E=       -0.000000074681 Rises=F Damp=F
 DIIS: error= 8.30D-06 at cycle  13 NSaved=  13.
 NSaved=13 IEnMin=13 EnMin= -432.252108326942     IErMin=13 ErrMin= 8.30D-06
 ErrMax= 8.30D-06  0.00D+00 EMaxC= 1.00D-01 BMatC= 9.08D-08 BMatP= 2.16D-07
 IDIUse=1 WtCom= 1.00D+00 WtEn= 0.00D+00
 Coeff-Com:  0.126D-03-0.214D-03 0.829D-03-0.265D-03 0.145D-02 0.617D-02
 Coeff-Com:  0.132D-01-0.163D-03-0.681D-01-0.162D-01-0.512D-02 0.389D+00
 Coeff-Com:  0.679D+00
 Coeff:      0.126D-03-0.214D-03 0.829D-03-0.265D-03 0.145D-02 0.617D-02
 Coeff:      0.132D-01-0.163D-03-0.681D-01-0.162D-01-0.512D-02 0.389D+00
 Coeff:      0.679D+00
 Gap=     0.135 Goal=   None    Shift=    0.000
 Gap=     0.108 Goal=   None    Shift=    0.000
 RMSDP=2.35D-06 MaxDP=1.17D-04 DE=-7.47D-08 OVMax= 1.73D-04

 Cycle  14  Pass 1  IDiag  1:
 RMSU=  1.13D-06    CP:  1.09D+00  1.83D+00  5.86D-01  4.08D-01  9.48D-01
                    CP:  1.08D+00  1.74D+00  2.00D+00  1.64D+00  1.13D+00
                    CP:  1.07D+00  1.28D+00  1.18D+00
 E= -432.252108381739     Delta-E=       -0.000000054798 Rises=F Damp=F
 DIIS: error= 3.74D-06 at cycle  14 NSaved=  14.
 NSaved=14 IEnMin=14 EnMin= -432.252108381739     IErMin=14 ErrMin= 3.74D-06
 ErrMax= 3.74D-06  0.00D+00 EMaxC= 1.00D-01 BMatC= 1.72D-08 BMatP= 9.08D-08
 IDIUse=1 WtCom= 1.00D+00 WtEn= 0.00D+00
 Coeff-Com:  0.113D-03-0.168D-03-0.251D-03 0.351D-04-0.721D-03 0.207D-02
 Coeff-Com:  0.698D-02 0.123D-01-0.135D-01-0.489D-01-0.133D+00-0.224D-01
 Coeff-Com:  0.242D+00 0.955D+00
 Coeff:      0.113D-03-0.168D-03-0.251D-03 0.351D-04-0.721D-03 0.207D-02
 Coeff:      0.698D-02 0.123D-01-0.135D-01-0.489D-01-0.133D+00-0.224D-01
 Coeff:      0.242D+00 0.955D+00
 Gap=     0.135 Goal=   None    Shift=    0.000
 Gap=     0.108 Goal=   None    Shift=    0.000
 RMSDP=1.69D-06 MaxDP=6.99D-05 DE=-5.48D-08 OVMax= 2.01D-04

 Cycle  15  Pass 1  IDiag  1:
 RMSU=  6.82D-07    CP:  1.09D+00  1.83D+00  5.86D-01  4.08D-01  9.48D-01
                    CP:  1.08D+00  1.74D+00  2.00D+00  1.64D+00  1.16D+00
                    CP:  1.13D+00  1.50D+00  1.56D+00  1.46D+00
 E= -432.252108407837     Delta-E=       -0.000000026098 Rises=F Damp=F
 DIIS: error= 2.75D-06 at cycle  15 NSaved=  15.
 NSaved=15 IEnMin=15 EnMin= -432.252108407837     IErMin=15 ErrMin= 2.75D-06
 ErrMax= 2.75D-06  0.00D+00 EMaxC= 1.00D-01 BMatC= 7.70D-09 BMatP= 1.72D-08
 IDIUse=1 WtCom= 1.00D+00 WtEn= 0.00D+00
 Coeff-Com:  0.642D-04-0.967D-04-0.320D-03 0.101D-03-0.750D-03-0.100D-03
 Coeff-Com:  0.646D-03 0.766D-02 0.654D-02-0.189D-01-0.768D-01-0.999D-01
 Coeff-Com: -0.486D-01 0.528D+00 0.703D+00
 Coeff:      0.642D-04-0.967D-04-0.320D-03 0.101D-03-0.750D-03-0.100D-03
 Coeff:      0.646D-03 0.766D-02 0.654D-02-0.189D-01-0.768D-01-0.999D-01
 Coeff:     -0.486D-01 0.528D+00 0.703D+00
 Gap=     0.135 Goal=   None    Shift=    0.000
 Gap=     0.108 Goal=   None    Shift=    0.000
 RMSDP=1.15D-06 MaxDP=5.71D-05 DE=-2.61D-08 OVMax= 9.58D-05

 Cycle  16  Pass 1  IDiag  1:
 RMSU=  4.57D-07    CP:  1.09D+00  1.83D+00  5.86D-01  4.08D-01  9.48D-01
                    CP:  1.08D+00  1.75D+00  2.01D+00  1.63D+00  1.18D+00
                    CP:  1.15D+00  1.62D+00  1.81D+00  1.82D+00  1.01D+00
 E= -432.252108417211     Delta-E=       -0.000000009373 Rises=F Damp=F
 DIIS: error= 1.63D-06 at cycle  16 NSaved=  16.
 NSaved=16 IEnMin=16 EnMin= -432.252108417211     IErMin=16 ErrMin= 1.63D-06
 ErrMax= 1.63D-06  0.00D+00 EMaxC= 1.00D-01 BMatC= 3.38D-09 BMatP= 7.70D-09
 IDIUse=1 WtCom= 1.00D+00 WtEn= 0.00D+00
 Coeff-Com: -0.735D-04 0.108D-03-0.890D-04 0.277D-04-0.420D-04-0.160D-02
 Coeff-Com: -0.495D-02-0.229D-02 0.129D-01 0.239D-01 0.310D-01-0.416D-01
 Coeff-Com: -0.184D+00-0.258D+00 0.480D+00 0.945D+00
 Coeff:     -0.735D-04 0.108D-03-0.890D-04 0.277D-04-0.420D-04-0.160D-02
 Coeff:     -0.495D-02-0.229D-02 0.129D-01 0.239D-01 0.310D-01-0.416D-01
 Coeff:     -0.184D+00-0.258D+00 0.480D+00 0.945D+00
 Gap=     0.135 Goal=   None    Shift=    0.000
 Gap=     0.108 Goal=   None    Shift=    0.000
 RMSDP=8.74D-07 MaxDP=1.82D-05 DE=-9.37D-09 OVMax= 1.10D-04

 Cycle  17  Pass 1  IDiag  1:
 RMSU=  2.57D-07    CP:  1.09D+00  1.83D+00  5.86D-01  4.08D-01  9.48D-01
                    CP:  1.08D+00  1.74D+00  2.01D+00  1.63D+00  1.19D+00
                    CP:  1.15D+00  1.71D+00  1.99D+00  2.23D+00  1.56D+00
                    CP:  1.56D+00
 E= -432.252108423455     Delta-E=       -0.000000006244 Rises=F Damp=F
 DIIS: error= 7.54D-07 at cycle  17 NSaved=  17.
 NSaved=17 IEnMin=17 EnMin= -432.252108423455     IErMin=17 ErrMin= 7.54D-07
 ErrMax= 7.54D-07  0.00D+00 EMaxC= 1.00D-01 BMatC= 7.40D-10 BMatP= 3.38D-09
 IDIUse=1 WtCom= 1.00D+00 WtEn= 0.00D+00
 Coeff-Com: -0.417D-04 0.591D-04 0.692D-04-0.185D-04 0.227D-03-0.592D-03
 Coeff-Com: -0.187D-02-0.356D-02 0.262D-02 0.148D-01 0.383D-01 0.171D-01
 Coeff-Com: -0.587D-01-0.304D+00-0.535D-01 0.377D+00 0.972D+00
 Coeff:     -0.417D-04 0.591D-04 0.692D-04-0.185D-04 0.227D-03-0.592D-03
 Coeff:     -0.187D-02-0.356D-02 0.262D-02 0.148D-01 0.383D-01 0.171D-01
 Coeff:     -0.587D-01-0.304D+00-0.535D-01 0.377D+00 0.972D+00
 Gap=     0.135 Goal=   None    Shift=    0.000
 Gap=     0.108 Goal=   None    Shift=    0.000
 RMSDP=5.93D-07 MaxDP=1.43D-05 DE=-6.24D-09 OVMax= 6.87D-05

 Cycle  18  Pass 1  IDiag  1:
 RMSU=  1.42D-07    CP:  1.09D+00  1.83D+00  5.86D-01  4.08D-01  9.48D-01
                    CP:  1.08D+00  1.74D+00  2.01D+00  1.63D+00  1.19D+00
                    CP:  1.16D+00  1.75D+00  2.11D+00  2.48D+00  1.93D+00
                    CP:  2.10D+00  1.45D+00
 E= -432.252108425469     Delta-E=       -0.000000002014 Rises=F Damp=F
 DIIS: error= 5.56D-07 at cycle  18 NSaved=  18.
 NSaved=18 IEnMin=18 EnMin= -432.252108425469     IErMin=18 ErrMin= 5.56D-07
 ErrMax= 5.56D-07  0.00D+00 EMaxC= 1.00D-01 BMatC= 3.74D-10 BMatP= 7.40D-10
 IDIUse=1 WtCom= 1.00D+00 WtEn= 0.00D+00
 Coeff-Com: -0.238D-06-0.457D-06 0.787D-04-0.187D-04 0.160D-03 0.131D-03
 Coeff-Com:  0.345D-03-0.137D-02-0.185D-02 0.112D-02 0.130D-01 0.220D-01
 Coeff-Com:  0.195D-01-0.853D-01-0.155D+00-0.393D-01 0.545D+00 0.681D+00
 Coeff:     -0.238D-06-0.457D-06 0.787D-04-0.187D-04 0.160D-03 0.131D-03
 Coeff:      0.345D-03-0.137D-02-0.185D-02 0.112D-02 0.130D-01 0.220D-01
 Coeff:      0.195D-01-0.853D-01-0.155D+00-0.393D-01 0.545D+00 0.681D+00
 Gap=     0.135 Goal=   None    Shift=    0.000
 Gap=     0.108 Goal=   None    Shift=    0.000
 RMSDP=1.99D-07 MaxDP=6.89D-06 DE=-2.01D-09 OVMax= 2.33D-05

 Cycle  19  Pass 1  IDiag  1:
 RMSU=  8.27D-08    CP:  1.09D+00  1.83D+00  5.86D-01  4.08D-01  9.48D-01
                    CP:  1.08D+00  1.74D+00  2.01D+00  1.63D+00  1.19D+00
                    CP:  1.16D+00  1.76D+00  2.13D+00  2.51D+00  2.05D+00
                    CP:  2.33D+00  1.72D+00  1.29D+00
 E= -432.252108425930     Delta-E=       -0.000000000461 Rises=F Damp=F
 DIIS: error= 3.21D-07 at cycle  19 NSaved=  19.
 NSaved=19 IEnMin=19 EnMin= -432.252108425930     IErMin=19 ErrMin= 3.21D-07
 ErrMax= 3.21D-07  0.00D+00 EMaxC= 1.00D-01 BMatC= 1.35D-10 BMatP= 3.74D-10
 IDIUse=1 WtCom= 1.00D+00 WtEn= 0.00D+00
 Coeff-Com:  0.215D-04-0.295D-04 0.435D-05-0.140D-05-0.411D-04 0.386D-03
 Coeff-Com:  0.130D-02 0.105D-02-0.229D-02-0.817D-02-0.121D-01 0.614D-02
 Coeff-Com:  0.409D-01 0.103D+00-0.758D-01-0.236D+00-0.156D+00 0.371D+00
 Coeff-Com:  0.966D+00
 Coeff:      0.215D-04-0.295D-04 0.435D-05-0.140D-05-0.411D-04 0.386D-03
 Coeff:      0.130D-02 0.105D-02-0.229D-02-0.817D-02-0.121D-01 0.614D-02
 Coeff:      0.409D-01 0.103D+00-0.758D-01-0.236D+00-0.156D+00 0.371D+00
 Coeff:      0.966D+00
 Gap=     0.135 Goal=   None    Shift=    0.000
 Gap=     0.108 Goal=   None    Shift=    0.000
 RMSDP=2.14D-07 MaxDP=6.29D-06 DE=-4.61D-10 OVMax= 2.69D-05

 Cycle  20  Pass 1  IDiag  1:
 RMSU=  5.88D-08    CP:  1.09D+00  1.83D+00  5.86D-01  4.08D-01  9.48D-01
                    CP:  1.08D+00  1.74D+00  2.01D+00  1.63D+00  1.19D+00
                    CP:  1.17D+00  1.77D+00  2.15D+00  2.57D+00  2.16D+00
                    CP:  2.57D+00  2.08D+00  1.87D+00  1.54D+00
 E= -432.252108426273     Delta-E=       -0.000000000343 Rises=F Damp=F
 DIIS: error= 2.29D-07 at cycle  20 NSaved=  20.
 NSaved=20 IEnMin=20 EnMin= -432.252108426273     IErMin=20 ErrMin= 2.29D-07
 ErrMax= 2.29D-07  0.00D+00 EMaxC= 1.00D-01 BMatC= 4.43D-11 BMatP= 1.35D-10
 IDIUse=1 WtCom= 1.00D+00 WtEn= 0.00D+00
 Coeff-Com:  0.843D-05-0.120D-04-0.185D-04 0.444D-05-0.557D-04 0.124D-03
 Coeff-Com:  0.391D-03 0.681D-03-0.229D-03-0.367D-02-0.928D-02-0.545D-02
 Coeff-Com:  0.650D-02 0.692D-01 0.400D-01-0.665D-01-0.256D+00-0.158D+00
 Coeff-Com:  0.328D+00 0.105D+01
 Coeff:      0.843D-05-0.120D-04-0.185D-04 0.444D-05-0.557D-04 0.124D-03
 Coeff:      0.391D-03 0.681D-03-0.229D-03-0.367D-02-0.928D-02-0.545D-02
 Coeff:      0.650D-02 0.692D-01 0.400D-01-0.665D-01-0.256D+00-0.158D+00
 Coeff:      0.328D+00 0.105D+01
 Gap=     0.135 Goal=   None    Shift=    0.000
 Gap=     0.108 Goal=   None    Shift=    0.000
 RMSDP=1.35D-07 MaxDP=3.53D-06 DE=-3.43D-10 OVMax= 1.74D-05

 Cycle  21  Pass 1  IDiag  1:
 Restarting incremental Fock formation.
 E= -432.252108426402     Delta-E=       -0.000000000130 Rises=F Damp=F
 DIIS: error= 1.05D-07 at cycle  21 NSaved=  20.
 NSaved=20 IEnMin=20 EnMin= -432.252108426402     IErMin=20 ErrMin= 1.05D-07
 ErrMax= 1.05D-07  0.00D+00 EMaxC= 1.00D-01 BMatC= 1.25D-11 BMatP= 4.43D-11
 IDIUse=1 WtCom= 1.00D+00 WtEn= 0.00D+00
 Coeff-Com: -0.108D-04 0.150D-04-0.420D-05 0.170D-04-0.163D-03-0.486D-03
 Coeff-Com: -0.526D-03 0.105D-02 0.335D-02 0.527D-02-0.339D-02-0.157D-01
 Coeff-Com: -0.482D-01 0.404D-01 0.981D-01 0.504D-01-0.165D+00-0.401D+00
 Coeff-Com:  0.521D-01 0.138D+01
 Coeff:     -0.108D-04 0.150D-04-0.420D-05 0.170D-04-0.163D-03-0.486D-03
 Coeff:     -0.526D-03 0.105D-02 0.335D-02 0.527D-02-0.339D-02-0.157D-01
 Coeff:     -0.482D-01 0.404D-01 0.981D-01 0.504D-01-0.165D+00-0.401D+00
 Coeff:      0.521D-01 0.138D+01
 Gap=     0.135 Goal=   None    Shift=    0.000
 Gap=     0.108 Goal=   None    Shift=    0.000
 RMSDP=1.03D-07 MaxDP=2.60D-06 DE=-1.30D-10 OVMax= 1.28D-05

 Cycle  22  Pass 1  IDiag  1:
 RMSU=  1.02D-07    CP:  1.00D+00
 E= -432.252108426448     Delta-E=       -0.000000000046 Rises=F Damp=F
 DIIS: error= 4.13D-08 at cycle  22 NSaved=  20.
 NSaved=20 IEnMin=20 EnMin= -432.252108426448     IErMin=20 ErrMin= 4.13D-08
 ErrMax= 4.13D-08  0.00D+00 EMaxC= 1.00D-01 BMatC= 1.77D-12 BMatP= 1.25D-11
 IDIUse=1 WtCom= 1.00D+00 WtEn= 0.00D+00
 Coeff-Com: -0.383D-06 0.148D-05 0.684D-05-0.176D-04-0.319D-05-0.108D-03
 Coeff-Com: -0.202D-04 0.501D-03 0.155D-02 0.882D-03 0.201D-03-0.132D-01
 Coeff-Com: -0.719D-02 0.109D-01 0.463D-01 0.289D-01-0.598D-01-0.220D+00
 Coeff-Com:  0.489D-01 0.116D+01
 Coeff:     -0.383D-06 0.148D-05 0.684D-05-0.176D-04-0.319D-05-0.108D-03
 Coeff:     -0.202D-04 0.501D-03 0.155D-02 0.882D-03 0.201D-03-0.132D-01
 Coeff:     -0.719D-02 0.109D-01 0.463D-01 0.289D-01-0.598D-01-0.220D+00
 Coeff:      0.489D-01 0.116D+01
 Gap=     0.135 Goal=   None    Shift=    0.000
 Gap=     0.108 Goal=   None    Shift=    0.000
 RMSDP=3.25D-08 MaxDP=8.47D-07 DE=-4.62D-11 OVMax= 3.60D-06

 Cycle  23  Pass 1  IDiag  1:
 RMSU=  1.11D-08    CP:  1.00D+00  1.30D+00
 E= -432.252108426450     Delta-E=       -0.000000000001 Rises=F Damp=F
 DIIS: error= 8.76D-09 at cycle  23 NSaved=  20.
 NSaved=20 IEnMin=20 EnMin= -432.252108426450     IErMin=20 ErrMin= 8.76D-09
 ErrMax= 8.76D-09  0.00D+00 EMaxC= 1.00D-01 BMatC= 1.22D-13 BMatP= 1.77D-12
 IDIUse=1 WtCom= 1.00D+00 WtEn= 0.00D+00
 Coeff-Com:  0.464D-06 0.145D-05-0.500D-05-0.152D-04-0.223D-04 0.225D-04
 Coeff-Com:  0.985D-04 0.350D-03 0.348D-03-0.810D-04-0.254D-02-0.267D-02
 Coeff-Com:  0.151D-02 0.110D-01 0.792D-02 0.300D-02-0.525D-01-0.531D-01
 Coeff-Com:  0.192D+00 0.894D+00
 Coeff:      0.464D-06 0.145D-05-0.500D-05-0.152D-04-0.223D-04 0.225D-04
 Coeff:      0.985D-04 0.350D-03 0.348D-03-0.810D-04-0.254D-02-0.267D-02
 Coeff:      0.151D-02 0.110D-01 0.792D-02 0.300D-02-0.525D-01-0.531D-01
 Coeff:      0.192D+00 0.894D+00
 Gap=     0.135 Goal=   None    Shift=    0.000
 Gap=     0.108 Goal=   None    Shift=    0.000
 RMSDP=5.82D-09 MaxDP=1.63D-07 DE=-1.48D-12 OVMax= 5.64D-07

 SCF Done:  E(UB3LYP) =  -432.252108426     A.U. after   23 cycles
            NFock= 23  Conv=0.58D-08     -V/T= 2.0056
 <Sx>= 0.0000 <Sy>= 0.0000 <Sz>= 0.5000 <S**2>= 0.7673 S= 0.5086
 <L.S>=  0.00000000000    
 KE= 4.298396127698D+02 PE=-1.818753148447D+03 EE= 5.511634960160D+02
 Annihilation of the first spin contaminant:
 S**2 before annihilation     0.7673,   after     0.7501
 Leave Link  502 at Wed Mar  1 00:41:08 2023, MaxMem=  8053063680 cpu:             561.0 elap:              17.6
 (Enter /public3/home/scg5914/software-scg5914/g16/l601.exe)
 Copying SCF densities to generalized density rwf, IOpCl= 1 IROHF=0.

 **********************************************************************

            Population analysis using the SCF Density.

 **********************************************************************

 Orbital symmetries:
 Alpha Orbitals:
       Occupied  (A) (A) (A) (A) (A) (A) (A) (A) (A) (A) (A) (A)
                 (A) (A) (A) (A) (A) (A) (A) (A) (A) (A) (A) (A)
                 (A) (A) (A) (A) (A) (A) (A) (A)
       Virtual   (A) (A) (A) (A) (A) (A) (A) (A) (A) (A) (A) (A)
                 (A) (A) (A) (A) (A) (A) (A) (A) (A) (A) (A) (A)
                 (A) (A) (A) (A) (A) (A) (A) (A) (A) (A) (A) (A)
                 (A) (A) (A) (A) (A) (A) (A) (A) (A) (A) (A) (A)
                 (A) (A) (A) (A) (A) (A) (A) (A) (A) (A) (A) (A)
                 (A) (A) (A) (A) (A) (A) (A) (A) (A) (A) (A) (A)
                 (A) (A) (A) (A) (A) (A) (A) (A) (A) (A) (A) (A)
                 (A) (A) (A) (A) (A) (A) (A) (A) (A) (A) (A) (A)
                 (A) (A) (A) (A) (A) (A) (A) (A) (A) (A) (A) (A)
                 (A) (A) (A) (A) (A) (A) (A) (A) (A) (A) (A) (A)
                 (A) (A) (A) (A) (A) (A) (A) (A) (A) (A) (A) (A)
                 (A) (A) (A) (A) (A) (A) (A) (A) (A) (A) (A) (A)
                 (A) (A) (A) (A) (A) (A) (A) (A) (A) (A) (A) (A)
                 (A) (A) (A) (A) (A) (A) (A) (A) (A) (A) (A) (A)
                 (A) (A) (A) (A) (A) (A) (A) (A) (A) (A) (A) (A)
                 (A) (A) (A) (A) (A) (A) (A) (A) (A) (A)
 Beta  Orbitals:
       Occupied  (A) (A) (A) (A) (A) (A) (A) (A) (A) (A) (A) (A)
                 (A) (A) (A) (A) (A) (A) (A) (A) (A) (A) (A) (A)
                 (A) (A) (A) (A) (A) (A) (A)
       Virtual   (A) (A) (A) (A) (A) (A) (A) (A) (A) (A) (A) (A)
                 (A) (A) (A) (A) (A) (A) (A) (A) (A) (A) (A) (A)
                 (A) (A) (A) (A) (A) (A) (A) (A) (A) (A) (A) (A)
                 (A) (A) (A) (A) (A) (A) (A) (A) (A) (A) (A) (A)
                 (A) (A) (A) (A) (A) (A) (A) (A) (A) (A) (A) (A)
                 (A) (A) (A) (A) (A) (A) (A) (A) (A) (A) (A) (A)
                 (A) (A) (A) (A) (A) (A) (A) (A) (A) (A) (A) (A)
                 (A) (A) (A) (A) (A) (A) (A) (A) (A) (A) (A) (A)
                 (A) (A) (A) (A) (A) (A) (A) (A) (A) (A) (A) (A)
                 (A) (A) (A) (A) (A) (A) (A) (A) (A) (A) (A) (A)
                 (A) (A) (A) (A) (A) (A) (A) (A) (A) (A) (A) (A)
                 (A) (A) (A) (A) (A) (A) (A) (A) (A) (A) (A) (A)
                 (A) (A) (A) (A) (A) (A) (A) (A) (A) (A) (A) (A)
                 (A) (A) (A) (A) (A) (A) (A) (A) (A) (A) (A) (A)
                 (A) (A) (A) (A) (A) (A) (A) (A) (A) (A) (A) (A)
                 (A) (A) (A) (A) (A) (A) (A) (A) (A) (A) (A)
 The electronic state is 2-A.
 Alpha  occ. eigenvalues --  -19.23731 -14.40495 -14.36952 -14.36415 -10.32427
 Alpha  occ. eigenvalues --  -10.32280 -10.28473 -10.26456 -10.23685  -1.14268
 Alpha  occ. eigenvalues --   -1.05069  -0.91600  -0.84031  -0.80435  -0.74442
 Alpha  occ. eigenvalues --   -0.64226  -0.62540  -0.57546  -0.53122  -0.51409
 Alpha  occ. eigenvalues --   -0.48595  -0.46962  -0.46406  -0.44216  -0.43469
 Alpha  occ. eigenvalues --   -0.40853  -0.36822  -0.33665  -0.31916  -0.29256
 Alpha  occ. eigenvalues --   -0.27683  -0.25761
 Alpha virt. eigenvalues --   -0.12238  -0.08912  -0.04554  -0.01537   0.01166
 Alpha virt. eigenvalues --    0.02194   0.02834   0.03130   0.04238   0.05187
 Alpha virt. eigenvalues --    0.05600   0.05911   0.06910   0.07681   0.08833
 Alpha virt. eigenvalues --    0.08992   0.10073   0.10926   0.12069   0.12644
 Alpha virt. eigenvalues --    0.13586   0.14094   0.15058   0.15621   0.15966
 Alpha virt. eigenvalues --    0.16558   0.17934   0.18106   0.18562   0.19092
 Alpha virt. eigenvalues --    0.20387   0.21091   0.21434   0.21996   0.22717
 Alpha virt. eigenvalues --    0.23166   0.23782   0.24746   0.24962   0.25649
 Alpha virt. eigenvalues --    0.26976   0.28556   0.29240   0.30322   0.31613
 Alpha virt. eigenvalues --    0.32302   0.32443   0.33904   0.35082   0.35986
 Alpha virt. eigenvalues --    0.36522   0.39301   0.41418   0.42722   0.45115
 Alpha virt. eigenvalues --    0.48757   0.51817   0.52187   0.54417   0.56499
 Alpha virt. eigenvalues --    0.57112   0.57557   0.57699   0.59759   0.61833
 Alpha virt. eigenvalues --    0.62245   0.66003   0.67257   0.67687   0.70730
 Alpha virt. eigenvalues --    0.71645   0.72521   0.76373   0.81444   0.83246
 Alpha virt. eigenvalues --    0.85126   0.86649   0.87674   0.89203   0.90362
 Alpha virt. eigenvalues --    0.90433   0.92286   0.93556   0.95123   0.96390
 Alpha virt. eigenvalues --    0.99270   1.03780   1.07669   1.09505   1.10979
 Alpha virt. eigenvalues --    1.17246   1.17886   1.23041   1.24585   1.28531
 Alpha virt. eigenvalues --    1.31344   1.32231   1.33869   1.36301   1.38731
 Alpha virt. eigenvalues --    1.40611   1.43627   1.48955   1.49797   1.50947
 Alpha virt. eigenvalues --    1.53888   1.57351   1.58763   1.60259   1.62970
 Alpha virt. eigenvalues --    1.65464   1.69175   1.71309   1.73541   1.75543
 Alpha virt. eigenvalues --    1.77662   1.80996   1.84662   1.86730   1.88654
 Alpha virt. eigenvalues --    1.91495   1.92276   1.95951   2.02183   2.10251
 Alpha virt. eigenvalues --    2.11627   2.19043   2.24465   2.26986   2.27550
 Alpha virt. eigenvalues --    2.32643   2.35858   2.37672   2.39121   2.42306
 Alpha virt. eigenvalues --    2.44378   2.47464   2.50537   2.52441   2.52976
 Alpha virt. eigenvalues --    2.55155   2.57986   2.59562   2.63860   2.70241
 Alpha virt. eigenvalues --    2.73956   2.74900   2.77746   2.81265   2.82417
 Alpha virt. eigenvalues --    2.86286   2.90102   2.91564   2.98248   3.00438
 Alpha virt. eigenvalues --    3.07127   3.08251   3.09855   3.12401   3.24669
 Alpha virt. eigenvalues --    3.32070   3.44581   3.45739   3.58880   3.69332
 Alpha virt. eigenvalues --    3.74974   3.79789   3.82151   3.87353   3.89552
 Alpha virt. eigenvalues --    3.95566   3.99542   4.10779   4.35612   4.43012
 Alpha virt. eigenvalues --    4.50964   4.70549   5.00778   5.18428   5.31107
 Alpha virt. eigenvalues --    5.51058  23.43736  23.62642  23.76907  23.81252
 Alpha virt. eigenvalues --   23.85859  35.40971  35.44894  35.51630  49.82169
  Beta  occ. eigenvalues --  -19.23305 -14.40329 -14.36933 -14.36387 -10.32420
  Beta  occ. eigenvalues --  -10.31886 -10.27593 -10.26428 -10.23700  -1.13463
  Beta  occ. eigenvalues --   -1.04856  -0.91234  -0.83314  -0.80131  -0.73155
  Beta  occ. eigenvalues --   -0.63717  -0.62340  -0.56984  -0.52401  -0.50704
  Beta  occ. eigenvalues --   -0.48139  -0.46341  -0.46106  -0.43812  -0.42769
  Beta  occ. eigenvalues --   -0.39709  -0.36536  -0.32966  -0.30800  -0.28411
  Beta  occ. eigenvalues --   -0.26687
  Beta virt. eigenvalues --   -0.15877  -0.10208  -0.07577  -0.04334  -0.01318
  Beta virt. eigenvalues --    0.01620   0.02351   0.02886   0.03226   0.04675
  Beta virt. eigenvalues --    0.05277   0.05641   0.06107   0.07009   0.07823
  Beta virt. eigenvalues --    0.09043   0.09364   0.10413   0.11037   0.12297
  Beta virt. eigenvalues --    0.12749   0.13689   0.14201   0.15312   0.15851
  Beta virt. eigenvalues --    0.16341   0.16630   0.18083   0.18196   0.18681
  Beta virt. eigenvalues --    0.19130   0.20622   0.21218   0.21874   0.22133
  Beta virt. eigenvalues --    0.22881   0.23266   0.23907   0.24889   0.25060
  Beta virt. eigenvalues --    0.25694   0.27081   0.28722   0.29334   0.30449
  Beta virt. eigenvalues --    0.31818   0.32415   0.32562   0.34325   0.35361
  Beta virt. eigenvalues --    0.36255   0.36707   0.39454   0.41530   0.42817
  Beta virt. eigenvalues --    0.45196   0.49257   0.51962   0.52690   0.55071
  Beta virt. eigenvalues --    0.57122   0.57507   0.58031   0.58456   0.60039
  Beta virt. eigenvalues --    0.62045   0.63652   0.66158   0.67446   0.68014
  Beta virt. eigenvalues --    0.71185   0.71875   0.72876   0.76807   0.81854
  Beta virt. eigenvalues --    0.83465   0.85384   0.87099   0.87796   0.89257
  Beta virt. eigenvalues --    0.90611   0.90715   0.92541   0.93675   0.95438
  Beta virt. eigenvalues --    0.97139   0.99570   1.04197   1.08259   1.09948
  Beta virt. eigenvalues --    1.11121   1.17672   1.18453   1.23400   1.24842
  Beta virt. eigenvalues --    1.29315   1.31933   1.33020   1.34463   1.36551
  Beta virt. eigenvalues --    1.38883   1.41217   1.44179   1.49760   1.50416
  Beta virt. eigenvalues --    1.51336   1.54302   1.57546   1.59145   1.60855
  Beta virt. eigenvalues --    1.63460   1.66286   1.69725   1.71615   1.74688
  Beta virt. eigenvalues --    1.76194   1.77999   1.81391   1.85360   1.86886
  Beta virt. eigenvalues --    1.89921   1.92176   1.92902   1.96567   2.02768
  Beta virt. eigenvalues --    2.10446   2.12059   2.19340   2.25029   2.27200
  Beta virt. eigenvalues --    2.27825   2.32948   2.36072   2.37951   2.39430
  Beta virt. eigenvalues --    2.42560   2.44621   2.47649   2.50715   2.52626
  Beta virt. eigenvalues --    2.53234   2.55289   2.58135   2.59750   2.63997
  Beta virt. eigenvalues --    2.72388   2.74889   2.75644   2.78233   2.81743
  Beta virt. eigenvalues --    2.83028   2.87121   2.90368   2.91835   2.98571
  Beta virt. eigenvalues --    3.01311   3.07633   3.08586   3.10352   3.13656
  Beta virt. eigenvalues --    3.25079   3.32900   3.44811   3.45871   3.58961
  Beta virt. eigenvalues --    3.69511   3.75046   3.80062   3.82365   3.87459
  Beta virt. eigenvalues --    3.90261   3.95643   3.99772   4.11257   4.35892
  Beta virt. eigenvalues --    4.43112   4.51209   4.70644   5.02144   5.18513
  Beta virt. eigenvalues --    5.31576   5.51448  23.44517  23.62653  23.77598
  Beta virt. eigenvalues --   23.81300  23.85851  35.41066  35.44956  35.51702
  Beta virt. eigenvalues --   49.82597
          Condensed to atoms (all electrons):
               1          2          3          4          5          6
     1  C    8.011689  -0.528660  -1.533885  -0.058537   0.072965  -0.003567
     2  C   -0.528660   7.758787  -1.048501   0.109845  -0.026638  -0.027188
     3  C   -1.533885  -1.048501   8.349730   0.185853  -0.076266   0.023143
     4  N   -0.058537   0.109845   0.185853   7.012258   0.167604  -0.092387
     5  C    0.072965  -0.026638  -0.076266   0.167604   5.522488   0.270356
     6  N   -0.003567  -0.027188   0.023143  -0.092387   0.270356   6.760797
     7  N   -0.005561  -0.005696   0.024631  -0.004123   0.018351   0.013304
     8  C   -0.313288  -0.363430  -0.035141  -0.063816  -0.400457   0.123200
     9  O   -0.285069   0.055304   0.189493  -0.105474   0.067206   0.029477
    10  H    0.433968  -0.032431  -0.035497  -0.002398  -0.000190  -0.000087
    11  H    0.386770  -0.069792   0.037556   0.001481  -0.000030   0.000058
    12  H    0.318158   0.042201  -0.005709  -0.000349  -0.000751   0.000015
    13  H   -0.000994  -0.017566   0.019421  -0.073655   0.419771  -0.044155
               7          8          9         10         11         12
     1  C   -0.005561  -0.313288  -0.285069   0.433968   0.386770   0.318158
     2  C   -0.005696  -0.363430   0.055304  -0.032431  -0.069792   0.042201
     3  C    0.024631  -0.035141   0.189493  -0.035497   0.037556  -0.005709
     4  N   -0.004123  -0.063816  -0.105474  -0.002398   0.001481  -0.000349
     5  C    0.018351  -0.400457   0.067206  -0.000190  -0.000030  -0.000751
     6  N    0.013304   0.123200   0.029477  -0.000087   0.000058   0.000015
     7  N    6.838138   0.272006  -0.064364   0.000142   0.000059  -0.000515
     8  C    0.272006   6.717903   0.072631  -0.004885  -0.000078   0.021016
     9  O   -0.064364   0.072631   8.025694  -0.002221   0.011175  -0.006441
    10  H    0.000142  -0.004885  -0.002221   0.491078  -0.022736  -0.018865
    11  H    0.000059  -0.000078   0.011175  -0.022736   0.491449  -0.020323
    12  H   -0.000515   0.021016  -0.006441  -0.018865  -0.020323   0.483268
    13  H    0.003478   0.031498  -0.000337   0.000000   0.000002  -0.000001
              13
     1  C   -0.000994
     2  C   -0.017566
     3  C    0.019421
     4  N   -0.073655
     5  C    0.419771
     6  N   -0.044155
     7  N    0.003478
     8  C    0.031498
     9  O   -0.000337
    10  H    0.000000
    11  H    0.000002
    12  H   -0.000001
    13  H    0.496548
          Atomic-Atomic Spin Densities.
               1          2          3          4          5          6
     1  C   -0.156601  -0.033769   0.145589  -0.033629  -0.001420   0.002820
     2  C   -0.033769   0.314580   0.120089  -0.014502  -0.012062   0.003425
     3  C    0.145589   0.120089   0.385969  -0.043269   0.020154  -0.004577
     4  N   -0.033629  -0.014502  -0.043269   0.130807  -0.023745   0.000016
     5  C   -0.001420  -0.012062   0.020154  -0.023745   0.020920   0.004282
     6  N    0.002820   0.003425  -0.004577   0.000016   0.004282   0.016350
     7  N   -0.003702   0.000723   0.001765   0.003843  -0.005868  -0.001622
     8  C    0.024235   0.028104  -0.043464   0.025687   0.009714  -0.007106
     9  O    0.056879  -0.116797  -0.050200  -0.025214   0.005368   0.000960
    10  H    0.024380  -0.031022   0.000729  -0.001221  -0.000078   0.000023
    11  H    0.001925   0.000375  -0.002024   0.000627   0.000020  -0.000006
    12  H   -0.009602   0.008999  -0.000327   0.001030   0.000050  -0.000015
    13  H    0.000074   0.000300  -0.001617   0.001769   0.000447  -0.000808
               7          8          9         10         11         12
     1  C   -0.003702   0.024235   0.056879   0.024380   0.001925  -0.009602
     2  C    0.000723   0.028104  -0.116797  -0.031022   0.000375   0.008999
     3  C    0.001765  -0.043464  -0.050200   0.000729  -0.002024  -0.000327
     4  N    0.003843   0.025687  -0.025214  -0.001221   0.000627   0.001030
     5  C   -0.005868   0.009714   0.005368  -0.000078   0.000020   0.000050
     6  N   -0.001622  -0.007106   0.000960   0.000023  -0.000006  -0.000015
     7  N    0.010426   0.005251  -0.006750  -0.000041   0.000008   0.000006
     8  C    0.005251  -0.017688  -0.024066  -0.001187   0.000334   0.001110
     9  O   -0.006750  -0.024066   0.258833   0.005232  -0.000767  -0.001167
    10  H   -0.000041  -0.001187   0.005232   0.030284  -0.002002  -0.003346
    11  H    0.000008   0.000334  -0.000767  -0.002002   0.002106   0.001034
    12  H    0.000006   0.001110  -0.001167  -0.003346   0.001034   0.004199
    13  H    0.000709  -0.001198  -0.000167  -0.000000   0.000000   0.000000
              13
     1  C    0.000074
     2  C    0.000300
     3  C   -0.001617
     4  N    0.001769
     5  C    0.000447
     6  N   -0.000808
     7  N    0.000709
     8  C   -0.001198
     9  O   -0.000167
    10  H   -0.000000
    11  H    0.000000
    12  H    0.000000
    13  H    0.000364
 Mulliken charges and spin densities:
               1          2
     1  C   -0.493990   0.017180
     2  C    0.153766   0.268444
     3  C   -0.094827   0.528818
     4  N   -0.076303   0.022199
     5  C   -0.034411   0.017782
     6  N   -0.052966   0.013742
     7  N   -0.089850   0.004746
     8  C   -0.057159  -0.000276
     9  O    0.012926   0.102143
    10  H    0.194120   0.021750
    11  H    0.184409   0.001629
    12  H    0.188295   0.001971
    13  H    0.165989  -0.000128
 Sum of Mulliken charges =  -0.00000   1.00000
 Mulliken charges and spin densities with hydrogens summed into heavy atoms:
               1          2
     1  C    0.072834   0.042529
     2  C    0.153766   0.268444
     3  C   -0.094827   0.528818
     4  N   -0.076303   0.022199
     5  C    0.131579   0.017655
     6  N   -0.052966   0.013742
     7  N   -0.089850   0.004746
     8  C   -0.057159  -0.000276
     9  O    0.012926   0.102143
 Electronic spatial extent (au):  <R**2>=           1058.1740
 Charge=             -0.0000 electrons
 Dipole moment (field-independent basis, Debye):
    X=              5.3242    Y=              1.9933    Z=              1.2340  Tot=              5.8175
 Quadrupole moment (field-independent basis, Debye-Ang):
   XX=            -47.2860   YY=            -56.2741   ZZ=            -53.5214
   XY=             -6.6938   XZ=             -0.2015   YZ=             -0.0766
 Traceless Quadrupole moment (field-independent basis, Debye-Ang):
   XX=              5.0745   YY=             -3.9135   ZZ=             -1.1609
   XY=             -6.6938   XZ=             -0.2015   YZ=             -0.0766
 Octapole moment (field-independent basis, Debye-Ang**2):
  XXX=             65.2552  YYY=              1.8888  ZZZ=              2.6815  XYY=             -1.9483
  XXY=             14.2577  XXZ=              4.6464  XZZ=              3.5726  YZZ=             -6.5144
  YYZ=              4.8238  XYZ=              1.7049
 Hexadecapole moment (field-independent basis, Debye-Ang**3):
 XXXX=          -1057.3668 YYYY=           -295.2587 ZZZZ=           -100.5508 XXXY=            -42.1352
 XXXZ=             -6.6186 YYYX=            -33.5115 YYYZ=              8.8750 ZZZX=              3.2742
 ZZZY=              5.6884 XXYY=           -214.2766 XXZZ=           -190.4191 YYZZ=            -69.8801
 XXYZ=              1.6954 YYXZ=              1.9867 ZZXY=             -6.8607
 N-N= 4.054979312343D+02 E-N=-1.818753148348D+03  KE= 4.298396127698D+02
                          Isotropic Fermi Contact Couplings
        Atom                 a.u.       MegaHertz       Gauss      10(-4) cm-1
     1  C(13)             -0.00622      -6.99727      -2.49680      -2.33404
     2  C(13)              0.01442      16.21256       5.78505       5.40793
     3  C(13)              0.08750      98.36405      35.09874      32.81072
     4  N(14)              0.09033      29.18645      10.41445       9.73555
     5  C(13)              0.00556       6.25576       2.23221       2.08670
     6  N(14)             -0.00104      -0.33644      -0.12005      -0.11222
     7  N(14)             -0.00056      -0.18214      -0.06499      -0.06075
     8  C(13)             -0.00379      -4.26194      -1.52077      -1.42163
     9  O(17)              0.07743     -46.93476     -16.74749     -15.65575
    10  H(1)               0.01064      47.56284      16.97160      15.86526
    11  H(1)               0.00224      10.00771       3.57100       3.33821
    12  H(1)               0.00092       4.11541       1.46848       1.37275
    13  H(1)               0.00018       0.82433       0.29414       0.27497
 --------------------------------------------------------
       Center         ----  Spin Dipole Couplings  ----
                      3XX-RR        3YY-RR        3ZZ-RR
 --------------------------------------------------------
     1   Atom        0.004893      0.000711     -0.005604
     2   Atom       -0.153334     -0.153207      0.306541
     3   Atom       -0.319342      0.641746     -0.322404
     4   Atom        0.105944      0.029478     -0.135422
     5   Atom        0.017339     -0.014228     -0.003111
     6   Atom        0.022578     -0.019838     -0.002740
     7   Atom       -0.007303      0.031324     -0.024022
     8   Atom        0.010247      0.010191     -0.020438
     9   Atom       -0.302264     -0.012687      0.314951
    10   Atom        0.006425     -0.003379     -0.003046
    11   Atom        0.010191     -0.004367     -0.005824
    12   Atom        0.003098     -0.001198     -0.001900
    13   Atom        0.004389     -0.000585     -0.003804
 --------------------------------------------------------
                        XY            XZ            YZ
 --------------------------------------------------------
     1   Atom       -0.010977     -0.002892      0.005839
     2   Atom       -0.030565     -0.069178      0.080824
     3   Atom        0.257645      0.050214      0.378718
     4   Atom        0.134065      0.001616     -0.005845
     5   Atom       -0.000870     -0.018338      0.000450
     6   Atom        0.006061      0.042618      0.004297
     7   Atom        0.017961     -0.003147     -0.023341
     8   Atom       -0.010004     -0.017947      0.009868
     9   Atom       -0.071242      0.115376     -0.405625
    10   Atom       -0.004436     -0.001785      0.001087
    11   Atom        0.001613      0.004087      0.000154
    12   Atom       -0.004397      0.005036     -0.002610
    13   Atom       -0.002673     -0.001289      0.000084
 --------------------------------------------------------


 ---------------------------------------------------------------------------------
              Anisotropic Spin Dipole Couplings in Principal Axis System
 ---------------------------------------------------------------------------------

       Atom             a.u.   MegaHertz   Gauss  10(-4) cm-1        Axes

              Baa    -0.0104    -1.402    -0.500    -0.468  0.3823  0.6948 -0.6091
     1 C(13)  Bbb    -0.0052    -0.700    -0.250    -0.233  0.5771  0.3353  0.7447
              Bcc     0.0157     2.102     0.750     0.701  0.7216 -0.6363 -0.2728
 
              Baa    -0.1841   -24.698    -8.813    -8.238  0.6746  0.7377 -0.0264
     2 C(13)  Bbb    -0.1474   -19.779    -7.058    -6.598  0.7228 -0.6529  0.2264
              Bcc     0.3314    44.477    15.870    14.836 -0.1498  0.1718  0.9737
 
              Baa    -0.4677   -62.767   -22.397   -20.937  0.3632 -0.3754  0.8527
     3 C(13)  Bbb    -0.3637   -48.808   -17.416   -16.280  0.9052 -0.0744 -0.4184
              Bcc     0.8315   111.575    39.813    37.217  0.2205  0.9239  0.3128
 
              Baa    -0.1359    -5.243    -1.871    -1.749 -0.0475  0.0737  0.9961
     4 N(14)  Bbb    -0.0712    -2.746    -0.980    -0.916 -0.6006  0.7947 -0.0875
              Bcc     0.2071     7.989     2.851     2.665  0.7981  0.6025 -0.0065
 
              Baa    -0.0143    -1.913    -0.683    -0.638  0.0899  0.9901  0.1079
     5 C(13)  Bbb    -0.0139    -1.862    -0.664    -0.621  0.4988 -0.1385  0.8556
              Bcc     0.0281     3.775     1.347     1.259  0.8620 -0.0231 -0.5063
 
              Baa    -0.0345    -1.332    -0.475    -0.444 -0.5988  0.0128  0.8008
     6 N(14)  Bbb    -0.0206    -0.793    -0.283    -0.265 -0.0713  0.9950 -0.0693
              Bcc     0.0551     2.126     0.758     0.709  0.7977  0.0986  0.5949
 
              Baa    -0.0330    -1.274    -0.455    -0.425 -0.1488  0.3736  0.9156
     7 N(14)  Bbb    -0.0129    -0.497    -0.177    -0.166  0.9356 -0.2467  0.2527
              Bcc     0.0459     1.771     0.632     0.591  0.3202  0.8942 -0.3128
 
              Baa    -0.0293    -3.938    -1.405    -1.313  0.3814 -0.1318  0.9149
     8 C(13)  Bbb     0.0010     0.133     0.048     0.044  0.5957  0.7919 -0.1342
              Bcc     0.0283     3.804     1.357     1.269  0.7068 -0.5963 -0.3806
 
              Baa    -0.3232    23.387     8.345     7.801  0.9787 -0.0389 -0.2016
     9 O(17)  Bbb    -0.2855    20.661     7.372     6.892  0.1433  0.8327  0.5349
              Bcc     0.6087   -44.048   -15.717   -14.693  0.1471 -0.5524  0.8205
 
              Baa    -0.0052    -2.756    -0.983    -0.919  0.3227  0.9246 -0.2024
    10 H(1)   Bbb    -0.0033    -1.780    -0.635    -0.594  0.2348  0.1289  0.9635
              Bcc     0.0085     4.535     1.618     1.513  0.9169 -0.3584 -0.1755
 
              Baa    -0.0068    -3.644    -1.300    -1.215 -0.2411  0.0976  0.9656
    11 H(1)   Bbb    -0.0045    -2.406    -0.858    -0.802 -0.0756  0.9900 -0.1189
              Bcc     0.0113     6.049     2.158     2.018  0.9676  0.1016  0.2313
 
              Baa    -0.0050    -2.683    -0.958    -0.895 -0.5509 -0.0655  0.8320
    12 H(1)   Bbb    -0.0038    -2.027    -0.723    -0.676  0.3474  0.8884  0.2999
              Bcc     0.0088     4.710     1.681     1.571  0.7588 -0.4543  0.4667
 
              Baa    -0.0040    -2.157    -0.770    -0.719  0.1875  0.1214  0.9747
    13 H(1)   Bbb    -0.0017    -0.889    -0.317    -0.297  0.3639  0.9131 -0.1837
              Bcc     0.0057     3.046     1.087     1.016  0.9124 -0.3892 -0.1270
 

 ---------------------------------------------------------------------------------

 No NMR shielding tensors so no spin-rotation constants.
 Leave Link  601 at Wed Mar  1 00:41:08 2023, MaxMem=  8053063680 cpu:               4.4 elap:               0.2
 (Enter /public3/home/scg5914/software-scg5914/g16/l701.exe)
 ... and contract with generalized density number  0.
 Compute integral first derivatives.
 R6Disp: Adding Grimme-D3(BJ) dispersion energy 1st derivatives to the gradient.
 Leave Link  701 at Wed Mar  1 00:41:08 2023, MaxMem=  8053063680 cpu:               2.8 elap:               0.1
 (Enter /public3/home/scg5914/software-scg5914/g16/l702.exe)
 L702 exits ... SP integral derivatives will be done elsewhere.
 Leave Link  702 at Wed Mar  1 00:41:09 2023, MaxMem=  8053063680 cpu:               0.2 elap:               0.0
 (Enter /public3/home/scg5914/software-scg5914/g16/l703.exe)
 Integral derivatives from FoFJK, PRISM(SPDF).
 Compute integral first derivatives, UseDBF=F ICtDFT=           0.
 Calling FoFJK, ICntrl=      2127 FMM=F ISym2X=0 I1Cent= 0 IOpClX= 1 NMat=1 NMatS=1 NMatT=0.
 FoFJK:  IHMeth= 1 ICntrl=    2127 DoSepK=F KAlg= 0 I1Cent=           0 FoldK=F
 IRaf=         0 NMat=       1 IRICut=       1 DoRegI=T DoRafI=F ISym2E= 0 IDoP0=0 IntGTp=1.
 FoFCou: FMM=F IPFlag=           0 FMFlag=      100000 FMFlg1=         800
         NFxFlg=           0 DoJE=F BraDBF=F KetDBF=F FulRan=T
         wScrn=  0.000000 ICntrl=      2127 IOpCl=  1 I1Cent=           0 NGrid=           0
         NMat0=    1 NMatS0=      1 NMatT0=    0 NMatD0=    1 NMtDS0=    0 NMtDT0=    0
 Symmetry not used in FoFCou.
 Leave Link  703 at Wed Mar  1 00:41:10 2023, MaxMem=  8053063680 cpu:              45.3 elap:               1.4
 (Enter /public3/home/scg5914/software-scg5914/g16/l716.exe)
 Dipole        = 2.09471796D+00 7.84219444D-01 4.85497955D-01
 ***** Axes restored to original set *****
 -------------------------------------------------------------------
 Center     Atomic                   Forces (Hartrees/Bohr)
 Number     Number              X              Y              Z
 -------------------------------------------------------------------
      1        6           0.004639550    0.002711145    0.017019745
      2        6           0.023153719   -0.014893986    0.034281913
      3        6          -0.002612668   -0.013446870   -0.073032291
      4        7           0.009200863    0.013706008    0.086933918
      5        6          -0.024773613   -0.019225070   -0.071682815
      6        7          -0.004068241    0.007006392    0.039741614
      7        7          -0.052050679    0.033851681   -0.070261621
      8        6           0.033258777   -0.027374337    0.095356970
      9        8           0.001409302    0.021188116   -0.059595291
     10        1           0.004366206    0.000369520   -0.011246966
     11        1           0.003522944   -0.004374055   -0.001264158
     12        1           0.002907944    0.005036550    0.008418803
     13        1           0.001045894   -0.004555095    0.005330179
 -------------------------------------------------------------------
 Cartesian Forces:  Max     0.095356970 RMS     0.034879486
 Leave Link  716 at Wed Mar  1 00:41:10 2023, MaxMem=  8053063680 cpu:               1.0 elap:               0.0
 (Enter /public3/home/scg5914/software-scg5914/g16/l103.exe)

 GradGradGradGradGradGradGradGradGradGradGradGradGradGradGradGradGradGrad
 Berny optimization.
 FormGI is forming the generalized inverse of G from B-inverse, IUseBI=4.
 Internal  Forces:  Max     0.103500879 RMS     0.033835575
 Search for a local minimum.
 Step number   1 out of a maximum of   61
 All quantities printed in internal units (Hartrees-Bohrs-Radians)
 RMS Force = .33836D-01 SwitMx=.10000D-02 MixMth= 1
 Mixed Optimization -- RFO/linear search
 Second derivative matrix not updated -- first step.
 ITU=  0
     Eigenvalues ---    0.00724   0.00940   0.00979   0.01390   0.01479
     Eigenvalues ---    0.02310   0.02963   0.04745   0.07296   0.07570
     Eigenvalues ---    0.14287   0.16000   0.16000   0.16000   0.20842
     Eigenvalues ---    0.23028   0.23309   0.24625   0.25000   0.25000
     Eigenvalues ---    0.31341   0.32034   0.32050   0.33058   0.33900
     Eigenvalues ---    0.35128   0.37365   0.39507   0.40345   0.43059
     Eigenvalues ---    0.43906   0.46817   0.60605
 RFO step:  Lambda=-1.94903442D-01 EMin= 7.24344438D-03
 Linear search not attempted -- first point.
 Maximum step size (   0.300) exceeded in Quadratic search.
    -- Step size scaled by   0.830
 Iteration  1 RMS(Cart)=  0.24961643 RMS(Int)=  0.04304931
 Iteration  2 RMS(Cart)=  0.12921514 RMS(Int)=  0.00639321
 Iteration  3 RMS(Cart)=  0.00892647 RMS(Int)=  0.00085602
 Iteration  4 RMS(Cart)=  0.00002250 RMS(Int)=  0.00085590
 Iteration  5 RMS(Cart)=  0.00000001 RMS(Int)=  0.00085590
 ITry= 1 IFail=0 DXMaxC= 1.44D+00 DCOld= 1.00D+10 DXMaxT= 3.00D-01 DXLimC= 3.00D+00 Rises=F
 Variable       Old X    -DE/DX   Delta X   Delta X   Delta X     New X
                                 (Linear)    (Quad)   (Total)
    R1        2.84053  -0.01785   0.00000  -0.02875  -0.02875   2.81178
    R2        2.10781  -0.01114   0.00000  -0.01794  -0.01794   2.08987
    R3        2.07500  -0.00520   0.00000  -0.00808  -0.00808   2.06692
    R4        2.08950  -0.01007   0.00000  -0.01591  -0.01591   2.07359
    R5        2.71088  -0.03715   0.00000  -0.05154  -0.05154   2.65934
    R6        2.67597  -0.03935   0.00000  -0.05223  -0.05223   2.62374
    R7        2.83789  -0.04459   0.00000  -0.07073  -0.07063   2.76725
    R8        2.62199  -0.00121   0.00000  -0.00151  -0.00180   2.62019
    R9        2.48080  -0.01438   0.00000  -0.01468  -0.01425   2.46655
   R10        2.05467  -0.00443   0.00000  -0.00673  -0.00673   2.04794
   R11        2.63353  -0.00768   0.00000  -0.00933  -0.00932   2.62420
   R12        2.69588  -0.07420   0.00000  -0.10170  -0.10193   2.59396
   R13        2.75299  -0.06449   0.00000  -0.09417  -0.09417   2.65882
    A1        1.90736   0.00332   0.00000   0.00818   0.00817   1.91553
    A2        1.92193  -0.00062   0.00000  -0.00088  -0.00090   1.92103
    A3        1.92269  -0.00368   0.00000  -0.00963  -0.00964   1.91306
    A4        1.86133   0.00224   0.00000   0.00735   0.00732   1.86864
    A5        1.91527  -0.00190   0.00000  -0.00563  -0.00562   1.90965
    A6        1.93419   0.00089   0.00000   0.00128   0.00125   1.93544
    A7        2.36593   0.00742   0.00000   0.01775   0.01605   2.38199
    A8        2.03772  -0.00059   0.00000   0.00284   0.00108   2.03881
    A9        1.85576  -0.00133   0.00000   0.00153  -0.00025   1.85552
   A10        1.73794  -0.00181   0.00000   0.00194   0.00058   1.73852
   A11        1.88894   0.00813   0.00000   0.02750   0.02531   1.91426
   A12        2.04627   0.00672   0.00000   0.02202   0.02042   2.06669
   A13        2.20587  -0.00068   0.00000   0.00557   0.00372   2.20959
   A14        1.91351  -0.01160   0.00000  -0.01545  -0.01612   1.89739
   A15        1.77173   0.01221   0.00000   0.02427   0.02307   1.79480
   A16        1.98048   0.00265   0.00000   0.00255   0.00254   1.98302
   A17        1.94989  -0.05078   0.00000  -0.10806  -0.10665   1.84323
   A18        2.04082   0.04154   0.00000   0.08162   0.08137   2.12219
   A19        1.81344  -0.09755   0.00000  -0.18204  -0.18204   1.63140
    D1       -1.61467  -0.01784   0.00000  -0.07041  -0.07059  -1.68526
    D2        1.25648   0.01247   0.00000   0.05311   0.05325   1.30973
    D3        0.42443  -0.01354   0.00000  -0.05721  -0.05737   0.36706
    D4       -2.98760   0.01677   0.00000   0.06631   0.06647  -2.92113
    D5        2.56300  -0.01530   0.00000  -0.06264  -0.06278   2.50022
    D6       -0.84903   0.01501   0.00000   0.06088   0.06106  -0.78797
    D7        2.54111   0.08019   0.00000   0.31759   0.31803   2.85915
    D8       -0.79665   0.10350   0.00000   0.40964   0.40920  -0.38745
    D9        0.31013  -0.02123   0.00000  -0.09033  -0.09072   0.21941
   D10        2.94034   0.00147   0.00000   0.00062   0.00143   2.94178
   D11       -0.02086   0.01727   0.00000   0.06706   0.06687   0.04601
   D12        2.33164   0.02999   0.00000   0.08107   0.08298   2.41462
   D13       -0.49974   0.02460   0.00000   0.09517   0.09520  -0.40453
   D14       -3.07033  -0.00393   0.00000  -0.01358  -0.01355  -3.08388
   D15        0.45745  -0.01140   0.00000  -0.04930  -0.04882   0.40862
   D16       -0.24935  -0.00746   0.00000  -0.02279  -0.02188  -0.27124
   D17       -2.55859   0.02408   0.00000   0.05478   0.05581  -2.50278
   D18        0.16075   0.06315   0.00000   0.25486   0.25631   0.41705
   D19        2.48379   0.05533   0.00000   0.22659   0.22514   2.70892
         Item               Value     Threshold  Converged?
 Maximum Force            0.103501     0.000450     NO 
 RMS     Force            0.033836     0.000300     NO 
 Maximum Displacement     1.440457     0.001800     NO 
 RMS     Displacement     0.351770     0.001200     NO 
 Predicted change in Energy=-1.461469D-01
 Lowest energy point so far.  Saving SCF results.
 GradGradGradGradGradGradGradGradGradGradGradGradGradGradGradGradGradGrad

 Leave Link  103 at Wed Mar  1 00:41:10 2023, MaxMem=  8053063680 cpu:               2.0 elap:               0.1
 (Enter /public3/home/scg5914/software-scg5914/g16/l202.exe)
                          Input orientation:                          
 ---------------------------------------------------------------------
 Center     Atomic      Atomic             Coordinates (Angstroms)
 Number     Number       Type             X           Y           Z
 ---------------------------------------------------------------------
      1          6           0       -2.963014    0.050043   -0.107992
      2          6           0       -1.475568    0.084328   -0.124260
      3          6           0       -0.477915    1.076631   -0.144511
      4          7           0        0.354686    0.741835   -0.237454
      5          6           0        1.717883    0.975907    0.243455
      6          7           0        2.444330   -0.089470    0.041200
      7          7           0        1.603805   -1.191116   -0.049892
      8          6           0        0.406788   -0.631447   -0.421544
      9          8           0       -0.819123   -1.124944    0.061380
     10          1           0       -3.322806   -0.067451    0.931135
     11          1           0       -3.364329    0.996474   -0.481540
     12          1           0       -3.318621   -0.792382   -0.714561
     13          1           0        2.073403    1.997583    0.308578
 ---------------------------------------------------------------------
                    Distance matrix (angstroms):
                    1          2          3          4          5
     1  C    0.000000
     2  C    1.487931   0.000000
     3  C    2.689040   1.407262   0.000000
     4  N    3.391530   1.948065   0.902192   0.000000
     5  C    4.784511   3.335904   2.232082   1.464367   0.000000
     6  N    5.411201   3.927236   3.151792   2.266126   1.305244
     7  N    4.732831   3.333890   3.079802   2.309064   2.189761
     8  C    3.452291   2.035676   1.943445   1.386546   2.178252
     9  O    2.450622   1.388424   2.237352   2.225308   3.298959
    10  H    1.105912   2.132882   3.249514   3.942651   5.193269
    11  H    1.093765   2.127693   2.907129   3.735705   5.133704
    12  H    1.097297   2.124599   3.447866   4.009319   5.423193
    13  H    5.415898   4.055008   2.750030   2.197508   1.083724
                    6          7          8          9         10
     6  N    0.000000
     7  N    1.388669   0.000000
     8  C    2.158575   1.372662   0.000000
     9  O    3.423849   2.426384   1.406987   0.000000
    10  H    5.835437   5.147477   4.007206   2.853627   0.000000
[...]
 215. BD*(   1) N   4 - C   8        /157. RY*(   6) C   8                    0.48    0.89    0.130
 215. BD*(   1) N   4 - C   8        /210. BD*(   1) C   2 - C   3            0.81    0.14    0.061
 215. BD*(   1) N   4 - C   8        /216. BD*(   1) C   5 - N   6            0.56    0.18    0.059
 217. BD*(   2) C   5 - N   6        /105. RY*(   5) C   5                    0.76    1.04    0.111
 221. BD*(   2) N   7 - C   8        /139. RY*(   5) N   7                    0.30    1.55    0.074
 221. BD*(   2) N   7 - C   8        /153. RY*(   2) C   8                    0.26    1.42    0.065
 221. BD*(   2) N   7 - C   8        /220. BD*(   1) N   7 - C   8            0.34    0.57    0.046


 Natural Bond Orbitals (Summary):

                                                            Principal Delocalizations
           NBO                        Occupancy    Energy   (geminal,vicinal,remote)
 ====================================================================================
 Molecular unit  1  (C5H4N3O)
     1. BD (   1) C   1 - C   2          0.99394    -0.72078  222(v),210(g),171(v),209(g)
                                                    207(g)
     2. BD (   1) C   1 - H  10          0.97376    -0.54041  27(v),210(v)
     3. BD (   1) C   1 - H  11          0.98835    -0.54374  211(v)
     4. BD (   1) C   1 - H  12          0.97985    -0.54236  27(v),210(v)
     5. BD (   1) C   2 - C   3          0.98684    -0.73627  214(v),206(g),27(g),33(v)
                                                    220(r),213(g),86(v),169(v)
                                                    84(v),207(v)
     6. BD (   1) C   2 - O   9          0.99119    -0.92077  220(v),27(g),154(v),213(v)
                                                    215(v),208(v),158(v),152(v)
     7. BD (   1) C   3 - N   4          0.98799    -0.84250  206(v),220(v),214(g),215(g)
                                                    211(v),102(v),222(v),51(v)
     8. BD (   2) C   3 - N   4          0.86531    -0.36663  221(v),217(v),27(v),103(v)
                                                    156(v),215(g),211(v),213(g)
     9. BD (   1) N   4 - C   5          0.99308    -0.84773  222(v),212(g),215(g),152(v)
                                                    68(v)
    10. BD (   1) N   4 - C   8          0.98719    -0.83100  218(v),212(g),67(v),214(g)
                                                    220(g),101(v),206(r),216(v)
                                                    136(v),104(v),68(v)
    11. BD (   1) C   5 - N   6          0.99480    -0.89311  212(v),136(v),222(r),218(g)
                                                    85(v)
    12. BD (   2) C   5 - N   6          0.96576    -0.34761  221(v),213(v),138(v)
    13. BD (   1) C   5 - H  13          0.99139    -0.59301  219(v),215(v),216(g),85(v)
                                                    119(v)
    14. BD (   1) N   6 - N   7          0.97905    -0.77256  222(v),218(v),214(v),102(v)
                                                    215(v),154(v),157(v),104(v)
    15. BD (   1) N   7 - C   8          0.99438    -0.91562  212(v),222(g),119(v),211(v)
                                                    215(g)
    16. BD (   2) N   7 - C   8          0.93834    -0.36050  217(v),213(v),215(g),172(v)
                                                    120(v)
    17. BD (   1) C   8 - O   9          0.99389    -0.96399  206(v),50(v),220(g),214(v)
                                                    27(v),219(v),51(v)
    18. CR (   1) C   1                  0.99962   -10.07074  210(v),55(v),52(v)
    19. CR (   1) C   2                  0.99954   -10.17701  67(v),211(g),222(v),35(v)
                                                    210(g)
    20. CR (   1) C   3                  0.99910   -10.11198  213(g),50(v),214(v),206(v)
                                                    27(v),210(g),215(v)
    21. CR (   1) N   4                  0.99958   -14.24609  68(v),154(v),152(v),102(v)
                                                    215(g)
    22. CR (   1) C   5                  0.99968   -10.13642  212(v),119(v)
    23. CR (   1) N   6                  0.99973   -14.18656  101(v),219(g),106(v)
    24. CR (   1) N   7                  0.99964   -14.17732  152(v),222(v),157(v),158(v)
                                                    219(g)
    25. CR (   1) C   8                  0.99950   -10.19750  136(v),211(v),212(v),222(g)
                                                    85(v),214(v),220(g)
    26. CR (   1) O   9                  0.99984   -19.02094  50(v),153(v),220(v),158(v)
                                                    155(v)
    27. LP*(   1) C   2                  0.32108    -0.14509  213(v),209(v),207(v),210(g)
                                                    212(v),211(g),73(v),34(v)
    28. LP (   1) C   3                  0.81152    -0.28916  27(v),213(g),215(v),211(v)
                                                    50(v),84(v),51(v),85(v)
                                                    212(g),62(v),73(g)
    29. LP (   1) N   6                  0.97209    -0.42140  214(v),101(v),220(v),135(v)
                                                    218(v)
    30. LP (   1) N   7                  0.96112    -0.42564  215(v),152(v),216(v),118(v)
                                                    155(v),161(v)
    31. LP (   1) O   9                  0.98301    -0.64161  215(v),210(v),50(v),153(v)
                                                    155(v),51(v),154(v),27(v)
    32. LP (   2) O   9                  0.84366    -0.38116  27(v),221(v),52(v),153(v)
                                                    211(g),155(v)
    33. RY*(   1) C   1                  0.00156     0.58229   
    34. RY*(   2) C   1                  0.00048     0.64905   
    35. RY*(   3) C   1                  0.00023     0.75918   
    36. RY*(   4) C   1                  0.00015     2.14174   
    37. RY*(   5) C   1                  0.00010     0.65410   
    38. RY*(   6) C   1                  0.00004     0.53547   
    39. RY*(   7) C   1                  0.00003     2.70022   
    40. RY*(   8) C   1                  0.00000    22.18669   
    41. RY*(   9) C   1                  0.00000     3.00345   
    42. RY*(  10) C   1                  0.00000     0.76561   
    43. RY*(  11) C   1                  0.00001     0.32352   
    44. RY*(  12) C   1                  0.00000     2.95283   
    45. RY*(  13) C   1                  0.00000     1.91346   
    46. RY*(  14) C   1                  0.00001     1.59781   
    47. RY*(  15) C   1                  0.00001     1.95341   
    48. RY*(  16) C   1                  0.00001     1.55755   
    49. RY*(  17) C   1                  0.00000     1.96167   
    50. RY*(   1) C   2                  0.00388     0.85462   
    51. RY*(   2) C   2                  0.00254     1.43488   
    52. RY*(   3) C   2                  0.00083     1.39937   
    53. RY*(   4) C   2                  0.00074     1.05669   
    54. RY*(   5) C   2                  0.00059     1.63643   
    55. RY*(   6) C   2                  0.00034     1.44941   
    56. RY*(   7) C   2                  0.00028     1.00762   
    57. RY*(   8) C   2                  0.00020     0.95065   
    58. RY*(   9) C   2                  0.00017     1.25330   
    59. RY*(  10) C   2                  0.00010     1.86660   
    60. RY*(  11) C   2                  0.00005     1.57968   
    61. RY*(  12) C   2                  0.00000     2.20462   
    62. RY*(  13) C   2                  0.00000     2.87457   
    63. RY*(  14) C   2                  0.00000    22.42889   
    64. RY*(  15) C   2                  0.00001     1.99035   
    65. RY*(  16) C   2                  0.00001     0.86210   
    66. RY*(  17) C   2                  0.00001     1.90741   
    67. RY*(   1) C   3                  0.00150     0.83394   
    68. RY*(   2) C   3                  0.00093     0.90967   
    69. RY*(   3) C   3                  0.00023     0.75322   
    70. RY*(   4) C   3                  0.00019     0.59831   
    71. RY*(   5) C   3                  0.00017     0.90472   
    72. RY*(   6) C   3                  0.00011     1.02703   
    73. RY*(   7) C   3                  0.00008     0.67860   
    74. RY*(   8) C   3                  0.00006     1.10060   
    75. RY*(   9) C   3                  0.00005     1.27730   
    76. RY*(  10) C   3                  0.00004     2.69446   
    77. RY*(  11) C   3                  0.00001     1.81593   
    78. RY*(  12) C   3                  0.00001     2.00687   
    79. RY*(  13) C   3                  0.00000    22.66363   
    80. RY*(  14) C   3                  0.00001     2.40861   
    81. RY*(  15) C   3                  0.00000     1.28409   
    82. RY*(  16) C   3                  0.00000     2.60567   
    83. RY*(  17) C   3                  0.00001     1.96494   
    84. RY*(   1) N   4                  0.00351     0.96655   
    85. RY*(   2) N   4                  0.00177     1.20359   
    86. RY*(   3) N   4                  0.00064     1.29650   
    87. RY*(   4) N   4                  0.00045     1.44613   
    88. RY*(   5) N   4                  0.00031     1.71474   
    89. RY*(   6) N   4                  0.00024     1.89319   
    90. RY*(   7) N   4                  0.00013     1.85409   
    91. RY*(   8) N   4                  0.00007     2.14028   
    92. RY*(   9) N   4                  0.00005     2.06731   
    93. RY*(  10) N   4                  0.00001     1.23231   
    94. RY*(  11) N   4                  0.00000     1.08956   
    95. RY*(  12) N   4                  0.00000     3.60695   
    96. RY*(  13) N   4                  0.00001     4.22456   
    97. RY*(  14) N   4                  0.00000    34.78136   
    98. RY*(  15) N   4                  0.00001     1.68883   
    99. RY*(  16) N   4                  0.00001     3.57924   
   100. RY*(  17) N   4                  0.00001     2.40053   
   101. RY*(   1) C   5                  0.00417     1.10686   
   102. RY*(   2) C   5                  0.00138     1.16602   
   103. RY*(   3) C   5                  0.00128     0.88234   
   104. RY*(   4) C   5                  0.00094     0.90161   
   105. RY*(   5) C   5                  0.00052     1.02645   
   106. RY*(   6) C   5                  0.00026     0.72576   
   107. RY*(   7) C   5                  0.00015     1.57836   
   108. RY*(   8) C   5                  0.00009     1.47271   
   109. RY*(   9) C   5                  0.00004     1.67690   
   110. RY*(  10) C   5                  0.00004     4.68037   
   111. RY*(  11) C   5                  0.00001     1.22140   
   112. RY*(  12) C   5                  0.00001     3.63858   
   113. RY*(  13) C   5                  0.00000    15.97799   
   114. RY*(  14) C   5                  0.00001     1.05095   
   115. RY*(  15) C   5                  0.00000     2.81343   
   116. RY*(  16) C   5                  0.00000     2.84960   
   117. RY*(  17) C   5                  0.00000     2.77829   
   118. RY*(   1) N   6                  0.00224     0.91432   
   119. RY*(   2) N   6                  0.00100     0.90989   
   120. RY*(   3) N   6                  0.00039     1.40407   
   121. RY*(   4) N   6                  0.00035     1.39846   
   122. RY*(   5) N   6                  0.00016     1.28221   
   123. RY*(   6) N   6                  0.00007     1.87726   
   124. RY*(   7) N   6                  0.00007     1.42540   
   125. RY*(   8) N   6                  0.00004     1.95443   
   126. RY*(   9) N   6                  0.00000     3.51130   
   127. RY*(  10) N   6                  0.00000     3.90462   
   128. RY*(  11) N   6                  0.00000     0.61453   
   129. RY*(  12) N   6                  0.00000     3.80615   
   130. RY*(  13) N   6                  0.00001     2.47855   
   131. RY*(  14) N   6                  0.00000     1.84441   
   132. RY*(  15) N   6                  0.00000    34.77068   
   133. RY*(  16) N   6                  0.00001     0.83085   
   134. RY*(  17) N   6                  0.00000     2.58081   
   135. RY*(   1) N   7                  0.00207     1.03497   
   136. RY*(   2) N   7                  0.00090     1.15168   
   137. RY*(   3) N   7                  0.00047     0.70740   
   138. RY*(   4) N   7                  0.00042     1.14399   
   139. RY*(   5) N   7                  0.00023     1.53480   
   140. RY*(   6) N   7                  0.00014     2.20940   
   141. RY*(   7) N   7                  0.00003     1.70440   
   142. RY*(   8) N   7                  0.00004     2.45963   
   143. RY*(   9) N   7                  0.00002     1.83946   
   144. RY*(  10) N   7                  0.00002     3.25863   
   145. RY*(  11) N   7                  0.00000     0.79255   
   146. RY*(  12) N   7                  0.00000     3.76203   
   147. RY*(  13) N   7                  0.00000     2.26365   
   148. RY*(  14) N   7                  0.00000     3.36833   
   149. RY*(  15) N   7                  0.00001     2.17398   
   150. RY*(  16) N   7                  0.00000    34.69039   
   151. RY*(  17) N   7                  0.00000     2.07382   
   152. RY*(   1) C   8                  0.00475     1.40522   
   153. RY*(   2) C   8                  0.00276     1.40092   
   154. RY*(   3) C   8                  0.00234     1.22168   
   155. RY*(   4) C   8                  0.00200     1.70612   
   156. RY*(   5) C   8                  0.00098     1.33261   
   157. RY*(   6) C   8                  0.00073     1.25908   
   158. RY*(   7) C   8                  0.00058     1.88359   
   159. RY*(   8) C   8                  0.00027     0.72160   
   160. RY*(   9) C   8                  0.00020     0.78380   
   161. RY*(  10) C   8                  0.00006     1.98751   
   162. RY*(  11) C   8                  0.00004     5.51533   
   163. RY*(  12) C   8                  0.00002     4.55841   
   164. RY*(  13) C   8                  0.00001     3.42865   
   165. RY*(  14) C   8                  0.00001     1.89467   
   166. RY*(  15) C   8                  0.00000    13.43330   
   167. RY*(  16) C   8                  0.00001     0.93456   
   168. RY*(  17) C   8                  0.00001     2.51750   
   169. RY*(   1) O   9                  0.00243     0.59588   
   170. RY*(   2) O   9                  0.00168     0.63910   
   171. RY*(   3) O   9                  0.00120     0.77145   
   172. RY*(   4) O   9                  0.00056     1.11123   
   173. RY*(   5) O   9                  0.00038     1.31135   
   174. RY*(   6) O   9                  0.00016     1.20802   
   175. RY*(   7) O   9                  0.00008     1.19022   
   176. RY*(   8) O   9                  0.00005     1.68804   
   177. RY*(   9) O   9                  0.00003     3.49370   
   178. RY*(  10) O   9                  0.00003     2.63334   
   179. RY*(  11) O   9                  0.00001     3.40054   
   180. RY*(  12) O   9                  0.00000     4.86772   
   181. RY*(  13) O   9                  0.00000     4.29990   
   182. RY*(  14) O   9                  0.00000    49.41248   
   183. RY*(  15) O   9                  0.00000     2.54842   
   184. RY*(  16) O   9                  0.00000     4.64784   
   185. RY*(  17) O   9                  0.00000     3.12333   
   186. RY*(   1) H  10                  0.00031     0.80846   
   187. RY*(   2) H  10                  0.00008     1.65969   
   188. RY*(   3) H  10                  0.00005     2.04911   
   189. RY*(   4) H  10                  0.00005     1.76856   
   190. RY*(   5) H  10                  0.00001     2.49885   
   191. RY*(   1) H  11                  0.00040     0.78064   
   192. RY*(   2) H  11                  0.00007     1.66815   
   193. RY*(   3) H  11                  0.00005     2.07392   
   194. RY*(   4) H  11                  0.00003     1.72393   
   195. RY*(   5) H  11                  0.00001     2.48374   
   196. RY*(   1) H  12                  0.00039     0.78539   
   197. RY*(   2) H  12                  0.00008     1.67587   
   198. RY*(   3) H  12                  0.00006     2.05323   
   199. RY*(   4) H  12                  0.00004     1.81060   
   200. RY*(   5) H  12                  0.00002     2.44141   
   201. RY*(   1) H  13                  0.00036     1.03080   
   202. RY*(   2) H  13                  0.00009     1.58260   
   203. RY*(   3) H  13                  0.00007     2.55494   
   204. RY*(   4) H  13                  0.00005     1.83328   
   205. RY*(   5) H  13                  0.00001     1.77468   
   206. BD*(   1) C   1 - C   2          0.00676     0.40167   
   207. BD*(   1) C   1 - H  10          0.00294     0.35172   
   208. BD*(   1) C   1 - H  11          0.00181     0.36199   
   209. BD*(   1) C   1 - H  12          0.00340     0.35328   
   210. BD*(   1) C   2 - C   3          0.00970     0.51071   
   211. BD*(   1) C   2 - O   9          0.02046     0.26940   
   212. BD*(   1) C   3 - N   4          0.00838     0.41219   
   213. BD*(   2) C   3 - N   4          0.03157    -0.01663   
   214. BD*(   1) N   4 - C   5          0.02161     0.37905   
   215. BD*(   1) N   4 - C   8          0.03933     0.36975   
   216. BD*(   1) C   5 - N   6          0.00703     0.54981   
   217. BD*(   2) C   5 - N   6          0.10330    -0.01700  213(v),221(v),105(g)
   218. BD*(   1) C   5 - H  13          0.00899     0.37262   
   219. BD*(   1) N   6 - N   7          0.00720     0.31773   
   220. BD*(   1) N   7 - C   8          0.01089     0.55710   
   221. BD*(   2) N   7 - C   8          0.13619    -0.01427  217(v),213(v),220(g),139(g)
                                                    153(g)
   222. BD*(   1) C   8 - O   9          0.02243     0.29983   
       -------------------------------
              Total Lewis   30.17276  ( 97.3315%)
        Valence non-Lewis    0.76306  (  2.4615%)
        Rydberg non-Lewis    0.06418  (  0.2070%)
       -------------------------------
            Total unit  1   31.00000  (100.0000%)
           Charge unit  1    0.50000
 Leave Link  607 at Wed Mar  1 00:47:16 2023, MaxMem=  8053063680 cpu:              60.4 elap:               1.9
 (Enter /public3/home/scg5914/software-scg5914/g16/l9999.exe)
 Unable to Open any file for archive entry.
 1\1\GINC-G0903\SP\UB3LYP\Gen\C5H4N3O1(2)\SCG5914\01-Mar-2023\0\\#p b3l
 yp/chkbas pop=nbo geom=allcheck guess=tcheck em=gd3bj\\dsgdb9nsd_12532
 8-4.gjf\\0,2\C,0,-3.0333793196,0.0146841311,-0.1509901217\C,0,-1.56963
 48753,0.1475603843,-0.0514143088\C,0,-0.7473592851,1.2807763771,0.0253
 629406\N,0,0.5126214133,0.7307455378,-0.1118463967\C,0,1.8754304259,0.
 9830761555,0.0011651892\N,0,2.527636515,-0.1406510024,0.0769078975\N,0
 ,1.6001018648,-1.2124264014,0.1054362358\C,0,0.4554119433,-0.644180495
 9,-0.0469918875\O,0,-0.8414931012,-1.0346426351,0.0022284026\H,0,-3.44
 53574858,-0.4394342173,0.7570825704\H,0,-3.477487506,1.000632005,-0.28
 07009129\H,0,-3.3057752966,-0.6289242067,-0.9924441954\H,0,2.308805707
 3,1.968776368,-0.029801413\\Version=ES64L-G16RevC.01\State=2-A\HF=-432
 .3882924\S2=0.768\S2-1=0.\S2A=0.750091\RMSD=6.697e-09\Dipole=-1.711493
 6,0.7196779,-0.3292611\Quadrupole=1.2059112,-2.5348511,1.3289399,6.327
 2519,0.0226732,-0.2964978\PG=C01 [X(C5H4N3O1)]\\@
 The archive entry for this job was punched.


 TIME IS NATURE'S WAY OF MAKING SURE EVERYTHING
 DOESN'T HAPPEN AT ONCE.
                     - WOODY ALLEN
 Job cpu time:       0 days  0 hours  1 minutes 46.3 seconds.
 Elapsed time:       0 days  0 hours  0 minutes  3.4 seconds.
 File lengths (MBytes):  RWF=     51 Int=      0 D2E=      0 Chk=      6 Scr=      1
 Normal termination of Gaussian 16 at Wed Mar  1 00:47:17 2023.
