 Entering Gaussian System, Link 0=/public3/home/scg5914/software-scg5914/g16/g16
 Input=dsgdb9nsd_126029-6.gjf
 Output=dsgdb9nsd_126029-6.log
 Initial command:
 /public3/home/scg5914/software-scg5914/g16/l1.exe "/public3/home/scg5914/software-scg5914/test/tmp/dsgdb9nsd_126029-6/Gau-152753.inp" -scrdir="/public3/home/scg5914/software-scg5914/test/tmp/dsgdb9nsd_126029-6/"
 Entering Link 1 = /public3/home/scg5914/software-scg5914/g16/l1.exe PID=    152754.
  
 Copyright (c) 1988-2019, Gaussian, Inc.  All Rights Reserved.
  
 This is part of the Gaussian(R) 16 program.  It is based on
 the Gaussian(R) 09 system (copyright 2009, Gaussian, Inc.),
 the Gaussian(R) 03 system (copyright 2003, Gaussian, Inc.),
 the Gaussian(R) 98 system (copyright 1998, Gaussian, Inc.),
 the Gaussian(R) 94 system (copyright 1995, Gaussian, Inc.),
 the Gaussian 92(TM) system (copyright 1992, Gaussian, Inc.),
 the Gaussian 90(TM) system (copyright 1990, Gaussian, Inc.),
 the Gaussian 88(TM) system (copyright 1988, Gaussian, Inc.),
 the Gaussian 86(TM) system (copyright 1986, Carnegie Mellon
 University), and the Gaussian 82(TM) system (copyright 1983,
 Carnegie Mellon University). Gaussian is a federally registered
 trademark of Gaussian, Inc.
  
 This software contains proprietary and confidential information,
 including trade secrets, belonging to Gaussian, Inc.
  
 This software is provided under written license and may be
 used, copied, transmitted, or stored only in accord with that
 written license.
  
 The following legend is applicable only to US Government
 contracts under FAR:
  
                    RESTRICTED RIGHTS LEGEND
  
 Use, reproduction and disclosure by the US Government is
 subject to restrictions as set forth in subparagraphs (a)
 and (c) of the Commercial Computer Software - Restricted
 Rights clause in FAR 52.227-19.
  
 Gaussian, Inc.
 340 Quinnipiac St., Bldg. 40, Wallingford CT 06492
  
  
 ---------------------------------------------------------------
 Warning -- This program may not be used in any manner that
 competes with the business of Gaussian, Inc. or will provide
 assistance to any competitor of Gaussian, Inc.  The licensee
 of this program is prohibited from giving any competitor of
 Gaussian, Inc. access to this program.  By using this program,
 the user acknowledges that Gaussian, Inc. is engaged in the
 business of creating and licensing software in the field of
 computational chemistry and represents and warrants to the
 licensee that it is not a competitor of Gaussian, Inc. and that
 it will not use this program in any manner prohibited above.
 ---------------------------------------------------------------
  

 Cite this work as:
 Gaussian 16, Revision C.01,
 M. J. Frisch, G. W. Trucks, H. B. Schlegel, G. E. Scuseria, 
 M. A. Robb, J. R. Cheeseman, G. Scalmani, V. Barone, 
 G. A. Petersson, H. Nakatsuji, X. Li, M. Caricato, A. V. Marenich, 
 J. Bloino, B. G. Janesko, R. Gomperts, B. Mennucci, H. P. Hratchian, 
 J. V. Ortiz, A. F. Izmaylov, J. L. Sonnenberg, D. Williams-Young, 
 F. Ding, F. Lipparini, F. Egidi, J. Goings, B. Peng, A. Petrone, 
 T. Henderson, D. Ranasinghe, V. G. Zakrzewski, J. Gao, N. Rega, 
 G. Zheng, W. Liang, M. Hada, M. Ehara, K. Toyota, R. Fukuda, 
 J. Hasegawa, M. Ishida, T. Nakajima, Y. Honda, O. Kitao, H. Nakai, 
 T. Vreven, K. Throssell, J. A. Montgomery, Jr., J. E. Peralta, 
 F. Ogliaro, M. J. Bearpark, J. J. Heyd, E. N. Brothers, K. N. Kudin, 
 V. N. Staroverov, T. A. Keith, R. Kobayashi, J. Normand, 
 K. Raghavachari, A. P. Rendell, J. C. Burant, S. S. Iyengar, 
 J. Tomasi, M. Cossi, J. M. Millam, M. Klene, C. Adamo, R. Cammi, 
 J. W. Ochterski, R. L. Martin, K. Morokuma, O. Farkas, 
 J. B. Foresman, and D. J. Fox, Gaussian, Inc., Wallingford CT, 2019.
 
 ******************************************
 Gaussian 16:  ES64L-G16RevC.01  3-Jul-2019
                19-Mar-2023 
 ******************************************
 %chk=dsgdb9nsd_126029-6.chk
 %mem=60GB
 %nprocshared=32
 Will use up to   32 processors via shared memory.
 ------------------------------------
 #p opt freq b3lyp/6-311+g** em=gd3bj
 ------------------------------------
 1/18=20,19=15,26=3,38=1/1,3;
 2/9=110,12=2,17=6,18=5,40=1/2;
 3/5=4,6=6,7=111,11=2,25=1,30=1,71=1,74=-5,124=41/1,2,3;
 4//1;
 5/5=2,38=5/2;
 6/7=2,8=2,9=2,10=2,28=1/1;
 7//1,2,3,16;
 1/18=20,19=15,26=3/3(2);
 2/9=110/2;
 99//99;
 2/9=110/2;
 3/5=4,6=6,7=111,11=2,25=1,30=1,71=1,74=-5,124=41/1,2,3;
 4/5=5,16=3,69=1/1;
 5/5=2,38=5/2;
 7//1,2,3,16;
 1/18=20,19=15,26=3/3(-5);
 2/9=110/2;
 6/7=2,8=2,9=2,10=2,19=2,28=1/1;
 99/9=1/99;
 Leave Link    1 at Sun Mar 19 20:51:29 2023, MaxMem=  8053063680 cpu:               0.8 elap:               0.0
 (Enter /public3/home/scg5914/software-scg5914/g16/l101.exe)
 ------------------
 dsgdb9nsd_126029-6
 ------------------
 Symbolic Z-matrix:
 Charge =  0 Multiplicity = 2
 C                     0.0371    1.60459  -0.03489 
 C                    -0.02022   0.07508   0.066 
 C                     0.73403  -0.66082  -1.1196 
 O                     1.68823  -1.63812  -0.5826 
 C                     1.63313  -1.43832   0.75035 
 C                     0.74135  -0.53236   1.1994 
 O                     0.80442  -0.47168   2.51559 
 N                     1.85802  -1.45485   2.87562 
 N                     2.2904   -1.97413   1.80498 
 H                     1.07303   1.95608  -0.05553 
 H                    -0.46198   1.94676  -0.94681 
 H                    -0.46437   2.0672    0.81942 
 H                    -1.07096  -0.23946   0.09158 
 H                     0.04929  -1.20438  -1.77295 
 
 ITRead=  0  0  0  0  0  0  0  0  0  0  0  0  0  0
 MicOpt= -1 -1 -1 -1 -1 -1 -1 -1 -1 -1 -1 -1 -1 -1
 NAtoms=     14 NQM=       14 NQMF=       0 NMMI=      0 NMMIF=      0
                NMic=       0 NMicF=      0.
                    Isotopes and Nuclear Properties:
 (Nuclear quadrupole moments (NQMom) in fm**2, nuclear magnetic moments (NMagM)
  in nuclear magnetons)

  Atom         1           2           3           4           5           6           7           8           9          10
 IAtWgt=          12          12          12          16          12          12          16          14          14           1
 AtmWgt=  12.0000000  12.0000000  12.0000000  15.9949146  12.0000000  12.0000000  15.9949146  14.0030740  14.0030740   1.0078250
 NucSpn=           0           0           0           0           0           0           0           2           2           1
 AtZEff=  -0.0000000  -0.0000000  -0.0000000  -0.0000000  -0.0000000  -0.0000000  -0.0000000  -0.0000000  -0.0000000  -0.0000000
 NQMom=    0.0000000   0.0000000   0.0000000   0.0000000   0.0000000   0.0000000   0.0000000   2.0440000   2.0440000   0.0000000
 NMagM=    0.0000000   0.0000000   0.0000000   0.0000000   0.0000000   0.0000000   0.0000000   0.4037610   0.4037610   2.7928460
 AtZNuc=   6.0000000   6.0000000   6.0000000   8.0000000   6.0000000   6.0000000   8.0000000   7.0000000   7.0000000   1.0000000

  Atom        11          12          13          14
 IAtWgt=           1           1           1           1
 AtmWgt=   1.0078250   1.0078250   1.0078250   1.0078250
 NucSpn=           1           1           1           1
 AtZEff=  -0.0000000  -0.0000000  -0.0000000  -0.0000000
 NQMom=    0.0000000   0.0000000   0.0000000   0.0000000
 NMagM=    2.7928460   2.7928460   2.7928460   2.7928460
 AtZNuc=   1.0000000   1.0000000   1.0000000   1.0000000
 Leave Link  101 at Sun Mar 19 20:51:29 2023, MaxMem=  8053063680 cpu:               4.2 elap:               0.1
 (Enter /public3/home/scg5914/software-scg5914/g16/l103.exe)

 GradGradGradGradGradGradGradGradGradGradGradGradGradGradGradGradGradGrad
 Berny optimization.
 Initialization pass.
                           ----------------------------
                           !    Initial Parameters    !
                           ! (Angstroms and Degrees)  !
 --------------------------                            --------------------------
 ! Name  Definition              Value          Derivative Info.                !
 --------------------------------------------------------------------------------
 ! R1    R(1,2)                  1.5339         estimate D2E/DX2                !
 ! R2    R(1,10)                 1.0941         estimate D2E/DX2                !
 ! R3    R(1,11)                 1.0944         estimate D2E/DX2                !
 ! R4    R(1,12)                 1.0933         estimate D2E/DX2                !
 ! R5    R(2,3)                  1.5862         estimate D2E/DX2                !
 ! R6    R(2,6)                  1.4945         estimate D2E/DX2                !
 ! R7    R(2,13)                 1.0971         estimate D2E/DX2                !
 ! R8    R(3,4)                  1.4676         estimate D2E/DX2                !
 ! R9    R(3,14)                 1.0914         estimate D2E/DX2                !
 ! R10   R(4,5)                  1.349          estimate D2E/DX2                !
 ! R11   R(5,6)                  1.3482         estimate D2E/DX2                !
 ! R12   R(5,9)                  1.3533         estimate D2E/DX2                !
 ! R13   R(6,7)                  1.3191         estimate D2E/DX2                !
 ! R14   R(7,8)                  1.4854         estimate D2E/DX2                !
 ! R15   R(8,9)                  1.266          estimate D2E/DX2                !
 ! A1    A(2,1,10)             110.9128         estimate D2E/DX2                !
 ! A2    A(2,1,11)             110.4576         estimate D2E/DX2                !
 ! A3    A(2,1,12)             110.6942         estimate D2E/DX2                !
 ! A4    A(10,1,11)            108.3975         estimate D2E/DX2                !
 ! A5    A(10,1,12)            108.2455         estimate D2E/DX2                !
 ! A6    A(11,1,12)            108.0377         estimate D2E/DX2                !
 ! A7    A(1,2,3)              113.3082         estimate D2E/DX2                !
 ! A8    A(1,2,6)              115.8567         estimate D2E/DX2                !
 ! A9    A(1,2,13)             108.8566         estimate D2E/DX2                !
 ! A10   A(3,2,6)               97.815          estimate D2E/DX2                !
 ! A11   A(3,2,13)             109.8662         estimate D2E/DX2                !
 ! A12   A(6,2,13)             110.7212         estimate D2E/DX2                !
 ! A13   A(2,3,4)              110.1575         estimate D2E/DX2                !
 ! A14   A(2,3,14)             112.3444         estimate D2E/DX2                !
 ! A15   A(4,3,14)             107.1748         estimate D2E/DX2                !
 ! A16   A(3,4,5)              103.672          estimate D2E/DX2                !
 ! A17   A(4,5,6)              117.1072         estimate D2E/DX2                !
 ! A18   A(4,5,9)              133.756          estimate D2E/DX2                !
 ! A19   A(6,5,9)              109.1322         estimate D2E/DX2                !
 ! A20   A(2,6,5)              110.9521         estimate D2E/DX2                !
 ! A21   A(2,6,7)              139.6738         estimate D2E/DX2                !
 ! A22   A(5,6,7)              109.3673         estimate D2E/DX2                !
 ! A23   A(6,7,8)              104.2005         estimate D2E/DX2                !
 ! A24   A(7,8,9)              107.9843         estimate D2E/DX2                !
 ! A25   A(5,9,8)              109.3155         estimate D2E/DX2                !
 ! D1    D(10,1,2,3)           -57.8508         estimate D2E/DX2                !
 ! D2    D(10,1,2,6)            54.0704         estimate D2E/DX2                !
 ! D3    D(10,1,2,13)          179.5914         estimate D2E/DX2                !
 ! D4    D(11,1,2,3)            62.3582         estimate D2E/DX2                !
 ! D5    D(11,1,2,6)           174.2793         estimate D2E/DX2                !
 ! D6    D(11,1,2,13)          -60.1997         estimate D2E/DX2                !
 ! D7    D(12,1,2,3)          -178.025          estimate D2E/DX2                !
 ! D8    D(12,1,2,6)           -66.1039         estimate D2E/DX2                !
 ! D9    D(12,1,2,13)           59.4171         estimate D2E/DX2                !
 ! D10   D(1,2,3,4)            127.7159         estimate D2E/DX2                !
 ! D11   D(1,2,3,14)          -112.8794         estimate D2E/DX2                !
 ! D12   D(6,2,3,4)              5.137          estimate D2E/DX2                !
 ! D13   D(6,2,3,14)           124.5417         estimate D2E/DX2                !
 ! D14   D(13,2,3,4)          -110.2879         estimate D2E/DX2                !
 ! D15   D(13,2,3,14)            9.1168         estimate D2E/DX2                !
 ! D16   D(1,2,6,5)           -123.797          estimate D2E/DX2                !
 ! D17   D(1,2,6,7)             57.3107         estimate D2E/DX2                !
 ! D18   D(3,2,6,5)             -3.1108         estimate D2E/DX2                !
 ! D19   D(3,2,6,7)            177.9968         estimate D2E/DX2                !
 ! D20   D(13,2,6,5)           111.6387         estimate D2E/DX2                !
 ! D21   D(13,2,6,7)           -67.2536         estimate D2E/DX2                !
 ! D22   D(2,3,4,5)             -5.3667         estimate D2E/DX2                !
 ! D23   D(14,3,4,5)          -127.869          estimate D2E/DX2                !
 ! D24   D(3,4,5,6)              3.4706         estimate D2E/DX2                !
 ! D25   D(3,4,5,9)           -177.406          estimate D2E/DX2                !
 ! D26   D(4,5,6,2)             -0.0278         estimate D2E/DX2                !
 ! D27   D(4,5,6,7)            179.2124         estimate D2E/DX2                !
 ! D28   D(9,5,6,2)           -179.3577         estimate D2E/DX2                !
 ! D29   D(9,5,6,7)             -0.1174         estimate D2E/DX2                !
 ! D30   D(4,5,9,8)           -179.1347         estimate D2E/DX2                !
 ! D31   D(6,5,9,8)              0.0395         estimate D2E/DX2                !
 ! D32   D(2,6,7,8)            179.0393         estimate D2E/DX2                !
 ! D33   D(5,6,7,8)              0.1357         estimate D2E/DX2                !
 ! D34   D(6,7,8,9)             -0.1136         estimate D2E/DX2                !
 ! D35   D(7,8,9,5)              0.0449         estimate D2E/DX2                !
 --------------------------------------------------------------------------------
 Trust Radius=3.00D-01 FncErr=1.00D-07 GrdErr=1.00D-06 EigMax=2.50D+02 EigMin=1.00D-04
 Number of steps in this run=     85 maximum allowed number of steps=    100.
 GradGradGradGradGradGradGradGradGradGradGradGradGradGradGradGradGradGrad

 Leave Link  103 at Sun Mar 19 20:51:29 2023, MaxMem=  8053063680 cpu:               0.1 elap:               0.0
 (Enter /public3/home/scg5914/software-scg5914/g16/l202.exe)
                          Input orientation:                          
 ---------------------------------------------------------------------
 Center     Atomic      Atomic             Coordinates (Angstroms)
 Number     Number       Type             X           Y           Z
 ---------------------------------------------------------------------
      1          6           0        0.037102    1.604594   -0.034890
      2          6           0       -0.020217    0.075081    0.065996
      3          6           0        0.734026   -0.660819   -1.119602
      4          8           0        1.688226   -1.638125   -0.582605
      5          6           0        1.633135   -1.438322    0.750350
      6          6           0        0.741346   -0.532363    1.199402
      7          8           0        0.804415   -0.471680    2.515589
      8          7           0        1.858025   -1.454847    2.875620
      9          7           0        2.290397   -1.974132    1.804980
     10          1           0        1.073026    1.956076   -0.055532
     11          1           0       -0.461977    1.946761   -0.946807
     12          1           0       -0.464367    2.067199    0.819419
     13          1           0       -1.070959   -0.239460    0.091583
     14          1           0        0.049292   -1.204380   -1.772951
 ---------------------------------------------------------------------
                    Distance matrix (angstroms):
                    1          2          3          4          5
     1  C    0.000000
     2  C    1.533908   0.000000
     3  C    2.606607   1.586214   0.000000
     4  O    3.679867   2.504902   1.467648   0.000000
     5  C    3.524664   2.343565   2.215769   1.348972   0.000000
     6  C    2.566324   1.494514   2.322571   2.301051   1.348220
     7  O    3.377073   2.641868   3.640789   3.426444   2.176520
     8  N    4.598587   3.709778   4.225595   3.467238   2.137199
     9  N    4.611913   3.544330   3.563743   2.485170   1.353266
    10  H    1.094122   2.179012   2.845225   3.684366   3.533427
    11  H    1.094418   2.173502   2.873979   4.196120   4.327658
    12  H    1.093306   2.175649   3.555001   4.508741   4.085702
    13  H    2.155070   1.097110   2.214155   3.166054   3.030408
    14  H    3.303232   2.241334   1.091414   2.071512   2.988367
                    6          7          8          9         10
     6  C    0.000000
     7  O    1.319094   0.000000
     8  N    2.215323   1.485373   0.000000
     9  N    2.201132   2.229455   1.266046   0.000000
    10  H    2.806635   3.546381   4.565334   4.515533   0.000000
    11  H    3.492886   4.409172   5.618211   5.524609   1.775019
    12  H    2.890649   3.306465   4.693216   4.989230   1.772417
    13  H    2.144179   3.073559   4.219832   4.152534   3.072245
    14  H    3.124968   4.415726   4.994343   4.291464   3.739792
                   11         12         13         14
    11  H    0.000000
    12  H    1.770329   0.000000
    13  H    2.495731   2.493667   0.000000
    14  H    3.297515   4.205646   2.379605   0.000000
 Stoichiometry    C5H5N2O2(2)
 Framework group  C1[X(C5H5N2O2)]
 Deg. of freedom    36
 Full point group                 C1      NOp   1
 Largest Abelian subgroup         C1      NOp   1
 Largest concise Abelian subgroup C1      NOp   1
                         Standard orientation:                         
 ---------------------------------------------------------------------
 Center     Atomic      Atomic             Coordinates (Angstroms)
 Number     Number       Type             X           Y           Z
 ---------------------------------------------------------------------
      1          6           0        2.280362   -1.150978   -0.462293
      2          6           0        1.375669   -0.282755    0.421219
      3          6           0        1.462945    1.263933    0.080321
      4          8           0        0.118652    1.809649   -0.141172
      5          6           0       -0.679889    0.724028   -0.082134
      6          6           0       -0.094674   -0.453617    0.215136
      7          8           0       -1.011445   -1.401455    0.248972
      8          7           0       -2.278528   -0.694347   -0.068568
      9          7           0       -2.008976    0.529762   -0.246813
     10          1           0        2.037679   -1.016801   -1.520690
     11          1           0        3.331173   -0.884386   -0.312373
     12          1           0        2.161031   -2.209300   -0.215243
     13          1           0        1.642136   -0.448436    1.472502
     14          1           0        1.916376    1.841799    0.887574
 ---------------------------------------------------------------------
 Rotational constants (GHZ):           3.1139504           1.6781094           1.1553368
 Leave Link  202 at Sun Mar 19 20:51:29 2023, MaxMem=  8053063680 cpu:               0.1 elap:               0.0
 (Enter /public3/home/scg5914/software-scg5914/g16/l301.exe)
 Standard basis: 6-311+G(d,p) (5D, 7F)
 Ernie: Thresh=  0.10000D-02 Tol=  0.10000D-05 Strict=F.
 There are   237 symmetry adapted cartesian basis functions of A   symmetry.
 There are   228 symmetry adapted basis functions of A   symmetry.
   228 basis functions,   364 primitive gaussians,   237 cartesian basis functions
    33 alpha electrons       32 beta electrons
       nuclear repulsion energy       439.7699600394 Hartrees.
 IExCor=  402 DFT=T Ex+Corr=B3LYP ExCW=0 ScaHFX=  0.200000
 ScaDFX=  0.800000  0.720000  1.000000  0.810000 ScalE2=  1.000000  1.000000
 IRadAn=      5 IRanWt=     -1 IRanGd=            0 ICorTp=0 IEmpDi=141
 NAtoms=   14 NActive=   14 NUniq=   14 SFac= 1.00D+00 NAtFMM=   60 NAOKFM=F Big=F
 Integral buffers will be    131072 words long.
 Raffenetti 2 integral format.
 Two-electron integral symmetry is turned on.
 R6Disp:  Grimme-D3(BJ) Dispersion energy=       -0.0223143744 Hartrees.
 Nuclear repulsion after empirical dispersion term =      439.7476456650 Hartrees.
 Leave Link  301 at Sun Mar 19 20:51:29 2023, MaxMem=  8053063680 cpu:               0.7 elap:               0.0
 (Enter /public3/home/scg5914/software-scg5914/g16/l302.exe)
 NPDir=0 NMtPBC=     1 NCelOv=     1 NCel=       1 NClECP=     1 NCelD=      1
         NCelK=      1 NCelE2=     1 NClLst=     1 CellRange=     0.0.
 One-electron integrals computed using PRISM.
 One-electron integral symmetry used in STVInt
 NBasis=   228 RedAO= T EigKep=  6.00D-06  NBF=   228
 NBsUse=   228 1.00D-06 EigRej= -1.00D+00 NBFU=   228
 Precomputing XC quadrature grid using
 IXCGrd= 4 IRadAn=           5 IRanWt=          -1 IRanGd=           0 AccXCQ= 0.00D+00.
 Generated NRdTot=       0 NPtTot=           0 NUsed=           0 NTot=          32
 NSgBfM=   237   237   237   237   237 MxSgAt=    14 MxSgA2=    14.
 Leave Link  302 at Sun Mar 19 20:51:30 2023, MaxMem=  8053063680 cpu:               3.4 elap:               0.1
 (Enter /public3/home/scg5914/software-scg5914/g16/l303.exe)
 DipDrv:  MaxL=1.
 Leave Link  303 at Sun Mar 19 20:51:30 2023, MaxMem=  8053063680 cpu:               0.5 elap:               0.0
 (Enter /public3/home/scg5914/software-scg5914/g16/l401.exe)
 ExpMin= 4.38D-02 ExpMax= 8.59D+03 ExpMxC= 1.30D+03 IAcc=3 IRadAn=         5 AccDes= 0.00D+00
 Harris functional with IExCor=  402 and IRadAn=       5 diagonalized for initial guess.
 HarFok:  IExCor=  402 AccDes= 0.00D+00 IRadAn=         5 IDoV= 1 UseB2=F ITyADJ=14
 ICtDFT=  3500011 ScaDFX=  1.000000  1.000000  1.000000  1.000000
 FoFCou: FMM=F IPFlag=           0 FMFlag=      100000 FMFlg1=           0
         NFxFlg=           0 DoJE=T BraDBF=F KetDBF=T FulRan=T
         wScrn=  0.000000 ICntrl=       500 IOpCl=  0 I1Cent=   200000004 NGrid=           0
         NMat0=    1 NMatS0=      1 NMatT0=    0 NMatD0=    1 NMtDS0=    0 NMtDT0=    0
 Petite list used in FoFCou.
 Harris En= -453.419613877248    
 JPrj=0 DoOrth=F DoCkMO=F.
 Initial guess <Sx>= 0.0000 <Sy>= 0.0000 <Sz>= 0.5000 <S**2>= 0.7500 S= 0.5000
 Leave Link  401 at Sun Mar 19 20:51:30 2023, MaxMem=  8053063680 cpu:              10.6 elap:               0.3
 (Enter /public3/home/scg5914/software-scg5914/g16/l502.exe)
 Integral symmetry usage will be decided dynamically.
 UHF open shell SCF:
 Using DIIS extrapolation, IDIIS=  1040.
 NGot=  8053063680 LenX=  8052941112 LenY=  8052884502
 Requested convergence on RMS density matrix=1.00D-08 within 128 cycles.
 Requested convergence on MAX density matrix=1.00D-06.
 Requested convergence on             energy=1.00D-06.
 No special actions if energy rises.
 Fock matrices will be formed incrementally for  20 cycles.

 Cycle   1  Pass 1  IDiag  1:
 FoFJK:  IHMeth= 1 ICntrl=       0 DoSepK=F KAlg= 0 I1Cent=           0 FoldK=F
 IRaf= 960000000 NMat=       1 IRICut=       1 DoRegI=T DoRafI=F ISym2E= 0 IDoP0=0 IntGTp=1.
 FoFCou: FMM=F IPFlag=           0 FMFlag=      100000 FMFlg1=           0
         NFxFlg=           0 DoJE=F BraDBF=F KetDBF=F FulRan=T
         wScrn=  0.000000 ICntrl=         0 IOpCl=  1 I1Cent=           0 NGrid=           0
         NMat0=    1 NMatS0=      1 NMatT0=    0 NMatD0=    1 NMtDS0=    0 NMtDT0=    0
 Symmetry not used in FoFCou.
 E= -453.311881040816    
 DIIS: error= 1.72D-02 at cycle   1 NSaved=   1.
 NSaved= 1 IEnMin= 1 EnMin= -453.311881040816     IErMin= 1 ErrMin= 1.72D-02
 ErrMax= 1.72D-02  0.00D+00 EMaxC= 1.00D-01 BMatC= 7.02D-01 BMatP= 7.02D-01
 IDIUse=3 WtCom= 8.28D-01 WtEn= 1.72D-01
 Coeff-Com:  0.100D+01
 Coeff-En:   0.100D+01
 Coeff:      0.100D+01
 Gap=     0.084 Goal=   None    Shift=    0.000
 Gap=     0.194 Goal=   None    Shift=    0.000
 GapD=    0.084 DampG=0.500 DampE=0.500 DampFc=0.2500 IDamp=-1.
 Damping current iteration by 2.50D-01
 RMSDP=8.46D-03 MaxDP=5.05D-01              OVMax= 2.59D-01

 Cycle   2  Pass 1  IDiag  1:
 RMSU=  2.09D-03    CP:  1.02D+00
 E= -453.361740990593     Delta-E=       -0.049859949776 Rises=F Damp=T
 DIIS: error= 8.41D-03 at cycle   2 NSaved=   2.
 NSaved= 2 IEnMin= 2 EnMin= -453.361740990593     IErMin= 2 ErrMin= 8.41D-03
 ErrMax= 8.41D-03  0.00D+00 EMaxC= 1.00D-01 BMatC= 2.03D-01 BMatP= 7.02D-01
 IDIUse=3 WtCom= 9.16D-01 WtEn= 8.41D-02
 Coeff-Com: -0.718D+00 0.172D+01
 Coeff-En:   0.000D+00 0.100D+01
 Coeff:     -0.658D+00 0.166D+01
 Gap=     0.177 Goal=   None    Shift=    0.000
 Gap=     0.208 Goal=   None    Shift=    0.000
 RMSDP=4.06D-03 MaxDP=2.23D-01 DE=-4.99D-02 OVMax= 2.61D-01

 Cycle   3  Pass 1  IDiag  1:
 RMSU=  3.33D-03    CP:  1.09D+00  1.88D+00
 E= -453.423291586460     Delta-E=       -0.061550595867 Rises=F Damp=F
 DIIS: error= 1.47D-02 at cycle   3 NSaved=   3.
 NSaved= 3 IEnMin= 3 EnMin= -453.423291586460     IErMin= 2 ErrMin= 8.41D-03
 ErrMax= 1.47D-02  0.00D+00 EMaxC= 1.00D-01 BMatC= 1.55D-01 BMatP= 2.03D-01
 IDIUse=3 WtCom= 8.53D-01 WtEn= 1.47D-01
 Coeff-Com: -0.576D+00 0.111D+01 0.470D+00
 Coeff-En:   0.000D+00 0.000D+00 0.100D+01
 Coeff:     -0.491D+00 0.944D+00 0.548D+00
 Gap=     0.159 Goal=   None    Shift=    0.000
 Gap=     0.148 Goal=   None    Shift=    0.000
 RMSDP=1.84D-03 MaxDP=4.42D-02 DE=-6.16D-02 OVMax= 1.30D-01

 Cycle   4  Pass 1  IDiag  1:
 RMSU=  1.23D-03    CP:  1.07D+00  1.78D+00  6.01D-01
 E= -453.444756747801     Delta-E=       -0.021465161341 Rises=F Damp=F
 DIIS: error= 6.81D-03 at cycle   4 NSaved=   4.
 NSaved= 4 IEnMin= 4 EnMin= -453.444756747801     IErMin= 4 ErrMin= 6.81D-03
 ErrMax= 6.81D-03  0.00D+00 EMaxC= 1.00D-01 BMatC= 6.48D-02 BMatP= 1.55D-01
 IDIUse=3 WtCom= 9.32D-01 WtEn= 6.81D-02
 Coeff-Com: -0.183D+00 0.326D+00 0.399D+00 0.458D+00
 Coeff-En:   0.000D+00 0.000D+00 0.334D+00 0.666D+00
 Coeff:     -0.171D+00 0.304D+00 0.395D+00 0.472D+00
 Gap=     0.165 Goal=   None    Shift=    0.000
 Gap=     0.151 Goal=   None    Shift=    0.000
 RMSDP=7.45D-04 MaxDP=5.71D-02 DE=-2.15D-02 OVMax= 5.59D-02

 Cycle   5  Pass 1  IDiag  1:
 RMSU=  4.77D-04    CP:  1.06D+00  1.76D+00  6.56D-01  6.16D-01
 E= -453.458829114780     Delta-E=       -0.014072366979 Rises=F Damp=F
 DIIS: error= 1.15D-03 at cycle   5 NSaved=   5.
 NSaved= 5 IEnMin= 5 EnMin= -453.458829114780     IErMin= 5 ErrMin= 1.15D-03
 ErrMax= 1.15D-03  0.00D+00 EMaxC= 1.00D-01 BMatC= 1.29D-03 BMatP= 6.48D-02
 IDIUse=3 WtCom= 9.89D-01 WtEn= 1.15D-02
 Coeff-Com: -0.395D-01 0.634D-01 0.162D+00 0.233D+00 0.581D+00
 Coeff-En:   0.000D+00 0.000D+00 0.000D+00 0.000D+00 0.100D+01
 Coeff:     -0.390D-01 0.627D-01 0.160D+00 0.231D+00 0.586D+00
 Gap=     0.168 Goal=   None    Shift=    0.000
 Gap=     0.150 Goal=   None    Shift=    0.000
 RMSDP=2.21D-04 MaxDP=1.77D-02 DE=-1.41D-02 OVMax= 7.62D-03

 Cycle   6  Pass 1  IDiag  1:
 RMSU=  1.42D-04    CP:  1.06D+00  1.76D+00  6.77D-01  6.80D-01  7.74D-01
 E= -453.458963529455     Delta-E=       -0.000134414675 Rises=F Damp=F
 DIIS: error= 9.90D-04 at cycle   6 NSaved=   6.
 NSaved= 6 IEnMin= 6 EnMin= -453.458963529455     IErMin= 6 ErrMin= 9.90D-04
 ErrMax= 9.90D-04  0.00D+00 EMaxC= 1.00D-01 BMatC= 7.45D-04 BMatP= 1.29D-03
 IDIUse=3 WtCom= 9.90D-01 WtEn= 9.90D-03
 Coeff-Com:  0.806D-02-0.182D-01 0.396D-01 0.778D-01 0.448D+00 0.445D+00
 Coeff-En:   0.000D+00 0.000D+00 0.000D+00 0.000D+00 0.348D+00 0.652D+00
 Coeff:      0.798D-02-0.180D-01 0.392D-01 0.770D-01 0.447D+00 0.447D+00
 Gap=     0.168 Goal=   None    Shift=    0.000
 Gap=     0.151 Goal=   None    Shift=    0.000
 RMSDP=9.94D-05 MaxDP=2.37D-03 DE=-1.34D-04 OVMax= 5.93D-03

 Cycle   7  Pass 1  IDiag  1:
 RMSU=  8.59D-05    CP:  1.06D+00  1.76D+00  6.84D-01  6.75D-01  8.27D-01
                    CP:  7.51D-01
 E= -453.459108299873     Delta-E=       -0.000144770418 Rises=F Damp=F
 DIIS: error= 2.17D-04 at cycle   7 NSaved=   7.
 NSaved= 7 IEnMin= 7 EnMin= -453.459108299873     IErMin= 7 ErrMin= 2.17D-04
 ErrMax= 2.17D-04  0.00D+00 EMaxC= 1.00D-01 BMatC= 5.49D-05 BMatP= 7.45D-04
 IDIUse=3 WtCom= 9.98D-01 WtEn= 2.17D-03
 Coeff-Com:  0.961D-02-0.178D-01-0.233D-02 0.551D-02 0.140D+00 0.254D+00
 Coeff-Com:  0.611D+00
 Coeff-En:   0.000D+00 0.000D+00 0.000D+00 0.000D+00 0.000D+00 0.105D-01
 Coeff-En:   0.990D+00
 Coeff:      0.959D-02-0.177D-01-0.233D-02 0.550D-02 0.139D+00 0.254D+00
 Coeff:      0.612D+00
 Gap=     0.168 Goal=   None    Shift=    0.000
 Gap=     0.152 Goal=   None    Shift=    0.000
 RMSDP=4.47D-05 MaxDP=2.61D-03 DE=-1.45D-04 OVMax= 3.74D-03

 Cycle   8  Pass 1  IDiag  1:
 RMSU=  3.37D-05    CP:  1.07D+00  1.76D+00  6.86D-01  6.83D-01  8.26D-01
                    CP:  9.03D-01  8.68D-01
 E= -453.459124062274     Delta-E=       -0.000015762401 Rises=F Damp=F
 DIIS: error= 1.03D-04 at cycle   8 NSaved=   8.
 NSaved= 8 IEnMin= 8 EnMin= -453.459124062274     IErMin= 8 ErrMin= 1.03D-04
 ErrMax= 1.03D-04  0.00D+00 EMaxC= 1.00D-01 BMatC= 1.14D-05 BMatP= 5.49D-05
 IDIUse=3 WtCom= 9.99D-01 WtEn= 1.03D-03
 Coeff-Com:  0.259D-02-0.429D-02-0.101D-01-0.152D-01-0.376D-01 0.261D-01
 Coeff-Com:  0.342D+00 0.697D+00
 Coeff-En:   0.000D+00 0.000D+00 0.000D+00 0.000D+00 0.000D+00 0.000D+00
 Coeff-En:   0.000D+00 0.100D+01
 Coeff:      0.258D-02-0.429D-02-0.101D-01-0.152D-01-0.376D-01 0.261D-01
 Coeff:      0.342D+00 0.697D+00
 Gap=     0.168 Goal=   None    Shift=    0.000
 Gap=     0.152 Goal=   None    Shift=    0.000
 RMSDP=3.16D-05 MaxDP=2.44D-03 DE=-1.58D-05 OVMax= 2.10D-03

 Cycle   9  Pass 1  IDiag  1:
 RMSU=  1.76D-05    CP:  1.07D+00  1.76D+00  6.89D-01  6.87D-01  8.25D-01
                    CP:  9.55D-01  1.05D+00  1.26D+00
 E= -453.459127845021     Delta-E=       -0.000003782746 Rises=F Damp=F
 DIIS: error= 5.09D-05 at cycle   9 NSaved=   9.
 NSaved= 9 IEnMin= 9 EnMin= -453.459127845021     IErMin= 9 ErrMin= 5.09D-05
 ErrMax= 5.09D-05  0.00D+00 EMaxC= 1.00D-01 BMatC= 3.28D-06 BMatP= 1.14D-05
 IDIUse=1 WtCom= 1.00D+00 WtEn= 0.00D+00
 Coeff-Com: -0.590D-03 0.147D-02-0.622D-02-0.110D-01-0.583D-01-0.431D-01
 Coeff-Com:  0.764D-01 0.432D+00 0.609D+00
 Coeff:     -0.590D-03 0.147D-02-0.622D-02-0.110D-01-0.583D-01-0.431D-01
 Coeff:      0.764D-01 0.432D+00 0.609D+00
 Gap=     0.169 Goal=   None    Shift=    0.000
 Gap=     0.152 Goal=   None    Shift=    0.000
 RMSDP=1.29D-05 MaxDP=8.14D-04 DE=-3.78D-06 OVMax= 1.14D-03

 Cycle  10  Pass 1  IDiag  1:
 RMSU=  6.24D-06    CP:  1.07D+00  1.76D+00  6.88D-01  6.89D-01  8.30D-01
                    CP:  1.00D+00  1.11D+00  1.31D+00  8.25D-01
 E= -453.459128904730     Delta-E=       -0.000001059709 Rises=F Damp=F
 DIIS: error= 1.83D-05 at cycle  10 NSaved=  10.
 NSaved=10 IEnMin=10 EnMin= -453.459128904730     IErMin=10 ErrMin= 1.83D-05
 ErrMax= 1.83D-05  0.00D+00 EMaxC= 1.00D-01 BMatC= 3.85D-07 BMatP= 3.28D-06
 IDIUse=1 WtCom= 1.00D+00 WtEn= 0.00D+00
 Coeff-Com: -0.653D-03 0.120D-02-0.134D-02-0.248D-02-0.209D-01-0.252D-01
 Coeff-Com: -0.228D-01 0.624D-01 0.266D+00 0.743D+00
 Coeff:     -0.653D-03 0.120D-02-0.134D-02-0.248D-02-0.209D-01-0.252D-01
 Coeff:     -0.228D-01 0.624D-01 0.266D+00 0.743D+00
 Gap=     0.169 Goal=   None    Shift=    0.000
 Gap=     0.152 Goal=   None    Shift=    0.000
 RMSDP=5.60D-06 MaxDP=2.98D-04 DE=-1.06D-06 OVMax= 3.10D-04

 Cycle  11  Pass 1  IDiag  1:
 RMSU=  2.69D-06    CP:  1.07D+00  1.76D+00  6.88D-01  6.89D-01  8.30D-01
                    CP:  1.02D+00  1.15D+00  1.35D+00  9.04D-01  9.99D-01
 E= -453.459129008224     Delta-E=       -0.000000103494 Rises=F Damp=F
 DIIS: error= 9.47D-06 at cycle  11 NSaved=  11.
 NSaved=11 IEnMin=11 EnMin= -453.459129008224     IErMin=11 ErrMin= 9.47D-06
 ErrMax= 9.47D-06  0.00D+00 EMaxC= 1.00D-01 BMatC= 1.35D-07 BMatP= 3.85D-07
 IDIUse=1 WtCom= 1.00D+00 WtEn= 0.00D+00
 Coeff-Com: -0.272D-03 0.427D-03 0.843D-03 0.139D-02 0.263D-02-0.284D-02
 Coeff-Com: -0.254D-01-0.622D-01 0.175D-01 0.458D+00 0.610D+00
 Coeff:     -0.272D-03 0.427D-03 0.843D-03 0.139D-02 0.263D-02-0.284D-02
 Coeff:     -0.254D-01-0.622D-01 0.175D-01 0.458D+00 0.610D+00
 Gap=     0.169 Goal=   None    Shift=    0.000
 Gap=     0.152 Goal=   None    Shift=    0.000
 RMSDP=1.67D-06 MaxDP=8.69D-05 DE=-1.03D-07 OVMax= 1.01D-04

 Cycle  12  Pass 1  IDiag  1:
 RMSU=  1.21D-06    CP:  1.07D+00  1.76D+00  6.88D-01  6.89D-01  8.30D-01
                    CP:  1.01D+00  1.15D+00  1.37D+00  9.10D-01  1.11D+00
                    CP:  9.19D-01
 E= -453.459129037461     Delta-E=       -0.000000029237 Rises=F Damp=F
 DIIS: error= 3.12D-06 at cycle  12 NSaved=  12.
 NSaved=12 IEnMin=12 EnMin= -453.459129037461     IErMin=12 ErrMin= 3.12D-06
 ErrMax= 3.12D-06  0.00D+00 EMaxC= 1.00D-01 BMatC= 1.37D-08 BMatP= 1.35D-07
 IDIUse=1 WtCom= 1.00D+00 WtEn= 0.00D+00
 Coeff-Com: -0.143D-04 0.518D-06 0.515D-03 0.890D-03 0.369D-02 0.152D-02
 Coeff-Com: -0.113D-01-0.394D-01-0.281D-01 0.132D+00 0.287D+00 0.653D+00
 Coeff:     -0.143D-04 0.518D-06 0.515D-03 0.890D-03 0.369D-02 0.152D-02
 Coeff:     -0.113D-01-0.394D-01-0.281D-01 0.132D+00 0.287D+00 0.653D+00
 Gap=     0.169 Goal=   None    Shift=    0.000
 Gap=     0.152 Goal=   None    Shift=    0.000
 RMSDP=8.42D-07 MaxDP=6.32D-05 DE=-2.92D-08 OVMax= 2.67D-05

 Cycle  13  Pass 1  IDiag  1:
 RMSU=  4.82D-07    CP:  1.07D+00  1.76D+00  6.88D-01  6.89D-01  8.30D-01
                    CP:  1.02D+00  1.15D+00  1.37D+00  9.33D-01  1.14D+00
                    CP:  9.34D-01  7.40D-01
 E= -453.459129040983     Delta-E=       -0.000000003522 Rises=F Damp=F
 DIIS: error= 1.39D-06 at cycle  13 NSaved=  13.
 NSaved=13 IEnMin=13 EnMin= -453.459129040983     IErMin=13 ErrMin= 1.39D-06
 ErrMax= 1.39D-06  0.00D+00 EMaxC= 1.00D-01 BMatC= 3.04D-09 BMatP= 1.37D-08
 IDIUse=1 WtCom= 1.00D+00 WtEn= 0.00D+00
 Coeff-Com:  0.441D-04-0.738D-04 0.104D-03 0.159D-03 0.135D-02 0.150D-02
 Coeff-Com:  0.681D-03-0.329D-02-0.174D-01-0.375D-01-0.122D-01 0.325D+00
 Coeff-Com:  0.741D+00
 Coeff:      0.441D-04-0.738D-04 0.104D-03 0.159D-03 0.135D-02 0.150D-02
 Coeff:      0.681D-03-0.329D-02-0.174D-01-0.375D-01-0.122D-01 0.325D+00
 Coeff:      0.741D+00
 Gap=     0.169 Goal=   None    Shift=    0.000
 Gap=     0.152 Goal=   None    Shift=    0.000
 RMSDP=2.98D-07 MaxDP=1.34D-05 DE=-3.52D-09 OVMax= 1.70D-05

 Cycle  14  Pass 1  IDiag  1:
 RMSU=  1.96D-07    CP:  1.07D+00  1.76D+00  6.88D-01  6.89D-01  8.30D-01
                    CP:  1.01D+00  1.15D+00  1.37D+00  9.28D-01  1.15D+00
                    CP:  9.62D-01  8.02D-01  1.01D+00
 E= -453.459129042063     Delta-E=       -0.000000001080 Rises=F Damp=F
 DIIS: error= 7.99D-07 at cycle  14 NSaved=  14.
 NSaved=14 IEnMin=14 EnMin= -453.459129042063     IErMin=14 ErrMin= 7.99D-07
 ErrMax= 7.99D-07  0.00D+00 EMaxC= 1.00D-01 BMatC= 3.76D-10 BMatP= 3.04D-09
 IDIUse=1 WtCom= 1.00D+00 WtEn= 0.00D+00
 Coeff-Com:  0.186D-04-0.269D-04-0.453D-04-0.858D-04-0.657D-04 0.290D-03
 Coeff-Com:  0.200D-02 0.487D-02-0.212D-02-0.343D-01-0.508D-01 0.328D-01
 Coeff-Com:  0.307D+00 0.741D+00
 Coeff:      0.186D-04-0.269D-04-0.453D-04-0.858D-04-0.657D-04 0.290D-03
 Coeff:      0.200D-02 0.487D-02-0.212D-02-0.343D-01-0.508D-01 0.328D-01
 Coeff:      0.307D+00 0.741D+00
 Gap=     0.169 Goal=   None    Shift=    0.000
 Gap=     0.152 Goal=   None    Shift=    0.000
 RMSDP=1.44D-07 MaxDP=1.10D-05 DE=-1.08D-09 OVMax= 1.06D-05

 Cycle  15  Pass 1  IDiag  1:
 RMSU=  8.31D-08    CP:  1.07D+00  1.76D+00  6.88D-01  6.89D-01  8.30D-01
                    CP:  1.01D+00  1.15D+00  1.37D+00  9.25D-01  1.15D+00
                    CP:  9.79D-01  8.48D-01  1.06D+00  1.03D+00
 E= -453.459129042295     Delta-E=       -0.000000000232 Rises=F Damp=F
 DIIS: error= 3.69D-07 at cycle  15 NSaved=  15.
 NSaved=15 IEnMin=15 EnMin= -453.459129042295     IErMin=15 ErrMin= 3.69D-07
 ErrMax= 3.69D-07  0.00D+00 EMaxC= 1.00D-01 BMatC= 8.47D-11 BMatP= 3.76D-10
 IDIUse=1 WtCom= 1.00D+00 WtEn= 0.00D+00
 Coeff-Com: -0.372D-05 0.653D-05-0.313D-04-0.532D-04-0.254D-03-0.150D-03
 Coeff-Com:  0.525D-03 0.208D-02 0.193D-02-0.568D-02-0.161D-01-0.449D-01
 Coeff-Com: -0.168D-01 0.253D+00 0.826D+00
 Coeff:     -0.372D-05 0.653D-05-0.313D-04-0.532D-04-0.254D-03-0.150D-03
 Coeff:      0.525D-03 0.208D-02 0.193D-02-0.568D-02-0.161D-01-0.449D-01
 Coeff:     -0.168D-01 0.253D+00 0.826D+00
 Gap=     0.169 Goal=   None    Shift=    0.000
 Gap=     0.152 Goal=   None    Shift=    0.000
 RMSDP=7.53D-08 MaxDP=4.19D-06 DE=-2.32D-10 OVMax= 8.29D-06

 Cycle  16  Pass 1  IDiag  1:
 RMSU=  5.16D-08    CP:  1.07D+00  1.76D+00  6.88D-01  6.89D-01  8.30D-01
                    CP:  1.01D+00  1.15D+00  1.37D+00  9.26D-01  1.15D+00
                    CP:  9.75D-01  8.50D-01  1.12D+00  1.15D+00  1.23D+00
 E= -453.459129042392     Delta-E=       -0.000000000097 Rises=F Damp=F
 DIIS: error= 2.34D-07 at cycle  16 NSaved=  16.
 NSaved=16 IEnMin=16 EnMin= -453.459129042392     IErMin=16 ErrMin= 2.34D-07
 ErrMax= 2.34D-07  0.00D+00 EMaxC= 1.00D-01 BMatC= 3.33D-11 BMatP= 8.47D-11
 IDIUse=1 WtCom= 1.00D+00 WtEn= 0.00D+00
 Coeff-Com: -0.797D-05 0.113D-04 0.458D-05 0.151D-04-0.677D-04-0.155D-03
 Coeff-Com: -0.626D-03-0.118D-02 0.163D-02 0.130D-01 0.155D-01-0.317D-01
 Coeff-Com: -0.139D+00-0.225D+00 0.332D+00 0.104D+01
 Coeff:     -0.797D-05 0.113D-04 0.458D-05 0.151D-04-0.677D-04-0.155D-03
 Coeff:     -0.626D-03-0.118D-02 0.163D-02 0.130D-01 0.155D-01-0.317D-01
 Coeff:     -0.139D+00-0.225D+00 0.332D+00 0.104D+01
 Gap=     0.169 Goal=   None    Shift=    0.000
 Gap=     0.152 Goal=   None    Shift=    0.000
 RMSDP=6.52D-08 MaxDP=2.42D-06 DE=-9.66D-11 OVMax= 8.61D-06

 Cycle  17  Pass 1  IDiag  1:
 RMSU=  2.97D-08    CP:  1.07D+00  1.76D+00  6.88D-01  6.89D-01  8.30D-01
                    CP:  1.01D+00  1.15D+00  1.37D+00  9.26D-01  1.15D+00
                    CP:  9.77D-01  8.50D-01  1.16D+00  1.29D+00  1.66D+00
                    CP:  1.28D+00
 E= -453.459129042447     Delta-E=       -0.000000000055 Rises=F Damp=F
 DIIS: error= 1.09D-07 at cycle  17 NSaved=  17.
 NSaved=17 IEnMin=17 EnMin= -453.459129042447     IErMin=17 ErrMin= 1.09D-07
 ErrMax= 1.09D-07  0.00D+00 EMaxC= 1.00D-01 BMatC= 7.81D-12 BMatP= 3.33D-11
 IDIUse=1 WtCom= 1.00D+00 WtEn= 0.00D+00
 Coeff-Com: -0.119D-05 0.158D-05 0.101D-04 0.188D-04 0.410D-04-0.189D-04
 Coeff-Com: -0.417D-03-0.992D-03-0.627D-04 0.579D-02 0.937D-02 0.307D-02
 Coeff-Com: -0.428D-01-0.139D+00-0.126D+00 0.366D+00 0.924D+00
 Coeff:     -0.119D-05 0.158D-05 0.101D-04 0.188D-04 0.410D-04-0.189D-04
 Coeff:     -0.417D-03-0.992D-03-0.627D-04 0.579D-02 0.937D-02 0.307D-02
 Coeff:     -0.428D-01-0.139D+00-0.126D+00 0.366D+00 0.924D+00
 Gap=     0.169 Goal=   None    Shift=    0.000
 Gap=     0.152 Goal=   None    Shift=    0.000
 RMSDP=3.51D-08 MaxDP=1.18D-06 DE=-5.53D-11 OVMax= 4.55D-06

 Cycle  18  Pass 1  IDiag  1:
 RMSU=  1.61D-08    CP:  1.07D+00  1.76D+00  6.88D-01  6.89D-01  8.30D-01
                    CP:  1.01D+00  1.15D+00  1.37D+00  9.26D-01  1.15D+00
                    CP:  9.79D-01  8.56D-01  1.16D+00  1.35D+00  1.91D+00
                    CP:  1.51D+00  1.20D+00
 E= -453.459129042455     Delta-E=       -0.000000000008 Rises=F Damp=F
 DIIS: error= 3.43D-08 at cycle  18 NSaved=  18.
 NSaved=18 IEnMin=18 EnMin= -453.459129042455     IErMin=18 ErrMin= 3.43D-08
 ErrMax= 3.43D-08  0.00D+00 EMaxC= 1.00D-01 BMatC= 1.68D-12 BMatP= 7.81D-12
 IDIUse=1 WtCom= 1.00D+00 WtEn= 0.00D+00
 Coeff-Com:  0.181D-05-0.252D-05 0.296D-05 0.380D-05 0.375D-04 0.314D-04
 Coeff-Com:  0.175D-04-0.584D-04-0.408D-03-0.106D-02-0.392D-03 0.938D-02
 Coeff-Com:  0.175D-01 0.474D-02-0.141D+00-0.114D+00 0.346D+00 0.879D+00
 Coeff:      0.181D-05-0.252D-05 0.296D-05 0.380D-05 0.375D-04 0.314D-04
 Coeff:      0.175D-04-0.584D-04-0.408D-03-0.106D-02-0.392D-03 0.938D-02
 Coeff:      0.175D-01 0.474D-02-0.141D+00-0.114D+00 0.346D+00 0.879D+00
 Gap=     0.169 Goal=   None    Shift=    0.000
 Gap=     0.152 Goal=   None    Shift=    0.000
 RMSDP=1.61D-08 MaxDP=6.85D-07 DE=-8.19D-12 OVMax= 1.94D-06

 Cycle  19  Pass 1  IDiag  1:
 RMSU=  7.50D-09    CP:  1.07D+00  1.76D+00  6.88D-01  6.89D-01  8.30D-01
                    CP:  1.01D+00  1.15D+00  1.37D+00  9.26D-01  1.15D+00
                    CP:  9.79D-01  8.56D-01  1.17D+00  1.37D+00  1.97D+00
                    CP:  1.65D+00  1.42D+00  9.55D-01
 E= -453.459129042456     Delta-E=       -0.000000000001 Rises=F Damp=F
 DIIS: error= 1.45D-08 at cycle  19 NSaved=  19.
 NSaved=19 IEnMin=19 EnMin= -453.459129042456     IErMin=19 ErrMin= 1.45D-08
 ErrMax= 1.45D-08  0.00D+00 EMaxC= 1.00D-01 BMatC= 2.89D-13 BMatP= 1.68D-12
 IDIUse=1 WtCom= 1.00D+00 WtEn= 0.00D+00
 Coeff-Com:  0.842D-06-0.120D-05-0.183D-06-0.960D-06 0.106D-04 0.138D-04
 Coeff-Com:  0.630D-04 0.971D-04-0.181D-03-0.129D-02-0.146D-02 0.361D-02
 Coeff-Com:  0.140D-01 0.230D-01-0.413D-01-0.994D-01 0.454D-02 0.352D+00
 Coeff-Com:  0.747D+00
 Coeff:      0.842D-06-0.120D-05-0.183D-06-0.960D-06 0.106D-04 0.138D-04
 Coeff:      0.630D-04 0.971D-04-0.181D-03-0.129D-02-0.146D-02 0.361D-02
 Coeff:      0.140D-01 0.230D-01-0.413D-01-0.994D-01 0.454D-02 0.352D+00
 Coeff:      0.747D+00
 Gap=     0.169 Goal=   None    Shift=    0.000
 Gap=     0.152 Goal=   None    Shift=    0.000
 RMSDP=4.46D-09 MaxDP=1.66D-07 DE=-6.82D-13 OVMax= 4.77D-07

 SCF Done:  E(UB3LYP) =  -453.459129042     A.U. after   19 cycles
            NFock= 19  Conv=0.45D-08     -V/T= 2.0038
 <Sx>= 0.0000 <Sy>= 0.0000 <Sz>= 0.5000 <S**2>= 0.7540 S= 0.5020
 <L.S>=  0.00000000000    
 KE= 4.517400610498D+02 PE=-1.938857969157D+03 EE= 5.939111334001D+02
 Annihilation of the first spin contaminant:
 S**2 before annihilation     0.7540,   after     0.7500
 Leave Link  502 at Sun Mar 19 20:51:46 2023, MaxMem=  8053063680 cpu:             508.0 elap:              15.9
 (Enter /public3/home/scg5914/software-scg5914/g16/l601.exe)
 Copying SCF densities to generalized density rwf, IOpCl= 1 IROHF=0.

 **********************************************************************

            Population analysis using the SCF Density.

 **********************************************************************

 Orbital symmetries:
 Alpha Orbitals:
       Occupied  (A) (A) (A) (A) (A) (A) (A) (A) (A) (A) (A) (A)
                 (A) (A) (A) (A) (A) (A) (A) (A) (A) (A) (A) (A)
                 (A) (A) (A) (A) (A) (A) (A) (A) (A)
       Virtual   (A) (A) (A) (A) (A) (A) (A) (A) (A) (A) (A) (A)
                 (A) (A) (A) (A) (A) (A) (A) (A) (A) (A) (A) (A)
                 (A) (A) (A) (A) (A) (A) (A) (A) (A) (A) (A) (A)
                 (A) (A) (A) (A) (A) (A) (A) (A) (A) (A) (A) (A)
                 (A) (A) (A) (A) (A) (A) (A) (A) (A) (A) (A) (A)
                 (A) (A) (A) (A) (A) (A) (A) (A) (A) (A) (A) (A)
                 (A) (A) (A) (A) (A) (A) (A) (A) (A) (A) (A) (A)
                 (A) (A) (A) (A) (A) (A) (A) (A) (A) (A) (A) (A)
                 (A) (A) (A) (A) (A) (A) (A) (A) (A) (A) (A) (A)
                 (A) (A) (A) (A) (A) (A) (A) (A) (A) (A) (A) (A)
                 (A) (A) (A) (A) (A) (A) (A) (A) (A) (A) (A) (A)
                 (A) (A) (A) (A) (A) (A) (A) (A) (A) (A) (A) (A)
                 (A) (A) (A) (A) (A) (A) (A) (A) (A) (A) (A) (A)
                 (A) (A) (A) (A) (A) (A) (A) (A) (A) (A) (A) (A)
                 (A) (A) (A) (A) (A) (A) (A) (A) (A) (A) (A) (A)
                 (A) (A) (A) (A) (A) (A) (A) (A) (A) (A) (A) (A)
                 (A) (A) (A)
 Beta  Orbitals:
       Occupied  (A) (A) (A) (A) (A) (A) (A) (A) (A) (A) (A) (A)
                 (A) (A) (A) (A) (A) (A) (A) (A) (A) (A) (A) (A)
                 (A) (A) (A) (A) (A) (A) (A) (A)
       Virtual   (A) (A) (A) (A) (A) (A) (A) (A) (A) (A) (A) (A)
                 (A) (A) (A) (A) (A) (A) (A) (A) (A) (A) (A) (A)
                 (A) (A) (A) (A) (A) (A) (A) (A) (A) (A) (A) (A)
                 (A) (A) (A) (A) (A) (A) (A) (A) (A) (A) (A) (A)
                 (A) (A) (A) (A) (A) (A) (A) (A) (A) (A) (A) (A)
                 (A) (A) (A) (A) (A) (A) (A) (A) (A) (A) (A) (A)
                 (A) (A) (A) (A) (A) (A) (A) (A) (A) (A) (A) (A)
                 (A) (A) (A) (A) (A) (A) (A) (A) (A) (A) (A) (A)
                 (A) (A) (A) (A) (A) (A) (A) (A) (A) (A) (A) (A)
                 (A) (A) (A) (A) (A) (A) (A) (A) (A) (A) (A) (A)
                 (A) (A) (A) (A) (A) (A) (A) (A) (A) (A) (A) (A)
                 (A) (A) (A) (A) (A) (A) (A) (A) (A) (A) (A) (A)
                 (A) (A) (A) (A) (A) (A) (A) (A) (A) (A) (A) (A)
                 (A) (A) (A) (A) (A) (A) (A) (A) (A) (A) (A) (A)
                 (A) (A) (A) (A) (A) (A) (A) (A) (A) (A) (A) (A)
                 (A) (A) (A) (A) (A) (A) (A) (A) (A) (A) (A) (A)
                 (A) (A) (A) (A)
 The electronic state is 2-A.
 Alpha  occ. eigenvalues --  -19.23475 -19.21170 -14.42762 -14.39147 -10.27773
 Alpha  occ. eigenvalues --  -10.27704 -10.26454 -10.24431 -10.19756  -1.18228
 Alpha  occ. eigenvalues --   -1.12229  -1.01920  -0.85644  -0.81136  -0.72830
 Alpha  occ. eigenvalues --   -0.68050  -0.64435  -0.63012  -0.54207  -0.53593
 Alpha  occ. eigenvalues --   -0.51376  -0.48214  -0.47126  -0.43800  -0.42866
 Alpha  occ. eigenvalues --   -0.41482  -0.39861  -0.38749  -0.37407  -0.36730
 Alpha  occ. eigenvalues --   -0.32994  -0.29199  -0.23811
 Alpha virt. eigenvalues --   -0.06953  -0.01238   0.00641   0.01338   0.01913
 Alpha virt. eigenvalues --    0.02827   0.04143   0.04841   0.04999   0.05518
 Alpha virt. eigenvalues --    0.06070   0.06481   0.08482   0.09207   0.09473
 Alpha virt. eigenvalues --    0.10089   0.10461   0.11485   0.11829   0.12483
 Alpha virt. eigenvalues --    0.14024   0.14237   0.15623   0.15890   0.16675
 Alpha virt. eigenvalues --    0.17426   0.18646   0.18930   0.19270   0.20275
 Alpha virt. eigenvalues --    0.21115   0.21791   0.22941   0.24226   0.24480
 Alpha virt. eigenvalues --    0.24936   0.25315   0.26686   0.27014   0.27727
 Alpha virt. eigenvalues --    0.28353   0.29840   0.30744   0.31177   0.33185
 Alpha virt. eigenvalues --    0.34213   0.34796   0.35221   0.37357   0.38062
 Alpha virt. eigenvalues --    0.39239   0.41373   0.42495   0.44586   0.47689
 Alpha virt. eigenvalues --    0.50115   0.52425   0.53556   0.54785   0.57435
 Alpha virt. eigenvalues --    0.59821   0.60961   0.61328   0.62349   0.62516
 Alpha virt. eigenvalues --    0.63994   0.66594   0.68421   0.70298   0.72001
 Alpha virt. eigenvalues --    0.75076   0.78340   0.80168   0.80851   0.81131
 Alpha virt. eigenvalues --    0.82437   0.85627   0.87107   0.87800   0.91131
 Alpha virt. eigenvalues --    0.92450   0.95056   0.97121   1.04368   1.06157
 Alpha virt. eigenvalues --    1.07129   1.10464   1.11137   1.16064   1.17162
 Alpha virt. eigenvalues --    1.18729   1.21296   1.22538   1.24733   1.27007
 Alpha virt. eigenvalues --    1.28814   1.31449   1.36924   1.38862   1.44506
 Alpha virt. eigenvalues --    1.44570   1.48432   1.49564   1.51364   1.53695
 Alpha virt. eigenvalues --    1.57259   1.57904   1.61359   1.61668   1.63431
 Alpha virt. eigenvalues --    1.64470   1.69103   1.71992   1.73136   1.74052
 Alpha virt. eigenvalues --    1.78528   1.83224   1.85670   1.89096   1.91961
 Alpha virt. eigenvalues --    1.93359   1.95938   1.99558   2.04067   2.06601
 Alpha virt. eigenvalues --    2.07793   2.11352   2.12502   2.16486   2.23695
 Alpha virt. eigenvalues --    2.25870   2.28503   2.35602   2.37582   2.39466
 Alpha virt. eigenvalues --    2.45072   2.47770   2.52590   2.54983   2.59015
 Alpha virt. eigenvalues --    2.60460   2.62852   2.64708   2.66525   2.67865
 Alpha virt. eigenvalues --    2.71062   2.74567   2.78670   2.80206   2.83266
 Alpha virt. eigenvalues --    2.87852   2.88573   2.93628   2.99047   3.00207
 Alpha virt. eigenvalues --    3.02276   3.08963   3.13867   3.17589   3.19217
 Alpha virt. eigenvalues --    3.21758   3.25280   3.31822   3.41005   3.51112
 Alpha virt. eigenvalues --    3.54645   3.72247   3.77142   3.77975   3.82192
 Alpha virt. eigenvalues --    3.85970   3.95213   3.97432   4.01828   4.07051
 Alpha virt. eigenvalues --    4.19871   4.23112   4.30689   4.55283   4.95919
 Alpha virt. eigenvalues --    4.97635   5.05918   5.32395   5.35723   5.68477
 Alpha virt. eigenvalues --    5.79018  23.63007  23.68488  23.81766  23.92495
 Alpha virt. eigenvalues --   24.11953  35.35154  35.61881  49.86866  49.91471
  Beta  occ. eigenvalues --  -19.23463 -19.20746 -14.42776 -14.39131 -10.27794
  Beta  occ. eigenvalues --  -10.26408 -10.26314 -10.24440 -10.19679  -1.18184
  Beta  occ. eigenvalues --   -1.11414  -1.01886  -0.85319  -0.80679  -0.72258
  Beta  occ. eigenvalues --   -0.67083  -0.64031  -0.62762  -0.53647  -0.52854
  Beta  occ. eigenvalues --   -0.51171  -0.47343  -0.46686  -0.42851  -0.42140
  Beta  occ. eigenvalues --   -0.41089  -0.39737  -0.38415  -0.37139  -0.36380
  Beta  occ. eigenvalues --   -0.32864  -0.26422
  Beta virt. eigenvalues --   -0.11249  -0.06769  -0.01020   0.00940   0.01404
  Beta virt. eigenvalues --    0.02112   0.03000   0.04332   0.04923   0.05128
  Beta virt. eigenvalues --    0.05564   0.06148   0.06860   0.08548   0.09520
  Beta virt. eigenvalues --    0.09607   0.10211   0.10508   0.11648   0.12158
  Beta virt. eigenvalues --    0.12748   0.14124   0.14678   0.15741   0.16160
  Beta virt. eigenvalues --    0.16936   0.17548   0.18706   0.19104   0.19567
  Beta virt. eigenvalues --    0.20525   0.21419   0.21883   0.23001   0.24467
  Beta virt. eigenvalues --    0.24641   0.25325   0.25769   0.26872   0.27110
  Beta virt. eigenvalues --    0.27859   0.28414   0.29914   0.30822   0.31382
  Beta virt. eigenvalues --    0.33228   0.34402   0.34898   0.35428   0.37451
  Beta virt. eigenvalues --    0.38242   0.39322   0.41431   0.42646   0.45012
  Beta virt. eigenvalues --    0.47797   0.50402   0.52942   0.54921   0.55586
  Beta virt. eigenvalues --    0.57754   0.60145   0.61488   0.61570   0.62618
  Beta virt. eigenvalues --    0.62748   0.64460   0.67200   0.69427   0.70937
  Beta virt. eigenvalues --    0.72219   0.75326   0.78409   0.80270   0.81047
  Beta virt. eigenvalues --    0.81200   0.82791   0.85847   0.87271   0.88007
  Beta virt. eigenvalues --    0.91730   0.92525   0.95282   0.97925   1.04565
  Beta virt. eigenvalues --    1.06615   1.07441   1.10764   1.11684   1.16254
  Beta virt. eigenvalues --    1.17374   1.18962   1.21542   1.22788   1.25481
  Beta virt. eigenvalues --    1.27443   1.29060   1.31751   1.37092   1.39809
  Beta virt. eigenvalues --    1.44589   1.45241   1.48642   1.50956   1.51952
  Beta virt. eigenvalues --    1.54850   1.57544   1.58059   1.62015   1.62543
  Beta virt. eigenvalues --    1.63773   1.64737   1.69485   1.73088   1.73933
  Beta virt. eigenvalues --    1.74488   1.78733   1.83452   1.86774   1.89439
  Beta virt. eigenvalues --    1.92246   1.94471   1.96680   2.00231   2.04452
  Beta virt. eigenvalues --    2.06993   2.07892   2.11485   2.12732   2.17322
  Beta virt. eigenvalues --    2.23985   2.26035   2.28855   2.35908   2.37737
  Beta virt. eigenvalues --    2.40107   2.45206   2.48200   2.52870   2.55058
  Beta virt. eigenvalues --    2.59300   2.61192   2.63514   2.65043   2.66655
  Beta virt. eigenvalues --    2.68211   2.71455   2.75712   2.79181   2.81110
  Beta virt. eigenvalues --    2.83950   2.88169   2.89161   2.93814   2.99701
  Beta virt. eigenvalues --    3.00659   3.02604   3.09099   3.14559   3.17768
  Beta virt. eigenvalues --    3.20134   3.22654   3.26226   3.32137   3.41209
  Beta virt. eigenvalues --    3.51289   3.54763   3.72226   3.77211   3.78024
  Beta virt. eigenvalues --    3.82477   3.86833   3.95237   3.97603   4.02322
  Beta virt. eigenvalues --    4.07266   4.20221   4.23167   4.30806   4.55320
  Beta virt. eigenvalues --    4.96725   4.98504   5.05950   5.32798   5.35795
  Beta virt. eigenvalues --    5.68841   5.79065  23.63785  23.69284  23.81789
  Beta virt. eigenvalues --   23.92575  24.11970  35.35147  35.61891  49.87122
  Beta virt. eigenvalues --   49.91649
          Condensed to atoms (all electrons):
               1          2          3          4          5          6
     1  C    5.312447   0.006424   0.005280  -0.002206  -0.048226   0.020581
     2  C    0.006424   7.410704  -1.037155  -0.003043   0.742820  -1.488189
     3  C    0.005280  -1.037155   6.552782   0.087102  -0.526111   0.731869
     4  O   -0.002206  -0.003043   0.087102   8.058310  -0.005730   0.065141
     5  C   -0.048226   0.742820  -0.526111  -0.005730   7.585763  -1.701253
     6  C    0.020581  -1.488189   0.731869   0.065141  -1.701253   8.125697
     7  O    0.005929  -0.145241   0.056667   0.004310  -0.058050   0.135250
     8  N   -0.002570   0.013009  -0.063010   0.033112  -0.201466   0.363826
     9  N    0.002508  -0.058176   0.083713  -0.079255   0.406631  -0.253015
    10  H    0.405781   0.021995  -0.016834   0.000872   0.000208  -0.037679
    11  H    0.424363  -0.105448  -0.000613  -0.000182  -0.003340   0.058088
    12  H    0.407601   0.006930   0.011759  -0.001268   0.013553  -0.066786
    13  H   -0.046333   0.400561  -0.027624   0.006522  -0.015330  -0.015328
    14  H    0.001127   0.064774   0.321212  -0.044027   0.017481  -0.038216
               7          8          9         10         11         12
     1  C    0.005929  -0.002570   0.002508   0.405781   0.424363   0.407601
     2  C   -0.145241   0.013009  -0.058176   0.021995  -0.105448   0.006930
     3  C    0.056667  -0.063010   0.083713  -0.016834  -0.000613   0.011759
     4  O    0.004310   0.033112  -0.079255   0.000872  -0.000182  -0.001268
     5  C   -0.058050  -0.201466   0.406631   0.000208  -0.003340   0.013553
     6  C    0.135250   0.363826  -0.253015  -0.037679   0.058088  -0.066786
     7  O    8.136237  -0.196993   0.128206   0.000671  -0.000159   0.002071
     8  N   -0.196993   7.150584  -0.138989  -0.001142   0.000120  -0.000193
     9  N    0.128206  -0.138989   6.979365   0.000156   0.000040  -0.000134
    10  H    0.000671  -0.001142   0.000156   0.511517  -0.025452  -0.027405
    11  H   -0.000159   0.000120   0.000040  -0.025452   0.527756  -0.023696
    12  H    0.002071  -0.000193  -0.000134  -0.027405  -0.023696   0.521877
    13  H    0.001414  -0.000284   0.000127   0.006698  -0.005088  -0.005108
    14  H   -0.000644   0.001133  -0.001983  -0.000174   0.000382  -0.000505
              13         14
     1  C   -0.046333   0.001127
     2  C    0.400561   0.064774
     3  C   -0.027624   0.321212
     4  O    0.006522  -0.044027
     5  C   -0.015330   0.017481
     6  C   -0.015328  -0.038216
     7  O    0.001414  -0.000644
     8  N   -0.000284   0.001133
     9  N    0.000127  -0.001983
    10  H    0.006698  -0.000174
    11  H   -0.005088   0.000382
    12  H   -0.005108  -0.000505
    13  H    0.520353  -0.008018
    14  H   -0.008018   0.525920
          Atomic-Atomic Spin Densities.
               1          2          3          4          5          6
     1  C    0.049250   0.068667  -0.031898   0.000783   0.017066  -0.047797
     2  C    0.068667  -0.060621  -0.017195   0.024430  -0.081823  -0.012355
     3  C   -0.031898  -0.017195   1.042098  -0.147991   0.062549  -0.009253
     4  O    0.000783   0.024430  -0.147991   0.225550  -0.001663  -0.015411
     5  C    0.017066  -0.081823   0.062549  -0.001663  -0.056750   0.049244
     6  C   -0.047797  -0.012355  -0.009253  -0.015411   0.049244   0.080732
     7  O    0.000315   0.008055  -0.005955  -0.000337   0.006379  -0.012123
     8  N    0.002610  -0.006700   0.004412   0.001119  -0.004191   0.001581
     9  N   -0.001932   0.012537  -0.004961  -0.001104   0.004096  -0.007126
    10  H   -0.005746  -0.006603   0.005553  -0.000584   0.000064   0.007461
    11  H   -0.002267   0.001523   0.000380  -0.000029  -0.000097   0.000521
    12  H   -0.005804  -0.001287   0.000510  -0.000068   0.000305   0.003659
    13  H   -0.022595  -0.026151  -0.012111   0.001556   0.004932   0.033426
    14  H    0.003871   0.000226   0.011330  -0.001175  -0.018298  -0.001440
               7          8          9         10         11         12
     1  C    0.000315   0.002610  -0.001932  -0.005746  -0.002267  -0.005804
     2  C    0.008055  -0.006700   0.012537  -0.006603   0.001523  -0.001287
     3  C   -0.005955   0.004412  -0.004961   0.005553   0.000380   0.000510
     4  O   -0.000337   0.001119  -0.001104  -0.000584  -0.000029  -0.000068
     5  C    0.006379  -0.004191   0.004096   0.000064  -0.000097   0.000305
     6  C   -0.012123   0.001581  -0.007126   0.007461   0.000521   0.003659
     7  O    0.004532   0.003526  -0.000402  -0.000258  -0.000018  -0.000425
     8  N    0.003526  -0.008783  -0.000572  -0.000038   0.000000  -0.000017
     9  N   -0.000402  -0.000572   0.007151   0.000002   0.000001  -0.000045
    10  H   -0.000258  -0.000038   0.000002  -0.000129   0.000376   0.001040
    11  H   -0.000018   0.000000   0.000001   0.000376  -0.001141   0.000107
    12  H   -0.000425  -0.000017  -0.000045   0.001040   0.000107   0.002750
    13  H   -0.000851   0.000069  -0.000341   0.000721   0.000067   0.002232
    14  H    0.000205  -0.000202   0.000546  -0.000125  -0.000005  -0.000088
              13         14
     1  C   -0.022595   0.003871
     2  C   -0.026151   0.000226
     3  C   -0.012111   0.011330
     4  O    0.001556  -0.001175
     5  C    0.004932  -0.018298
     6  C    0.033426  -0.001440
     7  O   -0.000851   0.000205
     8  N    0.000069  -0.000202
     9  N   -0.000341   0.000546
    10  H    0.000721  -0.000125
    11  H    0.000067  -0.000005
    12  H    0.002232  -0.000088
    13  H    0.059904  -0.004641
    14  H   -0.004641   0.003546
 Mulliken charges and spin densities:
               1          2
     1  C   -0.492706   0.024523
     2  C    0.170035  -0.097297
     3  C   -0.179038   0.897468
     4  O   -0.119660   0.085079
     5  C   -0.206948  -0.018188
     6  C    0.100014   0.071118
     7  O   -0.069667   0.002642
     8  N    0.042864  -0.007185
     9  N   -0.069195   0.007850
    10  H    0.160789   0.001735
    11  H    0.153230  -0.000584
    12  H    0.161304   0.002869
    13  H    0.187437   0.036220
    14  H    0.161540  -0.006248
 Sum of Mulliken charges =  -0.00000   1.00000
 Mulliken charges and spin densities with hydrogens summed into heavy atoms:
               1          2
     1  C   -0.017383   0.028543
     2  C    0.357472  -0.061077
     3  C   -0.017498   0.891220
     4  O   -0.119660   0.085079
     5  C   -0.206948  -0.018188
     6  C    0.100014   0.071118
     7  O   -0.069667   0.002642
     8  N    0.042864  -0.007185
     9  N   -0.069195   0.007850
 Electronic spatial extent (au):  <R**2>=           1001.2872
 Charge=             -0.0000 electrons
 Dipole moment (field-independent basis, Debye):
    X=              4.4476    Y=             -0.4701    Z=              1.2158  Tot=              4.6347
 Quadrupole moment (field-independent basis, Debye-Ang):
   XX=            -55.8595   YY=            -56.3191   ZZ=            -50.2743
   XY=             -2.2045   XZ=              1.4840   YZ=              2.0659
 Traceless Quadrupole moment (field-independent basis, Debye-Ang):
   XX=             -1.7085   YY=             -2.1682   ZZ=              3.8767
   XY=             -2.2045   XZ=              1.4840   YZ=              2.0659
 Octapole moment (field-independent basis, Debye-Ang**2):
  XXX=             22.8823  YYY=             -4.2536  ZZZ=              2.2095  XYY=              6.1563
  XXY=              1.3843  XXZ=              5.9838  XZZ=             -0.0114  YZZ=             -0.1356
  YYZ=              3.2680  XYZ=              1.8857
 Hexadecapole moment (field-independent basis, Debye-Ang**3):
 XXXX=           -865.6946 YYYY=           -429.8634 ZZZZ=            -89.6938 XXXY=             -5.7339
 XXXZ=              3.8097 YYYX=             -0.0291 YYYZ=              5.5016 ZZZX=              3.2149
 ZZZY=              0.1998 XXYY=           -213.0754 XXZZ=           -150.9749 YYZZ=            -84.6950
 XXYZ=              6.9220 YYXZ=              5.4696 ZZXY=              1.7482
 N-N= 4.397476456650D+02 E-N=-1.938857967594D+03  KE= 4.517400610498D+02
                          Isotropic Fermi Contact Couplings
        Atom                 a.u.       MegaHertz       Gauss      10(-4) cm-1
     1  C(13)              0.04064      45.68371      16.30108      15.23844
     2  C(13)             -0.00330      -3.71305      -1.32491      -1.23854
     3  C(13)              0.30657     344.64438     122.97768     114.96099
     4  O(17)              0.05351     -32.43455     -11.57345     -10.81900
     5  C(13)              0.00055       0.61904       0.22089       0.20649
     6  C(13)              0.00451       5.07359       1.81038       1.69237
     7  O(17)              0.00085      -0.51392      -0.18338      -0.17143
     8  N(14)             -0.00113      -0.36386      -0.12983      -0.12137
     9  N(14)             -0.00010      -0.03218      -0.01148      -0.01073
    10  H(1)              -0.00051      -2.26732      -0.80904      -0.75630
    11  H(1)              -0.00048      -2.14170      -0.76421      -0.71439
    12  H(1)               0.00005       0.21683       0.07737       0.07233
    13  H(1)               0.01567      70.04661      24.99437      23.36503
    14  H(1)               0.00859      38.40775      13.70484      12.81145
 --------------------------------------------------------
       Center         ----  Spin Dipole Couplings  ----
                      3XX-RR        3YY-RR        3ZZ-RR
 --------------------------------------------------------
     1   Atom       -0.005006      0.018444     -0.013438
     2   Atom       -0.022340      0.018369      0.003971
     3   Atom       -0.212183     -0.451931      0.664115
     4   Atom       -0.245950     -0.338846      0.584796
     5   Atom        0.022243      0.006435     -0.028678
     6   Atom       -0.010499     -0.010755      0.021254
     7   Atom        0.002688     -0.010508      0.007819
     8   Atom        0.009717      0.008617     -0.018334
     9   Atom       -0.001812     -0.010062      0.011874
    10   Atom       -0.007485      0.005822      0.001663
    11   Atom        0.004186      0.002833     -0.007020
    12   Atom       -0.003803      0.007640     -0.003837
    13   Atom       -0.007946      0.004844      0.003102
    14   Atom       -0.015273     -0.010575      0.025849
 --------------------------------------------------------
                        XY            XZ            YZ
 --------------------------------------------------------
     1   Atom       -0.024668     -0.012359      0.016468
     2   Atom        0.006127     -0.013241     -0.033138
     3   Atom        0.086627     -0.567025     -0.167275
     4   Atom       -0.015282     -0.328223      0.107371
     5   Atom        0.015738      0.003937     -0.004211
     6   Atom        0.006937     -0.016695      0.009001
     7   Atom        0.001501     -0.014555     -0.000945
     8   Atom        0.006673      0.017288      0.002456
     9   Atom        0.004273      0.012954      0.008203
    10   Atom       -0.002519     -0.001870      0.007860
    11   Atom       -0.008008     -0.000993      0.000144
    12   Atom       -0.001855     -0.000475      0.000114
    13   Atom        0.000155      0.003100     -0.007982
    14   Atom        0.039157      0.021275      0.036579
 --------------------------------------------------------


 ---------------------------------------------------------------------------------
              Anisotropic Spin Dipole Couplings in Principal Axis System
 ---------------------------------------------------------------------------------

       Atom             a.u.   MegaHertz   Gauss  10(-4) cm-1        Axes

              Baa    -0.0224    -3.007    -1.073    -1.003  0.6885  0.1280  0.7138
     1 C(13)  Bbb    -0.0193    -2.586    -0.923    -0.863 -0.5172 -0.6033  0.6070
              Bcc     0.0417     5.593     1.996     1.866 -0.5084  0.7872  0.3492
 
              Baa    -0.0302    -4.054    -1.446    -1.352  0.7496  0.3059  0.5870
     2 C(13)  Bbb    -0.0173    -2.327    -0.830    -0.776  0.6354 -0.5810 -0.5087
              Bcc     0.0475     6.381     2.277     2.128  0.1855  0.7542 -0.6299
 
              Baa    -0.4917   -65.981   -23.544   -22.009  0.8815 -0.2586  0.3950
     3 C(13)  Bbb    -0.4758   -63.853   -22.784   -21.299  0.1781  0.9570  0.2290
              Bcc     0.9675   129.834    46.328    43.308 -0.4373 -0.1315  0.8897
 
              Baa    -0.3761    27.218     9.712     9.079  0.7245 -0.6126  0.3159
     4 O(17)  Bbb    -0.3335    24.131     8.611     8.049  0.6080  0.7839  0.1257
              Bcc     0.7096   -51.349   -18.322   -17.128 -0.3246  0.1010  0.9404
 
              Baa    -0.0299    -4.012    -1.432    -1.338 -0.1243  0.1672  0.9780
     5 C(13)  Bbb    -0.0021    -0.278    -0.099    -0.093 -0.5076  0.8362 -0.2075
              Bcc     0.0320     4.290     1.531     1.431  0.8526  0.5223  0.0191
 
              Baa    -0.0249    -3.343    -1.193    -1.115  0.7165 -0.5889  0.3739
     6 C(13)  Bbb    -0.0043    -0.579    -0.207    -0.193  0.5964  0.7952  0.1095
              Bcc     0.0292     3.922     1.399     1.308 -0.3618  0.1446  0.9210
 
              Baa    -0.0108     0.783     0.280     0.261 -0.3267  0.9219 -0.2082
     7 O(17)  Bbb    -0.0093     0.673     0.240     0.224  0.6931  0.3835  0.6104
              Bcc     0.0201    -1.456    -0.520    -0.486 -0.6426 -0.0551  0.7642
 
              Baa    -0.0266    -1.025    -0.366    -0.342 -0.4328  0.0191  0.9013
     8 N(14)  Bbb     0.0048     0.186     0.066     0.062 -0.4203  0.8802 -0.2205
              Bcc     0.0218     0.840     0.300     0.280  0.7975  0.4743  0.3729
 
              Baa    -0.0128    -0.493    -0.176    -0.165  0.0081  0.9476 -0.3194
     9 N(14)  Bbb    -0.0095    -0.367    -0.131    -0.123  0.8705 -0.1639 -0.4641
              Bcc     0.0223     0.861     0.307     0.287  0.4922  0.2743  0.8262
 
              Baa    -0.0080    -4.258    -1.519    -1.420  0.9876  0.1328  0.0833
    10 H(1)   Bbb    -0.0044    -2.341    -0.835    -0.781  0.0147 -0.6077  0.7940
              Bcc     0.0124     6.599     2.355     2.201 -0.1561  0.7830  0.6021
 
              Baa    -0.0072    -3.829    -1.366    -1.277  0.1730  0.1243  0.9771
    11 H(1)   Bbb    -0.0044    -2.351    -0.839    -0.784  0.6538  0.7274 -0.2083
              Bcc     0.0116     6.180     2.205     2.062  0.7366 -0.6749 -0.0446
 
              Baa    -0.0044    -2.368    -0.845    -0.790  0.7892  0.1155  0.6031
    12 H(1)   Bbb    -0.0035    -1.867    -0.666    -0.623 -0.5938 -0.1070  0.7975
              Bcc     0.0079     4.234     1.511     1.412 -0.1567  0.9875  0.0159
 
              Baa    -0.0092    -4.933    -1.760    -1.646  0.9038 -0.2185 -0.3681
    13 H(1)   Bbb    -0.0030    -1.574    -0.562    -0.525  0.4166  0.6464  0.6392
              Bcc     0.0122     6.507     2.322     2.171 -0.0983  0.7311 -0.6752
 
              Baa    -0.0537   -28.667   -10.229    -9.562 -0.6588  0.7348 -0.1616
    14 H(1)   Bbb    -0.0139    -7.441    -2.655    -2.482 -0.6089 -0.3945  0.6882
              Bcc     0.0677    36.108    12.884    12.044  0.4419  0.5518  0.7073
 

 ---------------------------------------------------------------------------------

 No NMR shielding tensors so no spin-rotation constants.
 Leave Link  601 at Sun Mar 19 20:51:46 2023, MaxMem=  8053063680 cpu:               4.1 elap:               0.1
 (Enter /public3/home/scg5914/software-scg5914/g16/l701.exe)
 ... and contract with generalized density number  0.
 Compute integral first derivatives.
 R6Disp: Adding Grimme-D3(BJ) dispersion energy 1st derivatives to the gradient.
 Leave Link  701 at Sun Mar 19 20:51:46 2023, MaxMem=  8053063680 cpu:               2.6 elap:               0.1
 (Enter /public3/home/scg5914/software-scg5914/g16/l702.exe)
 L702 exits ... SP integral derivatives will be done elsewhere.
 Leave Link  702 at Sun Mar 19 20:51:46 2023, MaxMem=  8053063680 cpu:               0.2 elap:               0.0
 (Enter /public3/home/scg5914/software-scg5914/g16/l703.exe)
 Integral derivatives from FoFJK, PRISM(SPDF).
 Compute integral first derivatives, UseDBF=F ICtDFT=           0.
 Calling FoFJK, ICntrl=      2127 FMM=F ISym2X=0 I1Cent= 0 IOpClX= 1 NMat=1 NMatS=1 NMatT=0.
 FoFJK:  IHMeth= 1 ICntrl=    2127 DoSepK=F KAlg= 0 I1Cent=           0 FoldK=F
 IRaf=         0 NMat=       1 IRICut=       1 DoRegI=T DoRafI=F ISym2E= 0 IDoP0=0 IntGTp=1.
 FoFCou: FMM=F IPFlag=           0 FMFlag=      100000 FMFlg1=         800
         NFxFlg=           0 DoJE=F BraDBF=F KetDBF=F FulRan=T
         wScrn=  0.000000 ICntrl=      2127 IOpCl=  1 I1Cent=           0 NGrid=           0
         NMat0=    1 NMatS0=      1 NMatT0=    0 NMatD0=    1 NMtDS0=    0 NMtDT0=    0
 Symmetry not used in FoFCou.
 Leave Link  703 at Sun Mar 19 20:51:48 2023, MaxMem=  8053063680 cpu:              55.4 elap:               1.7
 (Enter /public3/home/scg5914/software-scg5914/g16/l716.exe)
 Dipole        = 1.74983583D+00-1.84961868D-01 4.78345336D-01
 ***** Axes restored to original set *****
 -------------------------------------------------------------------
 Center     Atomic                   Forces (Hartrees/Bohr)
 Number     Number              X              Y              Z
 -------------------------------------------------------------------
      1        6           0.000464795    0.004067422    0.000471875
      2        6           0.015000505    0.000658313   -0.005739509
      3        6          -0.012501238   -0.027445091    0.027136408
      4        8          -0.014874472    0.019369761   -0.013461018
      5        6           0.003182952    0.000626387    0.007992688
      6        6          -0.004283262    0.001171873   -0.002319118
      7        8          -0.001867038    0.003816094   -0.002874668
      8        7           0.005699507   -0.006777422   -0.001736108
      9        7          -0.000479437    0.002793440    0.004288673
     10        1          -0.001522994   -0.001045071   -0.000342904
     11        1           0.001048089   -0.001092290    0.001076007
     12        1           0.000058348   -0.000843918   -0.000293837
     13        1           0.000576922   -0.001675325   -0.002271963
     14        1           0.009497322    0.006375827   -0.011926525
 -------------------------------------------------------------------
 Cartesian Forces:  Max     0.027445091 RMS     0.008758339
 Leave Link  716 at Sun Mar 19 20:51:48 2023, MaxMem=  8053063680 cpu:               0.3 elap:               0.0
 (Enter /public3/home/scg5914/software-scg5914/g16/l103.exe)

 GradGradGradGradGradGradGradGradGradGradGradGradGradGradGradGradGradGrad
 Berny optimization.
 FormGI is forming the generalized inverse of G from B-inverse, IUseBI=4.
 Internal  Forces:  Max     0.021616245 RMS     0.004142152
 Search for a local minimum.
 Step number   1 out of a maximum of   85
 All quantities printed in internal units (Hartrees-Bohrs-Radians)
 RMS Force = .41422D-02 SwitMx=.10000D-02 MixMth= 1
 Mixed Optimization -- RFO/linear search
 Second derivative matrix not updated -- first step.
 ITU=  0
     Eigenvalues ---    0.00317   0.00572   0.01383   0.01997   0.02086
     Eigenvalues ---    0.02590   0.03156   0.04211   0.05291   0.05520
     Eigenvalues ---    0.05575   0.07235   0.10781   0.13419   0.16000
     Eigenvalues ---    0.16000   0.16000   0.20827   0.24582   0.24918
     Eigenvalues ---    0.24993   0.25000   0.29065   0.31898   0.32924
     Eigenvalues ---    0.34004   0.34307   0.34341   0.34433   0.34650
     Eigenvalues ---    0.35111   0.48125   0.51656   0.52837   0.59698
     Eigenvalues ---    0.74222
 RFO step:  Lambda=-1.13431138D-02 EMin= 3.17408862D-03
 Linear search not attempted -- first point.
 Iteration  1 RMS(Cart)=  0.04187344 RMS(Int)=  0.00670442
 Iteration  2 RMS(Cart)=  0.00609009 RMS(Int)=  0.00289365
 Iteration  3 RMS(Cart)=  0.00008700 RMS(Int)=  0.00289238
 Iteration  4 RMS(Cart)=  0.00000059 RMS(Int)=  0.00289238
 ITry= 1 IFail=0 DXMaxC= 2.42D-01 DCOld= 1.00D+10 DXMaxT= 3.00D-01 DXLimC= 3.00D+00 Rises=F
 Variable       Old X    -DE/DX   Delta X   Delta X   Delta X     New X
                                 (Linear)    (Quad)   (Total)
    R1        2.89867   0.00102   0.00000   0.00339   0.00339   2.90206
    R2        2.06759  -0.00177   0.00000  -0.00499  -0.00499   2.06260
    R3        2.06815  -0.00172   0.00000  -0.00484  -0.00484   2.06331
    R4        2.06605  -0.00061   0.00000  -0.00173  -0.00173   2.06432
    R5        2.99751  -0.00968   0.00000  -0.04500  -0.04294   2.95457
    R6        2.82422  -0.00226   0.00000  -0.00419  -0.00473   2.81949
    R7        2.07324  -0.00013   0.00000  -0.00036  -0.00036   2.07288
    R8        2.77345  -0.02162   0.00000  -0.06263  -0.06106   2.71239
    R9        2.06247  -0.00199   0.00000  -0.00557  -0.00557   2.05690
   R10        2.54919   0.00446   0.00000   0.00966   0.00842   2.55761
   R11        2.54777  -0.00325   0.00000  -0.00171  -0.00382   2.54395
   R12        2.55730   0.00087   0.00000   0.00134   0.00135   2.55865
   R13        2.49273  -0.00086   0.00000  -0.00109  -0.00103   2.49169
   R14        2.80695   0.00627   0.00000   0.01799   0.01791   2.82486
   R15        2.39248  -0.00463   0.00000  -0.00606  -0.00617   2.38631
    A1        1.93579  -0.00045   0.00000  -0.00295  -0.00296   1.93283
    A2        1.92785  -0.00062   0.00000  -0.00429  -0.00430   1.92355
    A3        1.93198  -0.00059   0.00000  -0.00244  -0.00244   1.92954
    A4        1.89189   0.00030   0.00000  -0.00012  -0.00013   1.89176
    A5        1.88924   0.00072   0.00000   0.00543   0.00543   1.89467
    A6        1.88561   0.00071   0.00000   0.00480   0.00480   1.89041
    A7        1.97760   0.00163   0.00000   0.00949   0.00889   1.98649
    A8        2.02208  -0.00244   0.00000  -0.00959  -0.01165   2.01043
    A9        1.89991   0.00107   0.00000   0.00658   0.00716   1.90706
   A10        1.70719   0.00151   0.00000  -0.00139   0.00108   1.70828
   A11        1.91753  -0.00279   0.00000  -0.02284  -0.02350   1.89402
   A12        1.93245   0.00088   0.00000   0.01586   0.01636   1.94881
   A13        1.92261   0.00253   0.00000   0.02240   0.01696   1.93957
   A14        1.96078   0.01279   0.00000   0.16529   0.15404   2.11481
   A15        1.87055  -0.00080   0.00000   0.08330   0.06471   1.93526
   A16        1.80942   0.00417   0.00000   0.00449   0.00811   1.81753
   A17        2.04391  -0.00552   0.00000  -0.01679  -0.01771   2.02620
   A18        2.33448   0.00285   0.00000   0.00838   0.00882   2.34330
   A19        1.90472   0.00268   0.00000   0.00848   0.00895   1.91366
   A20        1.93648  -0.00228   0.00000  -0.00460  -0.00529   1.93119
   A21        2.43777   0.00368   0.00000   0.01112   0.01110   2.44887
   A22        1.90882  -0.00138   0.00000  -0.00598  -0.00589   1.90293
   A23        1.81864  -0.00004   0.00000   0.00214   0.00198   1.82062
   A24        1.88468  -0.00114   0.00000  -0.00384  -0.00423   1.88045
   A25        1.90792  -0.00013   0.00000  -0.00076  -0.00104   1.90688
    D1       -1.00969  -0.00091   0.00000  -0.00481  -0.00555  -1.01523
    D2        0.94371   0.00057   0.00000  -0.00632  -0.00572   0.93798
    D3        3.13446   0.00079   0.00000   0.01327   0.01340  -3.13533
    D4        1.08836  -0.00123   0.00000  -0.00971  -0.01044   1.07791
    D5        3.04175   0.00024   0.00000  -0.01122  -0.01062   3.03113
    D6       -1.05068   0.00046   0.00000   0.00836   0.00850  -1.04219
    D7       -3.10712  -0.00112   0.00000  -0.00807  -0.00880  -3.11593
    D8       -1.15373   0.00035   0.00000  -0.00958  -0.00898  -1.16271
    D9        1.03702   0.00057   0.00000   0.01000   0.01014   1.04716
   D10        2.22906  -0.00461   0.00000  -0.04841  -0.05119   2.17787
   D11       -1.97012   0.00445   0.00000   0.17995   0.18388  -1.78623
   D12        0.08966  -0.00337   0.00000  -0.04048  -0.04205   0.04761
   D13        2.17366   0.00569   0.00000   0.18787   0.19302   2.36669
   D14       -1.92489  -0.00414   0.00000  -0.05007  -0.05310  -1.97799
   D15        0.15912   0.00492   0.00000   0.17828   0.18197   0.34109
   D16       -2.16066   0.00057   0.00000   0.03109   0.03171  -2.12896
   D17        1.00026  -0.00072   0.00000  -0.01251  -0.01260   0.98766
   D18       -0.05429   0.00241   0.00000   0.03728   0.03783  -0.01647
   D19        3.10663   0.00111   0.00000  -0.00632  -0.00648   3.10015
   D20        1.94846   0.00029   0.00000   0.01625   0.01733   1.96580
   D21       -1.17380  -0.00100   0.00000  -0.02735  -0.02698  -1.20078
   D22       -0.09367   0.00345   0.00000   0.03114   0.03251  -0.06115
   D23       -2.23174  -0.01321   0.00000  -0.23708  -0.23526  -2.46699
   D24        0.06057  -0.00226   0.00000  -0.00815  -0.00835   0.05222
   D25       -3.09632  -0.00084   0.00000  -0.00160  -0.00195  -3.09827
   D26       -0.00049  -0.00004   0.00000  -0.02137  -0.02152  -0.02201
   D27        3.12785   0.00091   0.00000   0.00873   0.00861   3.13646
   D28       -3.13038  -0.00115   0.00000  -0.02644  -0.02645   3.12635
   D29       -0.00205  -0.00020   0.00000   0.00366   0.00368   0.00163
   D30       -3.12649  -0.00060   0.00000   0.00527   0.00547  -3.12102
   D31        0.00069   0.00068   0.00000   0.01128   0.01140   0.01209
   D32        3.12482   0.00098   0.00000   0.02854   0.02921  -3.12915
   D33        0.00237  -0.00029   0.00000  -0.01462  -0.01465  -0.01228
   D34       -0.00198   0.00071   0.00000   0.02177   0.02189   0.01991
   D35        0.00078  -0.00084   0.00000  -0.01996  -0.01998  -0.01919
         Item               Value     Threshold  Converged?
 Maximum Force            0.021616     0.000450     NO 
 RMS     Force            0.004142     0.000300     NO 
 Maximum Displacement     0.242380     0.001800     NO 
 RMS     Displacement     0.044399     0.001200     NO 
 Predicted change in Energy=-7.376586D-03
 Lowest energy point so far.  Saving SCF results.
 GradGradGradGradGradGradGradGradGradGradGradGradGradGradGradGradGradGrad

 Leave Link  103 at Sun Mar 19 20:51:48 2023, MaxMem=  8053063680 cpu:               1.5 elap:               0.1
 (Enter /public3/home/scg5914/software-scg5914/g16/l202.exe)
                          Input orientation:                          
 ---------------------------------------------------------------------
 Center     Atomic      Atomic             Coordinates (Angstroms)
 Number     Number       Type             X           Y           Z
 ---------------------------------------------------------------------
      1          6           0        0.045167    1.588907   -0.030731
      2          6           0       -0.041103    0.059724    0.081272
      3          6           0        0.675733   -0.700001   -1.082112
      4          8           0        1.644665   -1.628962   -0.573789
      5          6           0        1.621865   -1.430967    0.764886
      6          6           0        0.721253   -0.537891    1.216071
      7          8           0        0.814303   -0.459275    2.528979
      8          7           0        1.888539   -1.436813    2.882547
      9          7           0        2.314417   -1.945820    1.808229
     10          1           0        1.086000    1.916601   -0.055488
     11          1           0       -0.444690    1.928362   -0.945587
     12          1           0       -0.448816    2.064239    0.819776
     13          1           0       -1.095271   -0.243087    0.097713
[...]
 222. BD*(   1) C   5 - C   6        /119. RY*(   2) C   6                    0.48    1.28    0.148
 222. BD*(   1) C   5 - C   6        /223. BD*(   1) C   5 - N   9            0.78    0.08    0.041
 222. BD*(   1) C   5 - C   6        /224. BD*(   1) C   6 - O   7            0.37    0.18    0.048
 225. BD*(   2) C   6 - O   7        /120. RY*(   3) C   6                    0.72    1.55    0.120
 225. BD*(   2) C   6 - O   7        /136. RY*(   2) O   7                    1.09    0.68    0.099
 225. BD*(   2) C   6 - O   7        /211. BD*(   1) C   1 - C   2            0.36    0.36    0.041
 225. BD*(   2) C   6 - O   7        /217. BD*(   1) C   2 - H  13            0.59    0.37    0.052
 227. BD*(   2) N   8 - N   9        /105. RY*(   5) C   5                    0.29    1.14    0.043
 227. BD*(   2) N   8 - N   9        /152. RY*(   1) N   8                    4.75    0.67    0.134
 227. BD*(   2) N   8 - N   9        /165. RY*(  14) N   8                    0.69    2.32    0.095
 227. BD*(   2) N   8 - N   9        /170. RY*(   2) N   9                    1.88    2.31    0.156
 227. BD*(   2) N   8 - N   9        /174. RY*(   6) N   9                    0.59    0.98    0.057


 Natural Bond Orbitals (Summary):

                                                            Principal Delocalizations
           NBO                        Occupancy    Energy   (geminal,vicinal,remote)
 ====================================================================================
 Molecular unit  1  (C5H5N2O2)
     1. BD (   1) C   1 - C   2          0.98151    -0.62749  225(v),219(v),218(v),69(v)
                                                    217(g),216(g),215(g),118(v)
                                                    222(v)
     2. BD (   1) C   1 - H  10          0.99465    -0.51351  217(v),50(v)
     3. BD (   1) C   1 - H  11          0.99305    -0.51466  216(v),51(v)
     4. BD (   1) C   1 - H  12          0.99325    -0.51073  215(v)
     5. BD (   1) C   2 - C   3          0.99116    -0.66005  224(v),214(v),211(g),34(v)
                                                    121(v),223(r)
     6. BD (   1) C   2 - C   6          0.97904    -0.63341  223(v),220(v),218(v),213(v)
                                                    135(v),224(g),221(v),33(v)
                                                    211(g),101(v),215(g)
     7. BD (   1) C   2 - H  13          0.96165    -0.51218  219(v),225(v),212(v),217(g)
     8. BD (   1) C   3 - O   4          0.99204    -0.88232  223(v),104(v),211(v),216(v)
                                                    102(v)
     9. BD (   2) C   3 - O   4          0.96917    -0.38599  103(v),217(v),211(v),105(v)
    10. BD (   1) C   3 - H  14          0.99286    -0.55777  221(v),216(v),51(v)
    11. BD (   1) O   4 - C   5          0.99052    -0.89799  226(v),224(v),228(v),68(v)
                                                    220(v),171(v),67(v),222(g)
    12. BD (   1) C   5 - C   6          0.98135    -0.71654  226(v),223(g),228(v),169(v)
                                                    211(v),224(g),135(v),50(v)
    13. BD (   1) C   5 - N   9          0.99466    -1.01608  226(g),153(v),222(g),218(v)
                                                    118(v)
    14. BD (   1) C   6 - O   7          0.99768    -1.10513  118(g),216(g),222(g),221(v)
    15. BD (   2) C   6 - O   7          0.99075    -0.39829  217(v),211(v)
    16. BD (   1) N   8 - N   9          0.99771    -1.23062  223(g),106(v),169(g),108(v)
    17. BD (   2) N   8 - N   9          0.99358    -0.48986  227(g),105(v),103(v)
    18. BD (   3) N   8 - N   9          0.98696    -0.49662  221(v),222(v),104(v),102(v)
    19. CR (   1) C   1                  0.99965   -10.04005  54(v),186(v),196(v)
    20. CR (   1) C   2                  0.99959   -10.07945  35(v),224(v),201(v),124(v)
    21. CR (   1) C   3                  0.99956   -10.12402  219(g),50(v),218(g),221(v)
    22. CR (   1) O   4                  0.99987   -18.99724  67(v),101(v)
    23. CR (   1) C   5                  0.99942   -10.18449  226(v),218(v),224(v),121(v)
                                                    119(v),222(g),169(v)
    24. CR (   1) C   6                  0.99960   -10.16279  104(v),223(v),52(v)
    25. CR (   1) O   7                  0.99987   -18.86171  118(v),216(v),222(v)
    26. CR (   1) N   8                  0.99982   -14.22424  223(v),169(v)
    27. CR (   1) N   9                  0.99964   -14.31858  106(v),155(v),109(v),153(v)
    28. LP (   1) O   4                  0.98413    -0.61632  222(v),67(v),215(v),101(v)
                                                    223(v),220(v),104(v)
    29. LP (   1) C   5                  0.62838    -0.18689  227(v),225(v),219(v),170(v)
                                                    84(v),120(v),105(g),116(g)
    30. LP (   1) O   7                  0.98973    -0.70696  118(v),216(v),222(v),130(v)
    31. LP (   2) O   7                  0.92731    -0.27979  222(v),216(v),119(v),121(v)
                                                    147(g)
    32. LP (   1) N   8                  0.99030    -0.64787  223(v),169(v),171(v),115(r)
                                                    112(r),114(r),108(r),153(g)
    33. RY*(   1) C   1                  0.00146     0.64319   
    34. RY*(   2) C   1                  0.00119     0.62997   
    35. RY*(   3) C   1                  0.00015     0.80004   
    36. RY*(   4) C   1                  0.00010     2.27776   
    37. RY*(   5) C   1                  0.00007     0.63442   
    38. RY*(   6) C   1                  0.00005     1.86912   
    39. RY*(   7) C   1                  0.00003     0.40521   
    40. RY*(   8) C   1                  0.00001     0.49832   
    41. RY*(   9) C   1                  0.00001     2.60205   
    42. RY*(  10) C   1                  0.00000    23.12539   
    43. RY*(  11) C   1                  0.00001     0.68571   
    44. RY*(  12) C   1                  0.00000     2.60951   
    45. RY*(  13) C   1                  0.00001     1.85207   
    46. RY*(  14) C   1                  0.00000     1.82712   
    47. RY*(  15) C   1                  0.00000     1.82427   
    48. RY*(  16) C   1                  0.00000     1.80197   
    49. RY*(  17) C   1                  0.00000     2.66028   
    50. RY*(   1) C   2                  0.00181     0.83045   
    51. RY*(   2) C   2                  0.00094     0.81710   
    52. RY*(   3) C   2                  0.00077     0.95858   
    53. RY*(   4) C   2                  0.00065     0.95592   
    54. RY*(   5) C   2                  0.00031     0.99032   
    55. RY*(   6) C   2                  0.00020     1.73782   
    56. RY*(   7) C   2                  0.00013     1.67082   
    57. RY*(   8) C   2                  0.00012     2.17949   
    58. RY*(   9) C   2                  0.00006     1.76874   
    59. RY*(  10) C   2                  0.00005     2.40171   
    60. RY*(  11) C   2                  0.00003     1.78794   
    61. RY*(  12) C   2                  0.00001     4.89195   
    62. RY*(  13) C   2                  0.00001     2.32023   
    63. RY*(  14) C   2                  0.00002     1.89489   
    64. RY*(  15) C   2                  0.00002     1.41480   
    65. RY*(  16) C   2                  0.00000     2.67005   
    66. RY*(  17) C   2                  0.00000    18.86099   
    67. RY*(   1) C   3                  0.00199     0.95951   
    68. RY*(   2) C   3                  0.00143     1.08203   
    69. RY*(   3) C   3                  0.00095     0.83276   
    70. RY*(   4) C   3                  0.00036     1.10031   
    71. RY*(   5) C   3                  0.00027     1.08930   
    72. RY*(   6) C   3                  0.00015     1.69065   
    73. RY*(   7) C   3                  0.00005     1.33419   
    74. RY*(   8) C   3                  0.00003     1.51400   
    75. RY*(   9) C   3                  0.00003     2.05200   
    76. RY*(  10) C   3                  0.00000     2.39548   
    77. RY*(  11) C   3                  0.00000     0.68370   
    78. RY*(  12) C   3                  0.00000     2.57228   
    79. RY*(  13) C   3                  0.00001     1.10058   
    80. RY*(  14) C   3                  0.00001     2.20740   
    81. RY*(  15) C   3                  0.00001     1.52117   
    82. RY*(  16) C   3                  0.00000    22.33619   
    83. RY*(  17) C   3                  0.00001     1.84435   
    84. RY*(   1) O   4                  0.00126     0.61856   
    85. RY*(   2) O   4                  0.00123     0.67353   
    86. RY*(   3) O   4                  0.00023     1.46801   
    87. RY*(   4) O   4                  0.00010     1.21711   
    88. RY*(   5) O   4                  0.00006     2.20158   
    89. RY*(   6) O   4                  0.00005     2.95021   
    90. RY*(   7) O   4                  0.00003     1.25544   
    91. RY*(   8) O   4                  0.00002     2.80363   
    92. RY*(   9) O   4                  0.00001     4.73885   
    93. RY*(  10) O   4                  0.00001     1.06275   
    94. RY*(  11) O   4                  0.00001     2.62482   
    95. RY*(  12) O   4                  0.00000     4.89189   
    96. RY*(  13) O   4                  0.00000     5.11941   
    97. RY*(  14) O   4                  0.00000    49.42988   
    98. RY*(  15) O   4                  0.00000     2.78808   
    99. RY*(  16) O   4                  0.00000     1.38527   
   100. RY*(  17) O   4                  0.00000     3.09826   
   101. RY*(   1) C   5                  0.00296     0.98973   
   102. RY*(   2) C   5                  0.00222     0.82709   
   103. RY*(   3) C   5                  0.00205     0.87745   
   104. RY*(   4) C   5                  0.00158     1.27958   
   105. RY*(   5) C   5                  0.00116     1.07988   
   106. RY*(   6) C   5                  0.00067     1.88220   
   107. RY*(   7) C   5                  0.00042     1.85878   
   108. RY*(   8) C   5                  0.00026     2.01530   
   109. RY*(   9) C   5                  0.00019     1.62695   
   110. RY*(  10) C   5                  0.00017     1.58126   
   111. RY*(  11) C   5                  0.00008     1.32252   
   112. RY*(  12) C   5                  0.00007     1.35288   
   113. RY*(  13) C   5                  0.00004     2.13957   
   114. RY*(  14) C   5                  0.00002     3.25239   
   115. RY*(  15) C   5                  0.00001    18.08725   
   116. RY*(  16) C   5                  0.00000     1.78812   
   117. RY*(  17) C   5                  0.00001     1.79636   
   118. RY*(   1) C   6                  0.00821     0.82418   
   119. RY*(   2) C   6                  0.00309     1.70768   
   120. RY*(   3) C   6                  0.00180     1.55120   
   121. RY*(   4) C   6                  0.00108     1.51109   
   122. RY*(   5) C   6                  0.00097     1.04361   
   123. RY*(   6) C   6                  0.00036     1.43828   
   124. RY*(   7) C   6                  0.00036     1.16026   
   125. RY*(   8) C   6                  0.00009     1.78206   
   126. RY*(   9) C   6                  0.00006     0.77351   
   127. RY*(  10) C   6                  0.00004     2.07953   
   128. RY*(  11) C   6                  0.00002     1.36727   
   129. RY*(  12) C   6                  0.00002     9.18016   
   130. RY*(  13) C   6                  0.00001     2.90592   
   131. RY*(  14) C   6                  0.00001     1.39524   
   132. RY*(  15) C   6                  0.00000    13.46063   
   133. RY*(  16) C   6                  0.00000     2.70908   
   134. RY*(  17) C   6                  0.00000     1.92240   
   135. RY*(   1) O   7                  0.00236     0.67088   
   136. RY*(   2) O   7                  0.00048     0.67836   
   137. RY*(   3) O   7                  0.00038     0.91418   
   138. RY*(   4) O   7                  0.00006     1.33594   
   139. RY*(   5) O   7                  0.00004     1.11308   
   140. RY*(   6) O   7                  0.00002     1.34036   
   141. RY*(   7) O   7                  0.00003     1.19498   
   142. RY*(   8) O   7                  0.00001     1.24952   
   143. RY*(   9) O   7                  0.00001     4.86754   
   144. RY*(  10) O   7                  0.00001     3.53742   
   145. RY*(  11) O   7                  0.00000    49.59263   
   146. RY*(  12) O   7                  0.00000     4.90800   
   147. RY*(  13) O   7                  0.00000     3.08079   
   148. RY*(  14) O   7                  0.00000     2.73722   
   149. RY*(  15) O   7                  0.00000     3.07193   
   150. RY*(  16) O   7                  0.00000     5.05312   
   151. RY*(  17) O   7                  0.00000     2.87230   
   152. RY*(   1) N   8                  0.00407     0.61414   
   153. RY*(   2) N   8                  0.00070     1.72039   
   154. RY*(   3) N   8                  0.00041     0.59205   
   155. RY*(   4) N   8                  0.00010     1.01351   
   156. RY*(   5) N   8                  0.00003     0.86239   
   157. RY*(   6) N   8                  0.00001     0.50566   
   158. RY*(   7) N   8                  0.00000    35.09523   
   159. RY*(   8) N   8                  0.00000     3.52440   
   160. RY*(   9) N   8                  0.00001     0.69802   
   161. RY*(  10) N   8                  0.00000     3.42436   
   162. RY*(  11) N   8                  0.00000     3.58977   
   163. RY*(  12) N   8                  0.00000     0.53598   
   164. RY*(  13) N   8                  0.00000     2.38190   
   165. RY*(  14) N   8                  0.00000     2.25948   
   166. RY*(  15) N   8                  0.00000     1.93837   
   167. RY*(  16) N   8                  0.00000     2.57891   
   168. RY*(  17) N   8                  0.00000     2.13079   
   169. RY*(   1) N   9                  0.00470     1.07279   
   170. RY*(   2) N   9                  0.00301     2.25135   
   171. RY*(   3) N   9                  0.00224     0.93372   
   172. RY*(   4) N   9                  0.00037     1.45111   
   173. RY*(   5) N   9                  0.00010     2.28377   
   174. RY*(   6) N   9                  0.00008     0.92266   
   175. RY*(   7) N   9                  0.00006     1.03843   
   176. RY*(   8) N   9                  0.00003     2.02375   
   177. RY*(   9) N   9                  0.00002     3.11090   
   178. RY*(  10) N   9                  0.00000     4.28615   
   179. RY*(  11) N   9                  0.00001     1.20115   
   180. RY*(  12) N   9                  0.00000     3.72687   
   181. RY*(  13) N   9                  0.00001     1.83550   
   182. RY*(  14) N   9                  0.00000    33.08788   
   183. RY*(  15) N   9                  0.00001     1.76698   
   184. RY*(  16) N   9                  0.00000     3.74626   
   185. RY*(  17) N   9                  0.00001     2.19487   
   186. RY*(   1) H  10                  0.00029     1.36445   
   187. RY*(   2) H  10                  0.00010     1.42932   
   188. RY*(   3) H  10                  0.00004     1.99002   
   189. RY*(   4) H  10                  0.00005     1.76660   
   190. RY*(   5) H  10                  0.00001     2.36888   
   191. RY*(   1) H  11                  0.00033     0.55624   
   192. RY*(   2) H  11                  0.00012     2.02969   
   193. RY*(   3) H  11                  0.00005     1.77479   
   194. RY*(   4) H  11                  0.00004     1.82818   
   195. RY*(   5) H  11                  0.00001     2.67706   
   196. RY*(   1) H  12                  0.00048     0.80832   
   197. RY*(   2) H  12                  0.00012     1.89357   
   198. RY*(   3) H  12                  0.00007     1.73861   
   199. RY*(   4) H  12                  0.00003     1.79633   
   200. RY*(   5) H  12                  0.00002     2.68596   
   201. RY*(   1) H  13                  0.00040     1.25011   
   202. RY*(   2) H  13                  0.00010     1.53298   
   203. RY*(   3) H  13                  0.00009     1.82444   
   204. RY*(   4) H  13                  0.00007     1.84886   
   205. RY*(   5) H  13                  0.00002     2.72600   
   206. RY*(   1) H  14                  0.00017     0.57936   
   207. RY*(   2) H  14                  0.00011     2.17732   
   208. RY*(   3) H  14                  0.00007     2.24708   
   209. RY*(   4) H  14                  0.00002     2.02056   
   210. RY*(   5) H  14                  0.00002     1.75836   
   211. BD*(   1) C   1 - C   2          0.00465     0.35847   
   212. BD*(   1) C   1 - H  10          0.00334     0.38983   
   213. BD*(   1) C   1 - H  11          0.00260     0.38778   
   214. BD*(   1) C   1 - H  12          0.00289     0.39738   
   215. BD*(   1) C   2 - C   3          0.00873     0.40354   
   216. BD*(   1) C   2 - C   6          0.03845     0.34342   
   217. BD*(   1) C   2 - H  13          0.00793     0.36443   
   218. BD*(   1) C   3 - O   4          0.00706     0.31571   
   219. BD*(   2) C   3 - O   4          0.04062    -0.02984   
   220. BD*(   1) C   3 - H  14          0.00584     0.40480   
   221. BD*(   1) O   4 - C   5          0.01538     0.30167   
   222. BD*(   1) C   5 - C   6          0.04108     0.42547   
   223. BD*(   1) C   5 - N   9          0.01853     0.50696   
   224. BD*(   1) C   6 - O   7          0.00527     0.60685   
   225. BD*(   2) C   6 - O   7          0.12043    -0.00370  136(g),120(g),217(v),211(v)
   226. BD*(   1) N   8 - N   9          0.00557     0.74275   
   227. BD*(   2) N   8 - N   9          0.28200    -0.05949  152(g),170(g),165(g),174(g)
                                                    105(v)
   228. BD*(   3) N   8 - N   9          0.02435    -0.03544   
       -------------------------------
              Total Lewis   31.29848  ( 97.8077%)
        Valence non-Lewis    0.63471  (  1.9835%)
        Rydberg non-Lewis    0.06682  (  0.2088%)
       -------------------------------
            Total unit  1   32.00000  (100.0000%)
           Charge unit  1    0.50000
 Leave Link  607 at Sun Mar 19 20:59:16 2023, MaxMem=  8053063680 cpu:              77.5 elap:               2.4
 (Enter /public3/home/scg5914/software-scg5914/g16/l9999.exe)
 Unable to Open any file for archive entry.
 1\1\GINC-G0105\SP\UB3LYP\Gen\C5H5N2O2(2)\SCG5914\19-Mar-2023\0\\#p b3l
 yp/chkbas pop=nbo geom=allcheck guess=tcheck em=gd3bj\\dsgdb9nsd_12602
 9-6\\0,2\C,0,-0.0388773221,1.6254177416,-0.1649675131\C,0,-0.052205732
 5,0.1064271863,0.0491091183\C,0,0.7367666412,-0.7015449086,-0.93143940
 76\O,0,1.5013327163,-1.6768922968,-0.2978661679\C,0,1.4720559566,-1.38
 55440474,1.0521066804\C,0,0.5725130189,-0.2999832097,1.3987138513\O,0,
 0.3544259656,0.1866157759,2.4865371099\N,0,2.8755252055,-2.5687404453,
 2.6455035278\N,0,2.2334098783,-2.0418222787,1.8695319398\H,0,0.9860852
 592,2.0005059593,-0.1914882155\H,0,-0.5239183081,1.8820559737,-1.10912
 90192\H,0,-0.5723701886,2.1180005297,0.649761102\H,0,-1.1024647327,-0.
 2304112677,0.0888741193\H,0,0.4491909714,-0.9785024772,-1.934693761\\V
 ersion=ES64L-G16RevC.01\State=2-A\HF=-453.5039038\S2=0.754008\S2-1=0.\
 S2A=0.750012\RMSD=9.212e-09\Dipole=-0.313038,-0.0601835,-1.0680593\Qua
 drupole=1.5969267,0.6317805,-2.2287072,0.6907408,2.47195,-2.0057148\PG
 =C01 [X(C5H5N2O2)]\\@
 The archive entry for this job was punched.


 NO MATTER HOW THIN YOU SLICE IT, IT'S STILL BALONEY

                                   -- ALFRED E. SMITH
 Job cpu time:       0 days  0 hours  2 minutes  4.8 seconds.
 Elapsed time:       0 days  0 hours  0 minutes  4.0 seconds.
 File lengths (MBytes):  RWF=     53 Int=      0 D2E=      0 Chk=      6 Scr=      1
 Normal termination of Gaussian 16 at Sun Mar 19 20:59:16 2023.
