 Entering Gaussian System, Link 0=/public3/home/scg5914/software-scg5914/g16/g16
 Input=dsgdb9nsd_132072.gjf
 Output=dsgdb9nsd_132072.log
 Initial command:
 /public3/home/scg5914/software-scg5914/g16/l1.exe "/public3/home/scg5914/software-scg5914/test/tmp/dsgdb9nsd_132072/Gau-81848.inp" -scrdir="/public3/home/scg5914/software-scg5914/test/tmp/dsgdb9nsd_132072/"
 Entering Link 1 = /public3/home/scg5914/software-scg5914/g16/l1.exe PID=     81849.
  
 Copyright (c) 1988-2019, Gaussian, Inc.  All Rights Reserved.
  
 This is part of the Gaussian(R) 16 program.  It is based on
 the Gaussian(R) 09 system (copyright 2009, Gaussian, Inc.),
 the Gaussian(R) 03 system (copyright 2003, Gaussian, Inc.),
 the Gaussian(R) 98 system (copyright 1998, Gaussian, Inc.),
 the Gaussian(R) 94 system (copyright 1995, Gaussian, Inc.),
 the Gaussian 92(TM) system (copyright 1992, Gaussian, Inc.),
 the Gaussian 90(TM) system (copyright 1990, Gaussian, Inc.),
 the Gaussian 88(TM) system (copyright 1988, Gaussian, Inc.),
 the Gaussian 86(TM) system (copyright 1986, Carnegie Mellon
 University), and the Gaussian 82(TM) system (copyright 1983,
 Carnegie Mellon University). Gaussian is a federally registered
 trademark of Gaussian, Inc.
  
 This software contains proprietary and confidential information,
 including trade secrets, belonging to Gaussian, Inc.
  
 This software is provided under written license and may be
 used, copied, transmitted, or stored only in accord with that
 written license.
  
 The following legend is applicable only to US Government
 contracts under FAR:
  
                    RESTRICTED RIGHTS LEGEND
  
 Use, reproduction and disclosure by the US Government is
 subject to restrictions as set forth in subparagraphs (a)
 and (c) of the Commercial Computer Software - Restricted
 Rights clause in FAR 52.227-19.
  
 Gaussian, Inc.
 340 Quinnipiac St., Bldg. 40, Wallingford CT 06492
  
  
 ---------------------------------------------------------------
 Warning -- This program may not be used in any manner that
 competes with the business of Gaussian, Inc. or will provide
 assistance to any competitor of Gaussian, Inc.  The licensee
 of this program is prohibited from giving any competitor of
 Gaussian, Inc. access to this program.  By using this program,
 the user acknowledges that Gaussian, Inc. is engaged in the
 business of creating and licensing software in the field of
 computational chemistry and represents and warrants to the
 licensee that it is not a competitor of Gaussian, Inc. and that
 it will not use this program in any manner prohibited above.
 ---------------------------------------------------------------
  

 Cite this work as:
 Gaussian 16, Revision C.01,
 M. J. Frisch, G. W. Trucks, H. B. Schlegel, G. E. Scuseria, 
 M. A. Robb, J. R. Cheeseman, G. Scalmani, V. Barone, 
 G. A. Petersson, H. Nakatsuji, X. Li, M. Caricato, A. V. Marenich, 
 J. Bloino, B. G. Janesko, R. Gomperts, B. Mennucci, H. P. Hratchian, 
 J. V. Ortiz, A. F. Izmaylov, J. L. Sonnenberg, D. Williams-Young, 
 F. Ding, F. Lipparini, F. Egidi, J. Goings, B. Peng, A. Petrone, 
 T. Henderson, D. Ranasinghe, V. G. Zakrzewski, J. Gao, N. Rega, 
 G. Zheng, W. Liang, M. Hada, M. Ehara, K. Toyota, R. Fukuda, 
 J. Hasegawa, M. Ishida, T. Nakajima, Y. Honda, O. Kitao, H. Nakai, 
 T. Vreven, K. Throssell, J. A. Montgomery, Jr., J. E. Peralta, 
 F. Ogliaro, M. J. Bearpark, J. J. Heyd, E. N. Brothers, K. N. Kudin, 
 V. N. Staroverov, T. A. Keith, R. Kobayashi, J. Normand, 
 K. Raghavachari, A. P. Rendell, J. C. Burant, S. S. Iyengar, 
 J. Tomasi, M. Cossi, J. M. Millam, M. Klene, C. Adamo, R. Cammi, 
 J. W. Ochterski, R. L. Martin, K. Morokuma, O. Farkas, 
 J. B. Foresman, and D. J. Fox, Gaussian, Inc., Wallingford CT, 2019.
 
 ******************************************
 Gaussian 16:  ES64L-G16RevC.01  3-Jul-2019
                 4-Nov-2022 
 ******************************************
 %chk=dsgdb9nsd_132072.chk
 %mem=60GB
 %nprocshared=32
 Will use up to   32 processors via shared memory.
 ------------------------------------
 #p opt freq b3lyp/6-311+g** em=gd3bj
 ------------------------------------
 1/18=20,19=15,26=3,38=1/1,3;
 2/9=110,12=2,17=6,18=5,40=1/2;
 3/5=4,6=6,7=111,11=2,25=1,30=1,71=1,74=-5,124=41/1,2,3;
 4//1;
 5/5=2,38=5/2;
 6/7=2,8=2,9=2,10=2,28=1/1;
 7//1,2,3,16;
 1/18=20,19=15,26=3/3(2);
 2/9=110/2;
 99//99;
 2/9=110/2;
 3/5=4,6=6,7=111,11=2,25=1,30=1,71=1,74=-5,124=41/1,2,3;
 4/5=5,16=3,69=1/1;
 5/5=2,38=5/2;
 7//1,2,3,16;
 1/18=20,19=15,26=3/3(-5);
 2/9=110/2;
 6/7=2,8=2,9=2,10=2,19=2,28=1/1;
 99/9=1/99;
 Leave Link    1 at Fri Nov  4 06:08:23 2022, MaxMem=  8053063680 cpu:               0.9 elap:               0.0
 (Enter /public3/home/scg5914/software-scg5914/g16/l101.exe)
 ----------------
 dsgdb9nsd_132072
 ----------------
 Symbolic Z-matrix:
 Charge =  0 Multiplicity = 1
 O                     0.10582   0.02411   0.16819 
 C                    -0.01681   1.2647    0.12289 
 C                    -1.20799   2.04094   0.10322 
 F                    -2.3735    1.39378   0.1301 
 C                    -1.22361   3.43347   0.03909 
 C                    -0.0504    4.14405  -0.01164 
 N                     1.12446   3.43544   0.0062 
 C                     1.18192   2.0952    0.05909 
 N                     2.3659    1.42262   0.11567 
 H                     3.15767   1.76041  -0.40991 
 H                     2.1674    0.4251    0.03779 
 H                    -2.17589   3.94881   0.02561 
 H                     0.03008   5.21782  -0.06197 
 H                     1.99364   3.95188  -0.00224 
 
 ITRead=  0  0  0  0  0  0  0  0  0  0  0  0  0  0
 MicOpt= -1 -1 -1 -1 -1 -1 -1 -1 -1 -1 -1 -1 -1 -1
 NAtoms=     14 NQM=       14 NQMF=       0 NMMI=      0 NMMIF=      0
                NMic=       0 NMicF=      0.
                    Isotopes and Nuclear Properties:
 (Nuclear quadrupole moments (NQMom) in fm**2, nuclear magnetic moments (NMagM)
  in nuclear magnetons)

  Atom         1           2           3           4           5           6           7           8           9          10
 IAtWgt=          16          12          12          19          12          12          14          12          14           1
 AtmWgt=  15.9949146  12.0000000  12.0000000  18.9984032  12.0000000  12.0000000  14.0030740  12.0000000  14.0030740   1.0078250
 NucSpn=           0           0           0           1           0           0           2           0           2           1
 AtZEff=  -0.0000000  -0.0000000  -0.0000000  -0.0000000  -0.0000000  -0.0000000  -0.0000000  -0.0000000  -0.0000000  -0.0000000
 NQMom=    0.0000000   0.0000000   0.0000000   0.0000000   0.0000000   0.0000000   2.0440000   0.0000000   2.0440000   0.0000000
 NMagM=    0.0000000   0.0000000   0.0000000   2.6288670   0.0000000   0.0000000   0.4037610   0.0000000   0.4037610   2.7928460
 AtZNuc=   8.0000000   6.0000000   6.0000000   9.0000000   6.0000000   6.0000000   7.0000000   6.0000000   7.0000000   1.0000000

  Atom        11          12          13          14
 IAtWgt=           1           1           1           1
 AtmWgt=   1.0078250   1.0078250   1.0078250   1.0078250
 NucSpn=           1           1           1           1
 AtZEff=  -0.0000000  -0.0000000  -0.0000000  -0.0000000
 NQMom=    0.0000000   0.0000000   0.0000000   0.0000000
 NMagM=    2.7928460   2.7928460   2.7928460   2.7928460
 AtZNuc=   1.0000000   1.0000000   1.0000000   1.0000000
 Leave Link  101 at Fri Nov  4 06:08:23 2022, MaxMem=  8053063680 cpu:               4.0 elap:               0.1
 (Enter /public3/home/scg5914/software-scg5914/g16/l103.exe)

 GradGradGradGradGradGradGradGradGradGradGradGradGradGradGradGradGradGrad
 Berny optimization.
 Initialization pass.
                           ----------------------------
                           !    Initial Parameters    !
                           ! (Angstroms and Degrees)  !
 --------------------------                            --------------------------
 ! Name  Definition              Value          Derivative Info.                !
 --------------------------------------------------------------------------------
 ! R1    R(1,2)                  1.2475         estimate D2E/DX2                !
 ! R2    R(2,3)                  1.4219         estimate D2E/DX2                !
 ! R3    R(2,8)                  1.4597         estimate D2E/DX2                !
 ! R4    R(3,4)                  1.3334         estimate D2E/DX2                !
 ! R5    R(3,5)                  1.3941         estimate D2E/DX2                !
 ! R6    R(5,6)                  1.3726         estimate D2E/DX2                !
 ! R7    R(5,12)                 1.0829         estimate D2E/DX2                !
 ! R8    R(6,7)                  1.3721         estimate D2E/DX2                !
 ! R9    R(6,13)                 1.078          estimate D2E/DX2                !
 ! R10   R(7,8)                  1.3425         estimate D2E/DX2                !
 ! R11   R(7,14)                 1.0111         estimate D2E/DX2                !
 ! R12   R(8,9)                  1.3629         estimate D2E/DX2                !
 ! R13   R(9,10)                 1.0086         estimate D2E/DX2                !
 ! R14   R(9,11)                 1.0201         estimate D2E/DX2                !
 ! A1    A(1,2,3)              128.7381         estimate D2E/DX2                !
 ! A2    A(1,2,8)              119.1217         estimate D2E/DX2                !
 ! A3    A(3,2,8)              112.133          estimate D2E/DX2                !
 ! A4    A(2,3,4)              117.8409         estimate D2E/DX2                !
 ! A5    A(2,3,5)              123.7326         estimate D2E/DX2                !
 ! A6    A(4,3,5)              118.4204         estimate D2E/DX2                !
 ! A7    A(3,5,6)              120.614          estimate D2E/DX2                !
 ! A8    A(3,5,12)             119.0645         estimate D2E/DX2                !
 ! A9    A(6,5,12)             120.321          estimate D2E/DX2                !
 ! A10   A(5,6,7)              117.6476         estimate D2E/DX2                !
 ! A11   A(5,6,13)             125.5382         estimate D2E/DX2                !
 ! A12   A(7,6,13)             116.8141         estimate D2E/DX2                !
 ! A13   A(6,7,8)              123.5531         estimate D2E/DX2                !
 ! A14   A(6,7,14)             118.1761         estimate D2E/DX2                !
 ! A15   A(8,7,14)             118.259          estimate D2E/DX2                !
 ! A16   A(2,8,7)              122.314          estimate D2E/DX2                !
 ! A17   A(2,8,9)              115.5209         estimate D2E/DX2                !
 ! A18   A(7,8,9)              122.1057         estimate D2E/DX2                !
 ! A19   A(8,9,10)             119.6749         estimate D2E/DX2                !
 ! A20   A(8,9,11)             108.0815         estimate D2E/DX2                !
 ! A21   A(10,9,11)            116.136          estimate D2E/DX2                !
 ! D1    D(1,2,3,4)             -0.3074         estimate D2E/DX2                !
 ! D2    D(1,2,3,5)           -179.3914         estimate D2E/DX2                !
 ! D3    D(8,2,3,4)            178.6981         estimate D2E/DX2                !
 ! D4    D(8,2,3,5)             -0.386          estimate D2E/DX2                !
 ! D5    D(1,2,8,7)            179.8999         estimate D2E/DX2                !
 ! D6    D(1,2,8,9)             -2.8497         estimate D2E/DX2                !
 ! D7    D(3,2,8,7)              0.7879         estimate D2E/DX2                !
 ! D8    D(3,2,8,9)            178.0383         estimate D2E/DX2                !
 ! D9    D(2,3,5,6)              0.0941         estimate D2E/DX2                !
 ! D10   D(2,3,5,12)           179.8415         estimate D2E/DX2                !
 ! D11   D(4,3,5,6)           -178.985          estimate D2E/DX2                !
 ! D12   D(4,3,5,12)             0.7624         estimate D2E/DX2                !
 ! D13   D(3,5,6,7)             -0.141          estimate D2E/DX2                !
 ! D14   D(3,5,6,13)          -179.9656         estimate D2E/DX2                !
 ! D15   D(12,5,6,7)          -179.8853         estimate D2E/DX2                !
 ! D16   D(12,5,6,13)            0.2902         estimate D2E/DX2                !
 ! D17   D(5,6,7,8)              0.5669         estimate D2E/DX2                !
 ! D18   D(5,6,7,14)          -178.1597         estimate D2E/DX2                !
 ! D19   D(13,6,7,8)          -179.593          estimate D2E/DX2                !
 ! D20   D(13,6,7,14)            1.6803         estimate D2E/DX2                !
 ! D21   D(6,7,8,2)             -0.9329         estimate D2E/DX2                !
 ! D22   D(6,7,8,9)           -178.0034         estimate D2E/DX2                !
 ! D23   D(14,7,8,2)           177.7928         estimate D2E/DX2                !
 ! D24   D(14,7,8,9)             0.7223         estimate D2E/DX2                !
 ! D25   D(2,8,9,10)           145.3105         estimate D2E/DX2                !
 ! D26   D(2,8,9,11)             9.3078         estimate D2E/DX2                !
 ! D27   D(7,8,9,10)           -37.4328         estimate D2E/DX2                !
 ! D28   D(7,8,9,11)          -173.4356         estimate D2E/DX2                !
 --------------------------------------------------------------------------------
 Trust Radius=3.00D-01 FncErr=1.00D-07 GrdErr=1.00D-06 EigMax=2.50D+02 EigMin=1.00D-04
 Number of steps in this run=     73 maximum allowed number of steps=    100.
 GradGradGradGradGradGradGradGradGradGradGradGradGradGradGradGradGradGrad

 Leave Link  103 at Fri Nov  4 06:08:23 2022, MaxMem=  8053063680 cpu:               0.2 elap:               0.0
 (Enter /public3/home/scg5914/software-scg5914/g16/l202.exe)
                          Input orientation:                          
 ---------------------------------------------------------------------
 Center     Atomic      Atomic             Coordinates (Angstroms)
 Number     Number       Type             X           Y           Z
 ---------------------------------------------------------------------
      1          8           0        0.105825    0.024106    0.168193
      2          6           0       -0.016814    1.264704    0.122886
      3          6           0       -1.207991    2.040937    0.103220
      4          9           0       -2.373498    1.393779    0.130102
      5          6           0       -1.223609    3.433469    0.039091
      6          6           0       -0.050404    4.144054   -0.011638
      7          7           0        1.124463    3.435444    0.006203
      8          6           0        1.181918    2.095198    0.059093
      9          7           0        2.365905    1.422622    0.115672
     10          1           0        3.157665    1.760415   -0.409906
     11          1           0        2.167399    0.425101    0.037790
     12          1           0       -2.175890    3.948806    0.025608
     13          1           0        0.030084    5.217819   -0.061970
     14          1           0        1.993643    3.951880   -0.002239
 ---------------------------------------------------------------------
                    Distance matrix (angstroms):
                    1          2          3          4          5
     1  O    0.000000
     2  C    1.247468   0.000000
     3  C    2.407891   1.421910   0.000000
     4  F    2.832754   2.360227   1.333395   0.000000
     5  C    3.661668   2.483328   1.394095   2.343259   0.000000
     6  C    4.126829   2.882686   2.403394   3.602897   1.372558
     7  N    3.563859   2.455247   2.719265   4.052095   2.348304
     8  C    2.336515   1.459708   2.390932   3.624640   2.752804
     9  N    2.658302   2.387957   3.627010   4.739513   4.115092
    10  H    3.558468   3.256826   4.404651   5.569542   4.711292
    11  H    2.104255   2.341572   3.742789   4.643986   4.533124
    12  H    4.542006   3.446081   2.140751   2.564786   1.082863
    13  H    5.199362   3.957713   3.413604   4.520772   2.183086
    14  H    4.361228   3.358349   3.730052   5.062935   3.259014
                    6          7          8          9         10
     6  C    0.000000
     7  N    1.372137   0.000000
     8  C    2.391951   1.342519   0.000000
     9  N    3.641558   2.367406   1.362859   0.000000
    10  H    4.016473   2.666979   2.058062   1.008573   0.000000
    11  H    4.330324   3.186044   1.939292   1.020058   1.721662
    12  H    2.134760   3.340097   3.835604   5.197847   5.781482
    13  H    1.077953   2.092648   3.330486   4.459948   4.675090
    14  H    2.053082   1.011064   2.027296   2.559224   2.514689
                   11         12         13         14
    11  H    0.000000
    12  H    5.592924   0.000000
    13  H    5.248639   2.546445   0.000000
    14  H    3.531284   4.169627   2.337035   0.000000
 Stoichiometry    C5H5FN2O
 Framework group  C1[X(C5H5FN2O)]
 Deg. of freedom    36
 Full point group                 C1      NOp   1
 Largest Abelian subgroup         C1      NOp   1
 Largest concise Abelian subgroup C1      NOp   1
                         Standard orientation:                         
 ---------------------------------------------------------------------
 Center     Atomic      Atomic             Coordinates (Angstroms)
 Number     Number       Type             X           Y           Z
 ---------------------------------------------------------------------
      1          8           0       -0.219425   -2.088330   -0.008052
      2          6           0       -0.018857   -0.857101   -0.012852
      3          6           0        1.218821   -0.157172   -0.003818
      4          9           0        2.341082   -0.876883    0.018286
      5          6           0        1.321964    1.233090    0.001786
      6          6           0        0.195677    2.017559    0.000684
      7          7           0       -1.021453    1.384109   -0.009075
      8          6           0       -1.163196    0.049097   -0.006436
      9          7           0       -2.386519   -0.549527   -0.056582
     10          1           0       -3.163433   -0.140195    0.439475
     11          1           0       -2.253128   -1.553248    0.066988
     12          1           0        2.304762    1.687636    0.011209
     13          1           0        0.182864    3.095430    0.004168
     14          1           0       -1.856047    1.954051   -0.038580
 ---------------------------------------------------------------------
 Rotational constants (GHZ):           2.4082748           1.8095297           1.0342464
 Leave Link  202 at Fri Nov  4 06:08:23 2022, MaxMem=  8053063680 cpu:               0.2 elap:               0.0
 (Enter /public3/home/scg5914/software-scg5914/g16/l301.exe)
 Standard basis: 6-311+G(d,p) (5D, 7F)
 Ernie: Thresh=  0.10000D-02 Tol=  0.10000D-05 Strict=F.
 There are   237 symmetry adapted cartesian basis functions of A   symmetry.
 There are   228 symmetry adapted basis functions of A   symmetry.
   228 basis functions,   364 primitive gaussians,   237 cartesian basis functions
    33 alpha electrons       33 beta electrons
       nuclear repulsion energy       440.5572694146 Hartrees.
 IExCor=  402 DFT=T Ex+Corr=B3LYP ExCW=0 ScaHFX=  0.200000
 ScaDFX=  0.800000  0.720000  1.000000  0.810000 ScalE2=  1.000000  1.000000
 IRadAn=      5 IRanWt=     -1 IRanGd=            0 ICorTp=0 IEmpDi=141
 NAtoms=   14 NActive=   14 NUniq=   14 SFac= 1.00D+00 NAtFMM=   60 NAOKFM=F Big=F
 Integral buffers will be    131072 words long.
 Raffenetti 2 integral format.
 Two-electron integral symmetry is turned on.
 R6Disp:  Grimme-D3(BJ) Dispersion energy=       -0.0237909138 Hartrees.
 Nuclear repulsion after empirical dispersion term =      440.5334785008 Hartrees.
 Leave Link  301 at Fri Nov  4 06:08:23 2022, MaxMem=  8053063680 cpu:               0.9 elap:               0.0
 (Enter /public3/home/scg5914/software-scg5914/g16/l302.exe)
 NPDir=0 NMtPBC=     1 NCelOv=     1 NCel=       1 NClECP=     1 NCelD=      1
         NCelK=      1 NCelE2=     1 NClLst=     1 CellRange=     0.0.
 One-electron integrals computed using PRISM.
 One-electron integral symmetry used in STVInt
 NBasis=   228 RedAO= T EigKep=  8.92D-06  NBF=   228
 NBsUse=   228 1.00D-06 EigRej= -1.00D+00 NBFU=   228
 Precomputing XC quadrature grid using
 IXCGrd= 4 IRadAn=           5 IRanWt=          -1 IRanGd=           0 AccXCQ= 0.00D+00.
 Generated NRdTot=       0 NPtTot=           0 NUsed=           0 NTot=          32
 NSgBfM=   237   237   237   237   237 MxSgAt=    14 MxSgA2=    14.
 Leave Link  302 at Fri Nov  4 06:08:24 2022, MaxMem=  8053063680 cpu:               5.3 elap:               0.2
 (Enter /public3/home/scg5914/software-scg5914/g16/l303.exe)
 DipDrv:  MaxL=1.
 Leave Link  303 at Fri Nov  4 06:08:24 2022, MaxMem=  8053063680 cpu:               0.5 elap:               0.0
 (Enter /public3/home/scg5914/software-scg5914/g16/l401.exe)
 ExpMin= 4.38D-02 ExpMax= 1.14D+04 ExpMxC= 1.72D+03 IAcc=3 IRadAn=         5 AccDes= 0.00D+00
 Harris functional with IExCor=  402 and IRadAn=       5 diagonalized for initial guess.
 HarFok:  IExCor=  402 AccDes= 0.00D+00 IRadAn=         5 IDoV= 1 UseB2=F ITyADJ=14
 ICtDFT=  3500011 ScaDFX=  1.000000  1.000000  1.000000  1.000000
 FoFCou: FMM=F IPFlag=           0 FMFlag=      100000 FMFlg1=           0
         NFxFlg=           0 DoJE=T BraDBF=F KetDBF=T FulRan=T
         wScrn=  0.000000 ICntrl=       500 IOpCl=  0 I1Cent=   200000004 NGrid=           0
         NMat0=    1 NMatS0=      1 NMatT0=    0 NMatD0=    1 NMtDS0=    0 NMtDT0=    0
 Petite list used in FoFCou.
 Harris En= -478.268488084177    
 JPrj=0 DoOrth=F DoCkMO=F.
 Leave Link  401 at Fri Nov  4 06:08:24 2022, MaxMem=  8053063680 cpu:              12.4 elap:               0.4
 (Enter /public3/home/scg5914/software-scg5914/g16/l502.exe)
 Integral symmetry usage will be decided dynamically.
 Closed shell SCF:
 Using DIIS extrapolation, IDIIS=  1040.
 NGot=  8053063680 LenX=  8052941140 LenY=  8052884530
 Requested convergence on RMS density matrix=1.00D-08 within 128 cycles.
 Requested convergence on MAX density matrix=1.00D-06.
 Requested convergence on             energy=1.00D-06.
 No special actions if energy rises.
 Fock matrices will be formed incrementally for  20 cycles.

 Cycle   1  Pass 1  IDiag  1:
 FoFJK:  IHMeth= 1 ICntrl=       0 DoSepK=F KAlg= 0 I1Cent=           0 FoldK=F
 IRaf= 950000000 NMat=       1 IRICut=       1 DoRegI=T DoRafI=F ISym2E= 0 IDoP0=0 IntGTp=1.
 FoFCou: FMM=F IPFlag=           0 FMFlag=      100000 FMFlg1=           0
         NFxFlg=           0 DoJE=F BraDBF=F KetDBF=F FulRan=T
         wScrn=  0.000000 ICntrl=         0 IOpCl=  0 I1Cent=           0 NGrid=           0
         NMat0=    1 NMatS0=      1 NMatT0=    0 NMatD0=    1 NMtDS0=    0 NMtDT0=    0
 Symmetry not used in FoFCou.
 E= -478.013504286126    
 DIIS: error= 3.40D-02 at cycle   1 NSaved=   1.
 NSaved= 1 IEnMin= 1 EnMin= -478.013504286126     IErMin= 1 ErrMin= 3.40D-02
 ErrMax= 3.40D-02  0.00D+00 EMaxC= 1.00D-01 BMatC= 3.11D-01 BMatP= 3.11D-01
 IDIUse=3 WtCom= 6.60D-01 WtEn= 3.40D-01
 Coeff-Com:  0.100D+01
 Coeff-En:   0.100D+01
 Coeff:      0.100D+01
 Gap=     0.108 Goal=   None    Shift=    0.000
 GapD=    0.108 DampG=1.000 DampE=0.500 DampFc=0.5000 IDamp=-1.
 Damping current iteration by 5.00D-01
 RMSDP=2.09D+00 MaxDP=1.81D+02              OVMax= 9.89D-01

 Cycle   2  Pass 1  IDiag  1:
 RMSU=  1.04D+00    CP:  3.00D+00
 E= -477.472814601794     Delta-E=        0.540689684332 Rises=F Damp=T
 DIIS: error= 5.32D-02 at cycle   2 NSaved=   2.
 NSaved= 2 IEnMin= 1 EnMin= -478.013504286126     IErMin= 1 ErrMin= 3.40D-02
 ErrMax= 5.32D-02  0.00D+00 EMaxC= 1.00D-01 BMatC= 2.82D-01 BMatP= 3.11D-01
 IDIUse=3 WtCom= 4.68D-01 WtEn= 5.32D-01
 Coeff-Com:  0.483D+00 0.517D+00
 Coeff-En:   0.803D+00 0.197D+00
 Coeff:      0.653D+00 0.347D+00
 Gap=    -0.098 Goal=   None    Shift=    0.000
 RMSDP=1.04D+00 MaxDP=8.98D+01 DE= 5.41D-01 OVMax= 9.49D-01

 Cycle   3  Pass 1  IDiag  1:
 RMSU=  8.17D-03    CP:  1.15D+00  2.44D-03
 E= -478.152028650452     Delta-E=       -0.679214048658 Rises=F Damp=F
 DIIS: error= 2.72D-02 at cycle   3 NSaved=   3.
 NSaved= 3 IEnMin= 3 EnMin= -478.152028650452     IErMin= 3 ErrMin= 2.72D-02
 ErrMax= 2.72D-02  0.00D+00 EMaxC= 1.00D-01 BMatC= 1.01D-01 BMatP= 2.82D-01
 IDIUse=3 WtCom= 7.28D-01 WtEn= 2.72D-01
 Coeff-Com:  0.269D+00 0.274D+00 0.457D+00
 Coeff-En:   0.201D+00 0.000D+00 0.799D+00
 Coeff:      0.250D+00 0.199D+00 0.550D+00
 Gap=     0.155 Goal=   None    Shift=    0.000
 RMSDP=3.53D-03 MaxDP=1.68D-01 DE=-6.79D-01 OVMax= 2.10D-01

 Cycle   4  Pass 1  IDiag  1:
 RMSU=  3.48D-03    CP:  1.18D+00  2.77D-03  1.03D+00
 E= -478.231302397822     Delta-E=       -0.079273747371 Rises=F Damp=F
 DIIS: error= 1.66D-02 at cycle   4 NSaved=   4.
 NSaved= 4 IEnMin= 4 EnMin= -478.231302397822     IErMin= 4 ErrMin= 1.66D-02
 ErrMax= 1.66D-02  0.00D+00 EMaxC= 1.00D-01 BMatC= 2.45D-02 BMatP= 1.01D-01
 IDIUse=3 WtCom= 8.34D-01 WtEn= 1.66D-01
 Coeff-Com:  0.669D-01 0.781D-01 0.329D+00 0.526D+00
 Coeff-En:   0.000D+00 0.000D+00 0.214D+00 0.786D+00
 Coeff:      0.558D-01 0.651D-01 0.310D+00 0.570D+00
 Gap=     0.145 Goal=   None    Shift=    0.000
 RMSDP=1.51D-03 MaxDP=9.07D-02 DE=-7.93D-02 OVMax= 1.10D-01

 Cycle   5  Pass 1  IDiag  1:
 RMSU=  9.96D-04    CP:  1.17D+00  2.44D-03  1.01D+00  7.00D-01
 E= -478.251651462162     Delta-E=       -0.020349064340 Rises=F Damp=F
 DIIS: error= 7.04D-03 at cycle   5 NSaved=   5.
 NSaved= 5 IEnMin= 5 EnMin= -478.251651462162     IErMin= 5 ErrMin= 7.04D-03
 ErrMax= 7.04D-03  0.00D+00 EMaxC= 1.00D-01 BMatC= 3.94D-03 BMatP= 2.45D-02
 IDIUse=3 WtCom= 9.30D-01 WtEn= 7.04D-02
 Coeff-Com: -0.151D-03 0.288D-01 0.127D+00 0.349D+00 0.495D+00
 Coeff-En:   0.000D+00 0.000D+00 0.000D+00 0.156D+00 0.844D+00
 Coeff:     -0.140D-03 0.268D-01 0.118D+00 0.336D+00 0.519D+00
 Gap=     0.146 Goal=   None    Shift=    0.000
 RMSDP=7.46D-04 MaxDP=4.32D-02 DE=-2.03D-02 OVMax= 5.20D-02

 Cycle   6  Pass 1  IDiag  1:
 RMSU=  3.97D-04    CP:  1.17D+00  2.47D-03  1.04D+00  8.11D-01  5.74D-01
 E= -478.255563898327     Delta-E=       -0.003912436165 Rises=F Damp=F
 DIIS: error= 2.15D-03 at cycle   6 NSaved=   6.
 NSaved= 6 IEnMin= 6 EnMin= -478.255563898327     IErMin= 6 ErrMin= 2.15D-03
 ErrMax= 2.15D-03  0.00D+00 EMaxC= 1.00D-01 BMatC= 5.46D-04 BMatP= 3.94D-03
 IDIUse=3 WtCom= 9.79D-01 WtEn= 2.15D-02
 Coeff-Com: -0.124D-01 0.910D-02 0.102D-01 0.104D+00 0.337D+00 0.552D+00
 Coeff-En:   0.000D+00 0.000D+00 0.000D+00 0.000D+00 0.896D-01 0.910D+00
 Coeff:     -0.121D-01 0.891D-02 0.100D-01 0.102D+00 0.332D+00 0.560D+00
 Gap=     0.146 Goal=   None    Shift=    0.000
 RMSDP=2.45D-04 MaxDP=1.77D-02 DE=-3.91D-03 OVMax= 1.68D-02

 Cycle   7  Pass 1  IDiag  1:
 RMSU=  1.76D-04    CP:  1.17D+00  2.55D-03  1.05D+00  8.06D-01  6.11D-01
                    CP:  9.53D-01
 E= -478.256036224981     Delta-E=       -0.000472326654 Rises=F Damp=F
 DIIS: error= 6.80D-04 at cycle   7 NSaved=   7.
 NSaved= 7 IEnMin= 7 EnMin= -478.256036224981     IErMin= 7 ErrMin= 6.80D-04
 ErrMax= 6.80D-04  0.00D+00 EMaxC= 1.00D-01 BMatC= 6.67D-05 BMatP= 5.46D-04
 IDIUse=3 WtCom= 9.93D-01 WtEn= 6.80D-03
 Coeff-Com: -0.823D-02 0.565D-02-0.890D-02 0.251D-01 0.154D+00 0.337D+00
 Coeff-Com:  0.495D+00
 Coeff-En:   0.000D+00 0.000D+00 0.000D+00 0.000D+00 0.000D+00 0.343D-01
 Coeff-En:   0.966D+00
 Coeff:     -0.818D-02 0.561D-02-0.884D-02 0.250D-01 0.153D+00 0.335D+00
 Coeff:      0.498D+00
 Gap=     0.146 Goal=   None    Shift=    0.000
 RMSDP=1.13D-04 MaxDP=4.13D-03 DE=-4.72D-04 OVMax= 4.52D-03

 Cycle   8  Pass 1  IDiag  1:
 RMSU=  3.69D-05    CP:  1.17D+00  2.54D-03  1.05D+00  8.06D-01  6.48D-01
                    CP:  8.52D-01  5.59D-01
 E= -478.256086852721     Delta-E=       -0.000050627740 Rises=F Damp=F
 DIIS: error= 3.43D-04 at cycle   8 NSaved=   8.
 NSaved= 8 IEnMin= 8 EnMin= -478.256086852721     IErMin= 8 ErrMin= 3.43D-04
 ErrMax= 3.43D-04  0.00D+00 EMaxC= 1.00D-01 BMatC= 1.06D-05 BMatP= 6.67D-05
 IDIUse=3 WtCom= 9.97D-01 WtEn= 3.43D-03
 Coeff-Com: -0.353D-02 0.322D-02-0.760D-02-0.954D-03 0.240D-01 0.627D-01
 Coeff-Com:  0.221D+00 0.701D+00
 Coeff-En:   0.000D+00 0.000D+00 0.000D+00 0.000D+00 0.000D+00 0.000D+00
 Coeff-En:   0.000D+00 0.100D+01
 Coeff:     -0.351D-02 0.321D-02-0.758D-02-0.951D-03 0.239D-01 0.624D-01
 Coeff:      0.220D+00 0.702D+00
 Gap=     0.146 Goal=   None    Shift=    0.000
 RMSDP=2.91D-05 MaxDP=1.66D-03 DE=-5.06D-05 OVMax= 1.72D-03

 Cycle   9  Pass 1  IDiag  1:
 RMSU=  1.44D-05    CP:  1.17D+00  2.54D-03  1.05D+00  8.11D-01  6.52D-01
                    CP:  8.72D-01  5.94D-01  8.14D-01
 E= -478.256096593475     Delta-E=       -0.000009740754 Rises=F Damp=F
 DIIS: error= 1.65D-04 at cycle   9 NSaved=   9.
 NSaved= 9 IEnMin= 9 EnMin= -478.256096593475     IErMin= 9 ErrMin= 1.65D-04
 ErrMax= 1.65D-04  0.00D+00 EMaxC= 1.00D-01 BMatC= 3.72D-06 BMatP= 1.06D-05
 IDIUse=3 WtCom= 9.98D-01 WtEn= 1.65D-03
 Coeff-Com: -0.192D-02 0.168D-02-0.503D-02-0.495D-02-0.940D-02-0.187D-01
 Coeff-Com:  0.611D-01 0.452D+00 0.525D+00
 Coeff-En:   0.000D+00 0.000D+00 0.000D+00 0.000D+00 0.000D+00 0.000D+00
 Coeff-En:   0.000D+00 0.000D+00 0.100D+01
 Coeff:     -0.191D-02 0.168D-02-0.502D-02-0.495D-02-0.939D-02-0.187D-01
 Coeff:      0.610D-01 0.451D+00 0.526D+00
 Gap=     0.146 Goal=   None    Shift=    0.000
 RMSDP=2.99D-05 MaxDP=2.38D-03 DE=-9.74D-06 OVMax= 5.84D-04

 Cycle  10  Pass 1  IDiag  1:
 RMSU=  8.88D-06    CP:  1.17D+00  2.55D-03  1.06D+00  8.15D-01  6.49D-01
                    CP:  8.87D-01  6.11D-01  9.37D-01  1.03D+00
 E= -478.256099461743     Delta-E=       -0.000002868268 Rises=F Damp=F
 DIIS: error= 8.20D-05 at cycle  10 NSaved=  10.
 NSaved=10 IEnMin=10 EnMin= -478.256099461743     IErMin=10 ErrMin= 8.20D-05
 ErrMax= 8.20D-05  0.00D+00 EMaxC= 1.00D-01 BMatC= 8.01D-07 BMatP= 3.72D-06
 IDIUse=1 WtCom= 1.00D+00 WtEn= 0.00D+00
 Coeff-Com: -0.487D-03 0.545D-03-0.120D-02-0.258D-02-0.129D-01-0.331D-01
 Coeff-Com: -0.304D-01 0.442D-01 0.200D+00 0.836D+00
 Coeff:     -0.487D-03 0.545D-03-0.120D-02-0.258D-02-0.129D-01-0.331D-01
 Coeff:     -0.304D-01 0.442D-01 0.200D+00 0.836D+00
 Gap=     0.146 Goal=   None    Shift=    0.000
 RMSDP=1.60D-05 MaxDP=1.27D-03 DE=-2.87D-06 OVMax= 3.55D-04

 Cycle  11  Pass 1  IDiag  1:
 RMSU=  2.70D-06    CP:  1.17D+00  2.55D-03  1.06D+00  8.16D-01  6.47D-01
                    CP:  8.96D-01  6.34D-01  9.48D-01  1.18D+00  1.20D+00
 E= -478.256100170571     Delta-E=       -0.000000708828 Rises=F Damp=F
 DIIS: error= 3.13D-05 at cycle  11 NSaved=  11.
 NSaved=11 IEnMin=11 EnMin= -478.256100170571     IErMin=11 ErrMin= 3.13D-05
 ErrMax= 3.13D-05  0.00D+00 EMaxC= 1.00D-01 BMatC= 1.30D-07 BMatP= 8.01D-07
 IDIUse=1 WtCom= 1.00D+00 WtEn= 0.00D+00
 Coeff-Com: -0.872D-04 0.132D-03 0.969D-04-0.440D-03-0.534D-02-0.154D-01
 Coeff-Com: -0.290D-01-0.654D-01-0.335D-02 0.489D+00 0.630D+00
 Coeff:     -0.872D-04 0.132D-03 0.969D-04-0.440D-03-0.534D-02-0.154D-01
 Coeff:     -0.290D-01-0.654D-01-0.335D-02 0.489D+00 0.630D+00
 Gap=     0.146 Goal=   None    Shift=    0.000
 RMSDP=8.02D-06 MaxDP=6.33D-04 DE=-7.09D-07 OVMax= 1.62D-04

 Cycle  12  Pass 1  IDiag  1:
 RMSU=  1.28D-06    CP:  1.17D+00  2.56D-03  1.06D+00  8.18D-01  6.47D-01
                    CP:  8.97D-01  6.36D-01  9.80D-01  1.25D+00  1.39D+00
                    CP:  1.08D+00
 E= -478.256100285254     Delta-E=       -0.000000114682 Rises=F Damp=F
 DIIS: error= 8.15D-06 at cycle  12 NSaved=  12.
 NSaved=12 IEnMin=12 EnMin= -478.256100285254     IErMin=12 ErrMin= 8.15D-06
 ErrMax= 8.15D-06  0.00D+00 EMaxC= 1.00D-01 BMatC= 6.29D-09 BMatP= 1.30D-07
 IDIUse=1 WtCom= 1.00D+00 WtEn= 0.00D+00
 Coeff-Com: -0.101D-04 0.156D-04 0.112D-03 0.113D-03-0.610D-03-0.157D-02
 Coeff-Com: -0.664D-02-0.304D-01-0.279D-01 0.758D-01 0.262D+00 0.729D+00
 Coeff:     -0.101D-04 0.156D-04 0.112D-03 0.113D-03-0.610D-03-0.157D-02
 Coeff:     -0.664D-02-0.304D-01-0.279D-01 0.758D-01 0.262D+00 0.729D+00
 Gap=     0.146 Goal=   None    Shift=    0.000
 RMSDP=2.28D-06 MaxDP=1.69D-04 DE=-1.15D-07 OVMax= 3.94D-05

 Cycle  13  Pass 1  IDiag  1:
 RMSU=  3.72D-07    CP:  1.17D+00  2.56D-03  1.06D+00  8.18D-01  6.46D-01
                    CP:  8.99D-01  6.36D-01  9.81D-01  1.28D+00  1.46D+00
                    CP:  1.09D+00  9.55D-01
 E= -478.256100292075     Delta-E=       -0.000000006821 Rises=F Damp=F
 DIIS: error= 9.69D-07 at cycle  13 NSaved=  13.
 NSaved=13 IEnMin=13 EnMin= -478.256100292075     IErMin=13 ErrMin= 9.69D-07
 ErrMax= 9.69D-07  0.00D+00 EMaxC= 1.00D-01 BMatC= 2.57D-10 BMatP= 6.29D-09
 IDIUse=1 WtCom= 1.00D+00 WtEn= 0.00D+00
 Coeff-Com: -0.760D-06-0.905D-06 0.333D-04 0.630D-04 0.188D-06 0.219D-03
 Coeff-Com: -0.127D-02-0.946D-02-0.988D-02 0.400D-02 0.701D-01 0.280D+00
 Coeff-Com:  0.666D+00
 Coeff:     -0.760D-06-0.905D-06 0.333D-04 0.630D-04 0.188D-06 0.219D-03
 Coeff:     -0.127D-02-0.946D-02-0.988D-02 0.400D-02 0.701D-01 0.280D+00
 Coeff:      0.666D+00
 Gap=     0.146 Goal=   None    Shift=    0.000
 RMSDP=3.23D-07 MaxDP=2.45D-05 DE=-6.82D-09 OVMax= 5.49D-06

 Cycle  14  Pass 1  IDiag  1:
 RMSU=  9.41D-08    CP:  1.17D+00  2.56D-03  1.06D+00  8.18D-01  6.46D-01
                    CP:  8.99D-01  6.36D-01  9.81D-01  1.28D+00  1.47D+00
                    CP:  1.11D+00  1.00D+00  9.50D-01
 E= -478.256100292271     Delta-E=       -0.000000000196 Rises=F Damp=F
 DIIS: error= 3.60D-07 at cycle  14 NSaved=  14.
 NSaved=14 IEnMin=14 EnMin= -478.256100292271     IErMin=14 ErrMin= 3.60D-07
 ErrMax= 3.60D-07  0.00D+00 EMaxC= 1.00D-01 BMatC= 4.40D-11 BMatP= 2.57D-10
 IDIUse=1 WtCom= 1.00D+00 WtEn= 0.00D+00
 Coeff-Com:  0.920D-06 0.188D-06 0.385D-05 0.204D-04 0.552D-04 0.298D-03
 Coeff-Com:  0.104D-03-0.110D-02-0.112D-02-0.694D-02 0.453D-02 0.562D-01
 Coeff-Com:  0.350D+00 0.598D+00
 Coeff:      0.920D-06 0.188D-06 0.385D-05 0.204D-04 0.552D-04 0.298D-03
 Coeff:      0.104D-03-0.110D-02-0.112D-02-0.694D-02 0.453D-02 0.562D-01
 Coeff:      0.350D+00 0.598D+00
 Gap=     0.146 Goal=   None    Shift=    0.000
 RMSDP=5.16D-08 MaxDP=2.06D-06 DE=-1.96D-10 OVMax= 1.18D-06

 Cycle  15  Pass 1  IDiag  1:
 RMSU=  3.23D-08    CP:  1.17D+00  2.56D-03  1.06D+00  8.18D-01  6.46D-01
                    CP:  8.99D-01  6.36D-01  9.81D-01  1.28D+00  1.47D+00
                    CP:  1.12D+00  9.99D-01  9.37D-01  7.93D-01
 E= -478.256100292312     Delta-E=       -0.000000000042 Rises=F Damp=F
 DIIS: error= 1.23D-07 at cycle  15 NSaved=  15.
 NSaved=15 IEnMin=15 EnMin= -478.256100292312     IErMin=15 ErrMin= 1.23D-07
 ErrMax= 1.23D-07  0.00D+00 EMaxC= 1.00D-01 BMatC= 1.85D-12 BMatP= 4.40D-11
 IDIUse=1 WtCom= 1.00D+00 WtEn= 0.00D+00
 Coeff-Com:  0.235D-06-0.512D-07-0.330D-06 0.568D-05 0.213D-04 0.103D-03
 Coeff-Com:  0.789D-04 0.109D-03 0.219D-03-0.237D-02-0.326D-02-0.647D-03
 Coeff-Com:  0.680D-01 0.162D+00 0.776D+00
 Coeff:      0.235D-06-0.512D-07-0.330D-06 0.568D-05 0.213D-04 0.103D-03
 Coeff:      0.789D-04 0.109D-03 0.219D-03-0.237D-02-0.326D-02-0.647D-03
 Coeff:      0.680D-01 0.162D+00 0.776D+00
 Gap=     0.146 Goal=   None    Shift=    0.000
 RMSDP=3.83D-08 MaxDP=2.99D-06 DE=-4.16D-11 OVMax= 3.55D-07

 Cycle  16  Pass 1  IDiag  1:
 RMSU=  1.03D-08    CP:  1.17D+00  2.56D-03  1.06D+00  8.18D-01  6.46D-01
                    CP:  8.99D-01  6.36D-01  9.81D-01  1.28D+00  1.47D+00
                    CP:  1.12D+00  1.01D+00  9.59D-01  8.30D-01  8.11D-01
 E= -478.256100292312     Delta-E=       -0.000000000000 Rises=F Damp=F
 DIIS: error= 6.77D-08 at cycle  16 NSaved=  16.
 NSaved=16 IEnMin=16 EnMin= -478.256100292312     IErMin=16 ErrMin= 6.77D-08
 ErrMax= 6.77D-08  0.00D+00 EMaxC= 1.00D-01 BMatC= 7.20D-13 BMatP= 1.85D-12
 IDIUse=1 WtCom= 1.00D+00 WtEn= 0.00D+00
 Coeff-Com: -0.234D-07 0.240D-07-0.807D-06 0.821D-06 0.375D-05 0.261D-04
 Coeff-Com:  0.329D-04 0.237D-03 0.326D-03-0.634D-03-0.286D-02-0.791D-02
 Coeff-Com: -0.360D-03 0.257D-01 0.490D+00 0.495D+00
 Coeff:     -0.234D-07 0.240D-07-0.807D-06 0.821D-06 0.375D-05 0.261D-04
 Coeff:      0.329D-04 0.237D-03 0.326D-03-0.634D-03-0.286D-02-0.791D-02
 Coeff:     -0.360D-03 0.257D-01 0.490D+00 0.495D+00
 Gap=     0.146 Goal=   None    Shift=    0.000
 RMSDP=8.54D-09 MaxDP=3.90D-07 DE=-1.14D-13 OVMax= 1.80D-07

 SCF Done:  E(RB3LYP) =  -478.256100292     A.U. after   16 cycles
            NFock= 16  Conv=0.85D-08     -V/T= 2.0035
 KE= 4.765646220107D+02 PE=-2.002742101698D+03 EE= 6.073879008943D+02
 Leave Link  502 at Fri Nov  4 06:08:34 2022, MaxMem=  8053063680 cpu:             312.6 elap:               9.8
 (Enter /public3/home/scg5914/software-scg5914/g16/l601.exe)
 Copying SCF densities to generalized density rwf, IOpCl= 0 IROHF=0.

 **********************************************************************

            Population analysis using the SCF Density.

 **********************************************************************

 Orbital symmetries:
       Occupied  (A) (A) (A) (A) (A) (A) (A) (A) (A) (A) (A) (A)
                 (A) (A) (A) (A) (A) (A) (A) (A) (A) (A) (A) (A)
                 (A) (A) (A) (A) (A) (A) (A) (A) (A)
       Virtual   (A) (A) (A) (A) (A) (A) (A) (A) (A) (A) (A) (A)
                 (A) (A) (A) (A) (A) (A) (A) (A) (A) (A) (A) (A)
                 (A) (A) (A) (A) (A) (A) (A) (A) (A) (A) (A) (A)
                 (A) (A) (A) (A) (A) (A) (A) (A) (A) (A) (A) (A)
                 (A) (A) (A) (A) (A) (A) (A) (A) (A) (A) (A) (A)
                 (A) (A) (A) (A) (A) (A) (A) (A) (A) (A) (A) (A)
                 (A) (A) (A) (A) (A) (A) (A) (A) (A) (A) (A) (A)
                 (A) (A) (A) (A) (A) (A) (A) (A) (A) (A) (A) (A)
                 (A) (A) (A) (A) (A) (A) (A) (A) (A) (A) (A) (A)
                 (A) (A) (A) (A) (A) (A) (A) (A) (A) (A) (A) (A)
                 (A) (A) (A) (A) (A) (A) (A) (A) (A) (A) (A) (A)
                 (A) (A) (A) (A) (A) (A) (A) (A) (A) (A) (A) (A)
                 (A) (A) (A) (A) (A) (A) (A) (A) (A) (A) (A) (A)
                 (A) (A) (A) (A) (A) (A) (A) (A) (A) (A) (A) (A)
                 (A) (A) (A) (A) (A) (A) (A) (A) (A) (A) (A) (A)
                 (A) (A) (A) (A) (A) (A) (A) (A) (A) (A) (A) (A)
                 (A) (A) (A)
 The electronic state is 1-A.
 Alpha  occ. eigenvalues --  -24.68818 -19.06526 -14.41969 -14.35431 -10.27985
 Alpha  occ. eigenvalues --  -10.26012 -10.23826 -10.23467 -10.19997  -1.23250
 Alpha  occ. eigenvalues --   -1.04169  -0.99785  -0.93724  -0.82376  -0.76607
 Alpha  occ. eigenvalues --   -0.67487  -0.66072  -0.60354  -0.57166  -0.55764
 Alpha  occ. eigenvalues --   -0.51100  -0.50191  -0.48242  -0.46058  -0.45537
 Alpha  occ. eigenvalues --   -0.44316  -0.40712  -0.38066  -0.37103  -0.34192
 Alpha  occ. eigenvalues --   -0.28505  -0.24596  -0.19692
 Alpha virt. eigenvalues --   -0.05087  -0.03532  -0.01261  -0.00347   0.01617
 Alpha virt. eigenvalues --    0.03621   0.04161   0.04278   0.06416   0.07003
 Alpha virt. eigenvalues --    0.08193   0.08528   0.08967   0.11424   0.11572
 Alpha virt. eigenvalues --    0.11873   0.13155   0.13211   0.13638   0.13858
 Alpha virt. eigenvalues --    0.15491   0.15604   0.16130   0.17349   0.18309
 Alpha virt. eigenvalues --    0.18971   0.19443   0.19768   0.20416   0.20665
 Alpha virt. eigenvalues --    0.21799   0.22087   0.22634   0.22885   0.24038
 Alpha virt. eigenvalues --    0.25239   0.27263   0.28424   0.29713   0.31365
 Alpha virt. eigenvalues --    0.31691   0.33378   0.34379   0.34765   0.36989
 Alpha virt. eigenvalues --    0.37128   0.38139   0.39925   0.42190   0.43389
 Alpha virt. eigenvalues --    0.48416   0.49630   0.51308   0.52505   0.53746
 Alpha virt. eigenvalues --    0.55022   0.55526   0.57781   0.58930   0.60580
 Alpha virt. eigenvalues --    0.60758   0.62714   0.64581   0.67331   0.68106
 Alpha virt. eigenvalues --    0.69284   0.71135   0.74551   0.76054   0.77558
 Alpha virt. eigenvalues --    0.78354   0.79217   0.81533   0.82104   0.83335
 Alpha virt. eigenvalues --    0.84770   0.86733   0.88131   0.91061   0.96242
 Alpha virt. eigenvalues --    0.98565   0.99610   1.00286   1.01508   1.03222
 Alpha virt. eigenvalues --    1.09027   1.11698   1.13843   1.17482   1.17819
 Alpha virt. eigenvalues --    1.22808   1.25086   1.25972   1.27797   1.38391
 Alpha virt. eigenvalues --    1.42115   1.43619   1.44684   1.47142   1.51623
 Alpha virt. eigenvalues --    1.53819   1.53997   1.55415   1.56845   1.58651
 Alpha virt. eigenvalues --    1.61266   1.62847   1.66460   1.68156   1.69950
 Alpha virt. eigenvalues --    1.71153   1.72125   1.81022   1.81567   1.84067
 Alpha virt. eigenvalues --    1.85413   1.86832   1.89381   1.94475   1.96102
 Alpha virt. eigenvalues --    2.00365   2.01162   2.03840   2.06218   2.08371
 Alpha virt. eigenvalues --    2.09972   2.12974   2.15592   2.22609   2.35130
 Alpha virt. eigenvalues --    2.36288   2.40564   2.41707   2.45863   2.54233
 Alpha virt. eigenvalues --    2.55106   2.61182   2.62373   2.66973   2.68163
 Alpha virt. eigenvalues --    2.70770   2.72922   2.77146   2.77676   2.78903
 Alpha virt. eigenvalues --    2.82086   2.83236   2.88098   2.90628   2.91992
 Alpha virt. eigenvalues --    2.95668   2.99569   2.99856   3.07303   3.10700
 Alpha virt. eigenvalues --    3.15668   3.20931   3.30485   3.36561   3.37349
 Alpha virt. eigenvalues --    3.47741   3.48891   3.58287   3.67914   3.70852
 Alpha virt. eigenvalues --    3.77209   3.79354   3.83575   3.91007   3.96013
 Alpha virt. eigenvalues --    4.00733   4.04440   4.11125   4.16902   4.34676
 Alpha virt. eigenvalues --    4.73339   4.77488   4.88946   4.94023   5.10426
 Alpha virt. eigenvalues --    5.19460   5.31497   5.78454   6.32775   6.45822
 Alpha virt. eigenvalues --    6.77109  23.62577  23.83320  23.90907  23.98656
 Alpha virt. eigenvalues --   24.13192  35.56020  35.67111  50.08098  66.80241
          Condensed to atoms (all electrons):
               1          2          3          4          5          6
     1  O    8.333641   0.420899  -0.139972   0.024422  -0.058877  -0.000468
     2  C    0.420899  11.007230  -3.775792  -0.240026  -1.475110  -0.546631
     3  C   -0.139972  -3.775792  10.293019   0.479038   0.165579   0.272343
     4  F    0.024422  -0.240026   0.479038   9.121515  -0.236867   0.019190
     5  C   -0.058877  -1.475110   0.165579  -0.236867   6.859345   0.491421
     6  C   -0.000468  -0.546631   0.272343   0.019190   0.491421   5.544736
     7  N    0.012671   0.011933   0.053280   0.000719  -0.082745   0.282486
     8  C   -0.120949   0.103136  -1.132539   0.015287  -0.276102  -0.090749
     9  N   -0.054224   0.039326  -0.181659  -0.001470  -0.007241  -0.010121
    10  H    0.001622   0.009077   0.007734   0.000001  -0.005547   0.007996
    11  H    0.052233  -0.024467   0.098315  -0.000105   0.005015   0.005298
    12  H    0.000063  -0.013593   0.012416  -0.007935   0.395025  -0.036257
    13  H    0.000077  -0.010896   0.013427  -0.000346  -0.006712   0.394380
    14  H   -0.000415   0.018770  -0.017409   0.000073   0.017762  -0.036725
               7          8          9         10         11         12
     1  O    0.012671  -0.120949  -0.054224   0.001622   0.052233   0.000063
     2  C    0.011933   0.103136   0.039326   0.009077  -0.024467  -0.013593
     3  C    0.053280  -1.132539  -0.181659   0.007734   0.098315   0.012416
     4  F    0.000719   0.015287  -0.001470   0.000001  -0.000105  -0.007935
     5  C   -0.082745  -0.276102  -0.007241  -0.005547   0.005015   0.395025
     6  C    0.282486  -0.090749  -0.010121   0.007996   0.005298  -0.036257
     7  N    6.605779   0.014012  -0.097627  -0.009605   0.015094   0.017636
     8  C    0.014012   7.505543   0.317340  -0.021531  -0.109507  -0.009574
     9  N   -0.097627   0.317340   6.665557   0.346634   0.332194   0.000331
    10  H   -0.009605  -0.021531   0.346634   0.456375  -0.026828   0.000002
    11  H    0.015094  -0.109507   0.332194  -0.026828   0.378705   0.000001
    12  H    0.017636  -0.009574   0.000331   0.000002   0.000001   0.501970
    13  H   -0.061374   0.025351  -0.000106  -0.000023   0.000023  -0.005740
    14  H    0.365292  -0.029669  -0.000964   0.004032  -0.000793  -0.000130
              13         14
     1  O    0.000077  -0.000415
     2  C   -0.010896   0.018770
     3  C    0.013427  -0.017409
     4  F   -0.000346   0.000073
     5  C   -0.006712   0.017762
     6  C    0.394380  -0.036725
     7  N   -0.061374   0.365292
     8  C    0.025351  -0.029669
     9  N   -0.000106  -0.000964
    10  H   -0.000023   0.004032
    11  H    0.000023  -0.000793
    12  H   -0.005740  -0.000130
    13  H    0.515091  -0.001044
    14  H   -0.001044   0.406504
 Mulliken charges:
               1
     1  O   -0.470724
     2  C    0.476144
     3  C   -0.147779
     4  F   -0.173498
     5  C    0.215055
     6  C   -0.296899
     7  N   -0.127552
     8  C   -0.190051
     9  N   -0.347970
    10  H    0.230061
    11  H    0.274822
    12  H    0.145782
    13  H    0.137893
    14  H    0.274715
 Sum of Mulliken charges =  -0.00000
 Mulliken charges with hydrogens summed into heavy atoms:
               1
     1  O   -0.470724
     2  C    0.476144
     3  C   -0.147779
     4  F   -0.173498
     5  C    0.360837
     6  C   -0.159006
     7  N    0.147163
     8  C   -0.190051
     9  N    0.156913
 Electronic spatial extent (au):  <R**2>=           1050.0435
 Charge=             -0.0000 electrons
 Dipole moment (field-independent basis, Debye):
    X=             -4.0707    Y=              6.6772    Z=              0.8827  Tot=              7.8699
 Quadrupole moment (field-independent basis, Debye-Ang):
   XX=            -42.2979   YY=            -53.5153   ZZ=            -53.9435
   XY=             -0.1176   XZ=             -3.1295   YZ=             -0.4553
 Traceless Quadrupole moment (field-independent basis, Debye-Ang):
   XX=              7.6210   YY=             -3.5964   ZZ=             -4.0246
   XY=             -0.1176   XZ=             -3.1295   YZ=             -0.4553
 Octapole moment (field-independent basis, Debye-Ang**2):
  XXX=            -27.1915  YYY=             33.5553  ZZZ=              0.8474  XYY=             -7.8294
  XXY=              9.7373  XXZ=             10.2500  XZZ=              3.3900  YZZ=             -6.0838
  YYZ=              0.2283  XYZ=              1.3503
 Hexadecapole moment (field-independent basis, Debye-Ang**3):
 XXXX=           -587.6173 YYYY=           -566.9616 ZZZZ=            -58.3760 XXXY=             -3.8191
 XXXZ=            -33.9944 YYYX=            -21.1292 YYYZ=             -1.3791 ZZZX=             -2.5052
 ZZZY=             -0.4748 XXYY=           -175.8366 XXZZ=           -127.6092 YYZZ=           -114.5870
 XXYZ=             -3.3513 YYXZ=             -0.7050 ZZXY=             -8.9423
 N-N= 4.405334785008D+02 E-N=-2.002742100926D+03  KE= 4.765646220107D+02
 No NMR shielding tensors so no spin-rotation constants.
 Leave Link  601 at Fri Nov  4 06:08:34 2022, MaxMem=  8053063680 cpu:               2.5 elap:               0.1
 (Enter /public3/home/scg5914/software-scg5914/g16/l701.exe)
 ... and contract with generalized density number  0.
 Compute integral first derivatives.
 R6Disp: Adding Grimme-D3(BJ) dispersion energy 1st derivatives to the gradient.
 Leave Link  701 at Fri Nov  4 06:08:35 2022, MaxMem=  8053063680 cpu:               3.6 elap:               0.1
 (Enter /public3/home/scg5914/software-scg5914/g16/l702.exe)
 L702 exits ... SP integral derivatives will be done elsewhere.
 Leave Link  702 at Fri Nov  4 06:08:35 2022, MaxMem=  8053063680 cpu:               0.2 elap:               0.0
 (Enter /public3/home/scg5914/software-scg5914/g16/l703.exe)
 Integral derivatives from FoFJK, PRISM(SPDF).
 Compute integral first derivatives, UseDBF=F ICtDFT=           0.
 Calling FoFJK, ICntrl=      2127 FMM=F ISym2X=0 I1Cent= 0 IOpClX= 0 NMat=1 NMatS=1 NMatT=0.
 FoFJK:  IHMeth= 1 ICntrl=    2127 DoSepK=F KAlg= 0 I1Cent=           0 FoldK=F
 IRaf=         0 NMat=       1 IRICut=       1 DoRegI=T DoRafI=F ISym2E= 0 IDoP0=0 IntGTp=1.
 FoFCou: FMM=F IPFlag=           0 FMFlag=      100000 FMFlg1=         800
         NFxFlg=           0 DoJE=F BraDBF=F KetDBF=F FulRan=T
         wScrn=  0.000000 ICntrl=      2127 IOpCl=  0 I1Cent=           0 NGrid=           0
         NMat0=    1 NMatS0=      1 NMatT0=    0 NMatD0=    1 NMtDS0=    0 NMtDT0=    0
 Symmetry not used in FoFCou.
 Leave Link  703 at Fri Nov  4 06:08:36 2022, MaxMem=  8053063680 cpu:              42.4 elap:               1.3
 (Enter /public3/home/scg5914/software-scg5914/g16/l716.exe)
 Dipole        =-1.60152949D+00 2.62703184D+00 3.47286667D-01
 ***** Axes restored to original set *****
 -------------------------------------------------------------------
 Center     Atomic                   Forces (Hartrees/Bohr)
 Number     Number              X              Y              Z
 -------------------------------------------------------------------
      1        8          -0.000394387   -0.003545830   -0.000023494
      2        6          -0.001273666    0.005780657    0.000134073
      3        6           0.010020666    0.002845668   -0.000142220
      4        9          -0.007982318   -0.003768991    0.000197771
      5        6          -0.002050145    0.000812116   -0.000163584
      6        6          -0.000675192    0.000063280    0.000078117
      7        7           0.000806957    0.000023949   -0.000128871
      8        6           0.000212429   -0.001519781    0.000195448
      9        7          -0.002399018    0.000407249   -0.000983731
     10        1           0.000769274    0.000074015    0.000046920
     11        1           0.002289405   -0.001092432    0.000525019
     12        1           0.000678408   -0.000051415    0.000041850
     13        1          -0.000535196   -0.000425214    0.000012314
     14        1           0.000532783    0.000396729    0.000210388
 -------------------------------------------------------------------
 Cartesian Forces:  Max     0.010020666 RMS     0.002479977
 Leave Link  716 at Fri Nov  4 06:08:36 2022, MaxMem=  8053063680 cpu:               0.3 elap:               0.0
 (Enter /public3/home/scg5914/software-scg5914/g16/l103.exe)

 GradGradGradGradGradGradGradGradGradGradGradGradGradGradGradGradGradGrad
 Berny optimization.
 FormGI is forming the generalized inverse of G from B-inverse, IUseBI=4.
 Internal  Forces:  Max     0.008810532 RMS     0.001445172
 Search for a local minimum.
 Step number   1 out of a maximum of   73
 All quantities printed in internal units (Hartrees-Bohrs-Radians)
 RMS Force = .14452D-02 SwitMx=.10000D-02 MixMth= 1
 Mixed Optimization -- RFO/linear search
 Second derivative matrix not updated -- first step.
 ITU=  0
     Eigenvalues ---    0.01551   0.01718   0.01968   0.02010   0.02142
     Eigenvalues ---    0.02183   0.02214   0.02275   0.02305   0.02354
     Eigenvalues ---    0.04519   0.15997   0.16000   0.16000   0.16000
     Eigenvalues ---    0.16000   0.22085   0.23446   0.24882   0.24970
     Eigenvalues ---    0.24995   0.24998   0.35651   0.35989   0.36243
     Eigenvalues ---    0.40586   0.44329   0.44906   0.45795   0.46212
     Eigenvalues ---    0.48549   0.49809   0.52374   0.55206   0.58711
     Eigenvalues ---    0.84180
 RFO step:  Lambda=-3.95867013D-04 EMin= 1.55117432D-02
 Linear search not attempted -- first point.
 Iteration  1 RMS(Cart)=  0.01157235 RMS(Int)=  0.00020788
 Iteration  2 RMS(Cart)=  0.00018377 RMS(Int)=  0.00007579
 Iteration  3 RMS(Cart)=  0.00000002 RMS(Int)=  0.00007579
 ITry= 1 IFail=0 DXMaxC= 6.48D-02 DCOld= 1.00D+10 DXMaxT= 3.00D-01 DXLimC= 3.00D+00 Rises=F
 Variable       Old X    -DE/DX   Delta X   Delta X   Delta X     New X
                                 (Linear)    (Quad)   (Total)
    R1        2.35737   0.00349   0.00000   0.00414   0.00414   2.36151
    R2        2.68702  -0.00121   0.00000  -0.00307  -0.00307   2.68395
    R3        2.75845   0.00017   0.00000   0.00047   0.00048   2.75892
    R4        2.51975   0.00881   0.00000   0.01500   0.01500   2.53475
    R5        2.63446  -0.00019   0.00000  -0.00059  -0.00059   2.63387
    R6        2.59376  -0.00047   0.00000  -0.00094  -0.00094   2.59282
    R7        2.04631  -0.00062   0.00000  -0.00174  -0.00174   2.04457
    R8        2.59296   0.00139   0.00000   0.00290   0.00290   2.59586
    R9        2.03704  -0.00046   0.00000  -0.00128  -0.00128   2.03576
   R10        2.53699   0.00102   0.00000   0.00195   0.00195   2.53894
   R11        1.91063   0.00066   0.00000   0.00144   0.00144   1.91207
   R12        2.57543   0.00086   0.00000   0.00164   0.00164   2.57707
   R13        1.90593   0.00060   0.00000   0.00131   0.00131   1.90723
   R14        1.92763   0.00058   0.00000   0.00131   0.00131   1.92894
    A1        2.24690  -0.00126   0.00000  -0.00491  -0.00492   2.24199
    A2        2.07907   0.00048   0.00000   0.00204   0.00203   2.08110
    A3        1.95709   0.00078   0.00000   0.00280   0.00280   1.95989
    A4        2.05671   0.00031   0.00000   0.00154   0.00154   2.05825
    A5        2.15954   0.00084   0.00000   0.00275   0.00275   2.16229
    A6        2.06683  -0.00115   0.00000  -0.00428  -0.00428   2.06254
    A7        2.10511  -0.00083   0.00000  -0.00407  -0.00408   2.10104
    A8        2.07807   0.00070   0.00000   0.00380   0.00380   2.08187
    A9        2.10000   0.00013   0.00000   0.00028   0.00028   2.10028
   A10        2.05334   0.00050   0.00000   0.00266   0.00266   2.05599
   A11        2.19105  -0.00076   0.00000  -0.00452  -0.00452   2.18654
   A12        2.03879   0.00026   0.00000   0.00186   0.00186   2.04065
   A13        2.15641  -0.00010   0.00000   0.00029   0.00029   2.15670
   A14        2.06256  -0.00001   0.00000  -0.00056  -0.00056   2.06200
   A15        2.06401   0.00011   0.00000   0.00019   0.00018   2.06419
   A16        2.13478  -0.00119   0.00000  -0.00444  -0.00444   2.13034
   A17        2.01622   0.00250   0.00000   0.00973   0.00972   2.02594
   A18        2.13115  -0.00131   0.00000  -0.00553  -0.00554   2.12561
   A19        2.08872  -0.00029   0.00000   0.00351   0.00324   2.09196
   A20        1.88638   0.00368   0.00000   0.02879   0.02850   1.91488
   A21        2.02695  -0.00152   0.00000  -0.00157  -0.00195   2.02501
    D1       -0.00536   0.00006   0.00000   0.00490   0.00489  -0.00048
    D2       -3.13097   0.00005   0.00000   0.00456   0.00454  -3.12643
    D3        3.11887  -0.00001   0.00000  -0.00055  -0.00055   3.11833
    D4       -0.00674  -0.00003   0.00000  -0.00089  -0.00089  -0.00763
    D5        3.13985  -0.00003   0.00000  -0.00239  -0.00240   3.13744
    D6       -0.04974  -0.00018   0.00000  -0.00816  -0.00819  -0.05792
    D7        0.01375   0.00005   0.00000   0.00255   0.00255   0.01630
    D8        3.10735  -0.00009   0.00000  -0.00322  -0.00323   3.10412
    D9        0.00164  -0.00003   0.00000  -0.00117  -0.00117   0.00047
   D10        3.13883   0.00004   0.00000   0.00135   0.00135   3.14018
   D11       -3.12388  -0.00006   0.00000  -0.00156  -0.00156  -3.12544
   D12        0.01331   0.00001   0.00000   0.00095   0.00095   0.01426
   D13       -0.00246   0.00004   0.00000   0.00160   0.00160  -0.00086
   D14       -3.14099   0.00005   0.00000   0.00217   0.00216  -3.13883
   D15       -3.13959  -0.00002   0.00000  -0.00096  -0.00095  -3.14054
   D16        0.00506  -0.00002   0.00000  -0.00038  -0.00039   0.00468
   D17        0.00989  -0.00000   0.00000   0.00014   0.00014   0.01004
   D18       -3.10947   0.00009   0.00000   0.00449   0.00448  -3.10500
   D19       -3.13449  -0.00001   0.00000  -0.00039  -0.00039  -3.13488
   D20        0.02933   0.00008   0.00000   0.00395   0.00395   0.03327
   D21       -0.01628  -0.00004   0.00000  -0.00231  -0.00231  -0.01859
   D22       -3.10675   0.00001   0.00000   0.00342   0.00339  -3.10335
   D23        3.10307  -0.00013   0.00000  -0.00666  -0.00666   3.09641
   D24        0.01261  -0.00008   0.00000  -0.00093  -0.00096   0.01165
   D25        2.53615   0.00080   0.00000   0.01739   0.01751   2.55366
   D26        0.16245  -0.00078   0.00000  -0.01724  -0.01735   0.14511
   D27       -0.65333   0.00066   0.00000   0.01167   0.01178  -0.64155
   D28       -3.02702  -0.00092   0.00000  -0.02296  -0.02308  -3.05010
         Item               Value     Threshold  Converged?
 Maximum Force            0.008811     0.000450     NO 
 RMS     Force            0.001445     0.000300     NO 
 Maximum Displacement     0.064808     0.001800     NO 
 RMS     Displacement     0.011572     0.001200     NO 
 Predicted change in Energy=-1.996682D-04
 Lowest energy point so far.  Saving SCF results.
 GradGradGradGradGradGradGradGradGradGradGradGradGradGradGradGradGradGrad

 Leave Link  103 at Fri Nov  4 06:08:36 2022, MaxMem=  8053063680 cpu:               0.8 elap:               0.0
 (Enter /public3/home/scg5914/software-scg5914/g16/l202.exe)
                          Input orientation:                          
 ---------------------------------------------------------------------
 Center     Atomic      Atomic             Coordinates (Angstroms)
 Number     Number       Type             X           Y           Z
 ---------------------------------------------------------------------
      1          8           0        0.091423    0.022100    0.160590
      2          6           0       -0.022477    1.265898    0.120106
      3          6           0       -1.210523    2.044029    0.103574
      4          9           0       -2.385412    1.397581    0.133766
      5          6           0       -1.226868    3.436257    0.039832
      6          6           0       -0.051592    4.142352   -0.012228
      7          7           0        1.123900    3.431725    0.001900
      8          6           0        1.180530    2.090320    0.052405
      9          7           0        2.368514    1.423068    0.109093
     10          1           0        3.164318    1.769136   -0.406223
     11          1           0        2.201694    0.417581    0.053373
     12          1           0       -2.176598    3.954439    0.030051
     13          1           0        0.027841    5.215613   -0.060466
     14          1           0        1.993945    3.948234   -0.003667
 ---------------------------------------------------------------------
                    Distance matrix (angstroms):
                    1          2          3          4          5
     1  O    0.000000
     2  C    1.249658   0.000000
     3  C    2.405517   1.420287   0.000000
     4  F    2.833263   2.366640   1.341331   0.000000
     5  C    3.661822   2.483437   1.393782   2.346752   0.000000
     6  C    4.126354   2.879644   2.399895   3.605801   1.372062
     7  N    3.566054   2.453358   2.717641   4.058374   2.351079
     8  C    2.339956   1.459960   2.392049   3.633517   2.758127
     9  N    2.674044   2.396177   3.632511   4.754058   4.121225
    10  H    3.579957   3.268935   4.413014   5.588304   4.718132
    11  H    2.149685   2.381393   3.780355   4.691311   4.568109
    12  H    4.541394   3.446245   2.142049   2.567466   1.081941
    13  H    5.198604   3.954160   3.408724   4.520938   2.179555
    14  H    4.365902   3.358006   3.729091   5.069860   3.261541
                    6          7          8          9         10
     6  C    0.000000
     7  N    1.373671   0.000000
     8  C    2.394397   1.343550   0.000000
     9  N    3.642271   2.365430   1.363725   0.000000
    10  H    4.016150   2.663470   2.061289   1.009265   0.000000
    11  H    4.353794   3.201461   1.959804   1.020753   1.721793
    12  H    2.133718   3.341753   3.840020   5.203089   5.787165
    13  H    1.077276   2.094634   3.332999   4.459921   4.672819
    14  H    2.054745   1.011825   2.028948   2.555284   2.506051
                   11         12         13         14
    11  H    0.000000
    12  H    5.628442   0.000000
    13  H    5.268748   2.541319   0.000000
    14  H    3.537219   4.170685   2.339881   0.000000
 Stoichiometry    C5H5FN2O
 Framework group  C1[X(C5H5FN2O)]
 Deg. of freedom    36
 Full point group                 C1      NOp   1
 RotChk:  IX=0 Diff= 4.74D-03
 Largest Abelian subgroup         C1      NOp   1
 Largest concise Abelian subgroup C1      NOp   1
                         Standard orientation:                         
 ---------------------------------------------------------------------
 Center     Atomic      Atomic             Coordinates (Angstroms)
 Number     Number       Type             X           Y           Z
 ---------------------------------------------------------------------
      1          8           0       -0.203241   -2.091318   -0.003959
      2          6           0       -0.014560   -0.856017   -0.012721
      3          6           0        1.218179   -0.150680   -0.004373
      4          9           0        2.351879   -0.867252    0.016027
      5          6           0        1.318127    1.239500    0.001977
      6          6           0        0.187284    2.016512    0.000943
      7          7           0       -1.028859    1.377844   -0.007544
      8          6           0       -1.166151    0.041334   -0.003592
      9          7           0       -2.391366   -0.555138   -0.056642
     10          1           0       -3.173622   -0.140261    0.427680
     11          1           0       -2.287086   -1.565548    0.044036
     12          1           0        2.297322    1.699626    0.009519
     13          1           0        0.172502    3.093685    0.003075
     14          1           0       -1.865804    1.945465   -0.040990
 ---------------------------------------------------------------------
 Rotational constants (GHZ):           2.4101338           1.7999858           1.0314021
 Leave Link  202 at Fri Nov  4 06:08:36 2022, MaxMem=  8053063680 cpu:               0.1 elap:               0.0
 (Enter /public3/home/scg5914/software-scg5914/g16/l301.exe)
 Standard basis: 6-311+G(d,p) (5D, 7F)
 Ernie: Thresh=  0.10000D-02 Tol=  0.10000D-05 Strict=F.
 There are   237 symmetry adapted cartesian basis functions of A   symmetry.
 There are   228 symmetry adapted basis functions of A   symmetry.
   228 basis functions,   364 primitive gaussians,   237 cartesian basis functions
    33 alpha electrons       33 beta electrons
       nuclear repulsion energy       439.9964146125 Hartrees.
 IExCor=  402 DFT=T Ex+Corr=B3LYP ExCW=0 ScaHFX=  0.200000
 ScaDFX=  0.800000  0.720000  1.000000  0.810000 ScalE2=  1.000000  1.000000
 IRadAn=      5 IRanWt=     -1 IRanGd=            0 ICorTp=0 IEmpDi=141
 NAtoms=   14 NActive=   14 NUniq=   14 SFac= 1.00D+00 NAtFMM=   60 NAOKFM=F Big=F
 Integral buffers will be    131072 words long.
 Raffenetti 2 integral format.
 Two-electron integral symmetry is turned on.
 R6Disp:  Grimme-D3(BJ) Dispersion energy=       -0.0237629967 Hartrees.
 Nuclear repulsion after empirical dispersion term =      439.9726516158 Hartrees.
 Leave Link  301 at Fri Nov  4 06:08:36 2022, MaxMem=  8053063680 cpu:               0.8 elap:               0.0
 (Enter /public3/home/scg5914/software-scg5914/g16/l302.exe)
 NPDir=0 NMtPBC=     1 NCelOv=     1 NCel=       1 NClECP=     1 NCelD=      1
         NCelK=      1 NCelE2=     1 NClLst=     1 CellRange=     0.0.
 One-electron integrals computed using PRISM.
 One-electron integral symmetry used in STVInt
 NBasis=   228 RedAO= T EigKep=  8.92D-06  NBF=   228
 NBsUse=   228 1.00D-06 EigRej= -1.00D+00 NBFU=   228
 Precomputing XC quadrature grid using
 IXCGrd= 4 IRadAn=           5 IRanWt=          -1 IRanGd=           0 AccXCQ= 0.00D+00.
 Generated NRdTot=       0 NPtTot=           0 NUsed=           0 NTot=          32
 NSgBfM=   237   237   237   237   237 MxSgAt=    14 MxSgA2=    14.
 Leave Link  302 at Fri Nov  4 06:08:36 2022, MaxMem=  8053063680 cpu:               3.6 elap:               0.1
 (Enter /public3/home/scg5914/software-scg5914/g16/l303.exe)
 DipDrv:  MaxL=1.
 Leave Link  303 at Fri Nov  4 06:08:36 2022, MaxMem=  8053063680 cpu:               0.4 elap:               0.0
 (Enter /public3/home/scg5914/software-scg5914/g16/l401.exe)
 Initial guess from the checkpoint file:  "dsgdb9nsd_132072.chk"
 B after Tr=    -0.000000    0.000000    0.000000
         Rot=    0.999998    0.000035    0.000021   -0.002166 Ang=   0.25 deg.
 Guess basis will be translated and rotated to current coordinates.
 JPrj=2 DoOrth=T DoCkMO=T.
 Generating alternative initial guess.
 ExpMin= 4.38D-02 ExpMax= 1.14D+04 ExpMxC= 1.72D+03 IAcc=3 IRadAn=         5 AccDes= 0.00D+00
 Harris functional with IExCor=  402 and IRadAn=       5 diagonalized for initial guess.
 HarFok:  IExCor=  402 AccDes= 0.00D+00 IRadAn=         5 IDoV= 1 UseB2=F ITyADJ=14
 ICtDFT=  3500011 ScaDFX=  1.000000  1.000000  1.000000  1.000000
 FoFCou: FMM=F IPFlag=           0 FMFlag=      100000 FMFlg1=           0
         NFxFlg=           0 DoJE=T BraDBF=F KetDBF=T FulRan=T
         wScrn=  0.000000 ICntrl=       500 IOpCl=  0 I1Cent=   200000004 NGrid=           0
         NMat0=    1 NMatS0=      1 NMatT0=    0 NMatD0=    1 NMtDS0=    0 NMtDT0=    0
 Petite list used in FoFCou.
 Harris En= -478.269570870495    
 Leave Link  401 at Fri Nov  4 06:08:37 2022, MaxMem=  8053063680 cpu:              14.1 elap:               0.5
 (Enter /public3/home/scg5914/software-scg5914/g16/l502.exe)
 Integral symmetry usage will be decided dynamically.
 Closed shell SCF:
 Using DIIS extrapolation, IDIIS=  1040.
 NGot=  8053063680 LenX=  8052941140 LenY=  8052884530
 Requested convergence on RMS density matrix=1.00D-08 within 128 cycles.
 Requested convergence on MAX density matrix=1.00D-06.
 Requested convergence on             energy=1.00D-06.
 No special actions if energy rises.
 Fock matrices will be formed incrementally for  20 cycles.

 Cycle   1  Pass 1  IDiag  1:
 FoFJK:  IHMeth= 1 ICntrl=       0 DoSepK=F KAlg= 0 I1Cent=           0 FoldK=F
 IRaf= 950000000 NMat=       1 IRICut=       1 DoRegI=T DoRafI=F ISym2E= 0 IDoP0=0 IntGTp=1.
 FoFCou: FMM=F IPFlag=           0 FMFlag=      100000 FMFlg1=           0
         NFxFlg=           0 DoJE=F BraDBF=F KetDBF=F FulRan=T
         wScrn=  0.000000 ICntrl=         0 IOpCl=  0 I1Cent=           0 NGrid=           0
         NMat0=    1 NMatS0=      1 NMatT0=    0 NMatD0=    1 NMtDS0=    0 NMtDT0=    0
 Symmetry not used in FoFCou.
 E= -478.256046396799    
 DIIS: error= 5.18D-04 at cycle   1 NSaved=   1.
 NSaved= 1 IEnMin= 1 EnMin= -478.256046396799     IErMin= 1 ErrMin= 5.18D-04
 ErrMax= 5.18D-04  0.00D+00 EMaxC= 1.00D-01 BMatC= 2.23D-04 BMatP= 2.23D-04
 IDIUse=3 WtCom= 9.95D-01 WtEn= 5.18D-03
 Coeff-Com:  0.100D+01
 Coeff-En:   0.100D+01
 Coeff:      0.100D+01
 Gap=     0.374 Goal=   None    Shift=    0.000
 RMSDP=1.20D-03 MaxDP=1.30D-01              OVMax= 4.14D-03

 Cycle   2  Pass 1  IDiag  1:
 RMSU=  9.60D-04    CP:  1.03D+00
 E= -478.256300273847     Delta-E=       -0.000253877048 Rises=F Damp=F
 DIIS: error= 3.45D-04 at cycle   2 NSaved=   2.
 NSaved= 2 IEnMin= 2 EnMin= -478.256300273847     IErMin= 2 ErrMin= 3.45D-04
 ErrMax= 3.45D-04  0.00D+00 EMaxC= 1.00D-01 BMatC= 2.67D-05 BMatP= 2.23D-04
 IDIUse=3 WtCom= 9.97D-01 WtEn= 3.45D-03
 Coeff-Com:  0.120D+00 0.880D+00
 Coeff-En:   0.000D+00 0.100D+01
 Coeff:      0.120D+00 0.880D+00
 Gap=     0.146 Goal=   None    Shift=    0.000
 RMSDP=3.02D-04 MaxDP=2.56D-02 DE=-2.54D-04 OVMax= 5.54D-03

 Cycle   3  Pass 1  IDiag  1:
 RMSU=  2.29D-04    CP:  1.02D+00  8.87D-01
 E= -478.256253745828     Delta-E=        0.000046528019 Rises=F Damp=F
 DIIS: error= 7.16D-04 at cycle   3 NSaved=   3.
 NSaved= 3 IEnMin= 2 EnMin= -478.256300273847     IErMin= 2 ErrMin= 3.45D-04
 ErrMax= 7.16D-04  0.00D+00 EMaxC= 1.00D-01 BMatC= 8.44D-05 BMatP= 2.67D-05
 IDIUse=3 WtCom= 2.72D-01 WtEn= 7.28D-01
 Coeff-Com: -0.169D-01 0.654D+00 0.363D+00
 Coeff-En:   0.000D+00 0.716D+00 0.284D+00
 Coeff:     -0.459D-02 0.699D+00 0.306D+00
 Gap=     0.145 Goal=   None    Shift=    0.000
 RMSDP=1.99D-04 MaxDP=1.68D-02 DE= 4.65D-05 OVMax= 3.79D-03

 Cycle   4  Pass 1  IDiag  1:
 RMSU=  2.88D-05    CP:  1.03D+00  9.87D-01  5.10D-01
 E= -478.256319755834     Delta-E=       -0.000066010006 Rises=F Damp=F
 DIIS: error= 6.19D-05 at cycle   4 NSaved=   4.
 NSaved= 4 IEnMin= 4 EnMin= -478.256319755834     IErMin= 4 ErrMin= 6.19D-05
 ErrMax= 6.19D-05  0.00D+00 EMaxC= 1.00D-01 BMatC= 1.98D-06 BMatP= 2.67D-05
 IDIUse=1 WtCom= 1.00D+00 WtEn= 0.00D+00
 Coeff-Com: -0.173D-01 0.314D+00 0.108D+00 0.595D+00
 Coeff:     -0.173D-01 0.314D+00 0.108D+00 0.595D+00
 Gap=     0.145 Goal=   None    Shift=    0.000
 RMSDP=2.38D-05 MaxDP=2.04D-03 DE=-6.60D-05 OVMax= 4.15D-04

 Cycle   5  Pass 1  IDiag  1:
 RMSU=  7.97D-06    CP:  1.03D+00  1.00D+00  4.46D-01  9.24D-01
 E= -478.256320933009     Delta-E=       -0.000001177175 Rises=F Damp=F
 DIIS: error= 3.66D-05 at cycle   5 NSaved=   5.
 NSaved= 5 IEnMin= 5 EnMin= -478.256320933009     IErMin= 5 ErrMin= 3.66D-05
 ErrMax= 3.66D-05  0.00D+00 EMaxC= 1.00D-01 BMatC= 2.95D-07 BMatP= 1.98D-06
 IDIUse=1 WtCom= 1.00D+00 WtEn= 0.00D+00
 Coeff-Com: -0.808D-02 0.116D+00 0.216D-01 0.382D+00 0.488D+00
 Coeff:     -0.808D-02 0.116D+00 0.216D-01 0.382D+00 0.488D+00
 Gap=     0.145 Goal=   None    Shift=    0.000
 RMSDP=5.43D-06 MaxDP=3.05D-04 DE=-1.18D-06 OVMax= 3.18D-04

 Cycle   6  Pass 1  IDiag  1:
 RMSU=  4.13D-06    CP:  1.03D+00  9.99D-01  4.37D-01  8.65D-01  8.07D-01
 E= -478.256321191590     Delta-E=       -0.000000258581 Rises=F Damp=F
 DIIS: error= 1.13D-05 at cycle   6 NSaved=   6.
 NSaved= 6 IEnMin= 6 EnMin= -478.256321191590     IErMin= 6 ErrMin= 1.13D-05
 ErrMax= 1.13D-05  0.00D+00 EMaxC= 1.00D-01 BMatC= 1.69D-08 BMatP= 2.95D-07
 IDIUse=1 WtCom= 1.00D+00 WtEn= 0.00D+00
 Coeff-Com: -0.250D-02 0.312D-01 0.549D-03 0.147D+00 0.263D+00 0.561D+00
 Coeff:     -0.250D-02 0.312D-01 0.549D-03 0.147D+00 0.263D+00 0.561D+00
 Gap=     0.145 Goal=   None    Shift=    0.000
 RMSDP=1.83D-06 MaxDP=7.72D-05 DE=-2.59D-07 OVMax= 7.68D-05

 Cycle   7  Pass 1  IDiag  1:
 RMSU=  1.38D-06    CP:  1.03D+00  9.99D-01  4.41D-01  8.94D-01  7.95D-01
                    CP:  9.51D-01
 E= -478.256321205635     Delta-E=       -0.000000014045 Rises=F Damp=F
 DIIS: error= 4.30D-06 at cycle   7 NSaved=   7.
 NSaved= 7 IEnMin= 7 EnMin= -478.256321205635     IErMin= 7 ErrMin= 4.30D-06
 ErrMax= 4.30D-06  0.00D+00 EMaxC= 1.00D-01 BMatC= 2.69D-09 BMatP= 1.69D-08
 IDIUse=1 WtCom= 1.00D+00 WtEn= 0.00D+00
 Coeff-Com: -0.310D-03 0.897D-03-0.299D-02 0.279D-01 0.832D-01 0.328D+00
 Coeff-Com:  0.563D+00
 Coeff:     -0.310D-03 0.897D-03-0.299D-02 0.279D-01 0.832D-01 0.328D+00
 Coeff:      0.563D+00
 Gap=     0.145 Goal=   None    Shift=    0.000
 RMSDP=4.63D-07 MaxDP=1.58D-05 DE=-1.40D-08 OVMax= 3.46D-05

 Cycle   8  Pass 1  IDiag  1:
 RMSU=  3.16D-07    CP:  1.03D+00  9.99D-01  4.42D-01  8.99D-01  8.01D-01
                    CP:  9.86D-01  8.55D-01
 E= -478.256321207946     Delta-E=       -0.000000002311 Rises=F Damp=F
 DIIS: error= 1.31D-06 at cycle   8 NSaved=   8.
 NSaved= 8 IEnMin= 8 EnMin= -478.256321207946     IErMin= 8 ErrMin= 1.31D-06
 ErrMax= 1.31D-06  0.00D+00 EMaxC= 1.00D-01 BMatC= 3.56D-10 BMatP= 2.69D-09
 IDIUse=1 WtCom= 1.00D+00 WtEn= 0.00D+00
 Coeff-Com:  0.811D-04-0.304D-02-0.174D-02-0.551D-03 0.225D-01 0.136D+00
 Coeff-Com:  0.339D+00 0.508D+00
 Coeff:      0.811D-04-0.304D-02-0.174D-02-0.551D-03 0.225D-01 0.136D+00
 Coeff:      0.339D+00 0.508D+00
 Gap=     0.145 Goal=   None    Shift=    0.000
 RMSDP=2.43D-07 MaxDP=1.59D-05 DE=-2.31D-09 OVMax= 9.65D-06

 Cycle   9  Pass 1  IDiag  1:
 RMSU=  1.37D-07    CP:  1.03D+00  9.99D-01  4.41D-01  9.00D-01  8.11D-01
                    CP:  9.73D-01  8.47D-01  8.36D-01
 E= -478.256321208291     Delta-E=       -0.000000000345 Rises=F Damp=F
 DIIS: error= 2.71D-07 at cycle   9 NSaved=   9.
 NSaved= 9 IEnMin= 9 EnMin= -478.256321208291     IErMin= 9 ErrMin= 2.71D-07
 ErrMax= 2.71D-07  0.00D+00 EMaxC= 1.00D-01 BMatC= 1.51D-11 BMatP= 3.56D-10
 IDIUse=1 WtCom= 1.00D+00 WtEn= 0.00D+00
 Coeff-Com:  0.653D-04-0.171D-02-0.737D-03-0.218D-02 0.736D-02 0.506D-01
 Coeff-Com:  0.141D+00 0.249D+00 0.557D+00
 Coeff:      0.653D-04-0.171D-02-0.737D-03-0.218D-02 0.736D-02 0.506D-01
 Coeff:      0.141D+00 0.249D+00 0.557D+00
 Gap=     0.145 Goal=   None    Shift=    0.000
 RMSDP=4.10D-08 MaxDP=2.30D-06 DE=-3.45D-10 OVMax= 1.94D-06

 Cycle  10  Pass 1  IDiag  1:
 RMSU=  2.98D-08    CP:  1.03D+00  9.99D-01  4.41D-01  9.00D-01  8.12D-01
                    CP:  9.77D-01  8.52D-01  8.62D-01  1.02D+00
 E= -478.256321208305     Delta-E=       -0.000000000014 Rises=F Damp=F
 DIIS: error= 1.54D-07 at cycle  10 NSaved=  10.
 NSaved=10 IEnMin=10 EnMin= -478.256321208305     IErMin=10 ErrMin= 1.54D-07
 ErrMax= 1.54D-07  0.00D+00 EMaxC= 1.00D-01 BMatC= 3.09D-12 BMatP= 1.51D-11
 IDIUse=1 WtCom= 1.00D+00 WtEn= 0.00D+00
 Coeff-Com:  0.223D-04-0.479D-03-0.114D-03-0.134D-02 0.707D-03 0.703D-02
 Coeff-Com:  0.286D-01 0.619D-01 0.331D+00 0.573D+00
 Coeff:      0.223D-04-0.479D-03-0.114D-03-0.134D-02 0.707D-03 0.703D-02
 Coeff:      0.286D-01 0.619D-01 0.331D+00 0.573D+00
 Gap=     0.145 Goal=   None    Shift=    0.000
 RMSDP=2.50D-08 MaxDP=1.21D-06 DE=-1.36D-11 OVMax= 8.83D-07

 Cycle  11  Pass 1  IDiag  1:
 RMSU=  1.74D-08    CP:  1.03D+00  9.99D-01  4.42D-01  9.00D-01  8.13D-01
                    CP:  9.77D-01  8.51D-01  8.58D-01  1.10D+00  9.83D-01
 E= -478.256321208306     Delta-E=       -0.000000000001 Rises=F Damp=F
 DIIS: error= 5.03D-08 at cycle  11 NSaved=  11.
 NSaved=11 IEnMin=11 EnMin= -478.256321208306     IErMin=11 ErrMin= 5.03D-08
 ErrMax= 5.03D-08  0.00D+00 EMaxC= 1.00D-01 BMatC= 3.00D-13 BMatP= 3.09D-12
 IDIUse=1 WtCom= 1.00D+00 WtEn= 0.00D+00
 Coeff-Com:  0.438D-05-0.570D-04 0.220D-04-0.378D-03-0.175D-03-0.150D-02
 Coeff-Com:  0.452D-03 0.287D-02 0.982D-01 0.299D+00 0.601D+00
 Coeff:      0.438D-05-0.570D-04 0.220D-04-0.378D-03-0.175D-03-0.150D-02
 Coeff:      0.452D-03 0.287D-02 0.982D-01 0.299D+00 0.601D+00
 Gap=     0.145 Goal=   None    Shift=    0.000
 RMSDP=9.96D-09 MaxDP=5.08D-07 DE=-7.96D-13 OVMax= 4.03D-07

 SCF Done:  E(RB3LYP) =  -478.256321208     A.U. after   11 cycles
            NFock= 11  Conv=0.10D-07     -V/T= 2.0036
 KE= 4.765260147979D+02 PE=-2.001614149415D+03 EE= 6.068591617933D+02
 Leave Link  502 at Fri Nov  4 06:08:43 2022, MaxMem=  8053063680 cpu:             205.1 elap:               6.4
 (Enter /public3/home/scg5914/software-scg5914/g16/l701.exe)
 ... and contract with generalized density number  0.
 Compute integral first derivatives.
 R6Disp: Adding Grimme-D3(BJ) dispersion energy 1st derivatives to the gradient.
 Leave Link  701 at Fri Nov  4 06:08:44 2022, MaxMem=  8053063680 cpu:               2.8 elap:               0.1
 (Enter /public3/home/scg5914/software-scg5914/g16/l702.exe)
 L702 exits ... SP integral derivatives will be done elsewhere.
 Leave Link  702 at Fri Nov  4 06:08:44 2022, MaxMem=  8053063680 cpu:               0.3 elap:               0.0
 (Enter /public3/home/scg5914/software-scg5914/g16/l703.exe)
 Integral derivatives from FoFJK, PRISM(SPDF).
 Compute integral first derivatives, UseDBF=F ICtDFT=           0.
 Calling FoFJK, ICntrl=      2127 FMM=F ISym2X=0 I1Cent= 0 IOpClX= 0 NMat=1 NMatS=1 NMatT=0.
 FoFJK:  IHMeth= 1 ICntrl=    2127 DoSepK=F KAlg= 0 I1Cent=           0 FoldK=F
 IRaf=         0 NMat=       1 IRICut=       1 DoRegI=T DoRafI=F ISym2E= 0 IDoP0=0 IntGTp=1.
 FoFCou: FMM=F IPFlag=           0 FMFlag=      100000 FMFlg1=         800
         NFxFlg=           0 DoJE=F BraDBF=F KetDBF=F FulRan=T
         wScrn=  0.000000 ICntrl=      2127 IOpCl=  0 I1Cent=           0 NGrid=           0
         NMat0=    1 NMatS0=      1 NMatT0=    0 NMatD0=    1 NMtDS0=    0 NMtDT0=    0
 Symmetry not used in FoFCou.
 Leave Link  703 at Fri Nov  4 06:08:45 2022, MaxMem=  8053063680 cpu:              42.2 elap:               1.3
 (Enter /public3/home/scg5914/software-scg5914/g16/l716.exe)
 Dipole        =-1.66710998D+00 2.62973979D+00 3.23829584D-01
 ***** Axes restored to original set *****
 -------------------------------------------------------------------
 Center     Atomic                   Forces (Hartrees/Bohr)
 Number     Number              X              Y              Z
 -------------------------------------------------------------------
      1        8           0.000052990   -0.000620557    0.000470975
      2        6          -0.000125497    0.000724063   -0.000596944
      3        6           0.003855151    0.001655186   -0.000020736
      4        9          -0.002374481   -0.001272135    0.000057396
      5        6          -0.000967404   -0.000203909    0.000082569
      6        6           0.000230622   -0.000092357   -0.000050384
      7        7           0.000344634    0.000274859   -0.000077624
      8        6           0.000497895   -0.001865742    0.000629260
      9        7          -0.001852476   -0.000331046   -0.001004209
     10        1          -0.000021909   -0.000035541    0.000471493
     11        1           0.000305338    0.001581377   -0.000017375
     12        1           0.000144509    0.000068899   -0.000015153
     13        1          -0.000011436    0.000036294   -0.000071159
     14        1          -0.000077936    0.000080608    0.000141890
 -------------------------------------------------------------------
 Cartesian Forces:  Max     0.003855151 RMS     0.000965783
 Leave Link  716 at Fri Nov  4 06:08:45 2022, MaxMem=  8053063680 cpu:               0.2 elap:               0.0
 (Enter /public3/home/scg5914/software-scg5914/g16/l103.exe)

 GradGradGradGradGradGradGradGradGradGradGradGradGradGradGradGradGradGrad
 Berny optimization.
 Using GEDIIS/GDIIS optimizer.
 FormGI is forming the generalized inverse of G from B-inverse, IUseBI=4.
 Internal  Forces:  Max     0.002694222 RMS     0.000527493
 Search for a local minimum.
 Step number   2 out of a maximum of   73
 All quantities printed in internal units (Hartrees-Bohrs-Radians)
 RMS Force = .52749D-03 SwitMx=.10000D-02 MixMth= 2
 Mixed Optimization -- En-DIIS/RFO-DIIS
 Update second derivatives using D2CorX and points    1    2
 DE= -2.21D-04 DEPred=-2.00D-04 R= 1.11D+00
 TightC=F SS=  1.41D+00  RLast= 5.39D-02 DXNew= 5.0454D-01 1.6164D-01
 Trust test= 1.11D+00 RLast= 5.39D-02 DXMaxT set to 3.00D-01
 ITU=  1  0
 Use linear search instead of GDIIS.
     Eigenvalues ---    0.01581   0.01719   0.01970   0.02013   0.02139
     Eigenvalues ---    0.02196   0.02212   0.02277   0.02301   0.02353
     Eigenvalues ---    0.04168   0.15515   0.15996   0.16000   0.16000
     Eigenvalues ---    0.16353   0.21790   0.22832   0.24232   0.24985
     Eigenvalues ---    0.24996   0.25831   0.35572   0.36100   0.36327
     Eigenvalues ---    0.39792   0.44545   0.44989   0.45859   0.46394
     Eigenvalues ---    0.48573   0.49063   0.50408   0.55195   0.57297
     Eigenvalues ---    0.83794
 RFO step:  Lambda=-7.17802594D-05 EMin= 1.58121180D-02
 Quartic linear search produced a step of  0.15586.
 Iteration  1 RMS(Cart)=  0.00583817 RMS(Int)=  0.00004426
 Iteration  2 RMS(Cart)=  0.00003877 RMS(Int)=  0.00002383
 Iteration  3 RMS(Cart)=  0.00000000 RMS(Int)=  0.00002383
 ITry= 1 IFail=0 DXMaxC= 2.32D-02 DCOld= 1.00D+10 DXMaxT= 3.00D-01 DXLimC= 3.00D+00 Rises=F
 Variable       Old X    -DE/DX   Delta X   Delta X   Delta X     New X
                                 (Linear)    (Quad)   (Total)
    R1        2.36151   0.00064   0.00065   0.00098   0.00163   2.36314
    R2        2.68395  -0.00056  -0.00048  -0.00171  -0.00218   2.68177
    R3        2.75892  -0.00075   0.00007  -0.00240  -0.00232   2.75660
    R4        2.53475   0.00269   0.00234   0.00570   0.00804   2.54279
    R5        2.63387  -0.00020  -0.00009  -0.00052  -0.00061   2.63325
    R6        2.59282   0.00007  -0.00015   0.00021   0.00005   2.59288
    R7        2.04457  -0.00009  -0.00027  -0.00035  -0.00062   2.04395
    R8        2.59586  -0.00007   0.00045  -0.00001   0.00044   2.59630
    R9        2.03576   0.00004  -0.00020   0.00009  -0.00011   2.03565
[...]
 224. BD*(   2) N   7 - C   8        /213. BD*(   2) O   1 - C   2           87.30    0.08    0.099
 224. BD*(   2) N   7 - C   8        /219. BD*(   2) C   5 - C   6           34.67    0.07    0.062
 224. BD*(   2) N   7 - C   8        /227. BD*(   1) N   9 - H  10            1.28    0.45    0.039


 Natural Bond Orbitals (Summary):

                                                            Principal Delocalizations
           NBO                        Occupancy    Energy   (geminal,vicinal,remote)
 ====================================================================================
 Molecular unit  1  (C5H5FN2O)
     1. BD (   1) O   1 - C   2          1.99129    -0.98477  214(g),223(v),215(g),51(g)
                                                    217(v),68(v)
     2. BD (   2) O   1 - C   2          1.98200    -0.33455  29(v),224(v),213(g)
     3. BD (   1) C   2 - C   3          1.97999    -0.70695  217(g),212(g),226(v),220(v)
                                                    102(v),155(v),215(g),35(v)
     4. BD (   1) C   2 - C   8          1.96553    -0.68710  216(v),225(v),227(v),223(g)
                                                    226(g),212(g),69(v),214(g)
                                                    35(v),171(v),136(v),68(v)
                                                    73(v)
     5. BD (   1) C   3 - F   4          1.99550    -1.01575  218(v),215(v),68(g)
     6. BD (   1) C   3 - C   5          1.98096    -0.72986  212(v),222(v),218(g),214(g)
                                                    121(v),54(v),220(g),53(v)
                                                    85(v)
     7. BD (   1) C   5 - C   6          1.97588    -0.74848  216(v),225(v),217(g),222(g)
                                                    220(g),69(v),71(v),221(g)
                                                    137(v),68(v)
     8. BD (   2) C   5 - C   6          1.79595    -0.29271  29(v),224(v),72(v),138(v)
     9. BD (   1) C   5 - H  12          1.97316    -0.54264  221(v),214(v),119(v),216(v)
                                                    68(v),218(g),217(g),87(r)
    10. BD (   1) C   6 - N   7          1.98554    -0.86006  226(v),223(g),220(v),103(v)
                                                    155(v),218(g),153(v),225(g)
    11. BD (   1) C   6 - H  13          1.98144    -0.57035  223(v),217(v),218(g),102(v)
                                                    136(v)
    12. BD (   1) N   7 - C   8          1.98790    -0.90429  221(g),119(v),121(v),222(v)
                                                    228(v),215(g),212(v),226(g)
                                                    225(g)
    13. BD (   2) N   7 - C   8          1.89681    -0.39496  219(v),213(v),120(v),170(v)
                                                    208(v)
    14. BD (   1) N   7 - H  14          1.98533    -0.71717  215(v),218(v),153(v),119(v)
                                                    226(v),222(v)
    15. BD (   1) C   8 - N   9          1.98973    -0.86760  221(v),215(g),223(g),51(v)
                                                    214(v),136(v)
    16. BD (   1) N   9 - H  10          1.98419    -0.69277  215(v),224(v),157(v),155(v)
    17. BD (   1) N   9 - H  11          1.98346    -0.66429  223(v),153(v),155(v)
    18. CR (   1) O   1                  1.99979   -18.81346  51(v),214(v),215(v)
    19. CR (   1) C   2                  1.99897   -10.10837  69(v),217(v),155(v),223(v)
                                                    71(v),153(v)
    20. CR (   1) C   3                  1.99856   -10.13952  216(g),103(v),217(g),212(v)
                                                    53(v),55(v),214(g),218(v)
    21. CR (   1) F   4                  1.99992   -24.42206  68(v)
    22. CR (   1) C   5                  1.99910   -10.05329  69(v),121(v),214(v),119(v)
                                                    222(v)
    23. CR (   1) C   6                  1.99924   -10.09983  223(v),102(v),218(g),217(v)
                                                    103(v),105(v)
    24. CR (   1) N   7                  1.99928   -14.23796  155(v),121(v),209(v),153(v)
    25. CR (   1) C   8                  1.99922   -10.15349  221(v),53(v),172(v),137(v)
    26. CR (   1) N   9                  1.99939   -14.18278  153(v),157(v),192(v),223(v)
    27. LP (   1) O   1                  1.98118    -0.67047  51(v),214(v),215(v)
    28. LP (   2) O   1                  1.87069    -0.22858  215(v),214(v),228(r),53(v)
                                                    54(v),223(r)
    29. LP (   1) C   3                  1.05188    -0.13921  213(v),219(v),106(v),86(v)
                                                    72(g),52(v),59(v)
    30. LP (   1) F   4                  1.99056    -1.02986  68(v),217(v),214(v)
    31. LP (   2) F   4                  1.96958    -0.41024  214(v),217(v),73(v)
    32. LP (   3) F   4                  1.92031    -0.41030  29(v),70(v)
    33. LP (   1) N   9                  1.77819    -0.31646  224(v),156(v),193(v),187(v)
                                                    215(v)
    34. RY*(   1) O   1                  0.00391     0.59925   
    35. RY*(   2) O   1                  0.00269     0.75145   
    36. RY*(   3) O   1                  0.00067     1.21639   
    37. RY*(   4) O   1                  0.00016     0.82126   
    38. RY*(   5) O   1                  0.00008     0.98709   
    39. RY*(   6) O   1                  0.00008     2.32133   
    40. RY*(   7) O   1                  0.00003     1.01571   
    41. RY*(   8) O   1                  0.00001     1.59126   
    42. RY*(   9) O   1                  0.00001     5.04214   
    43. RY*(  10) O   1                  0.00000    49.78361   
    44. RY*(  11) O   1                  0.00000     5.07601   
    45. RY*(  12) O   1                  0.00000     5.04038   
    46. RY*(  13) O   1                  0.00000     3.27071   
    47. RY*(  14) O   1                  0.00001     2.84189   
    48. RY*(  15) O   1                  0.00000     3.07534   
    49. RY*(  16) O   1                  0.00001     2.19075   
    50. RY*(  17) O   1                  0.00000     3.09169   
    51. RY*(   1) C   2                  0.01263     1.10963   
    52. RY*(   2) C   2                  0.00802     1.65068   
    53. RY*(   3) C   2                  0.00712     1.53420   
    54. RY*(   4) C   2                  0.00197     2.60132   
    55. RY*(   5) C   2                  0.00088     1.35043   
    56. RY*(   6) C   2                  0.00037     1.05168   
    57. RY*(   7) C   2                  0.00024     1.59143   
    58. RY*(   8) C   2                  0.00014     0.77545   
    59. RY*(   9) C   2                  0.00015     1.27178   
    60. RY*(  10) C   2                  0.00008     1.29254   
    61. RY*(  11) C   2                  0.00004     8.19844   
    62. RY*(  12) C   2                  0.00004     1.96241   
    63. RY*(  13) C   2                  0.00004     1.40620   
    64. RY*(  14) C   2                  0.00000     0.47186   
    65. RY*(  15) C   2                  0.00001     2.40331   
    66. RY*(  16) C   2                  0.00000    16.18264   
    67. RY*(  17) C   2                  0.00000     2.60377   
    68. RY*(   1) C   3                  0.00814     1.25672   
    69. RY*(   2) C   3                  0.00387     1.48420   
    70. RY*(   3) C   3                  0.00247     1.47056   
    71. RY*(   4) C   3                  0.00224     1.51199   
    72. RY*(   5) C   3                  0.00207     0.66531   
    73. RY*(   6) C   3                  0.00176     1.75716   
    74. RY*(   7) C   3                  0.00053     1.86031   
    75. RY*(   8) C   3                  0.00039     1.54147   
    76. RY*(   9) C   3                  0.00013     1.56974   
    77. RY*(  10) C   3                  0.00009     3.41855   
    78. RY*(  11) C   3                  0.00005     2.57359   
    79. RY*(  12) C   3                  0.00002     3.41045   
    80. RY*(  13) C   3                  0.00002     2.47570   
    81. RY*(  14) C   3                  0.00001    18.28354   
    82. RY*(  15) C   3                  0.00002     0.41383   
    83. RY*(  16) C   3                  0.00001     0.95544   
    84. RY*(  17) C   3                  0.00000     2.70213   
    85. RY*(   1) F   4                  0.00302     0.58322   
    86. RY*(   2) F   4                  0.00280     0.61950   
    87. RY*(   3) F   4                  0.00123     1.18917   
    88. RY*(   4) F   4                  0.00039     0.51349   
    89. RY*(   5) F   4                  0.00005     3.45416   
    90. RY*(   6) F   4                  0.00002     4.04605   
    91. RY*(   7) F   4                  0.00001     3.60773   
    92. RY*(   8) F   4                  0.00001     1.49811   
    93. RY*(   9) F   4                  0.00000     5.86051   
    94. RY*(  10) F   4                  0.00001     1.39132   
    95. RY*(  11) F   4                  0.00001     1.12229   
    96. RY*(  12) F   4                  0.00000     6.26478   
    97. RY*(  13) F   4                  0.00000     5.65778   
    98. RY*(  14) F   4                  0.00000     3.82698   
    99. RY*(  15) F   4                  0.00000     3.79692   
   100. RY*(  16) F   4                  0.00000    66.54291   
   101. RY*(  17) F   4                  0.00000     3.86410   
   102. RY*(   1) C   5                  0.00445     1.21313   
   103. RY*(   2) C   5                  0.00229     1.05401   
   104. RY*(   3) C   5                  0.00115     1.29414   
   105. RY*(   4) C   5                  0.00084     0.86764   
   106. RY*(   5) C   5                  0.00044     0.85335   
   107. RY*(   6) C   5                  0.00024     2.62191   
   108. RY*(   7) C   5                  0.00018     1.66978   
   109. RY*(   8) C   5                  0.00008     1.16835   
   110. RY*(   9) C   5                  0.00009     1.11608   
   111. RY*(  10) C   5                  0.00005     1.30099   
   112. RY*(  11) C   5                  0.00003     3.40525   
   113. RY*(  12) C   5                  0.00000     2.74434   
   114. RY*(  13) C   5                  0.00001     2.23572   
   115. RY*(  14) C   5                  0.00000    20.67565   
   116. RY*(  15) C   5                  0.00001     2.46183   
   117. RY*(  16) C   5                  0.00000     0.74649   
   118. RY*(  17) C   5                  0.00001     2.06945   
   119. RY*(   1) C   6                  0.00478     1.13569   
   120. RY*(   2) C   6                  0.00305     0.55739   
   121. RY*(   3) C   6                  0.00242     1.29625   
   122. RY*(   4) C   6                  0.00097     1.49837   
   123. RY*(   5) C   6                  0.00041     1.38464   
   124. RY*(   6) C   6                  0.00037     1.32781   
   125. RY*(   7) C   6                  0.00012     2.88324   
   126. RY*(   8) C   6                  0.00009     0.58762   
   127. RY*(   9) C   6                  0.00006     2.43811   
   128. RY*(  10) C   6                  0.00004     1.19068   
   129. RY*(  11) C   6                  0.00003     1.67081   
   130. RY*(  12) C   6                  0.00002     1.33535   
   131. RY*(  13) C   6                  0.00000     2.00746   
   132. RY*(  14) C   6                  0.00000    20.84790   
   133. RY*(  15) C   6                  0.00001     1.31639   
   134. RY*(  16) C   6                  0.00001     2.09000   
   135. RY*(  17) C   6                  0.00000     2.67195   
   136. RY*(   1) N   7                  0.00376     1.22741   
   137. RY*(   2) N   7                  0.00162     1.20314   
   138. RY*(   3) N   7                  0.00138     0.99911   
   139. RY*(   4) N   7                  0.00085     1.94541   
   140. RY*(   5) N   7                  0.00035     1.17448   
   141. RY*(   6) N   7                  0.00027     1.51059   
   142. RY*(   7) N   7                  0.00016     1.16658   
   143. RY*(   8) N   7                  0.00010     1.83645   
   144. RY*(   9) N   7                  0.00007     2.28132   
   145. RY*(  10) N   7                  0.00002     2.24188   
   146. RY*(  11) N   7                  0.00001     4.19649   
   147. RY*(  12) N   7                  0.00001     2.55248   
   148. RY*(  13) N   7                  0.00001     1.90559   
   149. RY*(  14) N   7                  0.00001     3.08369   
   150. RY*(  15) N   7                  0.00000     3.73638   
   151. RY*(  16) N   7                  0.00001     1.32429   
   152. RY*(  17) N   7                  0.00000    34.77249   
   153. RY*(   1) C   8                  0.00596     1.34333   
   154. RY*(   2) C   8                  0.00452     0.83598   
   155. RY*(   3) C   8                  0.00403     1.29120   
   156. RY*(   4) C   8                  0.00290     1.56617   
   157. RY*(   5) C   8                  0.00169     0.91209   
   158. RY*(   6) C   8                  0.00063     1.57403   
   159. RY*(   7) C   8                  0.00046     1.41263   
   160. RY*(   8) C   8                  0.00028     2.10215   
   161. RY*(   9) C   8                  0.00019     1.86362   
   162. RY*(  10) C   8                  0.00012     2.08799   
   163. RY*(  11) C   8                  0.00010     1.25315   
   164. RY*(  12) C   8                  0.00005     8.79509   
   165. RY*(  13) C   8                  0.00006     0.31670   
   166. RY*(  14) C   8                  0.00003     2.32431   
   167. RY*(  15) C   8                  0.00000     2.64754   
   168. RY*(  16) C   8                  0.00001     3.04244   
   169. RY*(  17) C   8                  0.00001    12.98148   
   170. RY*(   1) N   9                  0.00599     0.43179   
   171. RY*(   2) N   9                  0.00249     0.70279   
   172. RY*(   3) N   9                  0.00079     0.91525   
   173. RY*(   4) N   9                  0.00027     1.15413   
   174. RY*(   5) N   9                  0.00011     1.02348   
   175. RY*(   6) N   9                  0.00009     1.18154   
   176. RY*(   7) N   9                  0.00004     0.98917   
   177. RY*(   8) N   9                  0.00005     3.12633   
   178. RY*(   9) N   9                  0.00002     2.41064   
   179. RY*(  10) N   9                  0.00001     3.49170   
   180. RY*(  11) N   9                  0.00001     0.80903   
   181. RY*(  12) N   9                  0.00000     3.82616   
   182. RY*(  13) N   9                  0.00001     1.94034   
   183. RY*(  14) N   9                  0.00000     2.19260   
   184. RY*(  15) N   9                  0.00000     4.17920   
   185. RY*(  16) N   9                  0.00000    34.97982   
   186. RY*(  17) N   9                  0.00001     2.43573   
   187. RY*(   1) H  10                  0.00086     1.88187   
   188. RY*(   2) H  10                  0.00072     0.97327   
   189. RY*(   3) H  10                  0.00021     1.76548   
   190. RY*(   4) H  10                  0.00016     1.82964   
   191. RY*(   5) H  10                  0.00003     2.29692   
   192. RY*(   1) H  11                  0.00251     0.97067   
   193. RY*(   2) H  11                  0.00062     1.88595   
   194. RY*(   3) H  11                  0.00021     1.82795   
   195. RY*(   4) H  11                  0.00018     1.94187   
   196. RY*(   5) H  11                  0.00003     2.34129   
   197. RY*(   1) H  12                  0.00086     0.83295   
   198. RY*(   2) H  12                  0.00023     2.09187   
   199. RY*(   3) H  12                  0.00016     1.58903   
   200. RY*(   4) H  12                  0.00008     1.99709   
   201. RY*(   5) H  12                  0.00003     2.39543   
   202. RY*(   1) H  13                  0.00045     0.77536   
   203. RY*(   2) H  13                  0.00039     1.55421   
   204. RY*(   3) H  13                  0.00022     2.17281   
   205. RY*(   4) H  13                  0.00005     1.80952   
   206. RY*(   5) H  13                  0.00003     2.51435   
   207. RY*(   1) H  14                  0.00259     0.40227   
   208. RY*(   2) H  14                  0.00053     1.54609   
   209. RY*(   3) H  14                  0.00045     2.16680   
   210. RY*(   4) H  14                  0.00018     1.95936   
   211. RY*(   5) H  14                  0.00004     2.52726   
   212. BD*(   1) O   1 - C   2          0.00953     0.57633   
   213. BD*(   2) O   1 - C   2          0.55180     0.01332  224(v),29(v),52(g),34(g)
                                                    219(r),48(g),56(g),40(g)
   214. BD*(   1) C   2 - C   3          0.06476     0.51476   
   215. BD*(   1) C   2 - C   8          0.07161     0.44670   
   216. BD*(   1) C   3 - F   4          0.02496     0.27567   
   217. BD*(   1) C   3 - C   5          0.02347     0.54423   
   218. BD*(   1) C   5 - C   6          0.01175     0.57254   
   219. BD*(   2) C   5 - C   6          0.36972    -0.00031  29(v),224(v),120(g),104(g)
                                                    122(g),106(g),213(r)
   220. BD*(   1) C   5 - H  12          0.01077     0.41461   
   221. BD*(   1) C   6 - N   7          0.01669     0.42107   
   222. BD*(   1) C   6 - H  13          0.01071     0.39279   
   223. BD*(   1) N   7 - C   8          0.02840     0.45860   
   224. BD*(   2) N   7 - C   8          0.61050    -0.06774  213(v),219(v),154(g),170(v)
                                                    139(g),227(v)
   225. BD*(   1) N   7 - H  14          0.02013     0.33365   
   226. BD*(   1) C   8 - N   9          0.01343     0.44678   
   227. BD*(   1) N   9 - H  10          0.01007     0.38338   
   228. BD*(   1) N   9 - H  11          0.01879     0.39739   
       -------------------------------
              Total Lewis   63.99049  ( 96.9553%)
        Valence non-Lewis    1.86708  (  2.8289%)
        Rydberg non-Lewis    0.14243  (  0.2158%)
       -------------------------------
            Total unit  1   66.00000  (100.0000%)
           Charge unit  1    0.00000
 Leave Link  607 at Fri Nov  4 06:10:26 2022, MaxMem=  8053063680 cpu:              49.3 elap:               1.6
 (Enter /public3/home/scg5914/software-scg5914/g16/l9999.exe)
 Unable to Open any file for archive entry.
 1\1\GINC-E0503\SP\RB3LYP\Gen\C5H5F1N2O1\SCG5914\04-Nov-2022\0\\#p b3ly
 p/chkbas pop=nbo geom=allcheck guess=tcheck em=gd3bj\\dsgdb9nsd_132072
 \\0,1\O,0,0.0887591323,0.019777481,0.1635961027\C,0,-0.0255234958,1.26
 40621945,0.1180047519\C,0,-1.2090900455,2.0450507004,0.1055867729\F,0,
 -2.3892361609,1.3990899677,0.1428811013\C,0,-1.2273075827,3.4374759085
 ,0.0413814694\C,0,-0.0516832538,4.1417739881,-0.0142673584\N,0,1.12390
 81339,3.4291475279,-0.0039751069\C,0,1.1782101909,2.0869516743,0.04779
 45064\N,0,2.3594902161,1.4183105489,0.0935192675\H,0,3.180131005,1.785
 4277056,-0.3622274639\H,0,2.2044648062,0.4141133713,0.0316823972\H,0,-
 2.1764349413,3.9562558474,0.0343460836\H,0,0.0294914896,5.2148661462,-
 0.064561409\H,0,1.9935158959,3.946030198,-0.0116545248\\Version=ES64L-
 G16RevC.01\State=1-A\HF=-478.2563847\RMSD=9.103e-09\Dipole=1.8894468,2
 .5092381,-0.4446526\Quadrupole=5.9495146,-2.7998918,-3.1496228,-0.7571
 923,-2.1518489,0.4302216\PG=C01 [X(C5H5F1N2O1)]\\@
 The archive entry for this job was punched.


 ALL PAPERS THAT YOU SAVE WILL NEVER BE NEEDED UNTIL
 SUCH TIME AS THEY ARE DISPOSED OF, WHEN THEY BECOME
 ESSENTIAL.

           -- JOHN CORCORAN IN
              PAUL DICKSON'S "THE OFFICIAL RULES"
 Job cpu time:       0 days  0 hours  1 minutes 52.6 seconds.
 Elapsed time:       0 days  0 hours  0 minutes  3.7 seconds.
 File lengths (MBytes):  RWF=     33 Int=      0 D2E=      0 Chk=      5 Scr=      1
 Normal termination of Gaussian 16 at Fri Nov  4 06:10:26 2022.
