 Entering Gaussian System, Link 0=/public3/home/scg5914/software-scg5914/g16/g16
 Input=dsgdb9nsd_128888-1.gjf
 Output=dsgdb9nsd_128888-1.log
 Initial command:
 /public3/home/scg5914/software-scg5914/g16/l1.exe "/public3/home/scg5914/software-scg5914/test/tmp/dsgdb9nsd_128888-1/Gau-260319.inp" -scrdir="/public3/home/scg5914/software-scg5914/test/tmp/dsgdb9nsd_128888-1/"
 Entering Link 1 = /public3/home/scg5914/software-scg5914/g16/l1.exe PID=    260320.
  
 Copyright (c) 1988-2019, Gaussian, Inc.  All Rights Reserved.
  
 This is part of the Gaussian(R) 16 program.  It is based on
 the Gaussian(R) 09 system (copyright 2009, Gaussian, Inc.),
 the Gaussian(R) 03 system (copyright 2003, Gaussian, Inc.),
 the Gaussian(R) 98 system (copyright 1998, Gaussian, Inc.),
 the Gaussian(R) 94 system (copyright 1995, Gaussian, Inc.),
 the Gaussian 92(TM) system (copyright 1992, Gaussian, Inc.),
 the Gaussian 90(TM) system (copyright 1990, Gaussian, Inc.),
 the Gaussian 88(TM) system (copyright 1988, Gaussian, Inc.),
 the Gaussian 86(TM) system (copyright 1986, Carnegie Mellon
 University), and the Gaussian 82(TM) system (copyright 1983,
 Carnegie Mellon University). Gaussian is a federally registered
 trademark of Gaussian, Inc.
  
 This software contains proprietary and confidential information,
 including trade secrets, belonging to Gaussian, Inc.
  
 This software is provided under written license and may be
 used, copied, transmitted, or stored only in accord with that
 written license.
  
 The following legend is applicable only to US Government
 contracts under FAR:
  
                    RESTRICTED RIGHTS LEGEND
  
 Use, reproduction and disclosure by the US Government is
 subject to restrictions as set forth in subparagraphs (a)
 and (c) of the Commercial Computer Software - Restricted
 Rights clause in FAR 52.227-19.
  
 Gaussian, Inc.
 340 Quinnipiac St., Bldg. 40, Wallingford CT 06492
  
  
 ---------------------------------------------------------------
 Warning -- This program may not be used in any manner that
 competes with the business of Gaussian, Inc. or will provide
 assistance to any competitor of Gaussian, Inc.  The licensee
 of this program is prohibited from giving any competitor of
 Gaussian, Inc. access to this program.  By using this program,
 the user acknowledges that Gaussian, Inc. is engaged in the
 business of creating and licensing software in the field of
 computational chemistry and represents and warrants to the
 licensee that it is not a competitor of Gaussian, Inc. and that
 it will not use this program in any manner prohibited above.
 ---------------------------------------------------------------
  

 Cite this work as:
 Gaussian 16, Revision C.01,
 M. J. Frisch, G. W. Trucks, H. B. Schlegel, G. E. Scuseria, 
 M. A. Robb, J. R. Cheeseman, G. Scalmani, V. Barone, 
 G. A. Petersson, H. Nakatsuji, X. Li, M. Caricato, A. V. Marenich, 
 J. Bloino, B. G. Janesko, R. Gomperts, B. Mennucci, H. P. Hratchian, 
 J. V. Ortiz, A. F. Izmaylov, J. L. Sonnenberg, D. Williams-Young, 
 F. Ding, F. Lipparini, F. Egidi, J. Goings, B. Peng, A. Petrone, 
 T. Henderson, D. Ranasinghe, V. G. Zakrzewski, J. Gao, N. Rega, 
 G. Zheng, W. Liang, M. Hada, M. Ehara, K. Toyota, R. Fukuda, 
 J. Hasegawa, M. Ishida, T. Nakajima, Y. Honda, O. Kitao, H. Nakai, 
 T. Vreven, K. Throssell, J. A. Montgomery, Jr., J. E. Peralta, 
 F. Ogliaro, M. J. Bearpark, J. J. Heyd, E. N. Brothers, K. N. Kudin, 
 V. N. Staroverov, T. A. Keith, R. Kobayashi, J. Normand, 
 K. Raghavachari, A. P. Rendell, J. C. Burant, S. S. Iyengar, 
 J. Tomasi, M. Cossi, J. M. Millam, M. Klene, C. Adamo, R. Cammi, 
 J. W. Ochterski, R. L. Martin, K. Morokuma, O. Farkas, 
 J. B. Foresman, and D. J. Fox, Gaussian, Inc., Wallingford CT, 2019.
 
 ******************************************
 Gaussian 16:  ES64L-G16RevC.01  3-Jul-2019
                 1-Mar-2023 
 ******************************************
 %chk=dsgdb9nsd_128888-1.chk
 %mem=60GB
 %nprocshared=32
 Will use up to   32 processors via shared memory.
 ------------------------------------
 #p opt freq b3lyp/6-311+g** em=gd3bj
 ------------------------------------
 1/18=20,19=15,26=3,38=1/1,3;
 2/9=110,12=2,17=6,18=5,40=1/2;
 3/5=4,6=6,7=111,11=2,25=1,30=1,71=1,74=-5,124=41/1,2,3;
 4//1;
 5/5=2,38=5/2;
 6/7=2,8=2,9=2,10=2,28=1/1;
 7//1,2,3,16;
 1/18=20,19=15,26=3/3(2);
 2/9=110/2;
 99//99;
 2/9=110/2;
 3/5=4,6=6,7=111,11=2,25=1,30=1,71=1,74=-5,124=41/1,2,3;
 4/5=5,16=3,69=1/1;
 5/5=2,38=5/2;
 7//1,2,3,16;
 1/18=20,19=15,26=3/3(-5);
 2/9=110/2;
 6/7=2,8=2,9=2,10=2,19=2,28=1/1;
 99/9=1/99;
 Leave Link    1 at Wed Mar  1 04:47:49 2023, MaxMem=  8053063680 cpu:               1.2 elap:               0.0
 (Enter /public3/home/scg5914/software-scg5914/g16/l101.exe)
 ----------------------
 dsgdb9nsd_128888-1.gjf
 ----------------------
 Symbolic Z-matrix:
 Charge =  0 Multiplicity = 2
 N                     2.26098  -1.88587   0. 
 C                     1.59598  -0.93816   0.07693 
 C                     0.74255   0.17725   0.10997 
 N                     1.12939   1.43521  -0.54968 
 N                     0.00222   2.1947    0.75849 
 N                    -1.12638   1.4374   -0.54965 
 C                    -0.74194   0.17868   0.10999 
 C                    -1.59754  -0.93513   0.07697 
 N                    -2.26541  -1.88085  -0.00004 
 
 Add virtual bond connecting atoms N4         and N5         Dist= 3.56D+00.
 Add virtual bond connecting atoms N6         and N5         Dist= 3.56D+00.
 ITRead=  0  0  0  0  0  0  0  0  0
 MicOpt= -1 -1 -1 -1 -1 -1 -1 -1 -1
 NAtoms=      9 NQM=        9 NQMF=       0 NMMI=      0 NMMIF=      0
                NMic=       0 NMicF=      0.
                    Isotopes and Nuclear Properties:
 (Nuclear quadrupole moments (NQMom) in fm**2, nuclear magnetic moments (NMagM)
  in nuclear magnetons)

  Atom         1           2           3           4           5           6           7           8           9
 IAtWgt=          14          12          12          14          14          14          12          12          14
 AtmWgt=  14.0030740  12.0000000  12.0000000  14.0030740  14.0030740  14.0030740  12.0000000  12.0000000  14.0030740
 NucSpn=           2           0           0           2           2           2           0           0           2
 AtZEff=  -0.0000000  -0.0000000  -0.0000000  -0.0000000  -0.0000000  -0.0000000  -0.0000000  -0.0000000  -0.0000000
 NQMom=    2.0440000   0.0000000   0.0000000   2.0440000   2.0440000   2.0440000   0.0000000   0.0000000   2.0440000
 NMagM=    0.4037610   0.0000000   0.0000000   0.4037610   0.4037610   0.4037610   0.0000000   0.0000000   0.4037610
 AtZNuc=   7.0000000   6.0000000   6.0000000   7.0000000   7.0000000   7.0000000   6.0000000   6.0000000   7.0000000
 Leave Link  101 at Wed Mar  1 04:47:49 2023, MaxMem=  8053063680 cpu:               4.3 elap:               0.2
 (Enter /public3/home/scg5914/software-scg5914/g16/l103.exe)

 GradGradGradGradGradGradGradGradGradGradGradGradGradGradGradGradGradGrad
 Berny optimization.
 Initialization pass.
                           ----------------------------
                           !    Initial Parameters    !
                           ! (Angstroms and Degrees)  !
 --------------------------                            --------------------------
 ! Name  Definition              Value          Derivative Info.                !
 --------------------------------------------------------------------------------
 ! R1    R(1,2)                  1.1603         estimate D2E/DX2                !
 ! R2    R(2,3)                  1.4048         estimate D2E/DX2                !
 ! R3    R(3,4)                  1.4722         estimate D2E/DX2                !
 ! R4    R(3,7)                  1.4845         estimate D2E/DX2                !
 ! R5    R(4,5)                  1.8864         estimate D2E/DX2                !
 ! R6    R(5,6)                  1.8864         estimate D2E/DX2                !
 ! R7    R(6,7)                  1.4722         estimate D2E/DX2                !
 ! R8    R(7,8)                  1.4049         estimate D2E/DX2                !
 ! R9    R(8,9)                  1.1603         estimate D2E/DX2                !
 ! A1    A(2,3,4)              120.5497         estimate D2E/DX2                !
 ! A2    A(2,3,7)              127.4633         estimate D2E/DX2                !
 ! A3    A(4,3,7)              105.1862         estimate D2E/DX2                !
 ! A4    A(3,4,5)               82.8938         estimate D2E/DX2                !
 ! A5    A(4,5,6)               73.4393         estimate D2E/DX2                !
 ! A6    A(5,6,7)               82.8938         estimate D2E/DX2                !
 ! A7    A(3,7,6)              105.1859         estimate D2E/DX2                !
 ! A8    A(3,7,8)              127.4633         estimate D2E/DX2                !
 ! A9    A(6,7,8)              120.5501         estimate D2E/DX2                !
 ! A10   L(1,2,3,9,-1)         177.5444         estimate D2E/DX2                !
 ! A11   L(7,8,9,1,-1)         177.6071         estimate D2E/DX2                !
 ! A12   L(1,2,3,9,-2)         182.5523         estimate D2E/DX2                !
 ! A13   L(7,8,9,1,-2)         182.5604         estimate D2E/DX2                !
 ! D1    D(2,3,4,5)           -153.0599         estimate D2E/DX2                !
 ! D2    D(7,3,4,5)             53.8074         estimate D2E/DX2                !
 ! D3    D(2,3,7,6)           -150.6381         estimate D2E/DX2                !
 ! D4    D(2,3,7,8)              0.0001         estimate D2E/DX2                !
 ! D5    D(4,3,7,6)             -0.0002         estimate D2E/DX2                !
 ! D6    D(4,3,7,8)            150.638          estimate D2E/DX2                !
 ! D7    D(3,4,5,6)            -76.3298         estimate D2E/DX2                !
 ! D8    D(4,5,6,7)             76.3288         estimate D2E/DX2                !
 ! D9    D(5,6,7,3)            -53.8088         estimate D2E/DX2                !
 ! D10   D(5,6,7,8)            153.0584         estimate D2E/DX2                !
 --------------------------------------------------------------------------------
 Trust Radius=3.00D-01 FncErr=1.00D-07 GrdErr=1.00D-06 EigMax=2.50D+02 EigMin=1.00D-04
 Number of steps in this run=     42 maximum allowed number of steps=    100.
 GradGradGradGradGradGradGradGradGradGradGradGradGradGradGradGradGradGrad

 Leave Link  103 at Wed Mar  1 04:47:49 2023, MaxMem=  8053063680 cpu:               0.6 elap:               0.0
 (Enter /public3/home/scg5914/software-scg5914/g16/l202.exe)
                          Input orientation:                          
 ---------------------------------------------------------------------
 Center     Atomic      Atomic             Coordinates (Angstroms)
 Number     Number       Type             X           Y           Z
 ---------------------------------------------------------------------
      1          7           0        2.260980   -1.885866    0.000000
      2          6           0        1.595983   -0.938161    0.076928
      3          6           0        0.742554    0.177252    0.109973
      4          7           0        1.129393    1.435213   -0.549675
      5          7           0        0.002219    2.194703    0.758489
      6          7           0       -1.126382    1.437398   -0.549653
      7          6           0       -0.741941    0.178675    0.109991
      8          6           0       -1.597535   -0.935134    0.076968
      9          7           0       -2.265406   -1.880847   -0.000040
 ---------------------------------------------------------------------
                    Distance matrix (angstroms):
                    1          2          3          4          5
     1  N    0.000000
     2  C    1.160295   0.000000
     3  C    2.564014   1.404841   0.000000
     4  N    3.551366   2.498648   1.472157   0.000000
     5  N    4.725288   3.580425   2.244722   1.886436   0.000000
     6  N    4.777073   3.667036   2.348616   2.255776   1.886395
     7  C    3.645814   2.591197   1.484496   2.348603   2.244703
     8  C    3.974664   3.193519   2.591237   3.667065   3.580442
     9  N    4.526389   3.975538   3.646327   4.777344   4.725209
                    6          7          8          9
     6  N    0.000000
     7  C    1.472178   0.000000
     8  C    2.498709   1.404885   0.000000
     9  N    3.551084   2.564115   1.160325   0.000000
 Stoichiometry    C4N5(2)
 Framework group  C1[X(C4N5)]
 Deg. of freedom    21
 Full point group                 C1      NOp   1
 Largest Abelian subgroup         C1      NOp   1
 Largest concise Abelian subgroup C1      NOp   1
                         Standard orientation:                         
 ---------------------------------------------------------------------
 Center     Atomic      Atomic             Coordinates (Angstroms)
 Number     Number       Type             X           Y           Z
 ---------------------------------------------------------------------
      1          7           0        2.260986   -1.885859    0.001938
      2          6           0        1.595986   -0.938176    0.079111
      3          6           0        0.742553    0.177225    0.112443
      4          7           0        1.129389    1.435358   -0.546879
      5          7           0        0.002211    2.194506    0.761480
      6          7           0       -1.126386    1.437536   -0.546859
      7          6           0       -0.741942    0.178644    0.112460
      8          6           0       -1.597532   -0.935160    0.079148
      9          7           0       -2.265400   -1.880855    0.001895
 ---------------------------------------------------------------------
 Rotational constants (GHZ):           1.9191953           1.8687330           1.0110220
 Leave Link  202 at Wed Mar  1 04:47:49 2023, MaxMem=  8053063680 cpu:               0.9 elap:               0.0
 (Enter /public3/home/scg5914/software-scg5914/g16/l301.exe)
 Standard basis: 6-311+G(d,p) (5D, 7F)
 Ernie: Thresh=  0.10000D-02 Tol=  0.10000D-05 Strict=F.
 There are   207 symmetry adapted cartesian basis functions of A   symmetry.
 There are   198 symmetry adapted basis functions of A   symmetry.
   198 basis functions,   324 primitive gaussians,   207 cartesian basis functions
    30 alpha electrons       29 beta electrons
       nuclear repulsion energy       332.0396272957 Hartrees.
 IExCor=  402 DFT=T Ex+Corr=B3LYP ExCW=0 ScaHFX=  0.200000
 ScaDFX=  0.800000  0.720000  1.000000  0.810000 ScalE2=  1.000000  1.000000
 IRadAn=      5 IRanWt=     -1 IRanGd=            0 ICorTp=0 IEmpDi=141
 NAtoms=    9 NActive=    9 NUniq=    9 SFac= 1.00D+00 NAtFMM=   60 NAOKFM=F Big=F
 Integral buffers will be    131072 words long.
 Raffenetti 2 integral format.
 Two-electron integral symmetry is turned on.
 R6Disp:  Grimme-D3(BJ) Dispersion energy=       -0.0177547743 Hartrees.
 Nuclear repulsion after empirical dispersion term =      332.0218725214 Hartrees.
 Leave Link  301 at Wed Mar  1 04:47:49 2023, MaxMem=  8053063680 cpu:               1.4 elap:               0.1
 (Enter /public3/home/scg5914/software-scg5914/g16/l302.exe)
 NPDir=0 NMtPBC=     1 NCelOv=     1 NCel=       1 NClECP=     1 NCelD=      1
         NCelK=      1 NCelE2=     1 NClLst=     1 CellRange=     0.0.
 One-electron integrals computed using PRISM.
 One-electron integral symmetry used in STVInt
 NBasis=   198 RedAO= T EigKep=  2.83D-06  NBF=   198
 NBsUse=   198 1.00D-06 EigRej= -1.00D+00 NBFU=   198
 Precomputing XC quadrature grid using
 IXCGrd= 4 IRadAn=           5 IRanWt=          -1 IRanGd=           0 AccXCQ= 0.00D+00.
 Generated NRdTot=       0 NPtTot=           0 NUsed=           0 NTot=          32
 NSgBfM=   207   207   207   207   207 MxSgAt=     9 MxSgA2=     9.
 Leave Link  302 at Wed Mar  1 04:47:50 2023, MaxMem=  8053063680 cpu:              26.2 elap:               0.9
 (Enter /public3/home/scg5914/software-scg5914/g16/l303.exe)
 DipDrv:  MaxL=1.
 Leave Link  303 at Wed Mar  1 04:47:50 2023, MaxMem=  8053063680 cpu:               2.0 elap:               0.1
 (Enter /public3/home/scg5914/software-scg5914/g16/l401.exe)
 ExpMin= 4.38D-02 ExpMax= 6.29D+03 ExpMxC= 9.49D+02 IAcc=3 IRadAn=         5 AccDes= 0.00D+00
 Harris functional with IExCor=  402 and IRadAn=       5 diagonalized for initial guess.
 HarFok:  IExCor=  402 AccDes= 0.00D+00 IRadAn=         5 IDoV= 1 UseB2=F ITyADJ=14
 ICtDFT=  3500011 ScaDFX=  1.000000  1.000000  1.000000  1.000000
 FoFCou: FMM=F IPFlag=           0 FMFlag=      100000 FMFlg1=           0
         NFxFlg=           0 DoJE=T BraDBF=F KetDBF=T FulRan=T
         wScrn=  0.000000 ICntrl=       500 IOpCl=  0 I1Cent=   200000004 NGrid=           0
         NMat0=    1 NMatS0=      1 NMatT0=    0 NMatD0=    1 NMtDS0=    0 NMtDT0=    0
 Petite list used in FoFCou.
 Harris En= -425.852829260293    
 JPrj=0 DoOrth=F DoCkMO=F.
 Initial guess <Sx>= 0.0000 <Sy>= 0.0000 <Sz>= 0.5000 <S**2>= 0.7500 S= 0.5000
 Leave Link  401 at Wed Mar  1 04:47:51 2023, MaxMem=  8053063680 cpu:               9.6 elap:               0.3
 (Enter /public3/home/scg5914/software-scg5914/g16/l502.exe)
 Keep R1 and R2 ints in memory in canonical form, NReq=421249518.
 FoFCou: FMM=F IPFlag=           0 FMFlag=           0 FMFlg1=           0
         NFxFlg=           0 DoJE=F BraDBF=F KetDBF=F FulRan=T
         wScrn=  0.000000 ICntrl=       600 IOpCl=  0 I1Cent=           0 NGrid=           0
         NMat0=    1 NMatS0=  19701 NMatT0=    0 NMatD0=    1 NMtDS0=    0 NMtDT0=    0
 Symmetry not used in FoFCou.
 Two-electron integral symmetry not used.
 UHF open shell SCF:
 Using DIIS extrapolation, IDIIS=  1040.
 NGot=  8053063680 LenX=  7664820128 LenY=  7664776838
 Requested convergence on RMS density matrix=1.00D-08 within 128 cycles.
 Requested convergence on MAX density matrix=1.00D-06.
 Requested convergence on             energy=1.00D-06.
 No special actions if energy rises.

 Cycle   1  Pass 1  IDiag  1:
 E= -425.530139527418    
 DIIS: error= 3.44D-02 at cycle   1 NSaved=   1.
 NSaved= 1 IEnMin= 1 EnMin= -425.530139527418     IErMin= 1 ErrMin= 3.44D-02
 ErrMax= 3.44D-02  0.00D+00 EMaxC= 1.00D-01 BMatC= 1.25D+00 BMatP= 1.25D+00
 IDIUse=3 WtCom= 6.56D-01 WtEn= 3.44D-01
 Coeff-Com:  0.100D+01
 Coeff-En:   0.100D+01
 Coeff:      0.100D+01
 Gap=    -0.124 Goal=   None    Shift=    0.000
 Gap=     0.147 Goal=   None    Shift=    0.000
 GapD=   -0.124 DampG=0.250 DampE=0.500 DampFc=0.2500 IDamp=-1.
 Damping current iteration by 2.50D-01
 RMSDP=6.27D-02 MaxDP=3.78D+00              OVMax= 6.62D-01

 Cycle   2  Pass 1  IDiag  1:
 E= -425.258049884661     Delta-E=        0.272089642756 Rises=F Damp=T
 DIIS: error= 2.29D-02 at cycle   2 NSaved=   2.
 NSaved= 2 IEnMin= 1 EnMin= -425.530139527418     IErMin= 2 ErrMin= 2.29D-02
 ErrMax= 2.29D-02  0.00D+00 EMaxC= 1.00D-01 BMatC= 4.30D-01 BMatP= 1.25D+00
 IDIUse=3 WtCom= 7.71D-01 WtEn= 2.29D-01
 Coeff-Com:  0.311D+00 0.689D+00
 Coeff-En:   0.703D+00 0.297D+00
 Coeff:      0.400D+00 0.600D+00
 Gap=    -0.193 Goal=   None    Shift=    0.000
 Gap=    -0.200 Goal=   None    Shift=    0.000
 RMSDP=3.05D-02 MaxDP=2.12D+00 DE= 2.72D-01 OVMax= 9.79D-01

 Cycle   3  Pass 1  IDiag  1:
 E= -425.116120052849     Delta-E=        0.141929831812 Rises=F Damp=F
 DIIS: error= 6.67D-02 at cycle   3 NSaved=   3.
 NSaved= 3 IEnMin= 1 EnMin= -425.530139527418     IErMin= 2 ErrMin= 2.29D-02
 ErrMax= 6.67D-02  0.00D+00 EMaxC= 1.00D-01 BMatC= 2.89D+00 BMatP= 4.30D-01
 IDIUse=2 WtCom= 0.00D+00 WtEn= 1.00D+00
 EnCoef did     1 forward-backward iterations
 Coeff-En:   0.611D+00 0.113D+00 0.276D+00
 Coeff:      0.611D+00 0.113D+00 0.276D+00
 Gap=     0.030 Goal=   None    Shift=    0.000
 Gap=     0.151 Goal=   None    Shift=    0.000
 RMSDP=2.24D-02 MaxDP=1.19D+00 DE= 1.42D-01 OVMax= 4.62D-01

 Cycle   4  Pass 1  IDiag  1:
 E= -424.849732212130     Delta-E=        0.266387840719 Rises=F Damp=F
 DIIS: error= 8.37D-02 at cycle   4 NSaved=   4.
 NSaved= 4 IEnMin= 1 EnMin= -425.530139527418     IErMin= 2 ErrMin= 2.29D-02
 ErrMax= 8.37D-02  0.00D+00 EMaxC= 1.00D-01 BMatC= 3.44D+00 BMatP= 4.30D-01
 IDIUse=2 WtCom= 0.00D+00 WtEn= 1.00D+00
 EnCoef did   100 forward-backward iterations
 Coeff-En:   0.566D+00 0.428D-02 0.207D+00 0.222D+00
 Coeff:      0.566D+00 0.428D-02 0.207D+00 0.222D+00
 Gap=     0.155 Goal=   None    Shift=    0.000
 Gap=     0.178 Goal=   None    Shift=    0.000
 DSYEVD-2 returned Info=       29849 IAlg= 4 N=   198 NDim=   198 NE2=    38710993 trying  DSYEV.
 RMSDP=1.97D-02 MaxDP=1.29D+00 DE= 2.66D-01 OVMax= 3.35D-01

 Cycle   5  Pass 1  IDiag  1:
 E= -425.798960711269     Delta-E=       -0.949228499140 Rises=F Damp=F
 DIIS: error= 1.68D-02 at cycle   5 NSaved=   5.
 NSaved= 5 IEnMin= 5 EnMin= -425.798960711269     IErMin= 5 ErrMin= 1.68D-02
 ErrMax= 1.68D-02  0.00D+00 EMaxC= 1.00D-01 BMatC= 1.95D-01 BMatP= 4.30D-01
 IDIUse=3 WtCom= 8.32D-01 WtEn= 1.68D-01
 Coeff-Com:  0.209D+00-0.636D-01-0.536D-02-0.104D+00 0.964D+00
 Coeff-En:   0.197D+00 0.000D+00 0.000D+00 0.000D+00 0.803D+00
 Coeff:      0.207D+00-0.529D-01-0.446D-02-0.869D-01 0.937D+00
 Gap=     0.083 Goal=   None    Shift=    0.000
 Gap=     0.079 Goal=   None    Shift=    0.000
 RMSDP=7.28D-03 MaxDP=3.78D-01 DE=-9.49D-01 OVMax= 1.48D-01

 Cycle   6  Pass 1  IDiag  1:
 E= -425.852081604880     Delta-E=       -0.053120893611 Rises=F Damp=F
 DIIS: error= 5.02D-03 at cycle   6 NSaved=   6.
 NSaved= 6 IEnMin= 6 EnMin= -425.852081604880     IErMin= 6 ErrMin= 5.02D-03
 ErrMax= 5.02D-03  0.00D+00 EMaxC= 1.00D-01 BMatC= 1.41D-02 BMatP= 1.95D-01
 IDIUse=3 WtCom= 9.50D-01 WtEn= 5.02D-02
 Coeff-Com:  0.103D+00-0.445D-01-0.121D-01-0.565D-01 0.509D+00 0.502D+00
 Coeff-En:   0.000D+00 0.000D+00 0.000D+00 0.000D+00 0.000D+00 0.100D+01
 Coeff:      0.976D-01-0.422D-01-0.115D-01-0.536D-01 0.483D+00 0.527D+00
 Gap=     0.089 Goal=   None    Shift=    0.000
 Gap=     0.093 Goal=   None    Shift=    0.000
 RMSDP=3.20D-03 MaxDP=3.59D-01 DE=-5.31D-02 OVMax= 9.70D-02

 Cycle   7  Pass 1  IDiag  1:
 E= -425.856318813604     Delta-E=       -0.004237208724 Rises=F Damp=F
 DIIS: error= 5.71D-03 at cycle   7 NSaved=   7.
 NSaved= 7 IEnMin= 7 EnMin= -425.856318813604     IErMin= 6 ErrMin= 5.02D-03
 ErrMax= 5.71D-03  0.00D+00 EMaxC= 1.00D-01 BMatC= 1.32D-02 BMatP= 1.41D-02
 IDIUse=3 WtCom= 9.50D-01 WtEn= 5.02D-02
 Coeff-Com:  0.524D-01-0.359D-01-0.154D-01-0.252D-01 0.180D+00 0.385D+00
 Coeff-Com:  0.460D+00
 Coeff-En:   0.000D+00 0.000D+00 0.000D+00 0.000D+00 0.000D+00 0.351D-01
 Coeff-En:   0.965D+00
 Coeff:      0.498D-01-0.341D-01-0.146D-01-0.239D-01 0.171D+00 0.367D+00
 Coeff:      0.485D+00
 Gap=     0.091 Goal=   None    Shift=    0.000
 Gap=     0.096 Goal=   None    Shift=    0.000
 RMSDP=1.65D-03 MaxDP=8.44D-02 DE=-4.24D-03 OVMax= 1.07D-01

 Cycle   8  Pass 1  IDiag  1:
 E= -425.864800058175     Delta-E=       -0.008481244571 Rises=F Damp=F
 DIIS: error= 3.17D-03 at cycle   8 NSaved=   8.
 NSaved= 8 IEnMin= 8 EnMin= -425.864800058175     IErMin= 8 ErrMin= 3.17D-03
 ErrMax= 3.17D-03  0.00D+00 EMaxC= 1.00D-01 BMatC= 4.15D-03 BMatP= 1.32D-02
 IDIUse=3 WtCom= 9.68D-01 WtEn= 3.17D-02
 Coeff-Com:  0.305D-01-0.219D-01-0.723D-02-0.118D-01 0.626D-01 0.194D+00
 Coeff-Com:  0.392D+00 0.362D+00
 Coeff-En:   0.000D+00 0.000D+00 0.000D+00 0.000D+00 0.000D+00 0.000D+00
 Coeff-En:   0.000D+00 0.100D+01
 Coeff:      0.296D-01-0.212D-01-0.700D-02-0.114D-01 0.606D-01 0.188D+00
 Coeff:      0.379D+00 0.382D+00
 Gap=     0.098 Goal=   None    Shift=    0.000
 Gap=     0.107 Goal=   None    Shift=    0.000
 RMSDP=1.57D-03 MaxDP=1.53D-01 DE=-8.48D-03 OVMax= 6.37D-02

 Cycle   9  Pass 1  IDiag  1:
 E= -425.869364865686     Delta-E=       -0.004564807511 Rises=F Damp=F
 DIIS: error= 2.73D-03 at cycle   9 NSaved=   9.
 NSaved= 9 IEnMin= 9 EnMin= -425.869364865686     IErMin= 9 ErrMin= 2.73D-03
 ErrMax= 2.73D-03  0.00D+00 EMaxC= 1.00D-01 BMatC= 1.80D-03 BMatP= 4.15D-03
 IDIUse=3 WtCom= 9.73D-01 WtEn= 2.73D-02
 Coeff-Com:  0.212D-01-0.306D-02 0.533D-03-0.723D-02 0.969D-01-0.348D-01
 Coeff-Com: -0.804D-01-0.843D-01 0.109D+01
 Coeff-En:   0.000D+00 0.000D+00 0.000D+00 0.000D+00 0.000D+00 0.000D+00
 Coeff-En:   0.000D+00 0.000D+00 0.100D+01
 Coeff:      0.207D-01-0.298D-02 0.518D-03-0.703D-02 0.943D-01-0.338D-01
 Coeff:     -0.782D-01-0.820D-01 0.109D+01
 Gap=     0.108 Goal=   None    Shift=    0.000
 Gap=     0.122 Goal=   None    Shift=    0.000
 RMSDP=2.17D-03 MaxDP=1.96D-01 DE=-4.56D-03 OVMax= 1.12D-01

 Cycle  10  Pass 1  IDiag  1:
 E= -425.875533605624     Delta-E=       -0.006168739938 Rises=F Damp=F
 DIIS: error= 1.82D-03 at cycle  10 NSaved=  10.
 NSaved=10 IEnMin=10 EnMin= -425.875533605624     IErMin=10 ErrMin= 1.82D-03
 ErrMax= 1.82D-03  0.00D+00 EMaxC= 1.00D-01 BMatC= 1.70D-03 BMatP= 1.80D-03
 IDIUse=3 WtCom= 9.82D-01 WtEn= 1.82D-02
 Coeff-Com:  0.161D-01-0.954D-02-0.258D-02-0.108D-01 0.131D+00 0.122D+00
 Coeff-Com:  0.197D+00-0.829D+00-0.951D+00 0.234D+01
 Coeff-En:   0.000D+00 0.000D+00 0.000D+00 0.000D+00 0.000D+00 0.000D+00
 Coeff-En:   0.000D+00 0.000D+00 0.000D+00 0.100D+01
 Coeff:      0.158D-01-0.937D-02-0.254D-02-0.106D-01 0.128D+00 0.120D+00
 Coeff:      0.194D+00-0.814D+00-0.934D+00 0.231D+01
 Gap=     0.126 Goal=   None    Shift=    0.000
 Gap=     0.141 Goal=   None    Shift=    0.000
 RMSDP=3.83D-03 MaxDP=3.64D-01 DE=-6.17D-03 OVMax= 1.34D-01

 Cycle  11  Pass 1  IDiag  1:
 E= -425.880489470189     Delta-E=       -0.004955864564 Rises=F Damp=F
 DIIS: error= 1.24D-03 at cycle  11 NSaved=  11.
 NSaved=11 IEnMin=11 EnMin= -425.880489470189     IErMin=11 ErrMin= 1.24D-03
 ErrMax= 1.24D-03  0.00D+00 EMaxC= 1.00D-01 BMatC= 5.27D-04 BMatP= 1.70D-03
 IDIUse=3 WtCom= 9.88D-01 WtEn= 1.24D-02
 Coeff-Com:  0.824D-02-0.842D-02-0.995D-03-0.121D-02 0.208D-02 0.357D-01
 Coeff-Com:  0.172D-01-0.834D-01-0.354D+00 0.371D+00 0.101D+01
 Coeff-En:   0.000D+00 0.000D+00 0.000D+00 0.000D+00 0.000D+00 0.000D+00
 Coeff-En:   0.000D+00 0.000D+00 0.000D+00 0.000D+00 0.100D+01
 Coeff:      0.813D-02-0.831D-02-0.982D-03-0.119D-02 0.206D-02 0.353D-01
 Coeff:      0.169D-01-0.823D-01-0.349D+00 0.367D+00 0.101D+01
 Gap=     0.129 Goal=   None    Shift=    0.000
 Gap=     0.139 Goal=   None    Shift=    0.000
 RMSDP=1.14D-03 MaxDP=9.85D-02 DE=-4.96D-03 OVMax= 4.21D-02

 Cycle  12  Pass 1  IDiag  1:
 E= -425.881298350332     Delta-E=       -0.000808880144 Rises=F Damp=F
 DIIS: error= 7.27D-04 at cycle  12 NSaved=  12.
 NSaved=12 IEnMin=12 EnMin= -425.881298350332     IErMin=12 ErrMin= 7.27D-04
 ErrMax= 7.27D-04  0.00D+00 EMaxC= 1.00D-01 BMatC= 1.85D-04 BMatP= 5.27D-04
 IDIUse=3 WtCom= 9.93D-01 WtEn= 7.27D-03
 Coeff-Com:  0.405D-02-0.211D-02 0.195D-02-0.208D-02 0.129D-01-0.822D-02
 Coeff-Com: -0.445D-01 0.100D+00 0.151D+00-0.149D+00-0.318D+00 0.125D+01
 Coeff-En:   0.000D+00 0.000D+00 0.000D+00 0.000D+00 0.000D+00 0.000D+00
 Coeff-En:   0.000D+00 0.000D+00 0.000D+00 0.000D+00 0.000D+00 0.100D+01
 Coeff:      0.402D-02-0.209D-02 0.194D-02-0.206D-02 0.128D-01-0.816D-02
 Coeff:     -0.442D-01 0.997D-01 0.150D+00-0.148D+00-0.315D+00 0.125D+01
 Gap=     0.128 Goal=   None    Shift=    0.000
 Gap=     0.137 Goal=   None    Shift=    0.000
 RMSDP=5.86D-04 MaxDP=3.70D-02 DE=-8.09D-04 OVMax= 1.23D-02

 Cycle  13  Pass 1  IDiag  1:
 E= -425.881466319099     Delta-E=       -0.000167968767 Rises=F Damp=F
 DIIS: error= 6.69D-04 at cycle  13 NSaved=  13.
 NSaved=13 IEnMin=13 EnMin= -425.881466319099     IErMin=13 ErrMin= 6.69D-04
 ErrMax= 6.69D-04  0.00D+00 EMaxC= 1.00D-01 BMatC= 2.41D-04 BMatP= 1.85D-04
 IDIUse=3 WtCom= 9.93D-01 WtEn= 7.27D-03
 Coeff-Com:  0.166D-02 0.355D-03 0.301D-02-0.222D-02 0.150D-01-0.950D-02
 Coeff-Com: -0.276D-01 0.159D+00 0.242D+00-0.355D+00-0.792D+00 0.126D+01
 Coeff-Com:  0.504D+00
 Coeff-En:   0.000D+00 0.000D+00 0.000D+00 0.000D+00 0.000D+00 0.000D+00
 Coeff-En:   0.000D+00 0.000D+00 0.000D+00 0.000D+00 0.000D+00 0.000D+00
 Coeff-En:   0.100D+01
 Coeff:      0.165D-02 0.353D-03 0.299D-02-0.220D-02 0.149D-01-0.943D-02
 Coeff:     -0.274D-01 0.158D+00 0.241D+00-0.352D+00-0.786D+00 0.125D+01
 Coeff:      0.508D+00
 Gap=     0.128 Goal=   None    Shift=    0.000
 Gap=     0.135 Goal=   None    Shift=    0.000
 RMSDP=3.70D-04 MaxDP=2.13D-02 DE=-1.68D-04 OVMax= 9.04D-03

 Cycle  14  Pass 1  IDiag  1:
 E= -425.881639788930     Delta-E=       -0.000173469831 Rises=F Damp=F
 DIIS: error= 6.27D-04 at cycle  14 NSaved=  14.
 NSaved=14 IEnMin=14 EnMin= -425.881639788930     IErMin=14 ErrMin= 6.27D-04
 ErrMax= 6.27D-04  0.00D+00 EMaxC= 1.00D-01 BMatC= 1.27D-04 BMatP= 1.85D-04
 IDIUse=3 WtCom= 9.94D-01 WtEn= 6.27D-03
 Coeff-Com:  0.390D-04-0.507D-03 0.178D-02-0.609D-03-0.131D-02 0.286D-01
 Coeff-Com:  0.620D-01 0.108D+00-0.975D-01-0.315D+00-0.248D+00 0.665D-01
 Coeff-Com:  0.414D+00 0.982D+00
 Coeff-En:   0.000D+00 0.000D+00 0.000D+00 0.000D+00 0.000D+00 0.000D+00
 Coeff-En:   0.000D+00 0.000D+00 0.000D+00 0.000D+00 0.000D+00 0.000D+00
 Coeff-En:   0.000D+00 0.100D+01
 Coeff:      0.388D-04-0.504D-03 0.176D-02-0.605D-03-0.130D-02 0.284D-01
 Coeff:      0.616D-01 0.108D+00-0.969D-01-0.313D+00-0.247D+00 0.661D-01
 Coeff:      0.411D+00 0.982D+00
 Gap=     0.130 Goal=   None    Shift=    0.000
 Gap=     0.136 Goal=   None    Shift=    0.000
 RMSDP=6.97D-04 MaxDP=4.57D-02 DE=-1.73D-04 OVMax= 2.20D-02

 Cycle  15  Pass 1  IDiag  1:
 E= -425.881918332943     Delta-E=       -0.000278544013 Rises=F Damp=F
 DIIS: error= 2.51D-04 at cycle  15 NSaved=  15.
 NSaved=15 IEnMin=15 EnMin= -425.881918332943     IErMin=15 ErrMin= 2.51D-04
 ErrMax= 2.51D-04  0.00D+00 EMaxC= 1.00D-01 BMatC= 1.84D-05 BMatP= 1.27D-04
 IDIUse=3 WtCom= 9.97D-01 WtEn= 2.51D-03
 Coeff-Com:  0.102D-03 0.573D-04-0.153D-03 0.553D-04-0.815D-04 0.747D-02
 Coeff-Com:  0.555D-02 0.857D-02-0.928D-01-0.351D-01 0.520D-02-0.125D+00
 Coeff-Com:  0.102D-01 0.251D+00 0.965D+00
 Coeff-En:   0.000D+00 0.000D+00 0.000D+00 0.000D+00 0.000D+00 0.000D+00
 Coeff-En:   0.000D+00 0.000D+00 0.000D+00 0.000D+00 0.000D+00 0.000D+00
 Coeff-En:   0.000D+00 0.000D+00 0.100D+01
 Coeff:      0.102D-03 0.572D-04-0.152D-03 0.552D-04-0.813D-04 0.745D-02
 Coeff:      0.554D-02 0.855D-02-0.926D-01-0.350D-01 0.519D-02-0.125D+00
 Coeff:      0.102D-01 0.251D+00 0.965D+00
 Gap=     0.131 Goal=   None    Shift=    0.000
 Gap=     0.137 Goal=   None    Shift=    0.000
 RMSDP=4.62D-04 MaxDP=3.47D-02 DE=-2.79D-04 OVMax= 1.44D-02

 Cycle  16  Pass 1  IDiag  1:
 E= -425.881963237791     Delta-E=       -0.000044904848 Rises=F Damp=F
 DIIS: error= 2.34D-04 at cycle  16 NSaved=  16.
 NSaved=16 IEnMin=16 EnMin= -425.881963237791     IErMin=16 ErrMin= 2.34D-04
 ErrMax= 2.34D-04  0.00D+00 EMaxC= 1.00D-01 BMatC= 2.51D-05 BMatP= 1.84D-05
 IDIUse=3 WtCom= 9.97D-01 WtEn= 2.51D-03
 Coeff-Com:  0.885D-04 0.724D-04-0.494D-03-0.647D-04 0.287D-02-0.539D-04
 Coeff-Com: -0.888D-02-0.231D-01-0.446D-01 0.666D-01-0.171D-01-0.963D-01
 Coeff-Com: -0.134D-01 0.845D-01 0.518D+00 0.532D+00
 Coeff-En:   0.000D+00 0.000D+00 0.000D+00 0.000D+00 0.000D+00 0.000D+00
 Coeff-En:   0.000D+00 0.000D+00 0.000D+00 0.000D+00 0.000D+00 0.000D+00
 Coeff-En:   0.000D+00 0.000D+00 0.000D+00 0.100D+01
 Coeff:      0.883D-04 0.722D-04-0.493D-03-0.645D-04 0.287D-02-0.538D-04
 Coeff:     -0.886D-02-0.230D-01-0.445D-01 0.664D-01-0.170D-01-0.961D-01
 Coeff:     -0.134D-01 0.843D-01 0.517D+00 0.533D+00
 Gap=     0.131 Goal=   None    Shift=    0.000
 Gap=     0.137 Goal=   None    Shift=    0.000
 RMSDP=6.02D-05 MaxDP=4.12D-03 DE=-4.49D-05 OVMax= 1.69D-03

 Cycle  17  Pass 1  IDiag  1:
 E= -425.881970825214     Delta-E=       -0.000007587423 Rises=F Damp=F
 DIIS: error= 1.32D-04 at cycle  17 NSaved=  17.
 NSaved=17 IEnMin=17 EnMin= -425.881970825214     IErMin=17 ErrMin= 1.32D-04
 ErrMax= 1.32D-04  0.00D+00 EMaxC= 1.00D-01 BMatC= 1.18D-05 BMatP= 1.84D-05
 IDIUse=3 WtCom= 9.99D-01 WtEn= 1.32D-03
 Coeff-Com: -0.300D-04-0.837D-04-0.397D-03-0.223D-03 0.422D-02-0.375D-02
 Coeff-Com: -0.840D-02-0.450D-01 0.120D-01 0.139D+00-0.461D-01-0.623D-01
 Coeff-Com:  0.162D-01 0.930D-02-0.325D+00 0.477D+00 0.833D+00
 Coeff-En:   0.000D+00 0.000D+00 0.000D+00 0.000D+00 0.000D+00 0.000D+00
 Coeff-En:   0.000D+00 0.000D+00 0.000D+00 0.000D+00 0.000D+00 0.000D+00
 Coeff-En:   0.000D+00 0.000D+00 0.000D+00 0.000D+00 0.100D+01
 Coeff:     -0.300D-04-0.836D-04-0.397D-03-0.223D-03 0.421D-02-0.375D-02
 Coeff:     -0.839D-02-0.450D-01 0.119D-01 0.139D+00-0.460D-01-0.622D-01
 Coeff:      0.162D-01 0.929D-02-0.324D+00 0.476D+00 0.834D+00
 Gap=     0.131 Goal=   None    Shift=    0.000
 Gap=     0.137 Goal=   None    Shift=    0.000
 RMSDP=1.49D-04 MaxDP=1.57D-02 DE=-7.59D-06 OVMax= 5.02D-03

 Cycle  18  Pass 1  IDiag  1:
 E= -425.881978866060     Delta-E=       -0.000008040846 Rises=F Damp=F
 DIIS: error= 5.81D-05 at cycle  18 NSaved=  18.
 NSaved=18 IEnMin=18 EnMin= -425.881978866060     IErMin=18 ErrMin= 5.81D-05
 ErrMax= 5.81D-05  0.00D+00 EMaxC= 1.00D-01 BMatC= 1.56D-06 BMatP= 1.18D-05
 IDIUse=1 WtCom= 1.00D+00 WtEn= 0.00D+00
 Coeff-Com: -0.820D-04 0.257D-05-0.296D-04 0.332D-04-0.130D-03-0.746D-03
 Coeff-Com:  0.153D-02-0.240D-01-0.131D-02 0.676D-01 0.243D-01-0.699D-01
 Coeff-Com: -0.181D-01-0.161D-01-0.146D+00 0.105D+00 0.373D+00 0.705D+00
 Coeff:     -0.820D-04 0.257D-05-0.296D-04 0.332D-04-0.130D-03-0.746D-03
 Coeff:      0.153D-02-0.240D-01-0.131D-02 0.676D-01 0.243D-01-0.699D-01
 Coeff:     -0.181D-01-0.161D-01-0.146D+00 0.105D+00 0.373D+00 0.705D+00
 Gap=     0.131 Goal=   None    Shift=    0.000
 Gap=     0.137 Goal=   None    Shift=    0.000
 RMSDP=3.91D-05 MaxDP=2.62D-03 DE=-8.04D-06 OVMax= 8.90D-04

 Cycle  19  Pass 1  IDiag  1:
 E= -425.881979736884     Delta-E=       -0.000000870824 Rises=F Damp=F
 DIIS: error= 2.25D-05 at cycle  19 NSaved=  19.
 NSaved=19 IEnMin=19 EnMin= -425.881979736884     IErMin=19 ErrMin= 2.25D-05
 ErrMax= 2.25D-05  0.00D+00 EMaxC= 1.00D-01 BMatC= 4.97D-07 BMatP= 1.56D-06
 IDIUse=1 WtCom= 1.00D+00 WtEn= 0.00D+00
 Coeff-Com: -0.823D-04 0.630D-04 0.535D-04 0.128D-03-0.150D-02 0.302D-03
 Coeff-Com:  0.334D-02-0.582D-02-0.570D-02 0.118D-01 0.371D-01-0.433D-01
 Coeff-Com: -0.244D-01-0.205D-01 0.347D-01-0.418D-01 0.172D-01 0.443D+00
 Coeff-Com:  0.595D+00
 Coeff:     -0.823D-04 0.630D-04 0.535D-04 0.128D-03-0.150D-02 0.302D-03
 Coeff:      0.334D-02-0.582D-02-0.570D-02 0.118D-01 0.371D-01-0.433D-01
 Coeff:     -0.244D-01-0.205D-01 0.347D-01-0.418D-01 0.172D-01 0.443D+00
 Coeff:      0.595D+00
 Gap=     0.131 Goal=   None    Shift=    0.000
 Gap=     0.137 Goal=   None    Shift=    0.000
 RMSDP=1.60D-05 MaxDP=9.56D-04 DE=-8.71D-07 OVMax= 3.78D-04

 Cycle  20  Pass 1  IDiag  1:
 E= -425.881979916726     Delta-E=       -0.000000179842 Rises=F Damp=F
 DIIS: error= 8.85D-06 at cycle  20 NSaved=  20.
 NSaved=20 IEnMin=20 EnMin= -425.881979916726     IErMin=20 ErrMin= 8.85D-06
 ErrMax= 8.85D-06  0.00D+00 EMaxC= 1.00D-01 BMatC= 8.02D-08 BMatP= 4.97D-07
 IDIUse=1 WtCom= 1.00D+00 WtEn= 0.00D+00
 Coeff-Com: -0.517D-04 0.545D-04-0.293D-04 0.538D-04-0.399D-03-0.181D-03
 Coeff-Com:  0.274D-03 0.523D-02 0.229D-02-0.158D-01 0.219D-02 0.804D-02
 Coeff-Com: -0.271D-02-0.338D-02 0.478D-01-0.465D-01-0.999D-01-0.391D-01
 Coeff-Com:  0.238D+00 0.904D+00
 Coeff:     -0.517D-04 0.545D-04-0.293D-04 0.538D-04-0.399D-03-0.181D-03
 Coeff:      0.274D-03 0.523D-02 0.229D-02-0.158D-01 0.219D-02 0.804D-02
 Coeff:     -0.271D-02-0.338D-02 0.478D-01-0.465D-01-0.999D-01-0.391D-01
 Coeff:      0.238D+00 0.904D+00
 Gap=     0.131 Goal=   None    Shift=    0.000
 Gap=     0.137 Goal=   None    Shift=    0.000
 RMSDP=1.26D-05 MaxDP=9.61D-04 DE=-1.80D-07 OVMax= 5.21D-04

 Cycle  21  Pass 1  IDiag  1:
 E= -425.881979965585     Delta-E=       -0.000000048860 Rises=F Damp=F
 DIIS: error= 4.64D-06 at cycle  21 NSaved=  20.
 NSaved=20 IEnMin=20 EnMin= -425.881979965585     IErMin=20 ErrMin= 4.64D-06
 ErrMax= 4.64D-06  0.00D+00 EMaxC= 1.00D-01 BMatC= 1.12D-08 BMatP= 8.02D-08
 IDIUse=1 WtCom= 1.00D+00 WtEn= 0.00D+00
 Coeff-Com: -0.142D-04 0.305D-04-0.169D-04 0.363D-04-0.157D-03-0.294D-03
 Coeff-Com:  0.180D-02 0.137D-02-0.457D-02-0.279D-02 0.716D-02 0.228D-02
 Coeff-Com:  0.180D-03-0.518D-02-0.791D-02-0.968D-02-0.103D-01 0.129D-02
 Coeff-Com:  0.885D-01 0.938D+00
 Coeff:     -0.142D-04 0.305D-04-0.169D-04 0.363D-04-0.157D-03-0.294D-03
 Coeff:      0.180D-02 0.137D-02-0.457D-02-0.279D-02 0.716D-02 0.228D-02
 Coeff:      0.180D-03-0.518D-02-0.791D-02-0.968D-02-0.103D-01 0.129D-02
 Coeff:      0.885D-01 0.938D+00
 Gap=     0.131 Goal=   None    Shift=    0.000
 Gap=     0.137 Goal=   None    Shift=    0.000
 RMSDP=2.93D-06 MaxDP=1.82D-04 DE=-4.89D-08 OVMax= 8.01D-05

 Cycle  22  Pass 1  IDiag  1:
 E= -425.881979972144     Delta-E=       -0.000000006558 Rises=F Damp=F
 DIIS: error= 2.02D-06 at cycle  22 NSaved=  20.
 NSaved=20 IEnMin=20 EnMin= -425.881979972144     IErMin=20 ErrMin= 2.02D-06
 ErrMax= 2.02D-06  0.00D+00 EMaxC= 1.00D-01 BMatC= 2.15D-09 BMatP= 1.12D-08
 IDIUse=1 WtCom= 1.00D+00 WtEn= 0.00D+00
 Coeff-Com: -0.320D-05-0.870D-06-0.224D-04 0.453D-04 0.454D-04-0.176D-03
 Coeff-Com: -0.445D-03 0.579D-03 0.607D-03 0.195D-04-0.314D-04-0.802D-03
 Coeff-Com: -0.523D-02 0.376D-02 0.104D-01 0.768D-02-0.261D-01-0.113D+00
 Coeff-Com:  0.591D-01 0.106D+01
 Coeff:     -0.320D-05-0.870D-06-0.224D-04 0.453D-04 0.454D-04-0.176D-03
 Coeff:     -0.445D-03 0.579D-03 0.607D-03 0.195D-04-0.314D-04-0.802D-03
 Coeff:     -0.523D-02 0.376D-02 0.104D-01 0.768D-02-0.261D-01-0.113D+00
 Coeff:      0.591D-01 0.106D+01
 Gap=     0.131 Goal=   None    Shift=    0.000
 Gap=     0.137 Goal=   None    Shift=    0.000
 RMSDP=3.43D-06 MaxDP=3.47D-04 DE=-6.56D-09 OVMax= 8.02D-05

 Cycle  23  Pass 1  IDiag  1:
 E= -425.881979974007     Delta-E=       -0.000000001864 Rises=F Damp=F
 DIIS: error= 6.24D-07 at cycle  23 NSaved=  20.
 NSaved=20 IEnMin=20 EnMin= -425.881979974007     IErMin=20 ErrMin= 6.24D-07
 ErrMax= 6.24D-07  0.00D+00 EMaxC= 1.00D-01 BMatC= 2.02D-10 BMatP= 2.15D-09
 IDIUse=1 WtCom= 1.00D+00 WtEn= 0.00D+00
 Coeff-Com: -0.129D-05-0.279D-05 0.413D-05 0.126D-04-0.320D-03-0.770D-04
 Coeff-Com:  0.759D-03 0.219D-03-0.107D-02-0.187D-03 0.312D-03 0.413D-03
 Coeff-Com:  0.139D-02 0.147D-02 0.683D-03-0.306D-02-0.207D-01-0.119D+00
 Coeff-Com:  0.553D-01 0.108D+01
 Coeff:     -0.129D-05-0.279D-05 0.413D-05 0.126D-04-0.320D-03-0.770D-04
 Coeff:      0.759D-03 0.219D-03-0.107D-02-0.187D-03 0.312D-03 0.413D-03
 Coeff:      0.139D-02 0.147D-02 0.683D-03-0.306D-02-0.207D-01-0.119D+00
 Coeff:      0.553D-01 0.108D+01
 Gap=     0.131 Goal=   None    Shift=    0.000
 Gap=     0.137 Goal=   None    Shift=    0.000
 RMSDP=5.31D-07 MaxDP=2.85D-05 DE=-1.86D-09 OVMax= 1.96D-05

 Cycle  24  Pass 1  IDiag  1:
 E= -425.881979974275     Delta-E=       -0.000000000268 Rises=F Damp=F
 DIIS: error= 2.59D-07 at cycle  24 NSaved=  20.
 NSaved=20 IEnMin=20 EnMin= -425.881979974275     IErMin=20 ErrMin= 2.59D-07
 ErrMax= 2.59D-07  0.00D+00 EMaxC= 1.00D-01 BMatC= 5.72D-11 BMatP= 2.02D-10
 IDIUse=1 WtCom= 1.00D+00 WtEn= 0.00D+00
 Coeff-Com:  0.227D-05-0.403D-07 0.176D-04-0.139D-03 0.207D-04 0.319D-03
 Coeff-Com:  0.825D-05-0.705D-03-0.511D-04 0.472D-03 0.131D-02-0.597D-04
 Coeff-Com: -0.844D-03-0.854D-03 0.191D-02 0.545D-02-0.754D-01-0.185D+00
 Coeff-Com:  0.406D+00 0.847D+00
 Coeff:      0.227D-05-0.403D-07 0.176D-04-0.139D-03 0.207D-04 0.319D-03
 Coeff:      0.825D-05-0.705D-03-0.511D-04 0.472D-03 0.131D-02-0.597D-04
 Coeff:     -0.844D-03-0.854D-03 0.191D-02 0.545D-02-0.754D-01-0.185D+00
 Coeff:      0.406D+00 0.847D+00
 Gap=     0.131 Goal=   None    Shift=    0.000
 Gap=     0.137 Goal=   None    Shift=    0.000
 RMSDP=5.00D-07 MaxDP=3.34D-05 DE=-2.68D-10 OVMax= 1.75D-05

 Cycle  25  Pass 1  IDiag  1:
 E= -425.881979974362     Delta-E=       -0.000000000087 Rises=F Damp=F
 DIIS: error= 1.58D-07 at cycle  25 NSaved=  20.
 NSaved=20 IEnMin=20 EnMin= -425.881979974362     IErMin=20 ErrMin= 1.58D-07
 ErrMax= 1.58D-07  0.00D+00 EMaxC= 1.00D-01 BMatC= 1.20D-11 BMatP= 5.72D-11
 IDIUse=1 WtCom= 1.00D+00 WtEn= 0.00D+00
 Coeff-Com:  0.156D-05 0.483D-05 0.423D-04-0.661D-05-0.832D-04 0.328D-04
 Coeff-Com:  0.726D-04-0.407D-04-0.108D-03 0.149D-03-0.294D-04-0.270D-03
 Coeff-Com: -0.327D-03 0.463D-03 0.368D-02 0.182D-01-0.272D-01-0.194D+00
 Coeff-Com:  0.808D-01 0.112D+01
 Coeff:      0.156D-05 0.483D-05 0.423D-04-0.661D-05-0.832D-04 0.328D-04
 Coeff:      0.726D-04-0.407D-04-0.108D-03 0.149D-03-0.294D-04-0.270D-03
 Coeff:     -0.327D-03 0.463D-03 0.368D-02 0.182D-01-0.272D-01-0.194D+00
 Coeff:      0.808D-01 0.112D+01
 Gap=     0.131 Goal=   None    Shift=    0.000
 Gap=     0.137 Goal=   None    Shift=    0.000
 RMSDP=1.60D-07 MaxDP=1.08D-05 DE=-8.70D-11 OVMax= 3.56D-06

 Cycle  26  Pass 1  IDiag  1:
 E= -425.881979974372     Delta-E=       -0.000000000009 Rises=F Damp=F
 DIIS: error= 5.32D-08 at cycle  26 NSaved=  20.
 NSaved=20 IEnMin=20 EnMin= -425.881979974372     IErMin=20 ErrMin= 5.32D-08
 ErrMax= 5.32D-08  0.00D+00 EMaxC= 1.00D-01 BMatC= 1.67D-12 BMatP= 1.20D-11
 IDIUse=1 WtCom= 1.00D+00 WtEn= 0.00D+00
 Coeff-Com: -0.455D-05 0.302D-04 0.160D-05-0.655D-04 0.119D-05 0.139D-03
 Coeff-Com: -0.738D-05-0.126D-03-0.157D-03-0.304D-04 0.166D-04 0.483D-05
 Coeff-Com:  0.339D-03 0.238D-02 0.157D-01 0.958D-02-0.886D-01-0.101D+00
 Coeff-Com:  0.206D+00 0.956D+00
 Coeff:     -0.455D-05 0.302D-04 0.160D-05-0.655D-04 0.119D-05 0.139D-03
 Coeff:     -0.738D-05-0.126D-03-0.157D-03-0.304D-04 0.166D-04 0.483D-05
 Coeff:      0.339D-03 0.238D-02 0.157D-01 0.958D-02-0.886D-01-0.101D+00
 Coeff:      0.206D+00 0.956D+00
 Gap=     0.131 Goal=   None    Shift=    0.000
 Gap=     0.137 Goal=   None    Shift=    0.000
 RMSDP=6.22D-08 MaxDP=4.02D-06 DE=-9.21D-12 OVMax= 1.68D-06

 Cycle  27  Pass 1  IDiag  1:
 E= -425.881979974369     Delta-E=        0.000000000003 Rises=F Damp=F
 DIIS: error= 2.50D-08 at cycle  27 NSaved=  20.
 NSaved=20 IEnMin=19 EnMin= -425.881979974372     IErMin=20 ErrMin= 2.50D-08
 ErrMax= 2.50D-08  0.00D+00 EMaxC= 1.00D-01 BMatC= 2.94D-13 BMatP= 1.67D-12
 IDIUse=1 WtCom= 1.00D+00 WtEn= 0.00D+00
 Coeff-Com: -0.190D-06 0.979D-06-0.110D-05-0.269D-04 0.256D-04 0.228D-04
 Coeff-Com:  0.233D-04-0.828D-04-0.243D-04 0.326D-04 0.730D-04 0.597D-04
 Coeff-Com: -0.196D-04-0.138D-02 0.352D-02 0.224D-01-0.221D-01-0.167D+00
 Coeff-Com:  0.133D+00 0.103D+01
 Coeff:     -0.190D-06 0.979D-06-0.110D-05-0.269D-04 0.256D-04 0.228D-04
 Coeff:      0.233D-04-0.828D-04-0.243D-04 0.326D-04 0.730D-04 0.597D-04
 Coeff:     -0.196D-04-0.138D-02 0.352D-02 0.224D-01-0.221D-01-0.167D+00
 Coeff:      0.133D+00 0.103D+01
 Gap=     0.131 Goal=   None    Shift=    0.000
 Gap=     0.137 Goal=   None    Shift=    0.000
 RMSDP=1.88D-08 MaxDP=1.49D-06 DE= 2.50D-12 OVMax= 6.51D-07

 Cycle  28  Pass 1  IDiag  1:
 E= -425.881979974371     Delta-E=       -0.000000000002 Rises=F Damp=F
 DIIS: error= 7.57D-09 at cycle  28 NSaved=  20.
 NSaved=20 IEnMin=18 EnMin= -425.881979974372     IErMin=20 ErrMin= 7.57D-09
 ErrMax= 7.57D-09  0.00D+00 EMaxC= 1.00D-01 BMatC= 3.68D-14 BMatP= 2.94D-13
 IDIUse=1 WtCom= 1.00D+00 WtEn= 0.00D+00
 Coeff-Com: -0.255D-07-0.727D-06-0.116D-04 0.998D-05 0.113D-04 0.135D-04
 Coeff-Com: -0.413D-04 0.465D-05 0.417D-04 0.247D-04-0.156D-03-0.675D-03
 Coeff-Com: -0.861D-03 0.445D-02 0.997D-02-0.706D-02-0.675D-01-0.332D-01
 Coeff-Com:  0.294D+00 0.801D+00
 Coeff:     -0.255D-07-0.727D-06-0.116D-04 0.998D-05 0.113D-04 0.135D-04
 Coeff:     -0.413D-04 0.465D-05 0.417D-04 0.247D-04-0.156D-03-0.675D-03
 Coeff:     -0.861D-03 0.445D-02 0.997D-02-0.706D-02-0.675D-01-0.332D-01
 Coeff:      0.294D+00 0.801D+00
 Gap=     0.131 Goal=   None    Shift=    0.000
 Gap=     0.137 Goal=   None    Shift=    0.000
 RMSDP=1.04D-08 MaxDP=8.13D-07 DE=-1.59D-12 OVMax= 1.16D-07

 Cycle  29  Pass 1  IDiag  1:
 E= -425.881979974373     Delta-E=       -0.000000000003 Rises=F Damp=F
 DIIS: error= 5.11D-09 at cycle  29 NSaved=  20.
 NSaved=20 IEnMin=20 EnMin= -425.881979974373     IErMin=20 ErrMin= 5.11D-09
 ErrMax= 5.11D-09  0.00D+00 EMaxC= 1.00D-01 BMatC= 1.07D-14 BMatP= 3.68D-14
 IDIUse=1 WtCom= 1.00D+00 WtEn= 0.00D+00
 Coeff-Com:  0.119D-05 0.750D-06-0.417D-05-0.289D-06 0.291D-05 0.516D-05
 Coeff-Com: -0.572D-06-0.155D-05-0.538D-06-0.308D-04-0.150D-03-0.460D-03
 Coeff-Com: -0.273D-04 0.208D-02 0.426D-02-0.242D-02-0.525D-01-0.362D-01
 Coeff-Com:  0.343D+00 0.742D+00
 Coeff:      0.119D-05 0.750D-06-0.417D-05-0.289D-06 0.291D-05 0.516D-05
 Coeff:     -0.572D-06-0.155D-05-0.538D-06-0.308D-04-0.150D-03-0.460D-03
 Coeff:     -0.273D-04 0.208D-02 0.426D-02-0.242D-02-0.525D-01-0.362D-01
 Coeff:      0.343D+00 0.742D+00
 Gap=     0.131 Goal=   None    Shift=    0.000
 Gap=     0.137 Goal=   None    Shift=    0.000
 RMSDP=5.55D-09 MaxDP=4.16D-07 DE=-2.73D-12 OVMax= 7.48D-08

 SCF Done:  E(UB3LYP) =  -425.881979974     A.U. after   29 cycles
            NFock= 29  Conv=0.55D-08     -V/T= 2.0053
 <Sx>= 0.0000 <Sy>= 0.0000 <Sz>= 0.5000 <S**2>= 1.7894 S= 0.9281
 <L.S>=  0.00000000000    
 KE= 4.236453525243D+02 PE=-1.656171851311D+03 EE= 4.746226462913D+02
 Annihilation of the first spin contaminant:
 S**2 before annihilation     1.7894,   after     1.1648
 Leave Link  502 at Wed Mar  1 04:48:10 2023, MaxMem=  8053063680 cpu:             416.6 elap:              19.2
 (Enter /public3/home/scg5914/software-scg5914/g16/l601.exe)
 Copying SCF densities to generalized density rwf, IOpCl= 1 IROHF=0.

 **********************************************************************

            Population analysis using the SCF Density.

 **********************************************************************

 Orbital symmetries:
 Alpha Orbitals:
       Occupied  (A) (A) (A) (A) (A) (A) (A) (A) (A) (A) (A) (A)
                 (A) (A) (A) (A) (A) (A) (A) (A) (A) (A) (A) (A)
                 (A) (A) (A) (A) (A) (A)
       Virtual   (A) (A) (A) (A) (A) (A) (A) (A) (A) (A) (A) (A)
                 (A) (A) (A) (A) (A) (A) (A) (A) (A) (A) (A) (A)
                 (A) (A) (A) (A) (A) (A) (A) (A) (A) (A) (A) (A)
                 (A) (A) (A) (A) (A) (A) (A) (A) (A) (A) (A) (A)
                 (A) (A) (A) (A) (A) (A) (A) (A) (A) (A) (A) (A)
                 (A) (A) (A) (A) (A) (A) (A) (A) (A) (A) (A) (A)
                 (A) (A) (A) (A) (A) (A) (A) (A) (A) (A) (A) (A)
                 (A) (A) (A) (A) (A) (A) (A) (A) (A) (A) (A) (A)
                 (A) (A) (A) (A) (A) (A) (A) (A) (A) (A) (A) (A)
                 (A) (A) (A) (A) (A) (A) (A) (A) (A) (A) (A) (A)
                 (A) (A) (A) (A) (A) (A) (A) (A) (A) (A) (A) (A)
                 (A) (A) (A) (A) (A) (A) (A) (A) (A) (A) (A) (A)
                 (A) (A) (A) (A) (A) (A) (A) (A) (A) (A) (A) (A)
                 (A) (A) (A) (A) (A) (A) (A) (A) (A) (A) (A) (A)
 Beta  Orbitals:
       Occupied  (A) (A) (A) (A) (A) (A) (A) (A) (A) (A) (A) (A)
                 (A) (A) (A) (A) (A) (A) (A) (A) (A) (A) (A) (A)
                 (A) (A) (A) (A) (A)
       Virtual   (A) (A) (A) (A) (A) (A) (A) (A) (A) (A) (A) (A)
                 (A) (A) (A) (A) (A) (A) (A) (A) (A) (A) (A) (A)
                 (A) (A) (A) (A) (A) (A) (A) (A) (A) (A) (A) (A)
                 (A) (A) (A) (A) (A) (A) (A) (A) (A) (A) (A) (A)
                 (A) (A) (A) (A) (A) (A) (A) (A) (A) (A) (A) (A)
                 (A) (A) (A) (A) (A) (A) (A) (A) (A) (A) (A) (A)
                 (A) (A) (A) (A) (A) (A) (A) (A) (A) (A) (A) (A)
                 (A) (A) (A) (A) (A) (A) (A) (A) (A) (A) (A) (A)
                 (A) (A) (A) (A) (A) (A) (A) (A) (A) (A) (A) (A)
                 (A) (A) (A) (A) (A) (A) (A) (A) (A) (A) (A) (A)
                 (A) (A) (A) (A) (A) (A) (A) (A) (A) (A) (A) (A)
                 (A) (A) (A) (A) (A) (A) (A) (A) (A) (A) (A) (A)
                 (A) (A) (A) (A) (A) (A) (A) (A) (A) (A) (A) (A)
                 (A) (A) (A) (A) (A) (A) (A) (A) (A) (A) (A) (A)
                 (A)
 The electronic state is 2-A.
 Alpha  occ. eigenvalues --  -14.47598 -14.46498 -14.46496 -14.39071 -14.39071
 Alpha  occ. eigenvalues --  -10.35379 -10.35349 -10.27911 -10.27910  -1.03179
 Alpha  occ. eigenvalues --   -0.97978  -0.97565  -0.91150  -0.82644  -0.73170
 Alpha  occ. eigenvalues --   -0.72330  -0.63921  -0.51161  -0.48127  -0.46333
 Alpha  occ. eigenvalues --   -0.44424  -0.43702  -0.42979  -0.41659  -0.40994
 Alpha  occ. eigenvalues --   -0.39898  -0.39490  -0.39277  -0.33030  -0.30165
 Alpha virt. eigenvalues --   -0.17045  -0.16451  -0.11857  -0.11001  -0.05960
 Alpha virt. eigenvalues --   -0.04709  -0.00956   0.00807   0.02128   0.03444
 Alpha virt. eigenvalues --    0.03506   0.04146   0.06011   0.06693   0.07216
 Alpha virt. eigenvalues --    0.07750   0.08064   0.09966   0.10094   0.10838
 Alpha virt. eigenvalues --    0.11926   0.12005   0.13347   0.14286   0.15189
 Alpha virt. eigenvalues --    0.16370   0.17669   0.18383   0.18809   0.19527
 Alpha virt. eigenvalues --    0.19982   0.21994   0.22594   0.23261   0.23690
 Alpha virt. eigenvalues --    0.24781   0.24882   0.25073   0.25264   0.25651
 Alpha virt. eigenvalues --    0.26141   0.27288   0.27656   0.28576   0.30361
 Alpha virt. eigenvalues --    0.31000   0.31526   0.34918   0.35953   0.47703
 Alpha virt. eigenvalues --    0.48760   0.53064   0.55166   0.56946   0.59229
 Alpha virt. eigenvalues --    0.60509   0.61277   0.65719   0.66141   0.68263
 Alpha virt. eigenvalues --    0.69685   0.71226   0.72692   0.75209   0.75275
 Alpha virt. eigenvalues --    0.77892   0.80598   0.81652   0.84429   0.85944
 Alpha virt. eigenvalues --    0.87576   0.88982   0.89704   0.90077   0.90296
 Alpha virt. eigenvalues --    0.91180   0.92841   0.93867   0.96479   0.98515
 Alpha virt. eigenvalues --    0.99509   1.03634   1.06345   1.08070   1.10830
 Alpha virt. eigenvalues --    1.18276   1.19397   1.24657   1.25026   1.26098
 Alpha virt. eigenvalues --    1.28638   1.30213   1.39305   1.40064   1.43639
 Alpha virt. eigenvalues --    1.50764   1.53679   1.65866   1.66723   1.72205
 Alpha virt. eigenvalues --    1.73099   1.76362   1.78299   1.81695   1.87406
 Alpha virt. eigenvalues --    1.91410   1.99766   2.00954   2.02041   2.02078
 Alpha virt. eigenvalues --    2.03877   2.04048   2.05362   2.14047   2.14184
 Alpha virt. eigenvalues --    2.17209   2.21490   2.27503   2.33913   2.38882
 Alpha virt. eigenvalues --    2.43336   2.49339   2.52263   2.57455   2.58289
 Alpha virt. eigenvalues --    2.66056   2.72140   2.75143   2.78934   2.81820
 Alpha virt. eigenvalues --    2.84804   2.84857   2.86466   2.88444   2.91083
 Alpha virt. eigenvalues --    2.94001   2.97528   3.05216   3.09631   3.17468
 Alpha virt. eigenvalues --    3.21096   3.44924   3.54342   3.70206   3.74698
 Alpha virt. eigenvalues --    3.76302   3.81714   3.87964   3.89267   3.93059
 Alpha virt. eigenvalues --    3.94928   3.95703   3.97948   4.01335   4.07135
 Alpha virt. eigenvalues --    4.31563   4.52278   4.54144   4.59335  23.45040
 Alpha virt. eigenvalues --   23.62952  24.37924  24.47301  35.22668  35.24927
 Alpha virt. eigenvalues --   35.37591  35.78819  35.81921
  Beta  occ. eigenvalues --  -14.50440 -14.44260 -14.44259 -14.38919 -14.38919
  Beta  occ. eigenvalues --  -10.35282 -10.35254 -10.27962 -10.27960  -1.01291
  Beta  occ. eigenvalues --   -0.97658  -0.97117  -0.87101  -0.84651  -0.74593
  Beta  occ. eigenvalues --   -0.71259  -0.62921  -0.49637  -0.47306  -0.45035
  Beta  occ. eigenvalues --   -0.43483  -0.43231  -0.42432  -0.40161  -0.40105
  Beta  occ. eigenvalues --   -0.39946  -0.39370  -0.37149  -0.33718
  Beta virt. eigenvalues --   -0.20066  -0.18697  -0.13993  -0.10980  -0.09512
  Beta virt. eigenvalues --   -0.05309  -0.03495  -0.00935   0.01200   0.02273
  Beta virt. eigenvalues --    0.03346   0.04127   0.04177   0.06135   0.06809
  Beta virt. eigenvalues --    0.07334   0.07524   0.07992   0.10149   0.10190
  Beta virt. eigenvalues --    0.10823   0.12011   0.12156   0.13594   0.14759
  Beta virt. eigenvalues --    0.15624   0.16363   0.17901   0.18681   0.18928
  Beta virt. eigenvalues --    0.20150   0.20381   0.22077   0.23023   0.23486
  Beta virt. eigenvalues --    0.23742   0.24983   0.25033   0.25088   0.25638
  Beta virt. eigenvalues --    0.25794   0.26160   0.27239   0.28133   0.28786
  Beta virt. eigenvalues --    0.30200   0.31125   0.32059   0.35772   0.36509
  Beta virt. eigenvalues --    0.47818   0.48955   0.53376   0.55269   0.57372
  Beta virt. eigenvalues --    0.59426   0.60961   0.61180   0.65572   0.66347
  Beta virt. eigenvalues --    0.68523   0.68812   0.71285   0.73755   0.75401
  Beta virt. eigenvalues --    0.75695   0.80209   0.80781   0.82333   0.82952
  Beta virt. eigenvalues --    0.84837   0.87779   0.89762   0.89813   0.90436
  Beta virt. eigenvalues --    0.91184   0.92800   0.93388   0.94841   0.97218
  Beta virt. eigenvalues --    0.98723   0.99986   1.03812   1.06356   1.08329
  Beta virt. eigenvalues --    1.12515   1.18317   1.18777   1.24429   1.24728
  Beta virt. eigenvalues --    1.25390   1.29896   1.31555   1.39704   1.40222
  Beta virt. eigenvalues --    1.44097   1.51261   1.53869   1.66472   1.67475
  Beta virt. eigenvalues --    1.72114   1.75173   1.78677   1.79461   1.82291
  Beta virt. eigenvalues --    1.88596   1.89600   2.00445   2.01812   2.02473
  Beta virt. eigenvalues --    2.02651   2.05484   2.05666   2.07127   2.12221
  Beta virt. eigenvalues --    2.16692   2.18954   2.19898   2.30003   2.32832
  Beta virt. eigenvalues --    2.40605   2.43473   2.51302   2.52915   2.58021
  Beta virt. eigenvalues --    2.58538   2.66436   2.72585   2.75527   2.79076
  Beta virt. eigenvalues --    2.81948   2.84971   2.85166   2.87688   2.88959
  Beta virt. eigenvalues --    2.91187   2.94558   2.97815   3.05544   3.09948
  Beta virt. eigenvalues --    3.18017   3.21446   3.45763   3.54089   3.67468
  Beta virt. eigenvalues --    3.74903   3.81942   3.81957   3.88758   3.89857
  Beta virt. eigenvalues --    3.92914   3.94440   3.95478   3.98794   4.04613
  Beta virt. eigenvalues --    4.08239   4.33337   4.52501   4.55132   4.60356
  Beta virt. eigenvalues --   23.45133  23.63057  24.37905  24.47272  35.21853
  Beta virt. eigenvalues --   35.25155  35.39941  35.78979  35.82082
          Condensed to atoms (all electrons):
               1          2          3          4          5          6
     1  N    7.029827  -1.082755   0.950719  -0.031221   0.009550  -0.002005
     2  C   -1.082755  24.717640 -10.365978   0.210297  -0.219105  -0.057123
     3  C    0.950719 -10.365978  20.450127   0.290106   0.239478  -0.264676
     4  N   -0.031221   0.210297   0.290106   6.718559   0.095337   0.007155
     5  N    0.009550  -0.219105   0.239478   0.095337   6.603587   0.095287
     6  N   -0.002005  -0.057123  -0.264676   0.007155   0.095287   6.718625
     7  C    0.274689  -4.030415  -2.481468  -0.264392   0.239454   0.289485
     8  C   -0.053872  -2.179309  -4.028230  -0.057144  -0.219303   0.211272
     9  N    0.008250  -0.053878   0.274026  -0.001989   0.009554  -0.031296
               7          8          9
     1  N    0.274689  -0.053872   0.008250
     2  C   -4.030415  -2.179309  -0.053878
     3  C   -2.481468  -4.028230   0.274026
     4  N   -0.264392  -0.057144  -0.001989
     5  N    0.239454  -0.219303   0.009554
     6  N    0.289485   0.211272  -0.031296
     7  C   20.456282 -10.371921   0.951520
     8  C  -10.371921  24.721072  -1.082938
     9  N    0.951520  -1.082938   7.029958
          Atomic-Atomic Spin Densities.
               1          2          3          4          5          6
     1  N    0.072371   0.055422  -0.049956   0.000283  -0.004875  -0.000260
     2  C    0.055422   0.499747   0.243986   0.065021   0.043558  -0.024149
     3  C   -0.049956   0.243986   3.680519   0.050267  -0.028238  -0.139676
     4  N    0.000283   0.065021   0.050267   1.109206  -0.003456  -0.033492
     5  N   -0.004875   0.043558  -0.028238  -0.003456  -1.327632  -0.003434
     6  N   -0.000260  -0.024149  -0.139676  -0.033492  -0.003434   1.109188
     7  C   -0.028059  -0.557211  -3.084091  -0.139519  -0.028689   0.050368
     8  C    0.028110  -0.381397  -0.558038  -0.024127   0.043621   0.065062
     9  N    0.000091   0.028109  -0.028032  -0.000261  -0.004879   0.000284
               7          8          9
     1  N   -0.028059   0.028110   0.000091
     2  C   -0.557211  -0.381397   0.028109
     3  C   -3.084091  -0.558038  -0.028032
     4  N   -0.139519  -0.024127  -0.000261
     5  N   -0.028689   0.043621  -0.004879
     6  N    0.050368   0.065062   0.000284
     7  C    3.679486   0.244654  -0.049914
     8  C    0.244654   0.499810   0.055388
     9  N   -0.049914   0.055388   0.072368
 Mulliken charges and spin densities:
               1          2
     1  N   -0.103181   0.073126
     2  C   -0.939374  -0.026916
     3  C    0.935895   0.086740
     4  N    0.033292   1.023921
     5  N    0.146161  -1.314024
     6  N    0.033277   1.023890
     7  C    0.936766   0.087025
     8  C   -0.939626  -0.026917
     9  N   -0.103208   0.073155
 Sum of Mulliken charges =  -0.00000   1.00000
 Mulliken charges and spin densities with hydrogens summed into heavy atoms:
               1          2
     1  N   -0.103181   0.073126
     2  C   -0.939374  -0.026916
     3  C    0.935895   0.086740
     4  N    0.033292   1.023921
     5  N    0.146161  -1.314024
     6  N    0.033277   1.023890
     7  C    0.936766   0.087025
     8  C   -0.939626  -0.026917
     9  N   -0.103208   0.073155
 Electronic spatial extent (au):  <R**2>=           1048.1119
 Charge=             -0.0000 electrons
 Dipole moment (field-independent basis, Debye):
    X=              0.0026    Y=              1.5016    Z=              0.9610  Tot=              1.7828
 Quadrupole moment (field-independent basis, Debye-Ang):
   XX=            -58.1437   YY=            -60.3683   ZZ=            -50.2629
   XY=             -0.0027   XZ=              0.0013   YZ=              1.2851
 Traceless Quadrupole moment (field-independent basis, Debye-Ang):
   XX=             -1.8854   YY=             -4.1100   ZZ=              5.9954
   XY=             -0.0027   XZ=              0.0013   YZ=              1.2851
 Octapole moment (field-independent basis, Debye-Ang**2):
  XXX=              0.0787  YYY=             17.8746  ZZZ=             -0.6340  XYY=             -0.0282
  XXY=             20.9380  XXZ=              2.7344  XZZ=             -0.0027  YZZ=             -2.5471
  YYZ=              2.8854  XYZ=              0.0007
 Hexadecapole moment (field-independent basis, Debye-Ang**3):
 XXXX=           -751.1302 YYYY=           -706.7644 ZZZZ=            -94.6583 XXXY=             -0.1463
 XXXZ=              0.0111 YYYX=              0.1599 YYYZ=              4.2993 ZZZX=              0.0009
 ZZZY=              0.6013 XXYY=           -288.0635 XXZZ=           -129.4903 YYZZ=           -129.3399
 XXYZ=              3.7902 YYXZ=             -0.0029 ZZXY=             -0.0035
 N-N= 3.320218725214D+02 E-N=-1.656171851534D+03  KE= 4.236453525243D+02
                          Isotropic Fermi Contact Couplings
        Atom                 a.u.       MegaHertz       Gauss      10(-4) cm-1
     1  N(14)              0.00335       1.08257       0.38629       0.36111
     2  C(13)             -0.00292      -3.28091      -1.17071      -1.09439
     3  C(13)             -0.05072     -57.02114     -20.34656     -19.02021
     4  N(14)              0.04405      14.23202       5.07834       4.74729
     5  N(14)             -0.00263      -0.84893      -0.30292      -0.28317
     6  N(14)              0.04405      14.23303       5.07870       4.74763
     7  C(13)             -0.05073     -57.02478     -20.34786     -19.02142
     8  C(13)             -0.00293      -3.29407      -1.17541      -1.09878
     9  N(14)              0.00335       1.08328       0.38654       0.36134
 --------------------------------------------------------
       Center         ----  Spin Dipole Couplings  ----
                      3XX-RR        3YY-RR        3ZZ-RR
 --------------------------------------------------------
     1   Atom       -0.030022     -0.057771      0.087793
     2   Atom       -0.003644      0.030425     -0.026781
     3   Atom       -0.003908     -0.084925      0.088833
     4   Atom        1.268790     -1.056068     -0.212722
     5   Atom        0.895470     -1.576096      0.680626
     6   Atom        1.269081     -1.056462     -0.212618
     7   Atom       -0.004147     -0.084789      0.088936
     8   Atom       -0.003525      0.030324     -0.026800
     9   Atom       -0.030347     -0.057548      0.087895
 --------------------------------------------------------
                        XY            XZ            YZ
 --------------------------------------------------------
     1   Atom        0.042050      0.064357      0.054398
     2   Atom       -0.024317     -0.010349     -0.009029
     3   Atom        0.049648      0.125685     -0.008098
     4   Atom       -0.095448      1.007929      0.417215
     5   Atom       -0.002270      0.000927      0.916882
     6   Atom        0.090931     -1.007244      0.419091
     7   Atom       -0.049796     -0.125726     -0.007830
     8   Atom        0.024395      0.010332     -0.009050
     9   Atom       -0.042132     -0.064174      0.054577
 --------------------------------------------------------


 ---------------------------------------------------------------------------------
              Anisotropic Spin Dipole Couplings in Principal Axis System
 ---------------------------------------------------------------------------------

       Atom             a.u.   MegaHertz   Gauss  10(-4) cm-1        Axes

              Baa    -0.0886    -3.417    -1.219    -1.140 -0.5335  0.8432 -0.0654
     1 N(14)  Bbb    -0.0503    -1.941    -0.693    -0.648  0.7419  0.4295 -0.5148
              Bcc     0.1389     5.358     1.912     1.787  0.4060  0.3232  0.8548
 
              Baa    -0.0360    -4.827    -1.722    -1.610  0.4822  0.2891  0.8270
     2 C(13)  Bbb    -0.0073    -0.975    -0.348    -0.325  0.7508  0.3502 -0.5601
              Bcc     0.0432     5.802     2.070     1.935 -0.4515  0.8910 -0.0482
 
              Baa    -0.1344   -18.036    -6.436    -6.016 -0.6228  0.6864  0.3755
     3 C(13)  Bbb    -0.0439    -5.887    -2.101    -1.964  0.5236  0.7223 -0.4518
              Bcc     0.1783    23.923     8.536     7.980  0.5814  0.0848  0.8092
 
              Baa    -1.3393   -51.655   -18.432   -17.230  0.2277  0.8290 -0.5107
     4 N(14)  Bbb    -0.4434   -17.101    -6.102    -5.704 -0.3977  0.5580  0.7284
              Bcc     1.7827    68.756    24.534    22.935  0.8888  0.0372  0.4567
 
              Baa    -1.9017   -73.343   -26.170   -24.464  0.0009  0.9424 -0.3346
     5 N(14)  Bbb     0.8955    34.536    12.323    11.520  1.0000 -0.0012 -0.0007
              Bcc     1.0062    38.806    13.847    12.944  0.0010  0.3346  0.9424
 
              Baa    -1.3393   -51.653   -18.431   -17.230 -0.2261  0.8295 -0.5107
     6 N(14)  Bbb    -0.4435   -17.106    -6.104    -5.706  0.3988  0.5572  0.7284
              Bcc     1.7828    68.759    24.535    22.935  0.8887 -0.0390 -0.4568
 
              Baa    -0.1344   -18.039    -6.437    -6.017  0.6241  0.6853  0.3753
     7 C(13)  Bbb    -0.0439    -5.895    -2.103    -1.966 -0.5224  0.7232 -0.4517
              Bcc     0.1784    23.934     8.540     7.983 -0.5810  0.0859  0.8094
 
              Baa    -0.0360    -4.828    -1.723    -1.611 -0.4813  0.2900  0.8272
     8 C(13)  Bbb    -0.0073    -0.975    -0.348    -0.325  0.7501 -0.3521  0.5598
              Bcc     0.0432     5.803     2.071     1.936  0.4536  0.8899 -0.0481
 
              Baa    -0.0886    -3.418    -1.220    -1.140  0.5365  0.8414 -0.0651
     9 N(14)  Bbb    -0.0503    -1.941    -0.693    -0.648  0.7405 -0.4324  0.5145
              Bcc     0.1390     5.360     1.912     1.788 -0.4047  0.3242  0.8550
 

 ---------------------------------------------------------------------------------

 No NMR shielding tensors so no spin-rotation constants.
 Leave Link  601 at Wed Mar  1 04:48:11 2023, MaxMem=  8053063680 cpu:              15.9 elap:               0.5
 (Enter /public3/home/scg5914/software-scg5914/g16/l701.exe)
 ... and contract with generalized density number  0.
 Compute integral first derivatives.
 R6Disp: Adding Grimme-D3(BJ) dispersion energy 1st derivatives to the gradient.
 Leave Link  701 at Wed Mar  1 04:48:11 2023, MaxMem=  8053063680 cpu:               7.5 elap:               0.3
 (Enter /public3/home/scg5914/software-scg5914/g16/l702.exe)
 L702 exits ... SP integral derivatives will be done elsewhere.
 Leave Link  702 at Wed Mar  1 04:48:11 2023, MaxMem=  8053063680 cpu:               1.0 elap:               0.0
 (Enter /public3/home/scg5914/software-scg5914/g16/l703.exe)
 Integral derivatives from FoFJK, PRISM(SPDF).
 Compute integral first derivatives, UseDBF=F ICtDFT=           0.
 Calling FoFJK, ICntrl=      2127 FMM=F ISym2X=0 I1Cent= 0 IOpClX= 1 NMat=1 NMatS=1 NMatT=0.
 FoFJK:  IHMeth= 1 ICntrl=    2127 DoSepK=F KAlg= 0 I1Cent=           0 FoldK=F
 IRaf=         0 NMat=       1 IRICut=       1 DoRegI=T DoRafI=F ISym2E= 0 IDoP0=0 IntGTp=1.
 FoFCou: FMM=F IPFlag=           0 FMFlag=      100000 FMFlg1=         800
         NFxFlg=           0 DoJE=F BraDBF=F KetDBF=F FulRan=T
         wScrn=  0.000000 ICntrl=      2127 IOpCl=  1 I1Cent=           0 NGrid=           0
         NMat0=    1 NMatS0=      1 NMatT0=    0 NMatD0=    1 NMtDS0=    0 NMtDT0=    0
 Symmetry not used in FoFCou.
 Leave Link  703 at Wed Mar  1 04:48:13 2023, MaxMem=  8053063680 cpu:              53.1 elap:               1.7
 (Enter /public3/home/scg5914/software-scg5914/g16/l716.exe)
 Dipole        = 1.03171092D-03 5.90784536D-01 3.78073559D-01
 ***** Axes restored to original set *****
 -------------------------------------------------------------------
 Center     Atomic                   Forces (Hartrees/Bohr)
 Number     Number              X              Y              Z
 -------------------------------------------------------------------
      1        7          -0.003159556    0.007436763    0.001697858
      2        6           0.002911310   -0.010564779    0.005941940
      3        6          -0.042906776    0.040044004   -0.042903226
      4        7          -0.019671544   -0.019000177    0.079758628
      5        7          -0.000039409   -0.035705748   -0.088999338
      6        7           0.019638466   -0.019042575    0.079761188
      7        6           0.042993323    0.039904140   -0.042893023
      8        6          -0.003021392   -0.010535647    0.005930552
      9        7           0.003255578    0.007464020    0.001705421
 -------------------------------------------------------------------
 Cartesian Forces:  Max     0.088999338 RMS     0.035709320
 Leave Link  716 at Wed Mar  1 04:48:13 2023, MaxMem=  8053063680 cpu:               0.3 elap:               0.0
 (Enter /public3/home/scg5914/software-scg5914/g16/l103.exe)

 GradGradGradGradGradGradGradGradGradGradGradGradGradGradGradGradGradGrad
 Berny optimization.
 FormGI is forming the generalized inverse of G from B-inverse, IUseBI=4.
 Internal  Forces:  Max     0.050124296 RMS     0.022119105
 Search for a local minimum.
 Step number   1 out of a maximum of   42
 All quantities printed in internal units (Hartrees-Bohrs-Radians)
 RMS Force = .22119D-01 SwitMx=.10000D-02 MixMth= 1
 Mixed Optimization -- RFO/linear search
 Second derivative matrix not updated -- first step.
 ITU=  0
     Eigenvalues ---    0.01211   0.02025   0.02025   0.02094   0.02353
     Eigenvalues ---    0.04862   0.04862   0.09429   0.09817   0.11642
     Eigenvalues ---    0.20939   0.21652   0.22037   0.24169   0.32493
     Eigenvalues ---    0.32882   0.35378   0.44820   0.44828   1.27581
     Eigenvalues ---    1.27601
 RFO step:  Lambda=-6.87428662D-02 EMin= 1.21074210D-02
 Linear search not attempted -- first point.
 Maximum step size (   0.300) exceeded in Quadratic search.
    -- Step size scaled by   0.626
 Iteration  1 RMS(Cart)=  0.05666425 RMS(Int)=  0.00453223
 Iteration  2 RMS(Cart)=  0.00446175 RMS(Int)=  0.00141665
 Iteration  3 RMS(Cart)=  0.00001589 RMS(Int)=  0.00141657
 Iteration  4 RMS(Cart)=  0.00000003 RMS(Int)=  0.00141657
 ITry= 1 IFail=0 DXMaxC= 1.33D-01 DCOld= 1.00D+10 DXMaxT= 3.00D-01 DXLimC= 3.00D+00 Rises=F
 Variable       Old X    -DE/DX   Delta X   Delta X   Delta X     New X
                                 (Linear)    (Quad)   (Total)
    R1        2.19264  -0.00800   0.00000  -0.00372  -0.00372   2.18892
    R2        2.65477   0.00215   0.00000   0.00261   0.00261   2.65737
    R3        2.78197  -0.04717   0.00000  -0.07208  -0.07219   2.70979
    R4        2.80529  -0.04263   0.00000  -0.07461  -0.07497   2.73032
    R5        3.56485  -0.05012   0.00000  -0.15924  -0.15901   3.40584
    R6        3.56477  -0.05012   0.00000  -0.15925  -0.15902   3.40575
    R7        2.78201  -0.04717   0.00000  -0.07209  -0.07220   2.70982
    R8        2.65485   0.00211   0.00000   0.00256   0.00256   2.65741
    R9        2.19270  -0.00807   0.00000  -0.00376  -0.00376   2.18894
    A1        2.10399  -0.00342   0.00000   0.00673   0.00526   2.10925
    A2        2.22465  -0.00426   0.00000  -0.00131  -0.00239   2.22227
    A3        1.83585   0.01748   0.00000   0.04900   0.04520   1.88105
    A4        1.44677   0.00281   0.00000   0.03239   0.03062   1.47739
    A5        1.28176   0.03025   0.00000   0.11940   0.11699   1.39875
    A6        1.44677   0.00281   0.00000   0.03239   0.03062   1.47739
    A7        1.83584   0.01747   0.00000   0.04900   0.04520   1.88104
    A8        2.22465  -0.00425   0.00000  -0.00129  -0.00236   2.22229
    A9        2.10400  -0.00343   0.00000   0.00671   0.00523   2.10923
   A10        3.09873   0.00382   0.00000   0.02686   0.02686   3.12559
   A11        3.09983   0.00373   0.00000   0.01991   0.01991   3.11974
   A12        3.18614  -0.00221   0.00000  -0.01556  -0.01556   3.17058
   A13        3.18628  -0.00222   0.00000  -0.01183  -0.01183   3.17445
    D1       -2.67140  -0.00000   0.00000   0.02735   0.02685  -2.64455
    D2        0.93912  -0.01715   0.00000  -0.07203  -0.07453   0.86458
    D3       -2.62913  -0.01974   0.00000  -0.11314  -0.11406  -2.74320
    D4        0.00000  -0.00000   0.00000  -0.00001  -0.00001  -0.00001
    D5       -0.00000   0.00000   0.00000   0.00002   0.00002   0.00001
    D6        2.62913   0.01973   0.00000   0.11315   0.11407   2.74320
    D7       -1.33221   0.02470   0.00000   0.08825   0.08913  -1.24308
    D8        1.33219  -0.02469   0.00000  -0.08824  -0.08912   1.24307
    D9       -0.93914   0.01714   0.00000   0.07201   0.07451  -0.86463
   D10        2.67137  -0.00000   0.00000  -0.02737  -0.02686   2.64451
         Item               Value     Threshold  Converged?
 Maximum Force            0.050124     0.000450     NO 
 RMS     Force            0.022119     0.000300     NO 
 Maximum Displacement     0.133028     0.001800     NO 
 RMS     Displacement     0.055551     0.001200     NO 
 Predicted change in Energy=-3.460883D-02
 Lowest energy point so far.  Saving SCF results.
 GradGradGradGradGradGradGradGradGradGradGradGradGradGradGradGradGradGrad

 Leave Link  103 at Wed Mar  1 04:48:14 2023, MaxMem=  8053063680 cpu:              17.4 elap:               0.6
 (Enter /public3/home/scg5914/software-scg5914/g16/l202.exe)
                          Input orientation:                          
 ---------------------------------------------------------------------
 Center     Atomic      Atomic             Coordinates (Angstroms)
 Number     Number       Type             X           Y           Z
 ---------------------------------------------------------------------
      1          7           0        2.259259   -1.871280    0.031962
      2          6           0        1.573068   -0.938487    0.059424
      3          6           0        0.722150    0.181056    0.055006
      4          7           0        1.161645    1.436632   -0.480353
      5          7           0        0.003100    2.153310    0.699650
      6          7           0       -1.158732    1.440284   -0.479258
      7          6           0       -0.722672    0.183324    0.055703
      8          6           0       -1.577134   -0.933536    0.060935
      9          7           0       -2.260819   -1.868071    0.029911
 ---------------------------------------------------------------------
                    Distance matrix (angstroms):
                    1          2          3          4          5
     1  N    0.000000
     2  C    1.158324   0.000000
     3  C    2.564239   1.406221   0.000000
     4  N    3.522713   2.470185   1.433958   0.000000
     5  N    4.661908   3.526173   2.195993   1.802293   0.000000
     6  N    4.786488   3.662166   2.325684   2.320381   1.802244
     7  C    3.621308   2.555170   1.444823   2.325680   2.195963
     8  C    3.949445   3.150207   2.555202   3.662185   3.526147
     9  N    4.520080   3.945085   3.619069   4.784840   4.663195
                    6          7          8          9
     6  N    0.000000
     7  C    1.433973   0.000000
     8  C    2.470200   1.406240   0.000000
     9  N    3.524069   2.564135   1.158337   0.000000
 Stoichiometry    C4N5(2)
 Framework group  C1[X(C4N5)]
 Deg. of freedom    21
 Full point group                 C1      NOp   1
 RotChk:  IX=0 Diff= 7.54D-03
 Largest Abelian subgroup         C1      NOp   1
 Largest concise Abelian subgroup C1      NOp   1
                         Standard orientation:                         
 ---------------------------------------------------------------------
 Center     Atomic      Atomic             Coordinates (Angstroms)
 Number     Number       Type             X           Y           Z
 ---------------------------------------------------------------------
      1          7           0        2.265903   -1.863110    0.023922
      2          6           0        1.576371   -0.932910    0.055359
      3          6           0        0.721438    0.183580    0.055712
      4          7           0        1.156372    1.442963   -0.474401
      5          7           0       -0.004626    2.150513    0.708695
      6          7           0       -1.164003    1.438280   -0.473105
      7          6           0       -0.723382    0.180658    0.056535
      8          6           0       -1.573829   -0.939275    0.057143
      9          7           0       -2.254158   -1.876121    0.022247
 ---------------------------------------------------------------------
 Rotational constants (GHZ):           1.9734304           1.8977813           1.0201002
 Leave Link  202 at Wed Mar  1 04:48:14 2023, MaxMem=  8053063680 cpu:               0.9 elap:               0.0
 (Enter /public3/home/scg5914/software-scg5914/g16/l301.exe)
 Standard basis: 6-311+G(d,p) (5D, 7F)
 Ernie: Thresh=  0.10000D-02 Tol=  0.10000D-05 Strict=F.
 There are   207 symmetry adapted cartesian basis functions of A   symmetry.
 There are   198 symmetry adapted basis functions of A   symmetry.
   198 basis functions,   324 primitive gaussians,   207 cartesian basis functions
    30 alpha electrons       29 beta electrons
       nuclear repulsion energy       335.9437259376 Hartrees.
 IExCor=  402 DFT=T Ex+Corr=B3LYP ExCW=0 ScaHFX=  0.200000
 ScaDFX=  0.800000  0.720000  1.000000  0.810000 ScalE2=  1.000000  1.000000
 IRadAn=      5 IRanWt=     -1 IRanGd=            0 ICorTp=0 IEmpDi=141
 NAtoms=    9 NActive=    9 NUniq=    9 SFac= 1.00D+00 NAtFMM=   60 NAOKFM=F Big=F
 Integral buffers will be    131072 words long.
 Raffenetti 2 integral format.
 Two-electron integral symmetry is turned on.
 R6Disp:  Grimme-D3(BJ) Dispersion energy=       -0.0176349741 Hartrees.
 Nuclear repulsion after empirical dispersion term =      335.9260909635 Hartrees.
 Leave Link  301 at Wed Mar  1 04:48:14 2023, MaxMem=  8053063680 cpu:               1.0 elap:               0.0
 (Enter /public3/home/scg5914/software-scg5914/g16/l302.exe)
 NPDir=0 NMtPBC=     1 NCelOv=     1 NCel=       1 NClECP=     1 NCelD=      1
         NCelK=      1 NCelE2=     1 NClLst=     1 CellRange=     0.0.
 One-electron integrals computed using PRISM.
 One-electron integral symmetry used in STVInt
 NBasis=   198 RedAO= T EigKep=  2.62D-06  NBF=   198
 NBsUse=   198 1.00D-06 EigRej= -1.00D+00 NBFU=   198
 Precomputing XC quadrature grid using
 IXCGrd= 4 IRadAn=           5 IRanWt=          -1 IRanGd=           0 AccXCQ= 0.00D+00.
 Generated NRdTot=       0 NPtTot=           0 NUsed=           0 NTot=          32
 NSgBfM=   207   207   207   207   207 MxSgAt=     9 MxSgA2=     9.
 Leave Link  302 at Wed Mar  1 04:48:14 2023, MaxMem=  8053063680 cpu:               4.1 elap:               0.1
 (Enter /public3/home/scg5914/software-scg5914/g16/l303.exe)
 DipDrv:  MaxL=1.
 Leave Link  303 at Wed Mar  1 04:48:14 2023, MaxMem=  8053063680 cpu:               2.7 elap:               0.1
 (Enter /public3/home/scg5914/software-scg5914/g16/l401.exe)
 Initial guess from the checkpoint file:  "dsgdb9nsd_128888-1.chk"
 B after Tr=     0.000000   -0.000000   -0.000000
         Rot=    0.999997   -0.001920   -0.000034   -0.001806 Ang=  -0.30 deg.
 Guess basis will be translated and rotated to current coordinates.
 JPrj=2 DoOrth=T DoCkMO=T.
 Initial guess <Sx>= 0.0000 <Sy>= 0.0000 <Sz>= 0.5000 <S**2>= 1.7852 S= 0.9266
 Generating alternative initial guess.
 ExpMin= 4.38D-02 ExpMax= 6.29D+03 ExpMxC= 9.49D+02 IAcc=3 IRadAn=         5 AccDes= 0.00D+00
 Harris functional with IExCor=  402 and IRadAn=       5 diagonalized for initial guess.
 HarFok:  IExCor=  402 AccDes= 0.00D+00 IRadAn=         5 IDoV= 1 UseB2=F ITyADJ=14
 ICtDFT=  3500011 ScaDFX=  1.000000  1.000000  1.000000  1.000000
 FoFCou: FMM=F IPFlag=           0 FMFlag=      100000 FMFlg1=           0
         NFxFlg=           0 DoJE=T BraDBF=F KetDBF=T FulRan=T
         wScrn=  0.000000 ICntrl=       500 IOpCl=  0 I1Cent=   200000004 NGrid=           0
         NMat0=    1 NMatS0=      1 NMatT0=    0 NMatD0=    1 NMtDS0=    0 NMtDT0=    0
 Petite list used in FoFCou.
 Harris En= -425.888257676981    
 Leave Link  401 at Wed Mar  1 04:48:15 2023, MaxMem=  8053063680 cpu:              28.1 elap:               0.9
 (Enter /public3/home/scg5914/software-scg5914/g16/l502.exe)
 Keep R1 and R2 ints in memory in canonical form, NReq=421249518.
 FoFCou: FMM=F IPFlag=           0 FMFlag=           0 FMFlg1=           0
         NFxFlg=           0 DoJE=F BraDBF=F KetDBF=F FulRan=T
         wScrn=  0.000000 ICntrl=       600 IOpCl=  0 I1Cent=           0 NGrid=           0
         NMat0=    1 NMatS0=  19701 NMatT0=    0 NMatD0=    1 NMtDS0=    0 NMtDT0=    0
 Symmetry not used in FoFCou.
 Two-electron integral symmetry not used.
 UHF open shell SCF:
 Using DIIS extrapolation, IDIIS=  1040.
 NGot=  8053063680 LenX=  7664820128 LenY=  7664776838
 Requested convergence on RMS density matrix=1.00D-08 within 128 cycles.
 Requested convergence on MAX density matrix=1.00D-06.
 Requested convergence on             energy=1.00D-06.
 No special actions if energy rises.

 Cycle   1  Pass 1  IDiag  1:
 E= -425.900397109873    
 DIIS: error= 5.91D-03 at cycle   1 NSaved=   1.
 NSaved= 1 IEnMin= 1 EnMin= -425.900397109873     IErMin= 1 ErrMin= 5.91D-03
 ErrMax= 5.91D-03  0.00D+00 EMaxC= 1.00D-01 BMatC= 4.57D-02 BMatP= 4.57D-02
 IDIUse=3 WtCom= 9.41D-01 WtEn= 5.91D-02
 Coeff-Com:  0.100D+01
 Coeff-En:   0.100D+01
 Coeff:      0.100D+01
 Gap=     0.459 Goal=   None    Shift=    0.000
 Gap=     0.500 Goal=   None    Shift=    0.000
 GapD=    0.459 DampG=2.000 DampE=1.000 DampFc=2.0000 IDamp=-1.
 RMSDP=1.35D-02 MaxDP=1.34D+00              OVMax= 5.40D-02

 Cycle   2  Pass 1  IDiag  1:
 E= -425.919515452076     Delta-E=       -0.019118342203 Rises=F Damp=F
 DIIS: error= 1.92D-03 at cycle   2 NSaved=   2.
 NSaved= 2 IEnMin= 2 EnMin= -425.919515452076     IErMin= 2 ErrMin= 1.92D-03
 ErrMax= 1.92D-03  0.00D+00 EMaxC= 1.00D-01 BMatC= 3.24D-03 BMatP= 4.57D-02
 IDIUse=3 WtCom= 9.81D-01 WtEn= 1.92D-02
 Coeff-Com:  0.503D-01 0.950D+00
 Coeff-En:   0.000D+00 0.100D+01
 Coeff:      0.494D-01 0.951D+00
 Gap=     0.130 Goal=   None    Shift=    0.000
[...]
 Molecular unit  1  (C4N5)
     1. BD (   1) N   1 - C   2          0.99693    -1.10432  185(g),47(g)
     2. BD (   2) N   1 - C   2          0.98844    -0.39984  186(v),189(v)
     3. BD (   3) N   1 - C   2          0.96742    -0.39809  187(v),68(v),186(v)
     4. BD (   1) C   2 - C   3          0.99024    -0.82953  182(g),189(g),30(v),186(g)
                                                    131(v),190(v),132(v),194(v)
                                                    60(g),81(v)
     5. BD (   1) C   3 - N   4          0.97849    -0.84166  26(g),195(v),191(g),190(g)
                                                    182(v),98(v),189(g),185(g)
                                                    183(v),194(v),48(v),187(g)
                                                    131(v),184(v),193(v)
     6. BD (   1) C   3 - C   7          0.98360    -0.82289  185(g),195(g),182(v),196(v)
                                                    197(v),183(v),149(v),48(v)
                                                    186(g),114(v),81(v)
     7. BD (   1) N   4 - N   5          0.85268    -0.67111  26(g),187(g),191(g),190(g)
                                                    83(g),10(g),84(g),85(g)
                                                    193(g),94(g),66(v),91(g)
                                                    185(v),100(g),103(g),115(v)
                                                    65(v),76(v),81(g),86(g)
                                                    111(g),82(g),186(g),99(g)
     8. BD (   1) N   4 - N   6          0.66220    -0.18734  26(g),193(v),191(g),10(v)
                                                    187(g),192(g),85(g),190(g)
                                                    194(g),83(g),84(g),100(v)
                                                    186(g),195(v),185(v),119(g)
                                                    97(v),111(v),64(v),91(g)
                                                    131(v),94(g),133(v),103(v)
                                                    79(v),86(g),76(v),66(v)
                                                    99(v)
     9. BD (   1) N   5 - N   6          0.97040    -0.92012  10(g),191(g),132(v),195(v)
                                                    193(g),82(v),194(g),133(v)
                                                    187(v),26(v)
    10. BD*(   1) N   5 - C   7          0.68044    -0.27334  26(v),193(g),198(v),191(v)
                                                    192(g),187(v),194(g),186(v)
                                                    116(v),190(g),85(v),119(v)
                                                    101(g),150(v)
    11. BD (   1) N   6 - C   7          0.97595    -0.85298  185(v),196(v),189(g),98(v)
                                                    197(v),195(g),186(v),149(v)
                                                    64(v)
    12. BD (   1) C   7 - C   8          0.99043    -0.83030  196(g),189(g),165(v),194(g)
                                                    192(v),64(v),65(v),186(v)
                                                    161(g),114(v)
    13. BD (   1) C   8 - N   9          0.99693    -1.10433  195(g),148(g)
    14. BD (   2) C   8 - N   9          0.98843    -0.39984  194(v),189(v),193(v),10(v)
    15. BD (   3) C   8 - N   9          0.96743    -0.39809  193(v),10(v),135(v)
    16. CR (   1) N   1                  0.99979   -14.11925  47(v),185(v)
    17. CR (   1) C   2                  0.99962   -10.14041  65(v),31(v),189(v),182(g)
                                                    67(v)
    18. CR (   1) C   3                  0.99932   -10.19122  182(v),195(v),132(v),47(v)
                                                    189(g),82(v),191(v),134(v)
    19. CR (   1) N   4                  0.99951   -14.30705  26(g),191(g),187(g),64(v)
                                                    98(v),185(v)
    20. CR (   1) N   5                  0.99980   -14.30423  187(v),10(g),194(v),186(v)
                                                    193(g),114(v),81(v),26(v)
    21. CR (   1) N   6                  0.99958   -14.30783  191(g),131(v),98(v),193(v)
                                                    194(g)
    22. CR (   1) C   7                  0.99934   -10.19179  196(v),185(v),65(v),148(v)
                                                    189(g),191(v),115(v)
    23. CR (   1) C   8                  0.99962   -10.14040  132(v),166(v),189(v),196(g)
                                                    134(v)
    24. CR (   1) N   9                  0.99979   -14.11925  148(v),195(v)
    25. LP (   1) N   1                  0.98730    -0.57445  47(v),185(v),54(v),30(g)
                                                    55(v),50(v),56(v)
    26. LP*(   1) N   4                  0.70115    -0.24503  193(v),10(v),191(g),187(g)
                                                    190(g),85(g),83(g),100(v)
                                                    84(g),186(g),192(v),103(v)
                                                    91(g),94(g),66(v),111(v)
                                                    76(v),65(v),79(v),75(v)
                                                    87(g),81(g),73(v),82(g)
                                                    98(v),86(g),92(g),88(g)
                                                    105(v),108(v)
    27. LP (   1) N   5                  0.97346    -0.53714  194(v),186(v),26(v),10(g)
                                                    193(g),187(v),114(v),81(v)
    28. LP (   1) N   6                  0.78968    -0.48320  193(v),10(v),192(g),194(g)
                                                    191(g),119(g),190(v),131(v)
                                                    99(v),97(v),189(v),98(v)
    29. LP (   1) N   9                  0.98730    -0.57445  148(v),195(v),155(v),165(g)
                                                    156(v),151(v),157(v)
    30. RY*(   1) N   1                  0.00071     1.70121   
    31. RY*(   2) N   1                  0.00023     0.69528   
    32. RY*(   3) N   1                  0.00016     0.77975   
    33. RY*(   4) N   1                  0.00007     1.15096   
    34. RY*(   5) N   1                  0.00004     1.21660   
    35. RY*(   6) N   1                  0.00000     2.18644   
    36. RY*(   7) N   1                  0.00000    34.82881   
    37. RY*(   8) N   1                  0.00000     2.53042   
    38. RY*(   9) N   1                  0.00000     2.09502   
    39. RY*(  10) N   1                  0.00000     2.64151   
    40. RY*(  11) N   1                  0.00000     2.31760   
    41. RY*(  12) N   1                  0.00000     1.93518   
    42. RY*(  13) N   1                  0.00001     2.05803   
    43. RY*(  14) N   1                  0.00000     1.92523   
    44. RY*(  15) N   1                  0.00000     1.91441   
    45. RY*(  16) N   1                  0.00001     1.97827   
    46. RY*(  17) N   1                  0.00000     1.82550   
    47. RY*(   1) C   2                  0.00749     0.96351   
    48. RY*(   2) C   2                  0.00179     0.73474   
    49. RY*(   3) C   2                  0.00047     1.67418   
    50. RY*(   4) C   2                  0.00043     1.04512   
    51. RY*(   5) C   2                  0.00024     1.32825   
    52. RY*(   6) C   2                  0.00009     0.70964   
    53. RY*(   7) C   2                  0.00004     0.94889   
    54. RY*(   8) C   2                  0.00001     0.50039   
    55. RY*(   9) C   2                  0.00001     2.27185   
    56. RY*(  10) C   2                  0.00001     2.26113   
    57. RY*(  11) C   2                  0.00000     0.92060   
    58. RY*(  12) C   2                  0.00001     2.88422   
    59. RY*(  13) C   2                  0.00001     2.04959   
    60. RY*(  14) C   2                  0.00001    22.08970   
    61. RY*(  15) C   2                  0.00001     1.13404   
    62. RY*(  16) C   2                  0.00000     2.40677   
    63. RY*(  17) C   2                  0.00001     1.78726   
    64. RY*(   1) C   3                  0.00265     1.48656   
    65. RY*(   2) C   3                  0.00144     1.65900   
    66. RY*(   3) C   3                  0.00086     1.31322   
    67. RY*(   4) C   3                  0.00072     1.13545   
    68. RY*(   5) C   3                  0.00048     1.07564   
    69. RY*(   6) C   3                  0.00035     1.83289   
    70. RY*(   7) C   3                  0.00024     1.20293   
    71. RY*(   8) C   3                  0.00018     2.19071   
    72. RY*(   9) C   3                  0.00011     2.32297   
    73. RY*(  10) C   3                  0.00007     0.97447   
    74. RY*(  11) C   3                  0.00005     4.26366   
    75. RY*(  12) C   3                  0.00002     2.82267   
    76. RY*(  13) C   3                  0.00002     3.84482   
    77. RY*(  14) C   3                  0.00000     0.45228   
    78. RY*(  15) C   3                  0.00000     2.60446   
    79. RY*(  16) C   3                  0.00001    15.81321   
    80. RY*(  17) C   3                  0.00000     1.89945   
    81. RY*(   1) N   4                  0.00254     0.88432   
    82. RY*(   2) N   4                  0.00070     0.80162   
    83. RY*(   3) N   4                  0.00038     1.08354   
    84. RY*(   4) N   4                  0.00027     1.26480   
    85. RY*(   5) N   4                  0.00014     1.32393   
    86. RY*(   6) N   4                  0.00005     1.53776   
    87. RY*(   7) N   4                  0.00002     1.16534   
    88. RY*(   8) N   4                  0.00001     1.86382   
    89. RY*(   9) N   4                  0.00001     3.92741   
    90. RY*(  10) N   4                  0.00000     3.82736   
    91. RY*(  11) N   4                  0.00000     0.66379   
    92. RY*(  12) N   4                  0.00000     3.62155   
    93. RY*(  13) N   4                  0.00001     1.96093   
    94. RY*(  14) N   4                  0.00001     1.84734   
    95. RY*(  15) N   4                  0.00000    34.97925   
    96. RY*(  16) N   4                  0.00000     2.25180   
    97. RY*(   1) N   5                  0.00266     1.21584   
    98. RY*(   2) N   5                  0.00175     0.88747   
    99. RY*(   3) N   5                  0.00082     1.17536   
   100. RY*(   4) N   5                  0.00065     1.40851   
   101. RY*(   5) N   5                  0.00019     1.41554   
   102. RY*(   6) N   5                  0.00003     0.77885   
   103. RY*(   7) N   5                  0.00001     0.76622   
   104. RY*(   8) N   5                  0.00002     2.71379   
   105. RY*(   9) N   5                  0.00002     0.67888   
   106. RY*(  10) N   5                  0.00001     1.47782   
   107. RY*(  11) N   5                  0.00000     0.40434   
   108. RY*(  12) N   5                  0.00000     3.67784   
   109. RY*(  13) N   5                  0.00000     4.24830   
   110. RY*(  14) N   5                  0.00000     3.76124   
   111. RY*(  15) N   5                  0.00000     1.78197   
   112. RY*(  16) N   5                  0.00000    34.83244   
   113. RY*(  17) N   5                  0.00000     2.45815   
   114. RY*(   1) N   6                  0.00254     0.87907   
   115. RY*(   2) N   6                  0.00074     0.89046   
   116. RY*(   3) N   6                  0.00050     1.63863   
   117. RY*(   4) N   6                  0.00038     1.16532   
   118. RY*(   5) N   6                  0.00027     1.23540   
   119. RY*(   6) N   6                  0.00014     1.31489   
   120. RY*(   7) N   6                  0.00005     1.54248   
   121. RY*(   8) N   6                  0.00003     1.31593   
   122. RY*(   9) N   6                  0.00001     3.79861   
   123. RY*(  10) N   6                  0.00001     1.89031   
   124. RY*(  11) N   6                  0.00000     0.66868   
   125. RY*(  12) N   6                  0.00000     3.63409   
   126. RY*(  13) N   6                  0.00000     3.83149   
   127. RY*(  14) N   6                  0.00000    34.97967   
   128. RY*(  15) N   6                  0.00001     1.93265   
   129. RY*(  16) N   6                  0.00000     1.83715   
   130. RY*(  17) N   6                  0.00000     2.21510   
   131. RY*(   1) C   7                  0.00263     1.45824   
   132. RY*(   2) C   7                  0.00142     1.66334   
   133. RY*(   3) C   7                  0.00099     1.40963   
   134. RY*(   4) C   7                  0.00071     1.12752   
   135. RY*(   5) C   7                  0.00053     0.84747   
   136. RY*(   6) C   7                  0.00037     1.65232   
   137. RY*(   7) C   7                  0.00028     1.50936   
   138. RY*(   8) C   7                  0.00019     2.23526   
   139. RY*(   9) C   7                  0.00011     2.32133   
   140. RY*(  10) C   7                  0.00007     0.97271   
   141. RY*(  11) C   7                  0.00005     4.29287   
   142. RY*(  12) C   7                  0.00002     1.66740   
   143. RY*(  13) C   7                  0.00001     1.83364   
   144. RY*(  14) C   7                  0.00001    18.92921   
   145. RY*(  15) C   7                  0.00000     2.60184   
   146. RY*(  16) C   7                  0.00000     0.46064   
   147. RY*(  17) C   7                  0.00000     1.91338   
   148. RY*(   1) C   8                  0.00749     0.96350   
   149. RY*(   2) C   8                  0.00179     0.73465   
   150. RY*(   3) C   8                  0.00047     1.67405   
   151. RY*(   4) C   8                  0.00043     1.04556   
   152. RY*(   5) C   8                  0.00024     1.32726   
   153. RY*(   6) C   8                  0.00009     0.70946   
   154. RY*(   7) C   8                  0.00004     0.94901   
   155. RY*(   8) C   8                  0.00001     0.50025   
   156. RY*(   9) C   8                  0.00001     2.27245   
   157. RY*(  10) C   8                  0.00001     2.26114   
   158. RY*(  11) C   8                  0.00000     0.92067   
   159. RY*(  12) C   8                  0.00001     2.88407   
   160. RY*(  13) C   8                  0.00001     2.04949   
   161. RY*(  14) C   8                  0.00001    22.09022   
   162. RY*(  15) C   8                  0.00001     1.13388   
   163. RY*(  16) C   8                  0.00000     2.40704   
   164. RY*(  17) C   8                  0.00001     1.78733   
   165. RY*(   1) N   9                  0.00071     1.70104   
   166. RY*(   2) N   9                  0.00023     0.69535   
   167. RY*(   3) N   9                  0.00016     0.77980   
   168. RY*(   4) N   9                  0.00007     1.15070   
   169. RY*(   5) N   9                  0.00004     1.21693   
   170. RY*(   6) N   9                  0.00000     2.18601   
   171. RY*(   7) N   9                  0.00000    34.82897   
   172. RY*(   8) N   9                  0.00000     2.53015   
   173. RY*(   9) N   9                  0.00000     2.09529   
   174. RY*(  10) N   9                  0.00000     2.64170   
   175. RY*(  11) N   9                  0.00000     2.31745   
   176. RY*(  12) N   9                  0.00000     1.93531   
   177. RY*(  13) N   9                  0.00001     2.05846   
   178. RY*(  14) N   9                  0.00000     1.92526   
   179. RY*(  15) N   9                  0.00000     1.91437   
   180. RY*(  16) N   9                  0.00001     1.97809   
   181. RY*(  17) N   9                  0.00000     1.82531   
   182. BD*(   1) N   1 - C   2          0.00497     0.86110   
   183. BD*(   2) N   1 - C   2          0.00798     0.04598   
   184. BD*(   3) N   1 - C   2          0.03185     0.04592   
   185. BD*(   1) C   2 - C   3          0.01650     0.44752   
   186. BD*(   1) C   3 - N   4          0.03774     0.32952   
   187. BD*(   2) C   3 - N   4          0.17602     0.68611  190(g),91(g),26(g),191(g)
                                                    83(g),103(v),84(g),66(g)
                                                    105(v),85(g),94(g),100(v)
                                                    77(g),68(g),82(g),87(g)
                                                    99(v),186(g),86(g),65(g)
                                                    111(v),184(v),102(v),73(g)
                                                    81(g),71(g),10(v),135(v)
                                                    76(g),140(v),193(v),61(v)
                                                    108(v),67(g)
   188. BD (   2) C   3 - N   4          0.61655    -0.11531  191(g),26(g),187(g),193(v)
                                                    190(g),184(v),10(v),83(g)
                                                    85(g),186(g),183(v),84(g)
                                                    66(g),91(g),100(v),103(v)
                                                    94(g),76(g),86(g),137(v)
                                                    111(v),99(v),73(g),79(g)
                                                    81(g),87(g),198(r),82(g)
                                                    93(g)
   189. BD*(   1) C   3 - C   7          0.01453     0.48491   
   190. BD*(   1) N   4 - N   5          0.01534     0.54831   
   191. BD*(   1) N   4 - N   6          0.03300    -0.09794   
   192. BD*(   1) N   5 - N   6          0.03381     0.32312   
   193. BD (   1) N   5 - C   7          0.43975    -0.24448  26(v),10(g),198(v),191(v)
                                                    187(v),119(v),197(v),70(v)
                                                    190(g),150(v)
   194. BD*(   1) N   6 - C   7          0.03250     0.34092   
   195. BD*(   1) C   7 - C   8          0.01608     0.44805   
   196. BD*(   1) C   8 - N   9          0.00497     0.86112   
   197. BD*(   2) C   8 - N   9          0.00798     0.04599   
   198. BD*(   3) C   8 - N   9          0.03184     0.04592   
       -------------------------------
              Total Lewis   27.09997  ( 93.4482%)
        Valence non-Lewis    1.84670  (  6.3679%)
        Rydberg non-Lewis    0.05333  (  0.1839%)
       -------------------------------
            Total unit  1   29.00000  (100.0000%)
           Charge unit  1    0.50000
 Leave Link  607 at Wed Mar  1 04:53:36 2023, MaxMem=  8053063680 cpu:              81.8 elap:               2.7
 (Enter /public3/home/scg5914/software-scg5914/g16/l9999.exe)
 Unable to Open any file for archive entry.
 1\1\GINC-E1009\SP\UB3LYP\Gen\C4N5(2)\SCG5914\01-Mar-2023\0\\#p b3lyp/c
 hkbas pop=nbo geom=allcheck guess=tcheck em=gd3bj\\dsgdb9nsd_128888-1.
 gjf\\0,2\N,0,2.4045165907,-1.8090984317,0.0055650024\C,0,1.6386614666,
 -0.9455964881,0.0050204567\C,0,0.6867339692,0.0940192667,0.0139560346\
 N,0,1.0387922936,1.4282748004,-0.0381502212\N,0,0.0025300633,2.2354367
 551,0.0602433994\N,0,-1.0357459157,1.4305757248,-0.0380052349\C,0,-0.6
 86589105,0.0955814771,0.0140005191\C,0,-1.6408031282,-0.9419307961,0.0
 048333524\N,0,-2.4082312345,-1.8040293082,0.0055176917\\Version=ES64L-
 G16RevC.01\State=2-A\HF=-426.1220563\S2=0.763006\S2-1=0.\S2A=0.750051\
 RMSD=8.639e-09\Dipole=0.001009,0.7384338,0.1155642\Quadrupole=-2.61851
 62,-3.6480552,6.2665714,0.0000738,0.000368,0.3934627\PG=C01 [X(C4N5)]\
 \@
 The archive entry for this job was punched.


 AND ALL THIS SCIENCE I DON'T UNDERSTAND
 IT'S JUST MY JOB FIVE DAYS A WEEK

                           -- ELTON JOHN, "ROCKET MAN"
 Job cpu time:       0 days  0 hours  2 minutes 39.6 seconds.
 Elapsed time:       0 days  0 hours  0 minutes  5.5 seconds.
 File lengths (MBytes):  RWF=     30 Int=      0 D2E=      0 Chk=      5 Scr=      1
 Normal termination of Gaussian 16 at Wed Mar  1 04:53:36 2023.
