 Entering Gaussian System, Link 0=/public3/home/scg5914/software-scg5914/g16/g16
 Input=dsgdb9nsd_125851-4.gjf
 Output=dsgdb9nsd_125851-4.log
 Initial command:
 /public3/home/scg5914/software-scg5914/g16/l1.exe "/public3/home/scg5914/software-scg5914/test/tmp/dsgdb9nsd_125851-4/Gau-130877.inp" -scrdir="/public3/home/scg5914/software-scg5914/test/tmp/dsgdb9nsd_125851-4/"
 Entering Link 1 = /public3/home/scg5914/software-scg5914/g16/l1.exe PID=    130878.
  
 Copyright (c) 1988-2019, Gaussian, Inc.  All Rights Reserved.
  
 This is part of the Gaussian(R) 16 program.  It is based on
 the Gaussian(R) 09 system (copyright 2009, Gaussian, Inc.),
 the Gaussian(R) 03 system (copyright 2003, Gaussian, Inc.),
 the Gaussian(R) 98 system (copyright 1998, Gaussian, Inc.),
 the Gaussian(R) 94 system (copyright 1995, Gaussian, Inc.),
 the Gaussian 92(TM) system (copyright 1992, Gaussian, Inc.),
 the Gaussian 90(TM) system (copyright 1990, Gaussian, Inc.),
 the Gaussian 88(TM) system (copyright 1988, Gaussian, Inc.),
 the Gaussian 86(TM) system (copyright 1986, Carnegie Mellon
 University), and the Gaussian 82(TM) system (copyright 1983,
 Carnegie Mellon University). Gaussian is a federally registered
 trademark of Gaussian, Inc.
  
 This software contains proprietary and confidential information,
 including trade secrets, belonging to Gaussian, Inc.
  
 This software is provided under written license and may be
 used, copied, transmitted, or stored only in accord with that
 written license.
  
 The following legend is applicable only to US Government
 contracts under FAR:
  
                    RESTRICTED RIGHTS LEGEND
  
 Use, reproduction and disclosure by the US Government is
 subject to restrictions as set forth in subparagraphs (a)
 and (c) of the Commercial Computer Software - Restricted
 Rights clause in FAR 52.227-19.
  
 Gaussian, Inc.
 340 Quinnipiac St., Bldg. 40, Wallingford CT 06492
  
  
 ---------------------------------------------------------------
 Warning -- This program may not be used in any manner that
 competes with the business of Gaussian, Inc. or will provide
 assistance to any competitor of Gaussian, Inc.  The licensee
 of this program is prohibited from giving any competitor of
 Gaussian, Inc. access to this program.  By using this program,
 the user acknowledges that Gaussian, Inc. is engaged in the
 business of creating and licensing software in the field of
 computational chemistry and represents and warrants to the
 licensee that it is not a competitor of Gaussian, Inc. and that
 it will not use this program in any manner prohibited above.
 ---------------------------------------------------------------
  

 Cite this work as:
 Gaussian 16, Revision C.01,
 M. J. Frisch, G. W. Trucks, H. B. Schlegel, G. E. Scuseria, 
 M. A. Robb, J. R. Cheeseman, G. Scalmani, V. Barone, 
 G. A. Petersson, H. Nakatsuji, X. Li, M. Caricato, A. V. Marenich, 
 J. Bloino, B. G. Janesko, R. Gomperts, B. Mennucci, H. P. Hratchian, 
 J. V. Ortiz, A. F. Izmaylov, J. L. Sonnenberg, D. Williams-Young, 
 F. Ding, F. Lipparini, F. Egidi, J. Goings, B. Peng, A. Petrone, 
 T. Henderson, D. Ranasinghe, V. G. Zakrzewski, J. Gao, N. Rega, 
 G. Zheng, W. Liang, M. Hada, M. Ehara, K. Toyota, R. Fukuda, 
 J. Hasegawa, M. Ishida, T. Nakajima, Y. Honda, O. Kitao, H. Nakai, 
 T. Vreven, K. Throssell, J. A. Montgomery, Jr., J. E. Peralta, 
 F. Ogliaro, M. J. Bearpark, J. J. Heyd, E. N. Brothers, K. N. Kudin, 
 V. N. Staroverov, T. A. Keith, R. Kobayashi, J. Normand, 
 K. Raghavachari, A. P. Rendell, J. C. Burant, S. S. Iyengar, 
 J. Tomasi, M. Cossi, J. M. Millam, M. Klene, C. Adamo, R. Cammi, 
 J. W. Ochterski, R. L. Martin, K. Morokuma, O. Farkas, 
 J. B. Foresman, and D. J. Fox, Gaussian, Inc., Wallingford CT, 2019.
 
 ******************************************
 Gaussian 16:  ES64L-G16RevC.01  3-Jul-2019
                29-Oct-2022 
 ******************************************
 %chk=dsgdb9nsd_125851-4.chk
 %mem=60GB
 %nprocshared=32
 Will use up to   32 processors via shared memory.
 ------------------------------------
 #p opt freq b3lyp/6-311+g** em=gd3bj
 ------------------------------------
 1/18=20,19=15,26=3,38=1/1,3;
 2/9=110,12=2,17=6,18=5,40=1/2;
 3/5=4,6=6,7=111,11=2,25=1,30=1,71=1,74=-5,124=41/1,2,3;
 4//1;
 5/5=2,38=5/2;
 6/7=2,8=2,9=2,10=2,28=1/1;
 7//1,2,3,16;
 1/18=20,19=15,26=3/3(2);
 2/9=110/2;
 99//99;
 2/9=110/2;
 3/5=4,6=6,7=111,11=2,25=1,30=1,71=1,74=-5,124=41/1,2,3;
 4/5=5,16=3,69=1/1;
 5/5=2,38=5/2;
 7//1,2,3,16;
 1/18=20,19=15,26=3/3(-5);
 2/9=110/2;
 6/7=2,8=2,9=2,10=2,19=2,28=1/1;
 99/9=1/99;
 Leave Link    1 at Sat Oct 29 16:01:44 2022, MaxMem=  8053063680 cpu:               0.8 elap:               0.0
 (Enter /public3/home/scg5914/software-scg5914/g16/l101.exe)
 ------------------
 dsgdb9nsd_125851-4
 ------------------
 Symbolic Z-matrix:
 Charge =  0 Multiplicity = 2
 C                    -0.17176   1.35952   0.04442 
 C                     0.09863  -0.12701   0.08561 
 C                     1.4922   -0.60996  -0.23387 
 C                     0.9839   -0.67414   1.2111 
 C                     1.01413  -2.17522   1.0304 
 N                     0.40096  -3.32468   1.21478 
 C                     0.59985  -3.91013  -0.02114 
 N                     1.20273  -3.17402  -0.95234 
 N                     1.55104  -2.08529  -0.20735 
 H                     0.70162   1.93572   0.36744 
 H                    -0.42983   1.67808  -0.97042 
 H                    -1.00642   1.61931   0.70268 
 H                     2.28414  -0.01601  -0.66952 
 H                     1.29833  -0.0831    2.0591 
 H                     0.29578  -4.92706  -0.22633 
 
 ITRead=  0  0  0  0  0  0  0  0  0  0  0  0  0  0  0
 MicOpt= -1 -1 -1 -1 -1 -1 -1 -1 -1 -1 -1 -1 -1 -1 -1
 NAtoms=     15 NQM=       15 NQMF=       0 NMMI=      0 NMMIF=      0
                NMic=       0 NMicF=      0.
                    Isotopes and Nuclear Properties:
 (Nuclear quadrupole moments (NQMom) in fm**2, nuclear magnetic moments (NMagM)
  in nuclear magnetons)

  Atom         1           2           3           4           5           6           7           8           9          10
 IAtWgt=          12          12          12          12          12          14          12          14          14           1
 AtmWgt=  12.0000000  12.0000000  12.0000000  12.0000000  12.0000000  14.0030740  12.0000000  14.0030740  14.0030740   1.0078250
 NucSpn=           0           0           0           0           0           2           0           2           2           1
 AtZEff=  -0.0000000  -0.0000000  -0.0000000  -0.0000000  -0.0000000  -0.0000000  -0.0000000  -0.0000000  -0.0000000  -0.0000000
 NQMom=    0.0000000   0.0000000   0.0000000   0.0000000   0.0000000   2.0440000   0.0000000   2.0440000   2.0440000   0.0000000
 NMagM=    0.0000000   0.0000000   0.0000000   0.0000000   0.0000000   0.4037610   0.0000000   0.4037610   0.4037610   2.7928460
 AtZNuc=   6.0000000   6.0000000   6.0000000   6.0000000   6.0000000   7.0000000   6.0000000   7.0000000   7.0000000   1.0000000

  Atom        11          12          13          14          15
 IAtWgt=           1           1           1           1           1
 AtmWgt=   1.0078250   1.0078250   1.0078250   1.0078250   1.0078250
 NucSpn=           1           1           1           1           1
 AtZEff=  -0.0000000  -0.0000000  -0.0000000  -0.0000000  -0.0000000
 NQMom=    0.0000000   0.0000000   0.0000000   0.0000000   0.0000000
 NMagM=    2.7928460   2.7928460   2.7928460   2.7928460   2.7928460
 AtZNuc=   1.0000000   1.0000000   1.0000000   1.0000000   1.0000000
 Leave Link  101 at Sat Oct 29 16:01:44 2022, MaxMem=  8053063680 cpu:               4.6 elap:               0.2
 (Enter /public3/home/scg5914/software-scg5914/g16/l103.exe)

 GradGradGradGradGradGradGradGradGradGradGradGradGradGradGradGradGradGrad
 Berny optimization.
 Initialization pass.
                           ----------------------------
                           !    Initial Parameters    !
                           ! (Angstroms and Degrees)  !
 --------------------------                            --------------------------
 ! Name  Definition              Value          Derivative Info.                !
 --------------------------------------------------------------------------------
 ! R1    R(1,2)                  1.5115         estimate D2E/DX2                !
 ! R2    R(1,10)                 1.0951         estimate D2E/DX2                !
 ! R3    R(1,11)                 1.0945         estimate D2E/DX2                !
 ! R4    R(1,12)                 1.0943         estimate D2E/DX2                !
 ! R5    R(2,3)                  1.5091         estimate D2E/DX2                !
 ! R6    R(2,4)                  1.5329         estimate D2E/DX2                !
 ! R7    R(3,4)                  1.5331         estimate D2E/DX2                !
 ! R8    R(3,9)                  1.4767         estimate D2E/DX2                !
 ! R9    R(3,13)                 1.0815         estimate D2E/DX2                !
 ! R10   R(4,5)                  1.5122         estimate D2E/DX2                !
 ! R11   R(4,14)                 1.0804         estimate D2E/DX2                !
 ! R12   R(5,6)                  1.3158         estimate D2E/DX2                !
 ! R13   R(5,9)                  1.3522         estimate D2E/DX2                !
 ! R14   R(6,7)                  1.382          estimate D2E/DX2                !
 ! R15   R(7,8)                  1.3313         estimate D2E/DX2                !
 ! R16   R(7,15)                 1.0811         estimate D2E/DX2                !
 ! R17   R(8,9)                  1.3644         estimate D2E/DX2                !
 ! A1    A(2,1,10)             111.5173         estimate D2E/DX2                !
 ! A2    A(2,1,11)             110.7136         estimate D2E/DX2                !
 ! A3    A(2,1,12)             110.7041         estimate D2E/DX2                !
 ! A4    A(10,1,11)            107.9638         estimate D2E/DX2                !
 ! A5    A(10,1,12)            107.8167         estimate D2E/DX2                !
 ! A6    A(11,1,12)            107.9876         estimate D2E/DX2                !
 ! A7    A(1,2,3)              118.3054         estimate D2E/DX2                !
 ! A8    A(1,2,4)              118.3175         estimate D2E/DX2                !
 ! A9    A(2,3,9)              110.6535         estimate D2E/DX2                !
 ! A10   A(2,3,13)             125.8525         estimate D2E/DX2                !
 ! A11   A(4,3,9)               87.39           estimate D2E/DX2                !
 ! A12   A(4,3,13)             130.1965         estimate D2E/DX2                !
 ! A13   A(9,3,13)             121.7832         estimate D2E/DX2                !
 ! A14   A(2,4,5)              106.1475         estimate D2E/DX2                !
 ! A15   A(2,4,14)             123.3048         estimate D2E/DX2                !
 ! A16   A(3,4,5)               85.544          estimate D2E/DX2                !
 ! A17   A(3,4,14)             128.3427         estimate D2E/DX2                !
 ! A18   A(5,4,14)             129.123          estimate D2E/DX2                !
 ! A19   A(4,5,6)              147.2579         estimate D2E/DX2                !
 ! A20   A(4,5,9)               92.9404         estimate D2E/DX2                !
 ! A21   A(6,5,9)              111.8029         estimate D2E/DX2                !
 ! A22   A(5,6,7)              100.2365         estimate D2E/DX2                !
 ! A23   A(6,7,8)              117.1595         estimate D2E/DX2                !
 ! A24   A(6,7,15)             121.8553         estimate D2E/DX2                !
 ! A25   A(8,7,15)             120.9786         estimate D2E/DX2                !
 ! A26   A(7,8,9)              100.0718         estimate D2E/DX2                !
 ! A27   A(3,9,5)               93.8452         estimate D2E/DX2                !
 ! A28   A(3,9,8)              141.0051         estimate D2E/DX2                !
 ! A29   A(5,9,8)              110.2042         estimate D2E/DX2                !
 ! D1    D(10,1,2,3)           -33.9312         estimate D2E/DX2                !
 ! D2    D(10,1,2,4)            35.9052         estimate D2E/DX2                !
 ! D3    D(11,1,2,3)            86.3016         estimate D2E/DX2                !
 ! D4    D(11,1,2,4)           156.138          estimate D2E/DX2                !
 ! D5    D(12,1,2,3)          -153.9717         estimate D2E/DX2                !
 ! D6    D(12,1,2,4)           -84.1353         estimate D2E/DX2                !
 ! D7    D(1,2,3,9)           -177.2828         estimate D2E/DX2                !
 ! D8    D(1,2,3,13)           -12.0773         estimate D2E/DX2                !
 ! D9    D(1,2,4,5)            177.2701         estimate D2E/DX2                !
 ! D10   D(1,2,4,14)             9.791          estimate D2E/DX2                !
 ! D11   D(9,3,4,5)             -3.6934         estimate D2E/DX2                !
 ! D12   D(9,3,4,14)           134.4923         estimate D2E/DX2                !
 ! D13   D(13,3,4,5)          -134.3673         estimate D2E/DX2                !
 ! D14   D(13,3,4,14)            3.8184         estimate D2E/DX2                !
 ! D15   D(2,3,9,5)            -52.9259         estimate D2E/DX2                !
 ! D16   D(2,3,9,8)             76.354          estimate D2E/DX2                !
 ! D17   D(4,3,9,5)              4.128          estimate D2E/DX2                !
 ! D18   D(4,3,9,8)            133.4079         estimate D2E/DX2                !
 ! D19   D(13,3,9,5)           141.1662         estimate D2E/DX2                !
 ! D20   D(13,3,9,8)           -89.5539         estimate D2E/DX2                !
 ! D21   D(2,4,5,6)            -80.2081         estimate D2E/DX2                !
 ! D22   D(2,4,5,9)             59.9216         estimate D2E/DX2                !
 ! D23   D(3,4,5,6)           -136.0944         estimate D2E/DX2                !
 ! D24   D(3,4,5,9)              4.0353         estimate D2E/DX2                !
 ! D25   D(14,4,5,6)            86.2854         estimate D2E/DX2                !
 ! D26   D(14,4,5,9)          -133.5849         estimate D2E/DX2                !
 ! D27   D(4,5,6,7)            135.6785         estimate D2E/DX2                !
 ! D28   D(9,5,6,7)             -0.7284         estimate D2E/DX2                !
 ! D29   D(4,5,9,3)             -4.1863         estimate D2E/DX2                !
 ! D30   D(4,5,9,8)           -152.9201         estimate D2E/DX2                !
 ! D31   D(6,5,9,3)            153.8863         estimate D2E/DX2                !
 ! D32   D(6,5,9,8)              5.1526         estimate D2E/DX2                !
 ! D33   D(5,6,7,8)             -4.2335         estimate D2E/DX2                !
 ! D34   D(5,6,7,15)           174.8324         estimate D2E/DX2                !
 ! D35   D(6,7,8,9)              7.0316         estimate D2E/DX2                !
 ! D36   D(15,7,8,9)          -172.0431         estimate D2E/DX2                !
 ! D37   D(7,8,9,3)           -131.5555         estimate D2E/DX2                !
 ! D38   D(7,8,9,5)             -6.9376         estimate D2E/DX2                !
 --------------------------------------------------------------------------------
 Trust Radius=3.00D-01 FncErr=1.00D-07 GrdErr=1.00D-06 EigMax=2.50D+02 EigMin=1.00D-04
 Number of steps in this run=     94 maximum allowed number of steps=    100.
 GradGradGradGradGradGradGradGradGradGradGradGradGradGradGradGradGradGrad

 Leave Link  103 at Sat Oct 29 16:01:44 2022, MaxMem=  8053063680 cpu:               0.2 elap:               0.0
 (Enter /public3/home/scg5914/software-scg5914/g16/l202.exe)
                          Input orientation:                          
 ---------------------------------------------------------------------
 Center     Atomic      Atomic             Coordinates (Angstroms)
 Number     Number       Type             X           Y           Z
 ---------------------------------------------------------------------
      1          6           0       -0.171758    1.359517    0.044416
      2          6           0        0.098629   -0.127006    0.085609
      3          6           0        1.492204   -0.609958   -0.233868
      4          6           0        0.983897   -0.674140    1.211097
      5          6           0        1.014128   -2.175220    1.030402
      6          7           0        0.400962   -3.324675    1.214776
      7          6           0        0.599851   -3.910133   -0.021136
      8          7           0        1.202732   -3.174024   -0.952343
      9          7           0        1.551043   -2.085288   -0.207351
     10          1           0        0.701624    1.935719    0.367439
     11          1           0       -0.429829    1.678078   -0.970415
     12          1           0       -1.006419    1.619310    0.702682
     13          1           0        2.284136   -0.016007   -0.669518
     14          1           0        1.298329   -0.083096    2.059099
     15          1           0        0.295776   -4.927062   -0.226327
 ---------------------------------------------------------------------
                    Distance matrix (angstroms):
                    1          2          3          4          5
     1  C    0.000000
     2  C    1.511475   0.000000
     3  C    2.593269   1.509092   0.000000
     4  C    2.613894   1.532898   1.533108   0.000000
     5  C    3.856535   2.434328   2.068087   1.512219   0.000000
     6  N    4.862038   3.404631   3.264823   2.713884   1.315756
     7  C    5.326246   3.817679   3.425304   3.483898   2.070575
     8  N    4.841048   3.403044   2.678513   3.313273   2.228106
     9  N    3.859807   2.455647   1.476741   2.079661   1.352183
    10  H    1.095056   2.167456   2.732593   2.757318   4.175764
    11  H    1.094515   2.157031   3.077633   3.505787   4.575608
    12  H    1.094288   2.156741   3.477051   3.078921   4.311435
    13  H    2.903995   2.314946   1.081538   2.379175   3.027351
    14  H    2.881187   2.309950   2.360693   1.080420   2.348610
    15  H    6.309751   4.814219   4.479830   4.541700   3.109345
                    6          7          8          9         10
     6  N    0.000000
     7  C    1.381954   0.000000
     8  N    2.315585   1.331341   0.000000
     9  N    2.209346   2.066277   1.364433   0.000000
    10  H    5.336678   5.859637   5.301170   4.149747   0.000000
    11  H    5.522030   5.761031   5.119421   4.320769   1.770994
    12  H    5.165845   5.803341   5.531321   4.592692   1.769156
    13  H    4.247846   4.292020   3.349999   2.243423   2.718246
    14  H    3.467850   4.411515   4.316451   3.034705   2.700627
    15  H    2.157656   1.081068   2.103048   3.106723   6.900365
                   11         12         13         14         15
    11  H    0.000000
    12  H    1.770640   0.000000
    13  H    3.213420   3.922365   0.000000
    14  H    3.907201   3.170160   2.902011   0.000000
    15  H    6.686407   6.738973   5.316808   5.449063   0.000000
 Stoichiometry    C6H6N3(2)
 Framework group  C1[X(C6H6N3)]
 Deg. of freedom    39
 Full point group                 C1      NOp   1
 Largest Abelian subgroup         C1      NOp   1
 Largest concise Abelian subgroup C1      NOp   1
                         Standard orientation:                         
 ---------------------------------------------------------------------
 Center     Atomic      Atomic             Coordinates (Angstroms)
 Number     Number       Type             X           Y           Z
 ---------------------------------------------------------------------
      1          6           0        2.992216   -0.033522   -0.607194
      2          6           0        1.483929    0.008308   -0.518440
      3          6           0        0.812865   -0.731990    0.612485
      4          6           0        0.844661    0.800715    0.627512
      5          6           0       -0.650114    0.716292    0.414607
      6          7           0       -1.703474    1.169770   -0.230375
      7          6           0       -2.333582   -0.020736   -0.539336
      8          7           0       -1.702542   -1.145722   -0.209698
      9          7           0       -0.656299   -0.633149    0.500459
     10          1           0        3.452370   -0.062051    0.386080
     11          1           0        3.323171   -0.919476   -1.158119
     12          1           0        3.373789    0.850179   -1.127714
     13          1           0        1.287137   -1.446509    1.271464
     14          1           0        1.404263    1.453118    1.282130
     15          1           0       -3.304373   -0.045957   -1.014348
 ---------------------------------------------------------------------
 Rotational constants (GHZ):           4.8744023           1.2926669           1.1867869
 Leave Link  202 at Sat Oct 29 16:01:44 2022, MaxMem=  8053063680 cpu:               0.3 elap:               0.0
 (Enter /public3/home/scg5914/software-scg5914/g16/l301.exe)
 Standard basis: 6-311+G(d,p) (5D, 7F)
 Ernie: Thresh=  0.10000D-02 Tol=  0.10000D-05 Strict=F.
 There are   243 symmetry adapted cartesian basis functions of A   symmetry.
 There are   234 symmetry adapted basis functions of A   symmetry.
   234 basis functions,   372 primitive gaussians,   243 cartesian basis functions
    32 alpha electrons       31 beta electrons
       nuclear repulsion energy       417.3327469682 Hartrees.
 IExCor=  402 DFT=T Ex+Corr=B3LYP ExCW=0 ScaHFX=  0.200000
 ScaDFX=  0.800000  0.720000  1.000000  0.810000 ScalE2=  1.000000  1.000000
 IRadAn=      5 IRanWt=     -1 IRanGd=            0 ICorTp=0 IEmpDi=141
 NAtoms=   15 NActive=   15 NUniq=   15 SFac= 1.00D+00 NAtFMM=   60 NAOKFM=F Big=F
 Integral buffers will be    131072 words long.
 Raffenetti 2 integral format.
 Two-electron integral symmetry is turned on.
 R6Disp:  Grimme-D3(BJ) Dispersion energy=       -0.0242416335 Hartrees.
 Nuclear repulsion after empirical dispersion term =      417.3085053347 Hartrees.
 Leave Link  301 at Sat Oct 29 16:01:44 2022, MaxMem=  8053063680 cpu:               1.0 elap:               0.0
 (Enter /public3/home/scg5914/software-scg5914/g16/l302.exe)
 NPDir=0 NMtPBC=     1 NCelOv=     1 NCel=       1 NClECP=     1 NCelD=      1
         NCelK=      1 NCelE2=     1 NClLst=     1 CellRange=     0.0.
 One-electron integrals computed using PRISM.
 One-electron integral symmetry used in STVInt
 NBasis=   234 RedAO= T EigKep=  1.21D-05  NBF=   234
 NBsUse=   234 1.00D-06 EigRej= -1.00D+00 NBFU=   234
 Precomputing XC quadrature grid using
 IXCGrd= 4 IRadAn=           5 IRanWt=          -1 IRanGd=           0 AccXCQ= 0.00D+00.
 Generated NRdTot=       0 NPtTot=           0 NUsed=           0 NTot=          32
 NSgBfM=   243   243   243   243   243 MxSgAt=    15 MxSgA2=    15.
 Leave Link  302 at Sat Oct 29 16:01:45 2022, MaxMem=  8053063680 cpu:               4.4 elap:               0.2
 (Enter /public3/home/scg5914/software-scg5914/g16/l303.exe)
 DipDrv:  MaxL=1.
 Leave Link  303 at Sat Oct 29 16:01:45 2022, MaxMem=  8053063680 cpu:               0.5 elap:               0.0
 (Enter /public3/home/scg5914/software-scg5914/g16/l401.exe)
 ExpMin= 4.38D-02 ExpMax= 6.29D+03 ExpMxC= 9.49D+02 IAcc=3 IRadAn=         5 AccDes= 0.00D+00
 Harris functional with IExCor=  402 and IRadAn=       5 diagonalized for initial guess.
 HarFok:  IExCor=  402 AccDes= 0.00D+00 IRadAn=         5 IDoV= 1 UseB2=F ITyADJ=14
 ICtDFT=  3500011 ScaDFX=  1.000000  1.000000  1.000000  1.000000
 FoFCou: FMM=F IPFlag=           0 FMFlag=      100000 FMFlg1=           0
         NFxFlg=           0 DoJE=T BraDBF=F KetDBF=T FulRan=T
         wScrn=  0.000000 ICntrl=       500 IOpCl=  0 I1Cent=   200000004 NGrid=           0
         NMat0=    1 NMatS0=      1 NMatT0=    0 NMatD0=    1 NMtDS0=    0 NMtDT0=    0
 Petite list used in FoFCou.
 Harris En= -396.361480067235    
 JPrj=0 DoOrth=F DoCkMO=F.
 Initial guess <Sx>= 0.0000 <Sy>= 0.0000 <Sz>= 0.5000 <S**2>= 0.7500 S= 0.5000
 Leave Link  401 at Sat Oct 29 16:01:45 2022, MaxMem=  8053063680 cpu:              12.2 elap:               0.4
 (Enter /public3/home/scg5914/software-scg5914/g16/l502.exe)
 Integral symmetry usage will be decided dynamically.
 UHF open shell SCF:
 Using DIIS extrapolation, IDIIS=  1040.
 NGot=  8053063680 LenX=  8052935060 LenY=  8052875570
 Requested convergence on RMS density matrix=1.00D-08 within 128 cycles.
 Requested convergence on MAX density matrix=1.00D-06.
 Requested convergence on             energy=1.00D-06.
 No special actions if energy rises.
 Fock matrices will be formed incrementally for  20 cycles.

 Cycle   1  Pass 1  IDiag  1:
 FoFJK:  IHMeth= 1 ICntrl=       0 DoSepK=F KAlg= 0 I1Cent=           0 FoldK=F
 IRaf= 940000000 NMat=       1 IRICut=       1 DoRegI=T DoRafI=F ISym2E= 0 IDoP0=0 IntGTp=1.
 FoFCou: FMM=F IPFlag=           0 FMFlag=      100000 FMFlg1=           0
         NFxFlg=           0 DoJE=F BraDBF=F KetDBF=F FulRan=T
         wScrn=  0.000000 ICntrl=         0 IOpCl=  1 I1Cent=           0 NGrid=           0
         NMat0=    1 NMatS0=      1 NMatT0=    0 NMatD0=    1 NMtDS0=    0 NMtDT0=    0
 Symmetry not used in FoFCou.
 E= -396.276003515478    
 DIIS: error= 1.78D-02 at cycle   1 NSaved=   1.
 NSaved= 1 IEnMin= 1 EnMin= -396.276003515478     IErMin= 1 ErrMin= 1.78D-02
 ErrMax= 1.78D-02  0.00D+00 EMaxC= 1.00D-01 BMatC= 7.22D-01 BMatP= 7.22D-01
 IDIUse=3 WtCom= 8.22D-01 WtEn= 1.78D-01
 Coeff-Com:  0.100D+01
 Coeff-En:   0.100D+01
 Coeff:      0.100D+01
 Gap=     0.198 Goal=   None    Shift=    0.000
 Gap=     0.178 Goal=   None    Shift=    0.000
 GapD=    0.178 DampG=1.000 DampE=0.500 DampFc=0.5000 IDamp=-1.
 Damping current iteration by 5.00D-01
 RMSDP=9.03D-03 MaxDP=4.87D-01              OVMax= 1.71D-01

 Cycle   2  Pass 1  IDiag  1:
 RMSU=  4.42D-03    CP:  1.04D+00
 E= -396.332967830440     Delta-E=       -0.056964314962 Rises=F Damp=T
 DIIS: error= 7.19D-03 at cycle   2 NSaved=   2.
 NSaved= 2 IEnMin= 2 EnMin= -396.332967830440     IErMin= 2 ErrMin= 7.19D-03
 ErrMax= 7.19D-03  0.00D+00 EMaxC= 1.00D-01 BMatC= 9.14D-02 BMatP= 7.22D-01
 IDIUse=3 WtCom= 9.28D-01 WtEn= 7.19D-02
 Coeff-Com:  0.110D+00 0.890D+00
 Coeff-En:   0.225D+00 0.775D+00
 Coeff:      0.118D+00 0.882D+00
 Gap=     0.309 Goal=   None    Shift=    0.000
 Gap=     0.195 Goal=   None    Shift=    0.000
 RMSDP=3.67D-03 MaxDP=2.52D-01 DE=-5.70D-02 OVMax= 1.44D-01

 Cycle   3  Pass 1  IDiag  1:
 RMSU=  2.85D-03    CP:  9.77D-01  5.87D-01
 E= -396.405055034516     Delta-E=       -0.072087204076 Rises=F Damp=F
 DIIS: error= 1.15D-02 at cycle   3 NSaved=   3.
 NSaved= 3 IEnMin= 3 EnMin= -396.405055034516     IErMin= 2 ErrMin= 7.19D-03
 ErrMax= 1.15D-02  0.00D+00 EMaxC= 1.00D-01 BMatC= 1.16D-01 BMatP= 9.14D-02
 IDIUse=2 WtCom= 0.00D+00 WtEn= 1.00D+00
 Coeff-En:   0.000D+00 0.000D+00 0.100D+01
 Coeff:      0.000D+00 0.000D+00 0.100D+01
 Gap=     0.215 Goal=   None    Shift=    0.000
 Gap=     0.170 Goal=   None    Shift=    0.000
 RMSDP=7.52D-03 MaxDP=6.79D-01 DE=-7.21D-02 OVMax= 1.61D-01

 Cycle   4  Pass 1  IDiag  1:
 RMSU=  2.81D-03    CP:  1.16D+00  1.67D+00 -8.96D-02
 E= -396.295573841221     Delta-E=        0.109481193296 Rises=F Damp=F
 DIIS: error= 2.56D-02 at cycle   4 NSaved=   4.
 NSaved= 4 IEnMin= 3 EnMin= -396.405055034516     IErMin= 2 ErrMin= 7.19D-03
 ErrMax= 2.56D-02  0.00D+00 EMaxC= 1.00D-01 BMatC= 6.11D-01 BMatP= 9.14D-02
 IDIUse=2 WtCom= 0.00D+00 WtEn= 1.00D+00
 Coeff-En:   0.000D+00 0.000D+00 0.784D+00 0.216D+00
 Coeff:      0.000D+00 0.000D+00 0.784D+00 0.216D+00
 Gap=     0.244 Goal=   None    Shift=    0.000
 Gap=     0.164 Goal=   None    Shift=    0.000
 RMSDP=4.48D-03 MaxDP=4.23D-01 DE= 1.09D-01 OVMax= 9.28D-02

 Cycle   5  Pass 1  IDiag  1:
 RMSU=  5.40D-04    CP:  1.05D+00  1.03D+00  5.18D-01  4.61D-01
 E= -396.420278470559     Delta-E=       -0.124704629338 Rises=F Damp=F
 DIIS: error= 7.40D-03 at cycle   5 NSaved=   5.
 NSaved= 5 IEnMin= 5 EnMin= -396.420278470559     IErMin= 2 ErrMin= 7.19D-03
 ErrMax= 7.40D-03  0.00D+00 EMaxC= 1.00D-01 BMatC= 4.74D-02 BMatP= 9.14D-02
 IDIUse=3 WtCom= 9.26D-01 WtEn= 7.40D-02
 Coeff-Com:  0.271D-02 0.237D-02 0.318D+00-0.698D-01 0.746D+00
 Coeff-En:   0.000D+00 0.000D+00 0.337D+00 0.000D+00 0.663D+00
 Coeff:      0.251D-02 0.219D-02 0.320D+00-0.647D-01 0.740D+00
 Gap=     0.224 Goal=   None    Shift=    0.000
 Gap=     0.151 Goal=   None    Shift=    0.000
 RMSDP=1.52D-03 MaxDP=1.34D-01 DE=-1.25D-01 OVMax= 2.91D-02

 Cycle   6  Pass 1  IDiag  1:
 RMSU=  1.81D-04    CP:  1.01D+00  8.16D-01  7.58D-01  2.77D-01  9.04D-01
 E= -396.430554389788     Delta-E=       -0.010275919229 Rises=F Damp=F
 DIIS: error= 5.82D-04 at cycle   6 NSaved=   6.
 NSaved= 6 IEnMin= 6 EnMin= -396.430554389788     IErMin= 6 ErrMin= 5.82D-04
 ErrMax= 5.82D-04  0.00D+00 EMaxC= 1.00D-01 BMatC= 3.03D-04 BMatP= 4.74D-02
 IDIUse=3 WtCom= 9.94D-01 WtEn= 5.82D-03
 Coeff-Com: -0.860D-03 0.153D-02 0.122D+00-0.721D-01 0.452D+00 0.497D+00
 Coeff-En:   0.000D+00 0.000D+00 0.000D+00 0.000D+00 0.000D+00 0.100D+01
 Coeff:     -0.855D-03 0.152D-02 0.122D+00-0.717D-01 0.449D+00 0.500D+00
 Gap=     0.223 Goal=   None    Shift=    0.000
 Gap=     0.150 Goal=   None    Shift=    0.000
 RMSDP=8.75D-05 MaxDP=5.67D-03 DE=-1.03D-02 OVMax= 2.97D-03

 Cycle   7  Pass 1  IDiag  1:
 RMSU=  4.34D-05    CP:  1.01D+00  8.26D-01  7.56D-01  2.85D-01  9.11D-01
                    CP:  7.62D-01
 E= -396.430619246149     Delta-E=       -0.000064856361 Rises=F Damp=F
 DIIS: error= 1.58D-04 at cycle   7 NSaved=   7.
 NSaved= 7 IEnMin= 7 EnMin= -396.430619246149     IErMin= 7 ErrMin= 1.58D-04
 ErrMax= 1.58D-04  0.00D+00 EMaxC= 1.00D-01 BMatC= 1.63D-05 BMatP= 3.03D-04
 IDIUse=3 WtCom= 9.98D-01 WtEn= 1.58D-03
 Coeff-Com: -0.148D-03-0.185D-02 0.132D-01-0.141D-01 0.714D-01 0.190D+00
 Coeff-Com:  0.741D+00
 Coeff-En:   0.000D+00 0.000D+00 0.000D+00 0.000D+00 0.000D+00 0.000D+00
 Coeff-En:   0.100D+01
 Coeff:     -0.148D-03-0.184D-02 0.131D-01-0.141D-01 0.713D-01 0.190D+00
 Coeff:      0.742D+00
 Gap=     0.223 Goal=   None    Shift=    0.000
 Gap=     0.150 Goal=   None    Shift=    0.000
 RMSDP=3.13D-05 MaxDP=1.50D-03 DE=-6.49D-05 OVMax= 1.28D-03

 Cycle   8  Pass 1  IDiag  1:
 RMSU=  2.75D-05    CP:  1.01D+00  8.26D-01  7.58D-01  2.89D-01  9.06D-01
                    CP:  7.94D-01  1.04D+00
 E= -396.430623879687     Delta-E=       -0.000004633537 Rises=F Damp=F
 DIIS: error= 8.61D-05 at cycle   8 NSaved=   8.
 NSaved= 8 IEnMin= 8 EnMin= -396.430623879687     IErMin= 8 ErrMin= 8.61D-05
 ErrMax= 8.61D-05  0.00D+00 EMaxC= 1.00D-01 BMatC= 6.85D-06 BMatP= 1.63D-05
 IDIUse=1 WtCom= 1.00D+00 WtEn= 0.00D+00
 Coeff-Com:  0.251D-03-0.188D-02-0.273D-01 0.136D-01-0.921D-01-0.224D-01
 Coeff-Com:  0.479D+00 0.651D+00
 Coeff:      0.251D-03-0.188D-02-0.273D-01 0.136D-01-0.921D-01-0.224D-01
 Coeff:      0.479D+00 0.651D+00
 Gap=     0.224 Goal=   None    Shift=    0.000
 Gap=     0.150 Goal=   None    Shift=    0.000
 RMSDP=2.27D-05 MaxDP=1.86D-03 DE=-4.63D-06 OVMax= 8.81D-04

 Cycle   9  Pass 1  IDiag  1:
 RMSU=  1.09D-05    CP:  1.01D+00  8.25D-01  7.62D-01  2.90D-01  9.12D-01
                    CP:  8.41D-01  1.29D+00  8.62D-01
 E= -396.430626255799     Delta-E=       -0.000002376112 Rises=F Damp=F
 DIIS: error= 2.74D-05 at cycle   9 NSaved=   9.
 NSaved= 9 IEnMin= 9 EnMin= -396.430626255799     IErMin= 9 ErrMin= 2.74D-05
 ErrMax= 2.74D-05  0.00D+00 EMaxC= 1.00D-01 BMatC= 6.79D-07 BMatP= 6.85D-06
 IDIUse=1 WtCom= 1.00D+00 WtEn= 0.00D+00
 Coeff-Com:  0.605D-04-0.430D-03-0.134D-01 0.777D-02-0.486D-01-0.324D-01
 Coeff-Com:  0.915D-01 0.280D+00 0.716D+00
 Coeff:      0.605D-04-0.430D-03-0.134D-01 0.777D-02-0.486D-01-0.324D-01
 Coeff:      0.915D-01 0.280D+00 0.716D+00
 Gap=     0.224 Goal=   None    Shift=    0.000
 Gap=     0.150 Goal=   None    Shift=    0.000
 RMSDP=6.68D-06 MaxDP=2.96D-04 DE=-2.38D-06 OVMax= 3.53D-04

 Cycle  10  Pass 1  IDiag  1:
 RMSU=  4.73D-06    CP:  1.01D+00  8.25D-01  7.62D-01  2.90D-01  9.11D-01
                    CP:  8.59D-01  1.31D+00  9.05D-01  7.94D-01
 E= -396.430626504400     Delta-E=       -0.000000248601 Rises=F Damp=F
 DIIS: error= 1.58D-05 at cycle  10 NSaved=  10.
 NSaved=10 IEnMin=10 EnMin= -396.430626504400     IErMin=10 ErrMin= 1.58D-05
 ErrMax= 1.58D-05  0.00D+00 EMaxC= 1.00D-01 BMatC= 2.04D-07 BMatP= 6.79D-07
 IDIUse=1 WtCom= 1.00D+00 WtEn= 0.00D+00
 Coeff-Com: -0.969D-04 0.436D-03-0.226D-02 0.101D-02-0.706D-02-0.133D-01
 Coeff-Com: -0.554D-01 0.117D-01 0.393D+00 0.672D+00
 Coeff:     -0.969D-04 0.436D-03-0.226D-02 0.101D-02-0.706D-02-0.133D-01
 Coeff:     -0.554D-01 0.117D-01 0.393D+00 0.672D+00
 Gap=     0.224 Goal=   None    Shift=    0.000
 Gap=     0.150 Goal=   None    Shift=    0.000
 RMSDP=3.00D-06 MaxDP=2.14D-04 DE=-2.49D-07 OVMax= 1.49D-04

 Cycle  11  Pass 1  IDiag  1:
 RMSU=  1.83D-06    CP:  1.01D+00  8.26D-01  7.62D-01  2.90D-01  9.11D-01
                    CP:  8.57D-01  1.33D+00  9.37D-01  8.82D-01  9.33D-01
 E= -396.430626571137     Delta-E=       -0.000000066738 Rises=F Damp=F
 DIIS: error= 4.07D-06 at cycle  11 NSaved=  11.
 NSaved=11 IEnMin=11 EnMin= -396.430626571137     IErMin=11 ErrMin= 4.07D-06
 ErrMax= 4.07D-06  0.00D+00 EMaxC= 1.00D-01 BMatC= 2.19D-08 BMatP= 2.04D-07
 IDIUse=1 WtCom= 1.00D+00 WtEn= 0.00D+00
 Coeff-Com: -0.387D-04 0.221D-03 0.877D-03-0.475D-03 0.316D-02-0.140D-02
 Coeff-Com: -0.352D-01-0.336D-01 0.585D-01 0.281D+00 0.727D+00
 Coeff:     -0.387D-04 0.221D-03 0.877D-03-0.475D-03 0.316D-02-0.140D-02
 Coeff:     -0.352D-01-0.336D-01 0.585D-01 0.281D+00 0.727D+00
 Gap=     0.224 Goal=   None    Shift=    0.000
 Gap=     0.150 Goal=   None    Shift=    0.000
 RMSDP=1.17D-06 MaxDP=6.22D-05 DE=-6.67D-08 OVMax= 4.56D-05

 Cycle  12  Pass 1  IDiag  1:
 RMSU=  6.78D-07    CP:  1.01D+00  8.26D-01  7.62D-01  2.90D-01  9.11D-01
                    CP:  8.57D-01  1.34D+00  9.54D-01  9.13D-01  9.94D-01
                    CP:  8.51D-01
 E= -396.430626577576     Delta-E=       -0.000000006438 Rises=F Damp=F
 DIIS: error= 2.03D-06 at cycle  12 NSaved=  12.
 NSaved=12 IEnMin=12 EnMin= -396.430626577576     IErMin=12 ErrMin= 2.03D-06
 ErrMax= 2.03D-06  0.00D+00 EMaxC= 1.00D-01 BMatC= 7.27D-09 BMatP= 2.19D-08
 IDIUse=1 WtCom= 1.00D+00 WtEn= 0.00D+00
 Coeff-Com:  0.461D-06 0.194D-04 0.125D-02-0.652D-03 0.435D-02 0.272D-02
 Coeff-Com: -0.100D-01-0.244D-01-0.476D-01 0.238D-01 0.419D+00 0.631D+00
 Coeff:      0.461D-06 0.194D-04 0.125D-02-0.652D-03 0.435D-02 0.272D-02
 Coeff:     -0.100D-01-0.244D-01-0.476D-01 0.238D-01 0.419D+00 0.631D+00
 Gap=     0.224 Goal=   None    Shift=    0.000
 Gap=     0.150 Goal=   None    Shift=    0.000
 RMSDP=8.51D-07 MaxDP=8.20D-05 DE=-6.44D-09 OVMax= 1.64D-05

 Cycle  13  Pass 1  IDiag  1:
 RMSU=  3.75D-07    CP:  1.01D+00  8.26D-01  7.62D-01  2.90D-01  9.11D-01
                    CP:  8.57D-01  1.34D+00  9.47D-01  9.12D-01  1.03D+00
                    CP:  9.60D-01  9.42D-01
 E= -396.430626579519     Delta-E=       -0.000000001944 Rises=F Damp=F
 DIIS: error= 7.99D-07 at cycle  13 NSaved=  13.
 NSaved=13 IEnMin=13 EnMin= -396.430626579519     IErMin=13 ErrMin= 7.99D-07
 ErrMax= 7.99D-07  0.00D+00 EMaxC= 1.00D-01 BMatC= 7.15D-10 BMatP= 7.27D-09
 IDIUse=1 WtCom= 1.00D+00 WtEn= 0.00D+00
 Coeff-Com:  0.130D-04-0.414D-04 0.331D-03-0.125D-03 0.961D-03 0.100D-02
 Coeff-Com:  0.229D-02-0.364D-02-0.287D-01-0.386D-01 0.615D-01 0.262D+00
 Coeff-Com:  0.743D+00
 Coeff:      0.130D-04-0.414D-04 0.331D-03-0.125D-03 0.961D-03 0.100D-02
 Coeff:      0.229D-02-0.364D-02-0.287D-01-0.386D-01 0.615D-01 0.262D+00
 Coeff:      0.743D+00
 Gap=     0.224 Goal=   None    Shift=    0.000
 Gap=     0.150 Goal=   None    Shift=    0.000
 RMSDP=2.65D-07 MaxDP=2.49D-05 DE=-1.94D-09 OVMax= 7.55D-06

 Cycle  14  Pass 1  IDiag  1:
 RMSU=  1.43D-07    CP:  1.01D+00  8.26D-01  7.62D-01  2.90D-01  9.11D-01
                    CP:  8.57D-01  1.34D+00  9.47D-01  9.09D-01  1.03D+00
                    CP:  1.01D+00  1.05D+00  7.94D-01
 E= -396.430626579774     Delta-E=       -0.000000000255 Rises=F Damp=F
 DIIS: error= 3.84D-07 at cycle  14 NSaved=  14.
 NSaved=14 IEnMin=14 EnMin= -396.430626579774     IErMin=14 ErrMin= 3.84D-07
 ErrMax= 3.84D-07  0.00D+00 EMaxC= 1.00D-01 BMatC= 9.17D-11 BMatP= 7.15D-10
 IDIUse=1 WtCom= 1.00D+00 WtEn= 0.00D+00
 Coeff-Com:  0.374D-05-0.133D-04-0.309D-04 0.200D-04-0.134D-03 0.420D-05
 Coeff-Com:  0.174D-02 0.149D-02-0.363D-02-0.149D-01-0.254D-01 0.539D-02
 Coeff-Com:  0.257D+00 0.778D+00
 Coeff:      0.374D-05-0.133D-04-0.309D-04 0.200D-04-0.134D-03 0.420D-05
 Coeff:      0.174D-02 0.149D-02-0.363D-02-0.149D-01-0.254D-01 0.539D-02
 Coeff:      0.257D+00 0.778D+00
 Gap=     0.224 Goal=   None    Shift=    0.000
 Gap=     0.150 Goal=   None    Shift=    0.000
 RMSDP=8.48D-08 MaxDP=3.90D-06 DE=-2.55D-10 OVMax= 4.87D-06

 Cycle  15  Pass 1  IDiag  1:
 RMSU=  5.71D-08    CP:  1.01D+00  8.26D-01  7.62D-01  2.90D-01  9.11D-01
                    CP:  8.57D-01  1.34D+00  9.47D-01  9.09D-01  1.03D+00
                    CP:  1.01D+00  1.07D+00  8.59D-01  1.16D+00
 E= -396.430626579827     Delta-E=       -0.000000000053 Rises=F Damp=F
 DIIS: error= 2.49D-07 at cycle  15 NSaved=  15.
 NSaved=15 IEnMin=15 EnMin= -396.430626579827     IErMin=15 ErrMin= 2.49D-07
 ErrMax= 2.49D-07  0.00D+00 EMaxC= 1.00D-01 BMatC= 3.49D-11 BMatP= 9.17D-11
 IDIUse=1 WtCom= 1.00D+00 WtEn= 0.00D+00
 Coeff-Com: -0.101D-05 0.242D-05-0.954D-04 0.399D-04-0.300D-03-0.215D-03
 Coeff-Com:  0.585D-03 0.184D-02 0.443D-02 0.904D-04-0.291D-01-0.602D-01
 Coeff-Com: -0.309D-01 0.418D+00 0.696D+00
 Coeff:     -0.101D-05 0.242D-05-0.954D-04 0.399D-04-0.300D-03-0.215D-03
 Coeff:      0.585D-03 0.184D-02 0.443D-02 0.904D-04-0.291D-01-0.602D-01
 Coeff:     -0.309D-01 0.418D+00 0.696D+00
 Gap=     0.224 Goal=   None    Shift=    0.000
 Gap=     0.150 Goal=   None    Shift=    0.000
 RMSDP=6.13D-08 MaxDP=4.01D-06 DE=-5.29D-11 OVMax= 3.36D-06

 Cycle  16  Pass 1  IDiag  1:
 RMSU=  3.08D-08    CP:  1.01D+00  8.26D-01  7.62D-01  2.90D-01  9.11D-01
                    CP:  8.57D-01  1.34D+00  9.47D-01  9.09D-01  1.03D+00
                    CP:  1.01D+00  1.10D+00  9.18D-01  1.25D+00  1.07D+00
 E= -396.430626579847     Delta-E=       -0.000000000020 Rises=F Damp=F
 DIIS: error= 1.17D-07 at cycle  16 NSaved=  16.
 NSaved=16 IEnMin=16 EnMin= -396.430626579847     IErMin=16 ErrMin= 1.17D-07
 ErrMax= 1.17D-07  0.00D+00 EMaxC= 1.00D-01 BMatC= 5.96D-12 BMatP= 3.49D-11
 IDIUse=1 WtCom= 1.00D+00 WtEn= 0.00D+00
 Coeff-Com: -0.171D-05 0.501D-05-0.143D-04 0.356D-05-0.323D-04-0.548D-04
 Coeff-Com: -0.470D-03-0.111D-03 0.196D-02 0.456D-02 0.836D-03-0.142D-01
 Coeff-Com: -0.790D-01-0.113D+00 0.149D+00 0.105D+01
 Coeff:     -0.171D-05 0.501D-05-0.143D-04 0.356D-05-0.323D-04-0.548D-04
 Coeff:     -0.470D-03-0.111D-03 0.196D-02 0.456D-02 0.836D-03-0.142D-01
 Coeff:     -0.790D-01-0.113D+00 0.149D+00 0.105D+01
 Gap=     0.224 Goal=   None    Shift=    0.000
 Gap=     0.150 Goal=   None    Shift=    0.000
 RMSDP=3.63D-08 MaxDP=1.24D-06 DE=-2.00D-11 OVMax= 2.85D-06

 Cycle  17  Pass 1  IDiag  1:
 RMSU=  1.84D-08    CP:  1.01D+00  8.26D-01  7.62D-01  2.90D-01  9.11D-01
                    CP:  8.57D-01  1.34D+00  9.47D-01  9.09D-01  1.03D+00
                    CP:  1.01D+00  1.11D+00  9.28D-01  1.38D+00  1.39D+00
                    CP:  1.24D+00
 E= -396.430626579856     Delta-E=       -0.000000000009 Rises=F Damp=F
 DIIS: error= 6.43D-08 at cycle  17 NSaved=  17.
 NSaved=17 IEnMin=17 EnMin= -396.430626579856     IErMin=17 ErrMin= 6.43D-08
 ErrMax= 6.43D-08  0.00D+00 EMaxC= 1.00D-01 BMatC= 2.52D-12 BMatP= 5.96D-12
 IDIUse=1 WtCom= 1.00D+00 WtEn= 0.00D+00
 Coeff-Com: -0.469D-06 0.139D-05 0.148D-04-0.543D-05 0.471D-04 0.272D-04
 Coeff-Com: -0.313D-03-0.430D-03 0.163D-04 0.222D-02 0.669D-02 0.751D-02
 Coeff-Com: -0.332D-01-0.170D+00-0.116D+00 0.553D+00 0.750D+00
 Coeff:     -0.469D-06 0.139D-05 0.148D-04-0.543D-05 0.471D-04 0.272D-04
 Coeff:     -0.313D-03-0.430D-03 0.163D-04 0.222D-02 0.669D-02 0.751D-02
 Coeff:     -0.332D-01-0.170D+00-0.116D+00 0.553D+00 0.750D+00
 Gap=     0.224 Goal=   None    Shift=    0.000
 Gap=     0.150 Goal=   None    Shift=    0.000
 RMSDP=1.64D-08 MaxDP=6.88D-07 DE=-8.75D-12 OVMax= 1.59D-06

 Cycle  18  Pass 1  IDiag  1:
 RMSU=  6.89D-09    CP:  1.01D+00  8.26D-01  7.62D-01  2.90D-01  9.11D-01
                    CP:  8.57D-01  1.34D+00  9.47D-01  9.09D-01  1.03D+00
                    CP:  1.01D+00  1.11D+00  9.34D-01  1.43D+00  1.50D+00
                    CP:  1.54D+00  1.12D+00
 E= -396.430626579858     Delta-E=       -0.000000000002 Rises=F Damp=F
 DIIS: error= 2.26D-08 at cycle  18 NSaved=  18.
 NSaved=18 IEnMin=18 EnMin= -396.430626579858     IErMin=18 ErrMin= 2.26D-08
 ErrMax= 2.26D-08  0.00D+00 EMaxC= 1.00D-01 BMatC= 3.82D-13 BMatP= 2.52D-12
 IDIUse=1 WtCom= 1.00D+00 WtEn= 0.00D+00
 Coeff-Com:  0.219D-06-0.488D-06 0.944D-05-0.366D-05 0.290D-04 0.226D-04
 Coeff-Com: -0.403D-04-0.173D-03-0.409D-03-0.638D-04 0.247D-02 0.616D-02
 Coeff-Com:  0.425D-02-0.392D-01-0.750D-01-0.377D-01 0.297D+00 0.842D+00
 Coeff:      0.219D-06-0.488D-06 0.944D-05-0.366D-05 0.290D-04 0.226D-04
 Coeff:     -0.403D-04-0.173D-03-0.409D-03-0.638D-04 0.247D-02 0.616D-02
 Coeff:      0.425D-02-0.392D-01-0.750D-01-0.377D-01 0.297D+00 0.842D+00
 Gap=     0.224 Goal=   None    Shift=    0.000
 Gap=     0.150 Goal=   None    Shift=    0.000
 RMSDP=7.50D-09 MaxDP=3.79D-07 DE=-2.39D-12 OVMax= 6.30D-07

 SCF Done:  E(UB3LYP) =  -396.430626580     A.U. after   18 cycles
            NFock= 18  Conv=0.75D-08     -V/T= 2.0042
 <Sx>= 0.0000 <Sy>= 0.0000 <Sz>= 0.5000 <S**2>= 0.7532 S= 0.5016
 <L.S>=  0.00000000000    
 KE= 3.947753723151D+02 PE=-1.756457845660D+03 EE= 5.479433414301D+02
 Annihilation of the first spin contaminant:
 S**2 before annihilation     0.7532,   after     0.7500
 Leave Link  502 at Sat Oct 29 16:02:02 2022, MaxMem=  8053063680 cpu:             533.0 elap:              16.7
 (Enter /public3/home/scg5914/software-scg5914/g16/l601.exe)
 Copying SCF densities to generalized density rwf, IOpCl= 1 IROHF=0.

 **********************************************************************

            Population analysis using the SCF Density.

 **********************************************************************

 Orbital symmetries:
 Alpha Orbitals:
       Occupied  (A) (A) (A) (A) (A) (A) (A) (A) (A) (A) (A) (A)
                 (A) (A) (A) (A) (A) (A) (A) (A) (A) (A) (A) (A)
                 (A) (A) (A) (A) (A) (A) (A) (A)
       Virtual   (A) (A) (A) (A) (A) (A) (A) (A) (A) (A) (A) (A)
                 (A) (A) (A) (A) (A) (A) (A) (A) (A) (A) (A) (A)
                 (A) (A) (A) (A) (A) (A) (A) (A) (A) (A) (A) (A)
                 (A) (A) (A) (A) (A) (A) (A) (A) (A) (A) (A) (A)
                 (A) (A) (A) (A) (A) (A) (A) (A) (A) (A) (A) (A)
                 (A) (A) (A) (A) (A) (A) (A) (A) (A) (A) (A) (A)
                 (A) (A) (A) (A) (A) (A) (A) (A) (A) (A) (A) (A)
                 (A) (A) (A) (A) (A) (A) (A) (A) (A) (A) (A) (A)
                 (A) (A) (A) (A) (A) (A) (A) (A) (A) (A) (A) (A)
                 (A) (A) (A) (A) (A) (A) (A) (A) (A) (A) (A) (A)
                 (A) (A) (A) (A) (A) (A) (A) (A) (A) (A) (A) (A)
                 (A) (A) (A) (A) (A) (A) (A) (A) (A) (A) (A) (A)
                 (A) (A) (A) (A) (A) (A) (A) (A) (A) (A) (A) (A)
                 (A) (A) (A) (A) (A) (A) (A) (A) (A) (A) (A) (A)
                 (A) (A) (A) (A) (A) (A) (A) (A) (A) (A) (A) (A)
                 (A) (A) (A) (A) (A) (A) (A) (A) (A) (A) (A) (A)
                 (A) (A) (A) (A) (A) (A) (A) (A) (A) (A)
 Beta  Orbitals:
       Occupied  (A) (A) (A) (A) (A) (A) (A) (A) (A) (A) (A) (A)
                 (A) (A) (A) (A) (A) (A) (A) (A) (A) (A) (A) (A)
                 (A) (A) (A) (A) (A) (A) (A)
       Virtual   (A) (A) (A) (A) (A) (A) (A) (A) (A) (A) (A) (A)
                 (A) (A) (A) (A) (A) (A) (A) (A) (A) (A) (A) (A)
                 (A) (A) (A) (A) (A) (A) (A) (A) (A) (A) (A) (A)
                 (A) (A) (A) (A) (A) (A) (A) (A) (A) (A) (A) (A)
                 (A) (A) (A) (A) (A) (A) (A) (A) (A) (A) (A) (A)
                 (A) (A) (A) (A) (A) (A) (A) (A) (A) (A) (A) (A)
                 (A) (A) (A) (A) (A) (A) (A) (A) (A) (A) (A) (A)
                 (A) (A) (A) (A) (A) (A) (A) (A) (A) (A) (A) (A)
                 (A) (A) (A) (A) (A) (A) (A) (A) (A) (A) (A) (A)
                 (A) (A) (A) (A) (A) (A) (A) (A) (A) (A) (A) (A)
                 (A) (A) (A) (A) (A) (A) (A) (A) (A) (A) (A) (A)
                 (A) (A) (A) (A) (A) (A) (A) (A) (A) (A) (A) (A)
                 (A) (A) (A) (A) (A) (A) (A) (A) (A) (A) (A) (A)
                 (A) (A) (A) (A) (A) (A) (A) (A) (A) (A) (A) (A)
                 (A) (A) (A) (A) (A) (A) (A) (A) (A) (A) (A) (A)
                 (A) (A) (A) (A) (A) (A) (A) (A) (A) (A) (A) (A)
                 (A) (A) (A) (A) (A) (A) (A) (A) (A) (A) (A)
 The electronic state is 2-A.
 Alpha  occ. eigenvalues --  -14.39525 -14.34647 -14.31702 -10.26726 -10.25232
 Alpha  occ. eigenvalues --  -10.24702 -10.24036 -10.23100 -10.20139  -1.09876
 Alpha  occ. eigenvalues --   -0.95981  -0.89725  -0.82244  -0.73795  -0.68256
 Alpha  occ. eigenvalues --   -0.64362  -0.59501  -0.56797  -0.53886  -0.49863
 Alpha  occ. eigenvalues --   -0.46696  -0.45615  -0.44538  -0.43666  -0.41595
 Alpha  occ. eigenvalues --   -0.37925  -0.35818  -0.31633  -0.29912  -0.29214
 Alpha  occ. eigenvalues --   -0.27178  -0.25572
 Alpha virt. eigenvalues --   -0.03213  -0.00820   0.01031   0.01182   0.01524
 Alpha virt. eigenvalues --    0.02784   0.04066   0.04906   0.05402   0.05479
 Alpha virt. eigenvalues --    0.05912   0.06986   0.07378   0.07858   0.08494
 Alpha virt. eigenvalues --    0.09717   0.10339   0.11142   0.11721   0.13227
 Alpha virt. eigenvalues --    0.13585   0.14144   0.14946   0.15497   0.15942
 Alpha virt. eigenvalues --    0.16554   0.17075   0.17277   0.18866   0.19428
 Alpha virt. eigenvalues --    0.19742   0.20316   0.20733   0.21695   0.22239
 Alpha virt. eigenvalues --    0.22663   0.23052   0.24230   0.24811   0.25508
 Alpha virt. eigenvalues --    0.26023   0.26646   0.27230   0.28227   0.28505
 Alpha virt. eigenvalues --    0.28935   0.29837   0.32551   0.33077   0.34879
 Alpha virt. eigenvalues --    0.36051   0.37453   0.39440   0.41502   0.43240
 Alpha virt. eigenvalues --    0.44639   0.47275   0.49312   0.51325   0.54576
 Alpha virt. eigenvalues --    0.55980   0.56666   0.57169   0.58804   0.59058
 Alpha virt. eigenvalues --    0.60620   0.62537   0.63159   0.63977   0.64752
 Alpha virt. eigenvalues --    0.66036   0.67583   0.68216   0.69532   0.72372
 Alpha virt. eigenvalues --    0.73419   0.74073   0.77019   0.79393   0.84615
 Alpha virt. eigenvalues --    0.84794   0.85854   0.87682   0.88843   0.90610
 Alpha virt. eigenvalues --    0.91793   0.92489   0.93471   0.95420   0.96752
 Alpha virt. eigenvalues --    0.97336   1.00377   1.00908   1.04568   1.12437
 Alpha virt. eigenvalues --    1.14512   1.16168   1.18958   1.22214   1.22894
 Alpha virt. eigenvalues --    1.30654   1.31734   1.34216   1.35526   1.40334
 Alpha virt. eigenvalues --    1.42296   1.43751   1.44809   1.48072   1.52743
 Alpha virt. eigenvalues --    1.55330   1.56429   1.57467   1.60269   1.60690
 Alpha virt. eigenvalues --    1.63133   1.64017   1.66666   1.69574   1.74431
 Alpha virt. eigenvalues --    1.76171   1.78832   1.83414   1.84828   1.87382
 Alpha virt. eigenvalues --    1.88558   1.89639   1.94150   1.95487   1.96917
 Alpha virt. eigenvalues --    2.00366   2.04653   2.06613   2.08673   2.14001
 Alpha virt. eigenvalues --    2.18216   2.21391   2.24619   2.26400   2.28437
 Alpha virt. eigenvalues --    2.30343   2.35901   2.40462   2.42356   2.43978
 Alpha virt. eigenvalues --    2.44265   2.50079   2.51252   2.53354   2.55048
 Alpha virt. eigenvalues --    2.57698   2.58818   2.59591   2.61765   2.64204
 Alpha virt. eigenvalues --    2.68735   2.69830   2.71328   2.78052   2.81458
 Alpha virt. eigenvalues --    2.82298   2.84577   2.86641   2.88017   2.90016
 Alpha virt. eigenvalues --    2.92467   2.97454   2.98279   3.04011   3.07565
 Alpha virt. eigenvalues --    3.09609   3.14704   3.28609   3.41875   3.51445
 Alpha virt. eigenvalues --    3.54913   3.58242   3.62262   3.64976   3.77597
 Alpha virt. eigenvalues --    3.79081   3.87081   3.92229   3.98752   4.01731
 Alpha virt. eigenvalues --    4.19590   4.35170   4.39052   4.43515   4.64756
 Alpha virt. eigenvalues --    4.71483   5.02133   5.39340  23.70403  23.78612
 Alpha virt. eigenvalues --   23.82873  23.88832  23.92461  23.95930  35.46832
 Alpha virt. eigenvalues --   35.53421  35.65680
  Beta  occ. eigenvalues --  -14.39488 -14.34640 -14.31702 -10.26651 -10.25191
  Beta  occ. eigenvalues --  -10.23951 -10.23261 -10.23097 -10.20133  -1.09786
  Beta  occ. eigenvalues --   -0.95522  -0.89643  -0.81385  -0.73503  -0.67988
  Beta  occ. eigenvalues --   -0.64059  -0.58524  -0.56651  -0.53517  -0.48610
  Beta  occ. eigenvalues --   -0.46176  -0.45294  -0.44069  -0.43470  -0.41328
  Beta  occ. eigenvalues --   -0.36703  -0.35240  -0.31153  -0.29767  -0.29041
  Beta  occ. eigenvalues --   -0.26848
  Beta virt. eigenvalues --   -0.11827  -0.02948  -0.00661   0.01085   0.01261
  Beta virt. eigenvalues --    0.01571   0.02911   0.04168   0.04957   0.05423
  Beta virt. eigenvalues --    0.05509   0.06033   0.07032   0.07436   0.07933
  Beta virt. eigenvalues --    0.08979   0.09929   0.10432   0.11559   0.11950
  Beta virt. eigenvalues --    0.13337   0.13861   0.14310   0.15122   0.15566
  Beta virt. eigenvalues --    0.15967   0.16891   0.17280   0.17587   0.19035
  Beta virt. eigenvalues --    0.19576   0.19880   0.20474   0.20962   0.22072
  Beta virt. eigenvalues --    0.22422   0.22752   0.23105   0.24420   0.25013
  Beta virt. eigenvalues --    0.25678   0.26384   0.26765   0.27331   0.28486
  Beta virt. eigenvalues --    0.28750   0.29203   0.29950   0.33007   0.33660
  Beta virt. eigenvalues --    0.35102   0.36309   0.37617   0.39582   0.42010
  Beta virt. eigenvalues --    0.43320   0.44720   0.47399   0.49499   0.51637
  Beta virt. eigenvalues --    0.54996   0.56308   0.57300   0.57787   0.58997
  Beta virt. eigenvalues --    0.59584   0.61070   0.62754   0.63713   0.64100
  Beta virt. eigenvalues --    0.65354   0.66432   0.67818   0.69048   0.69681
  Beta virt. eigenvalues --    0.72630   0.73671   0.75014   0.77697   0.79696
  Beta virt. eigenvalues --    0.84753   0.85179   0.85984   0.87809   0.89336
  Beta virt. eigenvalues --    0.90711   0.92104   0.93038   0.93677   0.95618
  Beta virt. eigenvalues --    0.97261   0.97540   1.00556   1.00963   1.04870
  Beta virt. eigenvalues --    1.12655   1.15145   1.16483   1.19089   1.22368
  Beta virt. eigenvalues --    1.23275   1.30799   1.33101   1.34630   1.37354
  Beta virt. eigenvalues --    1.40729   1.42605   1.44017   1.45055   1.48517
  Beta virt. eigenvalues --    1.53203   1.56217   1.57388   1.57904   1.60877
  Beta virt. eigenvalues --    1.61002   1.63448   1.64422   1.66817   1.70048
  Beta virt. eigenvalues --    1.74739   1.76287   1.79376   1.83649   1.85841
  Beta virt. eigenvalues --    1.87622   1.88809   1.90390   1.94478   1.96618
  Beta virt. eigenvalues --    1.97493   2.01037   2.05665   2.07228   2.08978
  Beta virt. eigenvalues --    2.15165   2.18603   2.21685   2.24848   2.26533
  Beta virt. eigenvalues --    2.28588   2.30614   2.36707   2.40803   2.42662
  Beta virt. eigenvalues --    2.44368   2.44625   2.50552   2.51480   2.53634
  Beta virt. eigenvalues --    2.55536   2.57954   2.59158   2.59777   2.62281
  Beta virt. eigenvalues --    2.64296   2.69571   2.70016   2.71566   2.78082
  Beta virt. eigenvalues --    2.81889   2.82586   2.84817   2.86825   2.88232
  Beta virt. eigenvalues --    2.90370   2.92758   2.97764   3.00375   3.04272
  Beta virt. eigenvalues --    3.08543   3.10236   3.15071   3.28885   3.42215
  Beta virt. eigenvalues --    3.51598   3.55259   3.59239   3.62568   3.65013
  Beta virt. eigenvalues --    3.77675   3.79642   3.87163   3.92281   3.98836
  Beta virt. eigenvalues --    4.01801   4.19772   4.35449   4.39744   4.43616
  Beta virt. eigenvalues --    4.64779   4.71567   5.02215   5.39376  23.71976
  Beta virt. eigenvalues --   23.78708  23.82973  23.88837  23.92482  23.96028
  Beta virt. eigenvalues --   35.46852  35.53446  35.65686
          Condensed to atoms (all electrons):
               1          2          3          4          5          6
     1  C    6.267171  -0.651406   0.068373   0.440900  -0.739671   0.027008
     2  C   -0.651406   6.543622  -0.411646  -0.060048   0.229028  -0.050620
     3  C    0.068373  -0.411646   6.305278   0.191961  -0.060802   0.058120
     4  C    0.440900  -0.060048   0.191961   7.065867  -1.891093   0.152817
     5  C   -0.739671   0.229028  -0.060802  -1.891093   9.118170   0.121040
     6  N    0.027008  -0.050620   0.058120   0.152817   0.121040   6.619304
     7  C    0.009529   0.062903  -0.115445  -0.139328  -0.237088   0.223248
     8  N   -0.025236   0.187028   0.062023   0.003756  -0.097457  -0.017964
     9  N    0.121723  -0.092515  -0.052120   0.004037  -0.363569   0.050961
    10  H    0.290834   0.042018   0.005553  -0.000822   0.014370  -0.000119
    11  H    0.441214  -0.067445  -0.018247   0.012978  -0.002949   0.000076
    12  H    0.429099  -0.022740  -0.000718  -0.031006  -0.001668  -0.000069
    13  H   -0.022789  -0.021622   0.411428  -0.028412   0.013660  -0.000204
    14  H   -0.027273   0.033246  -0.045938   0.368502  -0.011112   0.002664
    15  H   -0.000057   0.000912  -0.002708  -0.000006   0.020074  -0.073297
               7          8          9         10         11         12
     1  C    0.009529  -0.025236   0.121723   0.290834   0.441214   0.429099
     2  C    0.062903   0.187028  -0.092515   0.042018  -0.067445  -0.022740
     3  C   -0.115445   0.062023  -0.052120   0.005553  -0.018247  -0.000718
     4  C   -0.139328   0.003756   0.004037  -0.000822   0.012978  -0.031006
     5  C   -0.237088  -0.097457  -0.363569   0.014370  -0.002949  -0.001668
     6  N    0.223248  -0.017964   0.050961  -0.000119   0.000076  -0.000069
     7  C    5.524157   0.300488  -0.132592   0.000116   0.000998  -0.000889
     8  N    0.300488   6.852767  -0.010382   0.000038   0.000421   0.000956
     9  N   -0.132592  -0.010382   7.217476  -0.000004  -0.000255  -0.001755
    10  H    0.000116   0.000038  -0.000004   0.561588  -0.028479  -0.028682
    11  H    0.000998   0.000421  -0.000255  -0.028479   0.515082  -0.024258
    12  H   -0.000889   0.000956  -0.001755  -0.028682  -0.024258   0.508740
    13  H    0.003212   0.004824  -0.030470   0.001600   0.001436  -0.000187
    14  H   -0.001112   0.004319   0.016431   0.001334  -0.000078   0.001041
    15  H    0.461518  -0.082370   0.017142   0.000000   0.000000  -0.000000
              13         14         15
     1  C   -0.022789  -0.027273  -0.000057
     2  C   -0.021622   0.033246   0.000912
     3  C    0.411428  -0.045938  -0.002708
     4  C   -0.028412   0.368502  -0.000006
     5  C    0.013660  -0.011112   0.020074
     6  N   -0.000204   0.002664  -0.073297
     7  C    0.003212  -0.001112   0.461518
     8  N    0.004824   0.004319  -0.082370
     9  N   -0.030470   0.016431   0.017142
    10  H    0.001600   0.001334   0.000000
    11  H    0.001436  -0.000078   0.000000
    12  H   -0.000187   0.001041  -0.000000
    13  H    0.505528   0.000036  -0.000017
    14  H    0.000036   0.498905  -0.000012
    15  H   -0.000017  -0.000012   0.515864
          Atomic-Atomic Spin Densities.
               1          2          3          4          5          6
     1  C    0.041045  -0.019578  -0.050053  -0.046829   0.011191  -0.000476
     2  C   -0.019578   1.003109  -0.147086  -0.140511   0.079279  -0.004428
     3  C   -0.050053  -0.147086   0.252378   0.163545  -0.057877   0.005474
     4  C   -0.046829  -0.140511   0.163545   0.168123  -0.025742   0.006492
     5  C    0.011191   0.079279  -0.057877  -0.025742  -0.010118  -0.005355
     6  N   -0.000476  -0.004428   0.005474   0.006492  -0.005355   0.000354
     7  C    0.004026   0.019613  -0.022875  -0.013191  -0.000739   0.000290
     8  N   -0.001299  -0.040387   0.023074  -0.003391   0.017149   0.002096
     9  N    0.010233   0.084887  -0.090715  -0.055675   0.015542  -0.003405
    10  H   -0.021223  -0.032769   0.022175   0.025582  -0.005846   0.000063
    11  H    0.014427  -0.004292  -0.002256  -0.005977   0.000472   0.000009
    12  H    0.014454  -0.004591  -0.005320  -0.002684   0.000351  -0.000002
    13  H   -0.001502  -0.018849   0.019034   0.007338   0.000990   0.000122
    14  H   -0.000934  -0.021866   0.011435   0.018209  -0.005308   0.000127
    15  H   -0.000079  -0.000642   0.000840   0.001315   0.000973  -0.000214
               7          8          9         10         11         12
     1  C    0.004026  -0.001299   0.010233  -0.021223   0.014427   0.014454
     2  C    0.019613  -0.040387   0.084887  -0.032769  -0.004292  -0.004591
     3  C   -0.022875   0.023074  -0.090715   0.022175  -0.002256  -0.005320
     4  C   -0.013191  -0.003391  -0.055675   0.025582  -0.005977  -0.002684
     5  C   -0.000739   0.017149   0.015542  -0.005846   0.000472   0.000351
     6  N    0.000290   0.002096  -0.003405   0.000063   0.000009  -0.000002
     7  C    0.006461   0.003692   0.002700  -0.000403   0.000060   0.000141
     8  N    0.003692  -0.045741   0.038473   0.000326   0.000022  -0.000040
     9  N    0.002700   0.038473   0.012863  -0.001820   0.000112   0.000247
    10  H   -0.000403   0.000326  -0.001820   0.077407  -0.006159  -0.006245
    11  H    0.000060   0.000022   0.000112  -0.006159   0.006958   0.001693
    12  H    0.000141  -0.000040   0.000247  -0.006245   0.001693   0.007260
    13  H   -0.000889   0.000158  -0.005952   0.001566  -0.000249  -0.000056
    14  H   -0.000189  -0.000286  -0.001712   0.001493  -0.000055  -0.000223
    15  H   -0.002389   0.001789  -0.001795   0.000000  -0.000000  -0.000000
              13         14         15
     1  C   -0.001502  -0.000934  -0.000079
     2  C   -0.018849  -0.021866  -0.000642
     3  C    0.019034   0.011435   0.000840
     4  C    0.007338   0.018209   0.001315
     5  C    0.000990  -0.005308   0.000973
     6  N    0.000122   0.000127  -0.000214
     7  C   -0.000889  -0.000189  -0.002389
     8  N    0.000158  -0.000286   0.001789
     9  N   -0.005952  -0.001712  -0.001795
    10  H    0.001566   0.001493   0.000000
    11  H   -0.000249  -0.000055  -0.000000
    12  H   -0.000056  -0.000223  -0.000000
    13  H   -0.003280   0.000248   0.000003
    14  H    0.000248  -0.000891   0.000002
    15  H    0.000003   0.000002   0.001865
 Mulliken charges and spin densities:
               1          2
     1  C   -0.629418  -0.046597
     2  C    0.279287   0.751888
     3  C   -0.395112   0.121772
     4  C   -0.090103   0.096605
     5  C   -0.110933   0.014962
     6  N   -0.112965   0.001146
     7  C    0.040287  -0.003691
     8  N   -0.183213  -0.004366
     9  N    0.255891   0.003983
    10  H    0.140654   0.054147
    11  H    0.169505   0.004765
    12  H    0.172138   0.004984
    13  H    0.161977  -0.001318
    14  H    0.159046   0.000051
    15  H    0.142957   0.001668
 Sum of Mulliken charges =  -0.00000   1.00000
 Mulliken charges and spin densities with hydrogens summed into heavy atoms:
               1          2
     1  C   -0.147121   0.017300
     2  C    0.279287   0.751888
     3  C   -0.233134   0.120454
     4  C    0.068944   0.096655
     5  C   -0.110933   0.014962
     6  N   -0.112965   0.001146
     7  C    0.183244  -0.002022
     8  N   -0.183213  -0.004366
     9  N    0.255891   0.003983
 Electronic spatial extent (au):  <R**2>=           1049.1688
 Charge=             -0.0000 electrons
 Dipole moment (field-independent basis, Debye):
    X=              4.2960    Y=             -0.1921    Z=              1.1916  Tot=              4.4623
 Quadrupole moment (field-independent basis, Debye-Ang):
   XX=            -46.8745   YY=            -58.2899   ZZ=            -51.8952
   XY=              0.1989   XZ=              2.2283   YZ=              0.3461
 Traceless Quadrupole moment (field-independent basis, Debye-Ang):
   XX=              5.4787   YY=             -5.9367   ZZ=              0.4580
   XY=              0.1989   XZ=              2.2283   YZ=              0.3461
 Octapole moment (field-independent basis, Debye-Ang**2):
  XXX=              4.6651  YYY=             -2.7852  ZZZ=              2.2915  XYY=             18.9510
  XXY=             -1.6827  XXZ=             -6.8951  XZZ=              2.0415  YZZ=             -0.6980
  YYZ=              6.0674  XYZ=             -0.7230
 Hexadecapole moment (field-independent basis, Debye-Ang**3):
 XXXX=           -964.6171 YYYY=           -265.3140 ZZZZ=           -160.8900 XXXY=              4.3140
 XXXZ=             21.6654 YYYX=              2.7144 YYYZ=             -0.2805 ZZZX=              5.1929
 ZZZY=             -0.6378 XXYY=           -241.2772 XXZZ=           -188.2102 YYZZ=            -63.7138
 XXYZ=              1.3466 YYXZ=             -1.8267 ZZXY=              0.3911
 N-N= 4.173085053347D+02 E-N=-1.756457845164D+03  KE= 3.947753723151D+02
                          Isotropic Fermi Contact Couplings
        Atom                 a.u.       MegaHertz       Gauss      10(-4) cm-1
     1  C(13)              0.00475       5.34068       1.90569       1.78146
     2  C(13)              0.37878     425.82137     151.94365     142.03872
     3  C(13)             -0.01144     -12.86474      -4.59046      -4.29121
     4  C(13)             -0.00476      -5.34937      -1.90879      -1.78436
     5  C(13)              0.02336      26.25613       9.36884       8.75810
     6  N(14)              0.00133       0.43132       0.15391       0.14387
     7  C(13)              0.00235       2.63724       0.94103       0.87969
     8  N(14)              0.00075       0.24381       0.08700       0.08133
     9  N(14)              0.03046       9.84272       3.51213       3.28318
    10  H(1)               0.02244     100.29188      35.78664      33.45377
    11  H(1)               0.00297      13.27038       4.73520       4.42652
    12  H(1)               0.00306      13.68188       4.88203       4.56378
    13  H(1)              -0.00060      -2.66369      -0.95047      -0.88851
    14  H(1)               0.00039       1.75922       0.62773       0.58681
    15  H(1)               0.00073       3.25497       1.16145       1.08574
 --------------------------------------------------------
       Center         ----  Spin Dipole Couplings  ----
                      3XX-RR        3YY-RR        3ZZ-RR
 --------------------------------------------------------
     1   Atom        0.046221     -0.027002     -0.019219
     2   Atom       -0.155010     -0.450848      0.605858
     3   Atom       -0.039343     -0.020476      0.059819
     4   Atom       -0.055366     -0.013350      0.068716
     5   Atom        0.024228     -0.012707     -0.011520
     6   Atom        0.007255     -0.000857     -0.006398
     7   Atom        0.006339     -0.002722     -0.003617
     8   Atom        0.014318     -0.006029     -0.008289
     9   Atom        0.030094     -0.015150     -0.014944
    10   Atom        0.008215     -0.009235      0.001019
    11   Atom        0.011951     -0.004298     -0.007653
    12   Atom        0.013121     -0.005286     -0.007835
    13   Atom       -0.009739      0.004873      0.004867
    14   Atom       -0.008847      0.004239      0.004608
    15   Atom        0.002830     -0.001467     -0.001363
 --------------------------------------------------------
                        XY            XZ            YZ
 --------------------------------------------------------
     1   Atom       -0.002349      0.023021     -0.000809
     2   Atom       -0.014619      0.583704     -0.027447
     3   Atom       -0.019690     -0.055547      0.041512
     4   Atom        0.005595     -0.026550     -0.051682
     5   Atom        0.001738     -0.008295      0.002408
     6   Atom        0.000515      0.008742      0.002623
     7   Atom        0.000492      0.001054      0.000276
     8   Atom        0.006811      0.008777      0.001716
     9   Atom       -0.000704     -0.005615     -0.004204
    10   Atom       -0.000589      0.005992     -0.000298
    11   Atom       -0.011564     -0.004623      0.003092
    12   Atom        0.010774     -0.004404     -0.002705
    13   Atom       -0.005090     -0.000471     -0.010454
    14   Atom        0.006264      0.001605      0.009668
    15   Atom        0.000038      0.000364     -0.000005
 --------------------------------------------------------


 ---------------------------------------------------------------------------------
              Anisotropic Spin Dipole Couplings in Principal Axis System
 ---------------------------------------------------------------------------------

       Atom             a.u.   MegaHertz   Gauss  10(-4) cm-1        Axes

              Baa    -0.0271    -3.635    -1.297    -1.212 -0.0029  0.9938  0.1108
     1 C(13)  Bbb    -0.0265    -3.556    -1.269    -1.186 -0.3032 -0.1065  0.9470
              Bcc     0.0536     7.191     2.566     2.399  0.9529 -0.0308  0.3017
 
              Baa    -0.4713   -63.246   -22.568   -21.097  0.8790 -0.0113 -0.4766
     2 C(13)  Bbb    -0.4515   -60.594   -21.621   -20.212  0.0207  0.9997  0.0145
              Bcc     0.9229   123.839    44.189    41.308  0.4763 -0.0226  0.8790
 
              Baa    -0.0643    -8.622    -3.077    -2.876  0.9164  0.0339  0.3989
     3 C(13)  Bbb    -0.0377    -5.056    -1.804    -1.687  0.1112  0.9356 -0.3350
              Bcc     0.1019    13.678     4.881     4.563 -0.3846  0.3513  0.8536
 
              Baa    -0.0616    -8.272    -2.952    -2.759  0.9507  0.1686  0.2604
     4 C(13)  Bbb    -0.0366    -4.905    -1.750    -1.636 -0.2599  0.8911  0.3719
              Bcc     0.0982    13.178     4.702     4.396 -0.1694 -0.4213  0.8910
 
              Baa    -0.0158    -2.119    -0.756    -0.707  0.1790 -0.6665  0.7237
     5 C(13)  Bbb    -0.0103    -1.383    -0.493    -0.461  0.1201  0.7449  0.6563
              Bcc     0.0261     3.502     1.249     1.168  0.9765  0.0305 -0.2134
 
              Baa    -0.0111    -0.429    -0.153    -0.143 -0.4159 -0.2057  0.8858
     6 N(14)  Bbb    -0.0006    -0.024    -0.009    -0.008 -0.2061  0.9701  0.1285
              Bcc     0.0117     0.452     0.161     0.151  0.8858  0.1291  0.4458
 
              Baa    -0.0038    -0.507    -0.181    -0.169 -0.0911 -0.2127  0.9729
     7 C(13)  Bbb    -0.0027    -0.363    -0.129    -0.121 -0.0771  0.9755  0.2061
              Bcc     0.0065     0.869     0.310     0.290  0.9929  0.0563  0.1052
 
              Baa    -0.0114    -0.439    -0.157    -0.147 -0.3563  0.1579  0.9210
     8 N(14)  Bbb    -0.0079    -0.304    -0.108    -0.101 -0.1972  0.9507 -0.2393
              Bcc     0.0193     0.743     0.265     0.248  0.9134  0.2668  0.3076
 
              Baa    -0.0197    -0.758    -0.271    -0.253  0.0911  0.6868  0.7211
     9 N(14)  Bbb    -0.0111    -0.429    -0.153    -0.143 -0.0805  0.7268 -0.6821
              Bcc     0.0308     1.187     0.424     0.396  0.9926 -0.0041 -0.1215
 
              Baa    -0.0093    -4.938    -1.762    -1.647  0.0297  0.9995  0.0117
    10 H(1)   Bbb    -0.0024    -1.266    -0.452    -0.422 -0.4924  0.0044  0.8704
              Bcc     0.0116     6.204     2.214     2.069  0.8699 -0.0316  0.4923
 
              Baa    -0.0105    -5.611    -2.002    -1.871  0.3798  0.8669 -0.3229
    11 H(1)   Bbb    -0.0086    -4.581    -1.635    -1.528  0.3225  0.2031  0.9245
              Bcc     0.0191    10.192     3.637     3.400  0.8671 -0.4552 -0.2024
 
              Baa    -0.0105    -5.587    -1.994    -1.864 -0.3386  0.8788  0.3361
    12 H(1)   Bbb    -0.0086    -4.586    -1.636    -1.530  0.3042 -0.2358  0.9230
              Bcc     0.0191    10.173     3.630     3.393  0.8904  0.4148 -0.1875
 
              Baa    -0.0124    -6.613    -2.360    -2.206  0.8615  0.4235  0.2800
    13 H(1)   Bbb    -0.0034    -1.793    -0.640    -0.598 -0.4906  0.5524  0.6739
              Bcc     0.0158     8.406     2.999     2.804 -0.1307  0.7180 -0.6837
 
              Baa    -0.0118    -6.271    -2.238    -2.092  0.8735 -0.4518  0.1813
    14 H(1)   Bbb    -0.0036    -1.938    -0.691    -0.646 -0.4305 -0.5430  0.7210
              Bcc     0.0154     8.209     2.929     2.738  0.2273  0.7078  0.6688
 
              Baa    -0.0015    -0.783    -0.280    -0.261 -0.0179  0.9940  0.1077
    15 H(1)   Bbb    -0.0014    -0.743    -0.265    -0.248 -0.0843 -0.1088  0.9905
              Bcc     0.0029     1.527     0.545     0.509  0.9963  0.0086  0.0858
 

 ---------------------------------------------------------------------------------

 No NMR shielding tensors so no spin-rotation constants.
 Leave Link  601 at Sat Oct 29 16:02:02 2022, MaxMem=  8053063680 cpu:               4.7 elap:               0.2
 (Enter /public3/home/scg5914/software-scg5914/g16/l701.exe)
 ... and contract with generalized density number  0.
 Compute integral first derivatives.
 R6Disp: Adding Grimme-D3(BJ) dispersion energy 1st derivatives to the gradient.
 Leave Link  701 at Sat Oct 29 16:02:02 2022, MaxMem=  8053063680 cpu:               3.2 elap:               0.1
 (Enter /public3/home/scg5914/software-scg5914/g16/l702.exe)
 L702 exits ... SP integral derivatives will be done elsewhere.
 Leave Link  702 at Sat Oct 29 16:02:02 2022, MaxMem=  8053063680 cpu:               0.3 elap:               0.0
 (Enter /public3/home/scg5914/software-scg5914/g16/l703.exe)
 Integral derivatives from FoFJK, PRISM(SPDF).
 Compute integral first derivatives, UseDBF=F ICtDFT=           0.
 Calling FoFJK, ICntrl=      2127 FMM=F ISym2X=0 I1Cent= 0 IOpClX= 1 NMat=1 NMatS=1 NMatT=0.
 FoFJK:  IHMeth= 1 ICntrl=    2127 DoSepK=F KAlg= 0 I1Cent=           0 FoldK=F
 IRaf=         0 NMat=       1 IRICut=       1 DoRegI=T DoRafI=F ISym2E= 0 IDoP0=0 IntGTp=1.
 FoFCou: FMM=F IPFlag=           0 FMFlag=      100000 FMFlg1=         800
         NFxFlg=           0 DoJE=F BraDBF=F KetDBF=F FulRan=T
         wScrn=  0.000000 ICntrl=      2127 IOpCl=  1 I1Cent=           0 NGrid=           0
         NMat0=    1 NMatS0=      1 NMatT0=    0 NMatD0=    1 NMtDS0=    0 NMtDT0=    0
 Symmetry not used in FoFCou.
 Leave Link  703 at Sat Oct 29 16:02:04 2022, MaxMem=  8053063680 cpu:              58.1 elap:               1.8
 (Enter /public3/home/scg5914/software-scg5914/g16/l716.exe)
 Dipole        = 1.69017362D+00-7.55929433D-02 4.68830970D-01
 ***** Axes restored to original set *****
 -------------------------------------------------------------------
 Center     Atomic                   Forces (Hartrees/Bohr)
 Number     Number              X              Y              Z
 -------------------------------------------------------------------
      1        6          -0.013744849   -0.010418316   -0.005137314
      2        6           0.036992589    0.017184250    0.014580615
      3        6          -0.014349333   -0.002360743   -0.016373428
      4        6          -0.019352904   -0.002161920    0.002715766
      5        6           0.002815262   -0.001110082   -0.000336886
      6        7           0.001356230    0.002213671   -0.000952889
      7        6          -0.001053147   -0.002358302   -0.001425991
      8        7          -0.000685613    0.000225114    0.001613486
      9        7           0.003868987   -0.000512787    0.003378920
     10        1           0.002421334   -0.000740854    0.000768071
     11        1           0.000686008    0.000026864    0.000883526
     12        1           0.001083162    0.000134342   -0.000277696
     13        1           0.000426121   -0.000417682   -0.000756354
     14        1          -0.000465338   -0.000490147    0.001373726
     15        1           0.000001491    0.000786593   -0.000053552
 -------------------------------------------------------------------
 Cartesian Forces:  Max     0.036992589 RMS     0.008346870
 Leave Link  716 at Sat Oct 29 16:02:04 2022, MaxMem=  8053063680 cpu:               0.3 elap:               0.0
 (Enter /public3/home/scg5914/software-scg5914/g16/l103.exe)

 GradGradGradGradGradGradGradGradGradGradGradGradGradGradGradGradGradGrad
 Berny optimization.
 FormGI is forming the generalized inverse of G from B-inverse, IUseBI=4.
 Internal  Forces:  Max     0.009004445 RMS     0.003239572
 Search for a local minimum.
 Step number   1 out of a maximum of   94
 All quantities printed in internal units (Hartrees-Bohrs-Radians)
 RMS Force = .32396D-02 SwitMx=.10000D-02 MixMth= 1
 Mixed Optimization -- RFO/linear search
 Second derivative matrix not updated -- first step.
 ITU=  0
     Eigenvalues ---    0.00614   0.01305   0.02194   0.02245   0.02288
     Eigenvalues ---    0.02352   0.02939   0.03261   0.04245   0.07106
     Eigenvalues ---    0.07201   0.07382   0.08005   0.08887   0.11206
     Eigenvalues ---    0.13842   0.15999   0.16000   0.16000   0.16000
     Eigenvalues ---    0.20446   0.22220   0.23566   0.24093   0.28996
     Eigenvalues ---    0.29554   0.31203   0.33565   0.34235   0.34296
     Eigenvalues ---    0.34322   0.35809   0.35866   0.35944   0.37370
     Eigenvalues ---    0.47865   0.50250   0.55817   0.61344
 RFO step:  Lambda=-6.29990320D-03 EMin= 6.14155673D-03
 Linear search not attempted -- first point.
 Iteration  1 RMS(Cart)=  0.01924383 RMS(Int)=  0.00118013
 Iteration  2 RMS(Cart)=  0.00162958 RMS(Int)=  0.00092215
 Iteration  3 RMS(Cart)=  0.00000235 RMS(Int)=  0.00092214
 Iteration  4 RMS(Cart)=  0.00000001 RMS(Int)=  0.00092214
 ITry= 1 IFail=0 DXMaxC= 9.28D-02 DCOld= 1.00D+10 DXMaxT= 3.00D-01 DXLimC= 3.00D+00 Rises=F
 Variable       Old X    -DE/DX   Delta X   Delta X   Delta X     New X
                                 (Linear)    (Quad)   (Total)
    R1        2.85627  -0.00900   0.00000  -0.02829  -0.02829   2.82799
    R2        2.06936   0.00177   0.00000   0.00507   0.00507   2.07443
    R3        2.06833  -0.00097   0.00000  -0.00279  -0.00279   2.06555
    R4        2.06790  -0.00096   0.00000  -0.00275  -0.00275   2.06515
    R5        2.85177  -0.00835   0.00000  -0.04564  -0.04370   2.80807
    R6        2.89676  -0.00849   0.00000  -0.05206  -0.05006   2.84670
    R7        2.89715   0.00622   0.00000   0.06263   0.05957   2.95673
    R8        2.79064   0.00052   0.00000   0.00205   0.00201   2.79264
    R9        2.04381   0.00039   0.00000   0.00106   0.00106   2.04487
   R10        2.85768   0.00038   0.00000   0.00083   0.00078   2.85846
   R11        2.04170   0.00067   0.00000   0.00184   0.00184   2.04354
   R12        2.48642  -0.00085   0.00000  -0.00162  -0.00162   2.48480
   R13        2.55526  -0.00099   0.00000  -0.00090  -0.00160   2.55366
   R14        2.61151  -0.00046   0.00000  -0.00056  -0.00056   2.61095
   R15        2.51587  -0.00163   0.00000  -0.00225  -0.00225   2.51362
   R16        2.04292  -0.00073   0.00000  -0.00200  -0.00200   2.04092
   R17        2.57840   0.00059   0.00000   0.00110   0.00110   2.57951
    A1        1.94634  -0.00336   0.00000  -0.02331  -0.02332   1.92303
    A2        1.93232   0.00092   0.00000   0.00698   0.00692   1.93923
    A3        1.93215   0.00105   0.00000   0.00797   0.00792   1.94007
    A4        1.88432   0.00068   0.00000   0.00096   0.00095   1.88527
    A5        1.88176   0.00068   0.00000   0.00129   0.00129   1.88304
    A6        1.88474   0.00011   0.00000   0.00669   0.00659   1.89133
    A7        2.06482   0.00700   0.00000   0.06497   0.06115   2.12597
    A8        2.06503   0.00670   0.00000   0.06259   0.05875   2.12378
    A9        1.93127   0.00529   0.00000   0.02970   0.02956   1.96082
   A10        2.19654  -0.00252   0.00000  -0.00717  -0.00768   2.18886
   A11        1.52524  -0.00102   0.00000  -0.01156  -0.01110   1.51414
   A12        2.27236   0.00327   0.00000   0.01106   0.01116   2.28351
   A13        2.12552  -0.00191   0.00000  -0.01143  -0.01183   2.11368
   A14        1.85262   0.00491   0.00000   0.02579   0.02593   1.87856
   A15        2.15207  -0.00242   0.00000  -0.00842  -0.00867   2.14341
   A16        1.49303  -0.00152   0.00000  -0.01130  -0.01093   1.48210
   A17        2.24000   0.00362   0.00000   0.01665   0.01675   2.25675
   A18        2.25362  -0.00186   0.00000  -0.01093  -0.01122   2.24240
   A19        2.57013  -0.00180   0.00000  -0.00954  -0.00930   2.56083
   A20        1.62212   0.00164   0.00000   0.01173   0.01133   1.63344
   A21        1.95133  -0.00078   0.00000  -0.00211  -0.00199   1.94934
   A22        1.74946   0.00195   0.00000   0.00697   0.00685   1.75631
   A23        2.04482  -0.00207   0.00000  -0.00773  -0.00783   2.03699
   A24        2.12678   0.00116   0.00000   0.00454   0.00458   2.13136
   A25        2.11147   0.00092   0.00000   0.00312   0.00316   2.11464
   A26        1.74658   0.00157   0.00000   0.00708   0.00697   1.75355
   A27        1.63791   0.00089   0.00000   0.01024   0.00978   1.64769
   A28        2.46100  -0.00170   0.00000  -0.01359  -0.01337   2.44763
   A29        1.92343  -0.00070   0.00000  -0.00283  -0.00273   1.92070
    D1       -0.59221  -0.00608   0.00000  -0.04940  -0.05117  -0.64338
    D2        0.62666   0.00616   0.00000   0.05252   0.05428   0.68095
    D3        1.50625  -0.00683   0.00000  -0.05902  -0.06081   1.44543
    D4        2.72512   0.00541   0.00000   0.04291   0.04464   2.76976
    D5       -2.68731  -0.00541   0.00000  -0.04091  -0.04263  -2.72994
    D6       -1.46844   0.00683   0.00000   0.06102   0.06282  -1.40562
    D7       -3.09417   0.00080   0.00000   0.01679   0.01738  -3.07679
    D8       -0.21079   0.00430   0.00000   0.06283   0.06364  -0.14715
    D9        3.09395  -0.00121   0.00000  -0.02783  -0.02842   3.06553
   D10        0.17089  -0.00385   0.00000  -0.05476  -0.05557   0.11531
   D11       -0.06446  -0.00003   0.00000  -0.00544  -0.00541  -0.06987
   D12        2.34733  -0.00168   0.00000  -0.02135  -0.02148   2.32585
   D13       -2.34515   0.00169   0.00000   0.01641   0.01661  -2.32854
   D14        0.06664   0.00004   0.00000   0.00050   0.00054   0.06718
   D15       -0.92373   0.00552   0.00000   0.04818   0.04884  -0.87489
   D16        1.33263   0.00378   0.00000   0.04471   0.04504   1.37767
   D17        0.07205   0.00007   0.00000   0.00612   0.00611   0.07815
   D18        2.32841  -0.00168   0.00000   0.00265   0.00231   2.33072
   D19        2.46381   0.00236   0.00000   0.00394   0.00449   2.46830
   D20       -1.56301   0.00061   0.00000   0.00047   0.00069  -1.56232
   D21       -1.39990  -0.00355   0.00000  -0.03278  -0.03311  -1.43301
   D22        1.04583  -0.00506   0.00000  -0.02780  -0.02842   1.01741
   D23       -2.37530   0.00159   0.00000   0.00104   0.00134  -2.37396
   D24        0.07043   0.00008   0.00000   0.00603   0.00602   0.07645
   D25        1.50596  -0.00071   0.00000  -0.00286  -0.00305   1.50291
   D26       -2.33150  -0.00223   0.00000   0.00213   0.00164  -2.32986
   D27        2.36804  -0.00135   0.00000  -0.00049  -0.00082   2.36722
   D28       -0.01271   0.00001   0.00000  -0.00755  -0.00752  -0.02023
   D29       -0.07307  -0.00022   0.00000  -0.00777  -0.00781  -0.08088
   D30       -2.66896   0.00177   0.00000   0.00351   0.00349  -2.66546
   D31        2.68582  -0.00195   0.00000  -0.01100  -0.01100   2.67482
   D32        0.08993   0.00004   0.00000   0.00029   0.00031   0.09024
   D33       -0.07389  -0.00008   0.00000   0.01359   0.01343  -0.06046
   D34        3.05140   0.00026   0.00000   0.00835   0.00835   3.05975
   D35        0.12272   0.00013   0.00000  -0.01309  -0.01293   0.10979
   D36       -3.00272  -0.00021   0.00000  -0.00791  -0.00792  -3.01063
   D37       -2.29608   0.00135   0.00000   0.00836   0.00871  -2.28737
[...]

                                                            Principal Delocalizations
           NBO                        Occupancy    Energy   (geminal,vicinal,remote)
 ====================================================================================
 Molecular unit  1  (C6H6N3)
     1. BD (   1) C   1 - C   2          0.99516    -0.68298  223(v),67(v),84(v),225(v)
                                                    219(g),218(g)
     2. BD (   1) C   1 - H  10          0.96751    -0.52333  29(v),51(v)
     3. BD (   1) C   1 - H  11          0.98790    -0.52446  221(v),29(v)
     4. BD (   1) C   1 - H  12          0.98785    -0.52419  220(v),29(v)
     5. BD (   1) C   2 - C   3          0.97976    -0.60710  226(v),29(g),222(g),221(g)
                                                    219(v),34(v),224(g),216(g)
                                                    171(v),170(v)
     6. BD (   1) C   2 - C   4          0.96890    -0.58474  228(v),224(v),29(g),222(g)
                                                    220(g),218(v),225(g),33(v)
                                                    104(v),101(v),226(g),70(v)
                                                    216(g),34(v)
     7. BD (   1) C   3 - C   4          0.89227    -0.48462  29(v),227(v),234(v),220(g)
                                                    221(g),216(v),54(v),50(v)
     8. BD (   1) C   3 - N   9          0.97304    -0.71903  227(v),228(v),226(v),216(v)
                                                    154(v),229(g),231(v),104(v)
                                                    232(v),222(g)
     9. BD (   1) C   3 - H  13          0.99367    -0.58491  29(v),234(v),220(g),50(v)
    10. BD (   1) C   4 - C   5          0.97913    -0.64560  234(v),224(v),216(v),227(g)
                                                    230(v),223(v),226(g),54(v)
    11. BD (   1) C   4 - H  14          0.99123    -0.57582  29(v),227(v),221(g),50(v)
    12. BD (   1) C   5 - N   6          0.99330    -0.86267  233(v),225(g),135(v),223(v)
                                                    136(v)
    13. BD (   2) C   5 - N   6          0.91029    -0.31950  232(v),137(v),221(v),226(v)
                                                    223(v),29(r),234(v)
    14. BD (   1) C   5 - N   9          0.99298    -0.81262  223(g),226(v),224(v),67(v)
                                                    233(r),153(v),227(g),119(v)
                                                    154(v)
    15. BD (   1) N   6 - C   7          0.98476    -0.77022  225(v),229(v),102(v),227(g)
    16. BD (   1) C   7 - N   8          0.99188    -0.84220  223(v),171(v),173(v),225(r)
                                                    169(v)
    17. BD (   2) C   7 - N   8          0.94434    -0.32213  228(v),223(v),170(v)
    18. BD (   1) C   7 - H  15          0.99024    -0.55045  234(v),227(v),118(v)
    19. BD (   1) N   8 - N   9          0.99114    -0.84741  233(v),135(v),225(v),228(v)
                                                    229(g),230(v),223(g),69(v)
                                                    136(v),68(v)
    20. CR (   1) C   1                  0.99962   -10.05594  51(v),220(v),221(v)
    21. CR (   1) C   2                  0.99921   -10.09886  29(g),35(v),85(v),68(v)
    22. CR (   1) C   3                  0.99954   -10.13774  29(v),234(v),216(v),51(v)
                                                    222(g)
    23. CR (   1) C   4                  0.99951   -10.10563  29(v),227(v),216(v),107(v)
                                                    51(v)
    24. CR (   1) C   5                  0.99951   -10.11982  230(v),173(v),223(v),119(v)
                                                    228(g),234(v)
    25. CR (   1) N   6                  0.99969   -14.12067  101(v),135(v),225(v),107(v)
    26. CR (   1) C   7                  0.99972   -10.10906  227(v),213(v),153(v)
    27. CR (   1) N   8                  0.99973   -14.16466  135(v),223(v)
    28. CR (   1) N   9                  0.99954   -14.22745  102(v),229(g),154(v),68(v)
    29. LP*(   1) C   2                  0.14097    -0.05579  220(g),221(g),223(v),217(v)
                                                    54(g),225(v),228(r),216(g)
                                                    85(v)
    30. LP (   1) N   6                  0.96376    -0.38717  231(v),229(v),101(v),135(v)
                                                    233(v),136(v),232(v)
    31. LP (   1) N   8                  0.97383    -0.42826  230(v),229(v),135(v),169(v)
                                                    136(v),233(v),150(v)
    32. LP (   1) N   9                  0.79876    -0.32510  228(v),232(v),220(v),224(v)
                                                    152(v),102(v),223(g),29(r)
                                                    231(v),222(v),106(v)
    33. RY*(   1) C   1                  0.00090     0.71688   
    34. RY*(   2) C   1                  0.00085     0.70634   
    35. RY*(   3) C   1                  0.00044     1.13369   
    36. RY*(   4) C   1                  0.00007     1.07468   
    37. RY*(   5) C   1                  0.00006     0.33312   
    38. RY*(   6) C   1                  0.00003     0.42004   
    39. RY*(   7) C   1                  0.00000    23.27254   
    40. RY*(   8) C   1                  0.00001     0.45333   
    41. RY*(   9) C   1                  0.00000     3.07282   
    42. RY*(  10) C   1                  0.00001     0.37070   
    43. RY*(  11) C   1                  0.00001     2.28102   
    44. RY*(  12) C   1                  0.00000     2.90211   
    45. RY*(  13) C   1                  0.00000     1.68174   
    46. RY*(  14) C   1                  0.00000     2.10372   
    47. RY*(  15) C   1                  0.00000     2.07830   
    48. RY*(  16) C   1                  0.00000     2.06048   
    49. RY*(  17) C   1                  0.00001     1.60534   
    50. RY*(   1) C   2                  0.00382     0.56111   
    51. RY*(   2) C   2                  0.00102     1.06163   
    52. RY*(   3) C   2                  0.00070     0.75805   
    53. RY*(   4) C   2                  0.00043     1.11626   
    54. RY*(   5) C   2                  0.00039     1.07009   
    55. RY*(   6) C   2                  0.00026     1.66650   
    56. RY*(   7) C   2                  0.00014     0.88437   
    57. RY*(   8) C   2                  0.00011     1.06273   
    58. RY*(   9) C   2                  0.00007     1.88846   
    59. RY*(  10) C   2                  0.00006     1.31280   
    60. RY*(  11) C   2                  0.00004     2.43525   
    61. RY*(  12) C   2                  0.00000     2.78348   
    62. RY*(  13) C   2                  0.00001     1.68493   
    63. RY*(  14) C   2                  0.00001     1.57749   
    64. RY*(  15) C   2                  0.00001     2.41740   
    65. RY*(  16) C   2                  0.00001     2.24351   
    66. RY*(  17) C   2                  0.00000    22.75962   
    67. RY*(   1) C   3                  0.00172     0.97651   
    68. RY*(   2) C   3                  0.00153     1.03763   
    69. RY*(   3) C   3                  0.00120     0.72649   
    70. RY*(   4) C   3                  0.00055     1.32953   
    71. RY*(   5) C   3                  0.00036     1.38274   
    72. RY*(   6) C   3                  0.00025     1.15290   
    73. RY*(   7) C   3                  0.00014     1.49657   
    74. RY*(   8) C   3                  0.00010     1.73951   
    75. RY*(   9) C   3                  0.00009     1.08739   
    76. RY*(  10) C   3                  0.00003     1.05480   
    77. RY*(  11) C   3                  0.00004     2.85294   
    78. RY*(  12) C   3                  0.00002     2.67403   
    79. RY*(  13) C   3                  0.00000    22.15372   
    80. RY*(  14) C   3                  0.00000     1.06402   
    81. RY*(  15) C   3                  0.00000     1.48621   
    82. RY*(  16) C   3                  0.00001     2.70536   
    83. RY*(  17) C   3                  0.00000     1.93103   
    84. RY*(   1) C   4                  0.00133     0.92031   
    85. RY*(   2) C   4                  0.00116     0.79216   
    86. RY*(   3) C   4                  0.00078     0.75349   
    87. RY*(   4) C   4                  0.00047     1.34141   
    88. RY*(   5) C   4                  0.00025     1.70785   
    89. RY*(   6) C   4                  0.00013     0.98616   
    90. RY*(   7) C   4                  0.00011     1.15094   
    91. RY*(   8) C   4                  0.00009     1.73775   
    92. RY*(   9) C   4                  0.00006     1.87332   
    93. RY*(  10) C   4                  0.00005     2.23448   
    94. RY*(  11) C   4                  0.00002     2.99055   
    95. RY*(  12) C   4                  0.00002     1.22250   
    96. RY*(  13) C   4                  0.00001     1.91546   
    97. RY*(  14) C   4                  0.00001     2.84183   
    98. RY*(  15) C   4                  0.00000    21.84868   
    99. RY*(  16) C   4                  0.00001     1.41661   
   100. RY*(  17) C   4                  0.00001     1.34836   
   101. RY*(   1) C   5                  0.00486     1.16230   
   102. RY*(   2) C   5                  0.00325     0.90452   
   103. RY*(   3) C   5                  0.00176     1.26595   
   104. RY*(   4) C   5                  0.00164     0.91079   
   105. RY*(   5) C   5                  0.00116     1.60245   
   106. RY*(   6) C   5                  0.00040     1.30356   
   107. RY*(   7) C   5                  0.00030     1.51283   
   108. RY*(   8) C   5                  0.00022     1.70146   
   109. RY*(   9) C   5                  0.00012     1.56058   
   110. RY*(  10) C   5                  0.00004     6.51250   
   111. RY*(  11) C   5                  0.00001     0.85066   
   112. RY*(  12) C   5                  0.00001     2.54304   
   113. RY*(  13) C   5                  0.00001     1.51261   
   114. RY*(  14) C   5                  0.00001     2.02483   
   115. RY*(  15) C   5                  0.00001    16.44538   
   116. RY*(  16) C   5                  0.00001     3.43005   
   117. RY*(  17) C   5                  0.00001     1.60465   
   118. RY*(   1) N   6                  0.00131     0.78683   
   119. RY*(   2) N   6                  0.00073     0.99753   
   120. RY*(   3) N   6                  0.00063     0.67586   
   121. RY*(   4) N   6                  0.00022     1.09574   
   122. RY*(   5) N   6                  0.00015     1.58108   
   123. RY*(   6) N   6                  0.00011     1.30758   
   124. RY*(   7) N   6                  0.00007     1.70966   
   125. RY*(   8) N   6                  0.00004     2.39588   
   126. RY*(   9) N   6                  0.00001     3.81902   
   127. RY*(  10) N   6                  0.00001     3.47641   
   128. RY*(  11) N   6                  0.00001     0.78007   
   129. RY*(  12) N   6                  0.00000     3.55351   
   130. RY*(  13) N   6                  0.00001     2.28123   
   131. RY*(  14) N   6                  0.00000    35.12298   
   132. RY*(  15) N   6                  0.00000     2.08061   
   133. RY*(  16) N   6                  0.00001     2.51476   
   134. RY*(  17) N   6                  0.00001     2.36497   
   135. RY*(   1) C   7                  0.00524     0.82840   
   136. RY*(   2) C   7                  0.00288     1.33951   
   137. RY*(   3) C   7                  0.00127     1.50642   
   138. RY*(   4) C   7                  0.00074     0.75499   
   139. RY*(   5) C   7                  0.00044     1.82960   
   140. RY*(   6) C   7                  0.00033     1.72844   
   141. RY*(   7) C   7                  0.00019     1.01447   
   142. RY*(   8) C   7                  0.00003     1.37970   
   143. RY*(   9) C   7                  0.00002     1.18607   
   144. RY*(  10) C   7                  0.00001     0.70106   
   145. RY*(  11) C   7                  0.00000     0.49817   
   146. RY*(  12) C   7                  0.00000     2.62834   
   147. RY*(  13) C   7                  0.00000    22.38087   
   148. RY*(  14) C   7                  0.00000     1.62469   
   149. RY*(  15) C   7                  0.00000     2.71960   
   150. RY*(  16) C   7                  0.00000     2.55260   
   151. RY*(  17) C   7                  0.00001     1.38914   
   152. RY*(   1) N   8                  0.00145     0.92908   
   153. RY*(   2) N   8                  0.00121     0.90198   
   154. RY*(   3) N   8                  0.00078     0.97794   
   155. RY*(   4) N   8                  0.00030     1.34461   
   156. RY*(   5) N   8                  0.00017     1.44455   
   157. RY*(   6) N   8                  0.00014     1.55974   
   158. RY*(   7) N   8                  0.00007     1.66812   
   159. RY*(   8) N   8                  0.00004     1.20559   
   160. RY*(   9) N   8                  0.00002     0.71215   
   161. RY*(  10) N   8                  0.00001     2.28440   
   162. RY*(  11) N   8                  0.00000     3.79811   
   163. RY*(  12) N   8                  0.00000     3.78465   
   164. RY*(  13) N   8                  0.00001     2.05550   
   165. RY*(  14) N   8                  0.00000    35.10949   
   166. RY*(  15) N   8                  0.00001     2.30818   
   167. RY*(  16) N   8                  0.00001     2.30409   
   168. RY*(  17) N   8                  0.00001     3.56219   
   169. RY*(   1) N   9                  0.00317     0.85668   
   170. RY*(   2) N   9                  0.00214     0.78534   
   171. RY*(   3) N   9                  0.00179     0.88831   
   172. RY*(   4) N   9                  0.00124     1.58816   
   173. RY*(   5) N   9                  0.00080     1.07684   
   174. RY*(   6) N   9                  0.00058     1.94002   
   175. RY*(   7) N   9                  0.00021     1.21927   
   176. RY*(   8) N   9                  0.00019     1.94315   
   177. RY*(   9) N   9                  0.00006     1.04447   
   178. RY*(  10) N   9                  0.00003     1.90533   
   179. RY*(  11) N   9                  0.00002     2.79607   
   180. RY*(  12) N   9                  0.00000     3.91001   
   181. RY*(  13) N   9                  0.00000    34.99905   
   182. RY*(  14) N   9                  0.00000     2.61293   
   183. RY*(  15) N   9                  0.00000     3.48368   
   184. RY*(  16) N   9                  0.00000     4.11724   
   185. RY*(  17) N   9                  0.00001     1.24981   
   186. RY*(   1) H  10                  0.00020     0.89846   
   187. RY*(   2) H  10                  0.00013     1.74137   
   188. RY*(   3) H  10                  0.00006     1.74630   
   189. RY*(   4) H  10                  0.00004     1.98507   
   190. RY*(   5) H  10                  0.00000     2.38045   
   191. RY*(   1) H  11                  0.00034     0.95418   
   192. RY*(   2) H  11                  0.00011     1.77338   
   193. RY*(   3) H  11                  0.00005     1.79029   
   194. RY*(   4) H  11                  0.00004     1.76718   
   195. RY*(   5) H  11                  0.00001     2.53959   
   196. RY*(   1) H  12                  0.00033     0.98312   
   197. RY*(   2) H  12                  0.00011     1.76840   
   198. RY*(   3) H  12                  0.00005     1.78770   
   199. RY*(   4) H  12                  0.00004     1.76577   
   200. RY*(   5) H  12                  0.00001     2.52401   
   201. RY*(   1) H  13                  0.00039     0.68757   
   202. RY*(   2) H  13                  0.00016     1.92559   
   203. RY*(   3) H  13                  0.00008     1.86359   
   204. RY*(   4) H  13                  0.00006     2.60072   
   205. RY*(   5) H  13                  0.00002     1.83305   
   206. RY*(   1) H  14                  0.00041     0.64830   
   207. RY*(   2) H  14                  0.00018     2.11854   
   208. RY*(   3) H  14                  0.00006     1.82342   
   209. RY*(   4) H  14                  0.00003     2.24908   
   210. RY*(   5) H  14                  0.00003     2.11680   
   211. RY*(   1) H  15                  0.00020     0.79695   
   212. RY*(   2) H  15                  0.00010     2.42507   
   213. RY*(   3) H  15                  0.00006     2.14893   
   214. RY*(   4) H  15                  0.00007     1.60747   
   215. RY*(   5) H  15                  0.00002     1.87927   
   216. BD*(   1) C   1 - C   2          0.00836     0.43046   
   217. BD*(   1) C   1 - H  10          0.00090     0.36007   
   218. BD*(   1) C   1 - H  11          0.00305     0.37174   
   219. BD*(   1) C   1 - H  12          0.00299     0.37214   
   220. BD*(   1) C   2 - C   3          0.01369     0.35906   
   221. BD*(   1) C   2 - C   4          0.01204     0.34367   
   222. BD*(   1) C   3 - C   4          0.01032     0.20705   
   223. BD*(   1) C   3 - N   9          0.02051     0.27344   
   224. BD*(   1) C   3 - H  13          0.01325     0.37042   
   225. BD*(   1) C   4 - C   5          0.01676     0.34907   
   226. BD*(   1) C   4 - H  14          0.01184     0.37497   
   227. BD*(   1) C   5 - N   6          0.01216     0.54549   
   228. BD*(   2) C   5 - N   6          0.18571    -0.00332  232(v),225(g),221(v),120(g)
                                                    226(v),29(r),103(g),223(v)
   229. BD*(   1) C   5 - N   9          0.02406     0.45398   
   230. BD*(   1) N   6 - C   7          0.01263     0.45270   
   231. BD*(   1) C   7 - N   8          0.01188     0.52321   
   232. BD*(   2) C   7 - N   8          0.15503    -0.00599  228(v),138(g),223(v)
   233. BD*(   1) C   7 - H  15          0.00995     0.40694   
   234. BD*(   1) N   8 - N   9          0.01994     0.35530   
       -------------------------------
              Total Lewis   30.24776  ( 97.5734%)
        Valence non-Lewis    0.68605  (  2.2131%)
        Rydberg non-Lewis    0.06619  (  0.2135%)
       -------------------------------
            Total unit  1   31.00000  (100.0000%)
           Charge unit  1    0.50000
 Leave Link  607 at Sat Oct 29 16:05:46 2022, MaxMem=  8053063680 cpu:              68.6 elap:               2.2
 (Enter /public3/home/scg5914/software-scg5914/g16/l9999.exe)
 Unable to Open any file for archive entry.
 1\1\GINC-E0605\SP\UB3LYP\Gen\C6H6N3(2)\SCG5914\29-Oct-2022\0\\#p b3lyp
 /chkbas pop=nbo geom=allcheck guess=tcheck em=gd3bj\\dsgdb9nsd_125851-
 4\\0,2\C,0,-0.2334355178,1.3178159949,0.0204062007\C,0,0.2934019433,-0
 .0582702093,0.1592553857\C,0,1.5988138548,-0.6080204783,-0.2262639131\
 C,0,1.069939828,-0.6704884217,1.2686224959\C,0,1.0454195276,-2.1668304
 428,1.0412817653\N,0,0.3539009468,-3.2720944936,1.1979694928\C,0,0.512
 9193391,-3.847945008,-0.0498035365\N,0,1.1699520173,-3.1346127573,-0.9
 583665905\N,0,1.5977549947,-2.0887996922,-0.1899388369\H,0,0.513749846
 6,2.0716773913,0.3143803413\H,0,-0.5164082733,1.5201055812,-1.01529506
 66\H,0,-1.1100633576,1.4608768465,0.6565280161\H,0,2.4414883666,-0.068
 1568411,-0.6381569429\H,0,1.4430313704,-0.1357342811,2.1324305191\H,0,
 0.1348405766,-4.8335092415,-0.2784877905\\Version=ES64L-G16RevC.01\Sta
 te=2-A\HF=-396.4369656\S2=0.753452\S2-1=0.\S2A=0.750008\RMSD=7.618e-09
 \Dipole=0.207435,1.6904854,0.1202225\Quadrupole=-0.4152484,4.0151669,-
 3.5999185,0.7734335,1.8092363,0.9829784\PG=C01 [X(C6H6N3)]\\@
 The archive entry for this job was punched.


 HEAVEN'S NET CASTS WIDE.
 THOUGH ITS MESHES ARE COARSE, NOTHING SLIPS THROUGH.

                                          -- LAO-TSU
 Job cpu time:       0 days  0 hours  2 minutes  2.4 seconds.
 Elapsed time:       0 days  0 hours  0 minutes  3.9 seconds.
 File lengths (MBytes):  RWF=     56 Int=      0 D2E=      0 Chk=      7 Scr=      1
 Normal termination of Gaussian 16 at Sat Oct 29 16:05:46 2022.
