 Entering Gaussian System, Link 0=g16
 Initial command:
 /public/software/apps/Gaussian/g16/l1.exe "/public/home/ZTC_HG/tmp/Gau-85913.inp" -scrdir="/public/home/ZTC_HG/tmp/"
 Entering Link 1 = /public/software/apps/Gaussian/g16/l1.exe PID=     85914.
  
 Copyright (c) 1988-2019, Gaussian, Inc.  All Rights Reserved.
  
 This is part of the Gaussian(R) 16 program.  It is based on
 the Gaussian(R) 09 system (copyright 2009, Gaussian, Inc.),
 the Gaussian(R) 03 system (copyright 2003, Gaussian, Inc.),
 the Gaussian(R) 98 system (copyright 1998, Gaussian, Inc.),
 the Gaussian(R) 94 system (copyright 1995, Gaussian, Inc.),
 the Gaussian 92(TM) system (copyright 1992, Gaussian, Inc.),
 the Gaussian 90(TM) system (copyright 1990, Gaussian, Inc.),
 the Gaussian 88(TM) system (copyright 1988, Gaussian, Inc.),
 the Gaussian 86(TM) system (copyright 1986, Carnegie Mellon
 University), and the Gaussian 82(TM) system (copyright 1983,
 Carnegie Mellon University). Gaussian is a federally registered
 trademark of Gaussian, Inc.
  
 This software contains proprietary and confidential information,
 including trade secrets, belonging to Gaussian, Inc.
  
 This software is provided under written license and may be
 used, copied, transmitted, or stored only in accord with that
 written license.
  
 The following legend is applicable only to US Government
 contracts under FAR:
  
                    RESTRICTED RIGHTS LEGEND
  
 Use, reproduction and disclosure by the US Government is
 subject to restrictions as set forth in subparagraphs (a)
 and (c) of the Commercial Computer Software - Restricted
 Rights clause in FAR 52.227-19.
  
 Gaussian, Inc.
 340 Quinnipiac St., Bldg. 40, Wallingford CT 06492
  
  
 ---------------------------------------------------------------
 Warning -- This program may not be used in any manner that
 competes with the business of Gaussian, Inc. or will provide
 assistance to any competitor of Gaussian, Inc.  The licensee
 of this program is prohibited from giving any competitor of
 Gaussian, Inc. access to this program.  By using this program,
 the user acknowledges that Gaussian, Inc. is engaged in the
 business of creating and licensing software in the field of
 computational chemistry and represents and warrants to the
 licensee that it is not a competitor of Gaussian, Inc. and that
 it will not use this program in any manner prohibited above.
 ---------------------------------------------------------------
  

 Cite this work as:
 Gaussian 16, Revision C.01,
 M. J. Frisch, G. W. Trucks, H. B. Schlegel, G. E. Scuseria, 
 M. A. Robb, J. R. Cheeseman, G. Scalmani, V. Barone, 
 G. A. Petersson, H. Nakatsuji, X. Li, M. Caricato, A. V. Marenich, 
 J. Bloino, B. G. Janesko, R. Gomperts, B. Mennucci, H. P. Hratchian, 
 J. V. Ortiz, A. F. Izmaylov, J. L. Sonnenberg, D. Williams-Young, 
 F. Ding, F. Lipparini, F. Egidi, J. Goings, B. Peng, A. Petrone, 
 T. Henderson, D. Ranasinghe, V. G. Zakrzewski, J. Gao, N. Rega, 
 G. Zheng, W. Liang, M. Hada, M. Ehara, K. Toyota, R. Fukuda, 
 J. Hasegawa, M. Ishida, T. Nakajima, Y. Honda, O. Kitao, H. Nakai, 
 T. Vreven, K. Throssell, J. A. Montgomery, Jr., J. E. Peralta, 
 F. Ogliaro, M. J. Bearpark, J. J. Heyd, E. N. Brothers, K. N. Kudin, 
 V. N. Staroverov, T. A. Keith, R. Kobayashi, J. Normand, 
 K. Raghavachari, A. P. Rendell, J. C. Burant, S. S. Iyengar, 
 J. Tomasi, M. Cossi, J. M. Millam, M. Klene, C. Adamo, R. Cammi, 
 J. W. Ochterski, R. L. Martin, K. Morokuma, O. Farkas, 
 J. B. Foresman, and D. J. Fox, Gaussian, Inc., Wallingford CT, 2019.
 
 ******************************************
 Gaussian 16:  ES64L-G16RevC.01  3-Jul-2019
                18-Jun-2023 
 ******************************************
 %chk=dsgdb9nsd_042726-4.chk
 %mem=120GB
 %nprocshared=32
 Will use up to   32 processors via shared memory.
 ------------------------------------
 #p opt freq b3lyp/6-311+g** em=gd3bj
 ------------------------------------
 1/18=20,19=15,26=3,38=1/1,3;
 2/9=110,12=2,17=6,18=5,40=1/2;
 3/5=4,6=6,7=111,11=2,25=1,30=1,71=1,74=-5,124=41/1,2,3;
 4//1;
 5/5=2,38=5/2;
 6/7=2,8=2,9=2,10=2,28=1/1;
 7//1,2,3,16;
 1/18=20,19=15,26=3/3(2);
 2/9=110/2;
 99//99;
 2/9=110/2;
 3/5=4,6=6,7=111,11=2,25=1,30=1,71=1,74=-5,124=41/1,2,3;
 4/5=5,16=3,69=1/1;
 5/5=2,38=5/2;
 7//1,2,3,16;
 1/18=20,19=15,26=3/3(-5);
 2/9=110/2;
 6/7=2,8=2,9=2,10=2,19=2,28=1/1;
 99/9=1/99;
 Leave Link    1 at Sun Jun 18 21:45:07 2023, MaxMem= 16106127360 cpu:               2.2 elap:               0.1
 (Enter /public/software/apps/Gaussian/g16/l101.exe)
 ------------------
 dsgdb9nsd_042726-4
 ------------------
 Symbolic Z-matrix:
 Charge =  1 Multiplicity = 1
 O                    -0.04687   0.00396  -0.01944 
 C                    -0.02476   1.19739   0.04456 
 C                    -1.11493   2.29867  -0.00638 
 C                    -1.27402   2.7177    1.43421 
 C                    -0.16344   3.18903   2.00859 
 C                     0.97264   3.39457   1.03916 
 O                     0.45265   4.33394   0.02866 
 C                     0.02431   3.2055   -0.711 
 C                     1.06471   2.24882  -0.05378 
 H                    -2.04064   2.08884  -0.53944 
 H                    -2.22311   2.59339   1.94196 
 H                    -0.09464   3.52354   3.03619 
 H                    -0.10408   3.38912  -1.77716 
 H                     2.057     2.02179  -0.43856 
 
 ITRead=  0  0  0  0  0  0  0  0  0  0  0  0  0  0
 MicOpt= -1 -1 -1 -1 -1 -1 -1 -1 -1 -1 -1 -1 -1 -1
 NAtoms=     14 NQM=       14 NQMF=       0 NMMI=      0 NMMIF=      0
                NMic=       0 NMicF=      0.
                    Isotopes and Nuclear Properties:
 (Nuclear quadrupole moments (NQMom) in fm**2, nuclear magnetic moments (NMagM)
  in nuclear magnetons)

  Atom         1           2           3           4           5           6           7           8           9          10
 IAtWgt=          16          12          12          12          12          12          16          12          12           1
 AtmWgt=  15.9949146  12.0000000  12.0000000  12.0000000  12.0000000  12.0000000  15.9949146  12.0000000  12.0000000   1.0078250
 NucSpn=           0           0           0           0           0           0           0           0           0           1
 AtZEff=  -0.0000000  -0.0000000  -0.0000000  -0.0000000  -0.0000000  -0.0000000  -0.0000000  -0.0000000  -0.0000000  -0.0000000
 NQMom=    0.0000000   0.0000000   0.0000000   0.0000000   0.0000000   0.0000000   0.0000000   0.0000000   0.0000000   0.0000000
 NMagM=    0.0000000   0.0000000   0.0000000   0.0000000   0.0000000   0.0000000   0.0000000   0.0000000   0.0000000   2.7928460
 AtZNuc=   8.0000000   6.0000000   6.0000000   6.0000000   6.0000000   6.0000000   8.0000000   6.0000000   6.0000000   1.0000000

  Atom        11          12          13          14
 IAtWgt=           1           1           1           1
 AtmWgt=   1.0078250   1.0078250   1.0078250   1.0078250
 NucSpn=           1           1           1           1
 AtZEff=  -0.0000000  -0.0000000  -0.0000000  -0.0000000
 NQMom=    0.0000000   0.0000000   0.0000000   0.0000000
 NMagM=    2.7928460   2.7928460   2.7928460   2.7928460
 AtZNuc=   1.0000000   1.0000000   1.0000000   1.0000000
 Leave Link  101 at Sun Jun 18 21:45:07 2023, MaxMem= 16106127360 cpu:               3.4 elap:               0.1
 (Enter /public/software/apps/Gaussian/g16/l103.exe)

 GradGradGradGradGradGradGradGradGradGradGradGradGradGradGradGradGradGrad
 Berny optimization.
 Initialization pass.
                           ----------------------------
                           !    Initial Parameters    !
                           ! (Angstroms and Degrees)  !
 --------------------------                            --------------------------
 ! Name  Definition              Value          Derivative Info.                !
 --------------------------------------------------------------------------------
 ! R1    R(1,2)                  1.1953         estimate D2E/DX2                !
 ! R2    R(2,3)                  1.5504         estimate D2E/DX2                !
 ! R3    R(2,9)                  1.5173         estimate D2E/DX2                !
 ! R4    R(3,4)                  1.5087         estimate D2E/DX2                !
 ! R5    R(3,8)                  1.6176         estimate D2E/DX2                !
 ! R6    R(3,10)                 1.0886         estimate D2E/DX2                !
 ! R7    R(4,5)                  1.3362         estimate D2E/DX2                !
 ! R8    R(4,11)                 1.0835         estimate D2E/DX2                !
 ! R9    R(5,6)                  1.5075         estimate D2E/DX2                !
 ! R10   R(5,12)                 1.0829         estimate D2E/DX2                !
 ! R11   R(6,7)                  1.4744         estimate D2E/DX2                !
 ! R12   R(6,9)                  1.5861         estimate D2E/DX2                !
 ! R13   R(7,8)                  1.4156         estimate D2E/DX2                !
 ! R14   R(8,9)                  1.5587         estimate D2E/DX2                !
 ! R15   R(8,13)                 1.0894         estimate D2E/DX2                !
 ! R16   R(9,14)                 1.0882         estimate D2E/DX2                !
 ! A1    A(1,2,3)              133.9791         estimate D2E/DX2                !
 ! A2    A(1,2,9)              134.5612         estimate D2E/DX2                !
 ! A3    A(3,2,9)               90.6034         estimate D2E/DX2                !
 ! A4    A(2,3,4)              103.8896         estimate D2E/DX2                !
 ! A5    A(2,3,8)               85.2565         estimate D2E/DX2                !
 ! A6    A(2,3,10)             118.495          estimate D2E/DX2                !
 ! A7    A(4,3,8)              109.5416         estimate D2E/DX2                !
 ! A8    A(4,3,10)             115.5577         estimate D2E/DX2                !
 ! A9    A(8,3,10)             119.5794         estimate D2E/DX2                !
 ! A10   A(3,4,5)              114.8835         estimate D2E/DX2                !
 ! A11   A(3,4,11)             120.5275         estimate D2E/DX2                !
 ! A12   A(5,4,11)             124.545          estimate D2E/DX2                !
 ! A13   A(4,5,6)              113.4542         estimate D2E/DX2                !
 ! A14   A(4,5,12)             124.7285         estimate D2E/DX2                !
 ! A15   A(6,5,12)             121.3483         estimate D2E/DX2                !
 ! A16   A(5,6,7)              105.1775         estimate D2E/DX2                !
 ! A17   A(5,6,9)              112.8527         estimate D2E/DX2                !
 ! A18   A(7,6,9)               90.4836         estimate D2E/DX2                !
 ! A19   A(6,7,8)               87.5326         estimate D2E/DX2                !
 ! A20   A(3,8,7)              115.6181         estimate D2E/DX2                !
 ! A21   A(3,8,9)               86.6945         estimate D2E/DX2                !
 ! A22   A(3,8,13)             115.9613         estimate D2E/DX2                !
 ! A23   A(7,8,9)               93.8407         estimate D2E/DX2                !
 ! A24   A(7,8,13)             114.3711         estimate D2E/DX2                !
 ! A25   A(9,8,13)             126.4939         estimate D2E/DX2                !
 ! A26   A(2,9,6)              114.4714         estimate D2E/DX2                !
 ! A27   A(2,9,8)               88.4745         estimate D2E/DX2                !
 ! A28   A(2,9,14)             122.2146         estimate D2E/DX2                !
 ! A29   A(6,9,8)               78.9558         estimate D2E/DX2                !
 ! A30   A(6,9,14)             116.5688         estimate D2E/DX2                !
 ! A31   A(8,9,14)             125.9858         estimate D2E/DX2                !
 ! D1    D(1,2,3,4)            103.2218         estimate D2E/DX2                !
 ! D2    D(1,2,3,8)           -147.7986         estimate D2E/DX2                !
 ! D3    D(1,2,3,10)           -26.5631         estimate D2E/DX2                !
 ! D4    D(9,2,3,4)            -86.6106         estimate D2E/DX2                !
 ! D5    D(9,2,3,8)             22.369          estimate D2E/DX2                !
 ! D6    D(9,2,3,10)           143.6045         estimate D2E/DX2                !
 ! D7    D(1,2,9,6)           -135.9844         estimate D2E/DX2                !
 ! D8    D(1,2,9,8)            146.8814         estimate D2E/DX2                !
 ! D9    D(1,2,9,14)            14.1966         estimate D2E/DX2                !
 ! D10   D(3,2,9,6)             53.9468         estimate D2E/DX2                !
 ! D11   D(3,2,9,8)            -23.1874         estimate D2E/DX2                !
 ! D12   D(3,2,9,14)          -155.8722         estimate D2E/DX2                !
 ! D13   D(2,3,4,5)             59.3471         estimate D2E/DX2                !
 ! D14   D(2,3,4,11)          -118.3499         estimate D2E/DX2                !
 ! D15   D(8,3,4,5)            -30.5026         estimate D2E/DX2                !
 ! D16   D(8,3,4,11)           151.8004         estimate D2E/DX2                !
 ! D17   D(10,3,4,5)          -169.1231         estimate D2E/DX2                !
 ! D18   D(10,3,4,11)           13.1799         estimate D2E/DX2                !
 ! D19   D(2,3,8,7)           -114.4577         estimate D2E/DX2                !
 ! D20   D(2,3,8,9)            -21.7802         estimate D2E/DX2                !
 ! D21   D(2,3,8,13)           107.6004         estimate D2E/DX2                !
 ! D22   D(4,3,8,7)            -11.3874         estimate D2E/DX2                !
 ! D23   D(4,3,8,9)             81.2901         estimate D2E/DX2                !
 ! D24   D(4,3,8,13)          -149.3292         estimate D2E/DX2                !
 ! D25   D(10,3,8,7)           125.3195         estimate D2E/DX2                !
 ! D26   D(10,3,8,9)          -142.003          estimate D2E/DX2                !
 ! D27   D(10,3,8,13)          -12.6224         estimate D2E/DX2                !
 ! D28   D(3,4,5,6)              8.4917         estimate D2E/DX2                !
 ! D29   D(3,4,5,12)          -179.307          estimate D2E/DX2                !
 ! D30   D(11,4,5,6)          -173.9168         estimate D2E/DX2                !
 ! D31   D(11,4,5,12)           -1.7155         estimate D2E/DX2                !
 ! D32   D(4,5,6,7)             58.1512         estimate D2E/DX2                !
 ! D33   D(4,5,6,9)            -38.9611         estimate D2E/DX2                !
 ! D34   D(12,5,6,7)          -114.3454         estimate D2E/DX2                !
 ! D35   D(12,5,6,9)           148.5422         estimate D2E/DX2                !
 ! D36   D(5,6,7,8)            -90.6278         estimate D2E/DX2                !
 ! D37   D(9,6,7,8)             23.2447         estimate D2E/DX2                !
 ! D38   D(5,6,9,2)              2.1339         estimate D2E/DX2                !
 ! D39   D(5,6,9,8)             85.3207         estimate D2E/DX2                !
 ! D40   D(5,6,9,14)          -149.8068         estimate D2E/DX2                !
 ! D41   D(7,6,9,2)           -104.5851         estimate D2E/DX2                !
 ! D42   D(7,6,9,8)            -21.3983         estimate D2E/DX2                !
 ! D43   D(7,6,9,14)           103.4742         estimate D2E/DX2                !
 ! D44   D(6,7,8,3)             64.4384         estimate D2E/DX2                !
 ! D45   D(6,7,8,9)            -23.7336         estimate D2E/DX2                !
 ! D46   D(6,7,8,13)          -156.9535         estimate D2E/DX2                !
 ! D47   D(3,8,9,2)             22.2096         estimate D2E/DX2                !
 ! D48   D(3,8,9,6)            -93.0933         estimate D2E/DX2                !
 ! D49   D(3,8,9,14)           151.9801         estimate D2E/DX2                !
 ! D50   D(7,8,9,2)            137.6891         estimate D2E/DX2                !
 ! D51   D(7,8,9,6)             22.3863         estimate D2E/DX2                !
 ! D52   D(7,8,9,14)           -92.5403         estimate D2E/DX2                !
 ! D53   D(13,8,9,2)           -97.9703         estimate D2E/DX2                !
 ! D54   D(13,8,9,6)           146.7268         estimate D2E/DX2                !
 ! D55   D(13,8,9,14)           31.8002         estimate D2E/DX2                !
 --------------------------------------------------------------------------------
 Trust Radius=3.00D-01 FncErr=1.00D-07 GrdErr=1.00D-06 EigMax=2.50D+02 EigMin=1.00D-04
 Number of steps in this run=    100 maximum allowed number of steps=    100.
 GradGradGradGradGradGradGradGradGradGradGradGradGradGradGradGradGradGrad

 Leave Link  103 at Sun Jun 18 21:45:07 2023, MaxMem= 16106127360 cpu:               0.7 elap:               0.0
 (Enter /public/software/apps/Gaussian/g16/l202.exe)
                          Input orientation:                          
 ---------------------------------------------------------------------
 Center     Atomic      Atomic             Coordinates (Angstroms)
 Number     Number       Type             X           Y           Z
 ---------------------------------------------------------------------
      1          8           0       -0.046866    0.003960   -0.019438
      2          6           0       -0.024759    1.197391    0.044560
      3          6           0       -1.114928    2.298671   -0.006377
      4          6           0       -1.274018    2.717698    1.434214
      5          6           0       -0.163438    3.189035    2.008589
      6          6           0        0.972635    3.394573    1.039161
      7          8           0        0.452647    4.333936    0.028659
      8          6           0        0.024313    3.205500   -0.711002
      9          6           0        1.064706    2.248818   -0.053780
     10          1           0       -2.040643    2.088840   -0.539440
     11          1           0       -2.223108    2.593390    1.941964
     12          1           0       -0.094640    3.523536    3.036188
     13          1           0       -0.104082    3.389117   -1.777160
     14          1           0        2.057003    2.021791   -0.438556
 ---------------------------------------------------------------------
                    Distance matrix (angstroms):
                    1          2          3          4          5
     1  O    0.000000
     2  C    1.195350   0.000000
     3  C    2.531131   1.550445   0.000000
     4  C    3.314118   2.408967   1.508707   0.000000
     5  C    3.777721   2.800586   2.399618   1.336208   0.000000
     6  C    3.695439   2.609911   2.579161   2.379428   1.507547
     7  O    4.358958   3.172710   2.569207   2.751215   2.368646
     8  C    3.276154   2.146109   1.617623   2.554519   2.726113
     9  C    2.505226   1.517268   2.180719   2.811335   2.577927
    10  H    2.931257   2.280247   1.088638   2.208730   3.350638
    11  H    3.910022   3.222063   2.260742   1.083528   2.145104
    12  H    4.661175   3.790208   3.434893   2.146306   1.082860
    13  H    3.814728   2.851074   2.312262   3.483171   3.791497
    14  H    2.945091   2.290583   3.213189   3.884232   3.504473
                    6          7          8          9         10
     6  C    0.000000
     7  O    1.474417   0.000000
     8  C    1.999533   1.415604   0.000000
     9  C    1.586112   2.174656   1.558717   0.000000
    10  H    3.643729   3.402894   2.353807   3.147165   0.000000
    11  H    3.416097   3.721546   3.530412   3.861533   2.538746
    12  H    2.268000   3.162516   3.762543   3.537922   4.316295
    13  H    3.015131   2.112726   1.089447   2.374108   2.640632
    14  H    2.289985   2.852764   2.367957   1.088231   4.099435
                   11         12         13         14
    11  H    0.000000
    12  H    2.567659   0.000000
    13  H    4.353773   4.815235   0.000000
    14  H    4.930816   4.354154   2.886474   0.000000
 Stoichiometry    C7H5O2(1+)
 Framework group  C1[X(C7H5O2)]
 Deg. of freedom    36
 Full point group                 C1      NOp   1
 Largest Abelian subgroup         C1      NOp   1
 Largest concise Abelian subgroup C1      NOp   1
                         Standard orientation:                         
 ---------------------------------------------------------------------
 Center     Atomic      Atomic             Coordinates (Angstroms)
 Number     Number       Type             X           Y           Z
 ---------------------------------------------------------------------
      1          8           0        2.508819    0.009812   -0.365055
      2          6           0        1.343890   -0.106787   -0.123795
      3          6           0        0.422107    0.411445    1.010063
      4          6           0       -0.329705    1.553401    0.372167
      5          6           0       -1.053963    1.220366   -0.700210
      6          6           0       -1.132190   -0.267027   -0.933106
      7          8           0       -1.718057   -0.820764    0.301415
      8          6           0       -0.397487   -0.965754    0.790299
      9          6           0        0.236448   -1.010336   -0.632985
     10          1           0        0.863860    0.624663    1.981930
     11          1           0       -0.232839    2.560682    0.759509
     12          1           0       -1.644975    1.914017   -1.285135
     13          1           0       -0.287505   -1.716184    1.572381
     14          1           0        0.440765   -1.907410   -1.214156
 ---------------------------------------------------------------------
 Rotational constants (GHZ):           3.2050389           1.9094923           1.6327988
 Leave Link  202 at Sun Jun 18 21:45:07 2023, MaxMem= 16106127360 cpu:               0.5 elap:               0.0
 (Enter /public/software/apps/Gaussian/g16/l301.exe)
 Standard basis: 6-311+G(d,p) (5D, 7F)
 Ernie: Thresh=  0.10000D-02 Tol=  0.10000D-05 Strict=F.
 There are   237 symmetry adapted cartesian basis functions of A   symmetry.
 There are   228 symmetry adapted basis functions of A   symmetry.
   228 basis functions,   364 primitive gaussians,   237 cartesian basis functions
    31 alpha electrons       31 beta electrons
       nuclear repulsion energy       427.0461125332 Hartrees.
 IExCor=  402 DFT=T Ex+Corr=B3LYP ExCW=0 ScaHFX=  0.200000
 ScaDFX=  0.800000  0.720000  1.000000  0.810000 ScalE2=  1.000000  1.000000
 IRadAn=      5 IRanWt=     -1 IRanGd=            0 ICorTp=0 IEmpDi=141
 NAtoms=   14 NActive=   14 NUniq=   14 SFac= 1.00D+00 NAtFMM=   60 NAOKFM=F Big=F
 Integral buffers will be    131072 words long.
 Raffenetti 2 integral format.
 Two-electron integral symmetry is turned on.
 R6Disp:  Grimme-D3(BJ) Dispersion energy=       -0.0258763683 Hartrees.
 Nuclear repulsion after empirical dispersion term =      427.0202361650 Hartrees.
 Leave Link  301 at Sun Jun 18 21:45:07 2023, MaxMem= 16106127360 cpu:               0.6 elap:               0.0
 (Enter /public/software/apps/Gaussian/g16/l302.exe)
 NPDir=0 NMtPBC=     1 NCelOv=     1 NCel=       1 NClECP=     1 NCelD=      1
         NCelK=      1 NCelE2=     1 NClLst=     1 CellRange=     0.0.
 One-electron integrals computed using PRISM.
 One-electron integral symmetry used in STVInt
 NBasis=   228 RedAO= T EigKep=  8.22D-06  NBF=   228
 NBsUse=   228 1.00D-06 EigRej= -1.00D+00 NBFU=   228
 Precomputing XC quadrature grid using
 IXCGrd= 4 IRadAn=           5 IRanWt=          -1 IRanGd=           0 AccXCQ= 0.00D+00.
 Generated NRdTot=       0 NPtTot=           0 NUsed=           0 NTot=          32
 NSgBfM=   237   237   237   237   237 MxSgAt=    14 MxSgA2=    14.
 Leave Link  302 at Sun Jun 18 21:45:07 2023, MaxMem= 16106127360 cpu:               4.1 elap:               0.1
 (Enter /public/software/apps/Gaussian/g16/l303.exe)
 DipDrv:  MaxL=1.
 Leave Link  303 at Sun Jun 18 21:45:07 2023, MaxMem= 16106127360 cpu:               0.7 elap:               0.0
 (Enter /public/software/apps/Gaussian/g16/l401.exe)
 ExpMin= 4.38D-02 ExpMax= 8.59D+03 ExpMxC= 1.30D+03 IAcc=3 IRadAn=         5 AccDes= 0.00D+00
 Harris functional with IExCor=  402 and IRadAn=       5 diagonalized for initial guess.
 HarFok:  IExCor=  402 AccDes= 0.00D+00 IRadAn=         5 IDoV= 1 UseB2=F ITyADJ=14
 ICtDFT=  3500011 ScaDFX=  1.000000  1.000000  1.000000  1.000000
 FoFCou: FMM=F IPFlag=           0 FMFlag=      100000 FMFlg1=           0
         NFxFlg=           0 DoJE=T BraDBF=F KetDBF=T FulRan=T
         wScrn=  0.000000 ICntrl=       500 IOpCl=  0 I1Cent=   200000004 NGrid=           0
         NMat0=    1 NMatS0=      1 NMatT0=    0 NMatD0=    1 NMtDS0=    0 NMtDT0=    0
 Petite list used in FoFCou.
 Harris En= -419.878973254321    
 JPrj=0 DoOrth=F DoCkMO=F.
 Leave Link  401 at Sun Jun 18 21:45:08 2023, MaxMem= 16106127360 cpu:               8.8 elap:               0.3
 (Enter /public/software/apps/Gaussian/g16/l502.exe)
 Integral symmetry usage will be decided dynamically.
 Closed shell SCF:
 Using DIIS extrapolation, IDIIS=  1040.
 NGot= 16106127360 LenX= 16106004792 LenY= 16105948182
 Requested convergence on RMS density matrix=1.00D-08 within 128 cycles.
 Requested convergence on MAX density matrix=1.00D-06.
 Requested convergence on             energy=1.00D-06.
 No special actions if energy rises.
 Fock matrices will be formed incrementally for  20 cycles.

 Cycle   1  Pass 1  IDiag  1:
 FoFJK:  IHMeth= 1 ICntrl=       0 DoSepK=F KAlg= 0 I1Cent=           0 FoldK=F
 IRaf= 990000000 NMat=       1 IRICut=       1 DoRegI=T DoRafI=F ISym2E= 0 IDoP0=0 IntGTp=1.
 FoFCou: FMM=F IPFlag=           0 FMFlag=      100000 FMFlg1=           0
         NFxFlg=           0 DoJE=F BraDBF=F KetDBF=F FulRan=T
         wScrn=  0.000000 ICntrl=         0 IOpCl=  0 I1Cent=           0 NGrid=           0
         NMat0=    1 NMatS0=      1 NMatT0=    0 NMatD0=    1 NMtDS0=    0 NMtDT0=    0
 Symmetry not used in FoFCou.
 E= -419.586558369524    
 DIIS: error= 2.01D-02 at cycle   1 NSaved=   1.
 NSaved= 1 IEnMin= 1 EnMin= -419.586558369524     IErMin= 1 ErrMin= 2.01D-02
 ErrMax= 2.01D-02  0.00D+00 EMaxC= 1.00D-01 BMatC= 2.65D-01 BMatP= 2.65D-01
 IDIUse=3 WtCom= 7.99D-01 WtEn= 2.01D-01
 Coeff-Com:  0.100D+01
 Coeff-En:   0.100D+01
 Coeff:      0.100D+01
 Gap=    -0.156 Goal=   None    Shift=    0.000
 GapD=   -0.156 DampG=0.250 DampE=0.500 DampFc=0.2500 IDamp=-1.
 Damping current iteration by 2.50D-01
 RMSDP=1.38D-02 MaxDP=1.18D+00              OVMax= 5.28D-01

 Cycle   2  Pass 1  IDiag  1:
 RMSU=  3.44D-03    CP:  1.01D+00
 E= -419.620634263185     Delta-E=       -0.034075893661 Rises=F Damp=T
 DIIS: error= 8.57D-03 at cycle   2 NSaved=   2.
 NSaved= 2 IEnMin= 2 EnMin= -419.620634263185     IErMin= 2 ErrMin= 8.57D-03
 ErrMax= 8.57D-03  0.00D+00 EMaxC= 1.00D-01 BMatC= 5.38D-02 BMatP= 2.65D-01
 IDIUse=3 WtCom= 9.14D-01 WtEn= 8.57D-02
 Coeff-Com:  0.428D-01 0.957D+00
 Coeff-En:   0.420D+00 0.580D+00
 Coeff:      0.751D-01 0.925D+00
 Gap=    -0.092 Goal=   None    Shift=    0.000
 RMSDP=4.86D-03 MaxDP=1.25D-01 DE=-3.41D-02 OVMax= 6.00D-01

 Cycle   3  Pass 1  IDiag  1:
 RMSU=  4.86D-03    CP:  1.01D+00  1.02D+00
 E= -419.622886135065     Delta-E=       -0.002251871880 Rises=F Damp=F
 DIIS: error= 2.67D-02 at cycle   3 NSaved=   3.
 NSaved= 3 IEnMin= 3 EnMin= -419.622886135065     IErMin= 2 ErrMin= 8.57D-03
 ErrMax= 2.67D-02  0.00D+00 EMaxC= 1.00D-01 BMatC= 2.01D-01 BMatP= 5.38D-02
 IDIUse=2 WtCom= 0.00D+00 WtEn= 1.00D+00
 EnCoef did     1 forward-backward iterations
 Coeff-En:   0.769D-01 0.458D+00 0.465D+00
 Coeff:      0.769D-01 0.458D+00 0.465D+00
 Gap=     0.063 Goal=   None    Shift=    0.000
 RMSDP=8.18D-03 MaxDP=3.26D-01 DE=-2.25D-03 OVMax= 8.86D-01

 Cycle   4  Pass 1  IDiag  1:
 RMSU=  4.56D-03    CP:  1.08D+00  2.36D+00  9.46D-03
 E= -418.856340003367     Delta-E=        0.766546131698 Rises=F Damp=F
 DIIS: error= 5.39D-02 at cycle   4 NSaved=   4.
 NSaved= 4 IEnMin= 3 EnMin= -419.622886135065     IErMin= 2 ErrMin= 8.57D-03
 ErrMax= 5.39D-02  0.00D+00 EMaxC= 1.00D-01 BMatC= 8.20D-01 BMatP= 5.38D-02
 IDIUse=2 WtCom= 0.00D+00 WtEn= 1.00D+00
 EnCoef did     3 forward-backward iterations
 Coeff-En:   0.245D+00 0.000D+00 0.521D+00 0.235D+00
 Coeff:      0.245D+00 0.000D+00 0.521D+00 0.235D+00
 Gap=    -0.011 Goal=   None    Shift=    0.000
 RMSDP=6.64D-03 MaxDP=3.89D-01 DE= 7.67D-01 OVMax= 7.64D-01

 Cycle   5  Pass 1  IDiag  1:
 RMSU=  2.25D-03    CP:  1.04D+00  9.29D-01  5.29D-01  3.77D-01
 E= -419.803270169849     Delta-E=       -0.946930166482 Rises=F Damp=F
 DIIS: error= 7.94D-03 at cycle   5 NSaved=   5.
 NSaved= 5 IEnMin= 5 EnMin= -419.803270169849     IErMin= 5 ErrMin= 7.94D-03
 ErrMax= 7.94D-03  0.00D+00 EMaxC= 1.00D-01 BMatC= 2.11D-02 BMatP= 5.38D-02
 IDIUse=3 WtCom= 9.21D-01 WtEn= 7.94D-02
 Coeff-Com: -0.868D-01 0.314D+00 0.247D+00-0.674D-02 0.532D+00
 Coeff-En:   0.000D+00 0.000D+00 0.460D-01 0.000D+00 0.954D+00
 Coeff:     -0.799D-01 0.289D+00 0.231D+00-0.621D-02 0.566D+00
 Gap=     0.061 Goal=   None    Shift=    0.000
 RMSDP=1.48D-03 MaxDP=8.42D-02 DE=-9.47D-01 OVMax= 7.22D-02

 Cycle   6  Pass 1  IDiag  1:
 RMSU=  1.18D-03    CP:  1.03D+00  9.95D-01  5.02D-01  2.98D-01  6.98D-01
 E= -419.811057283870     Delta-E=       -0.007787114021 Rises=F Damp=F
 DIIS: error= 8.00D-03 at cycle   6 NSaved=   6.
 NSaved= 6 IEnMin= 6 EnMin= -419.811057283870     IErMin= 5 ErrMin= 7.94D-03
 ErrMax= 8.00D-03  0.00D+00 EMaxC= 1.00D-01 BMatC= 1.19D-02 BMatP= 2.11D-02
 IDIUse=3 WtCom= 9.21D-01 WtEn= 7.94D-02
 Coeff-Com: -0.727D-01 0.155D+00 0.991D-01-0.156D-01 0.436D+00 0.398D+00
 Coeff-En:   0.000D+00 0.000D+00 0.000D+00 0.000D+00 0.384D+00 0.616D+00
 Coeff:     -0.669D-01 0.143D+00 0.912D-01-0.144D-01 0.432D+00 0.415D+00
 Gap=     0.067 Goal=   None    Shift=    0.000
 RMSDP=6.74D-04 MaxDP=2.85D-02 DE=-7.79D-03 OVMax= 2.73D-02

 Cycle   7  Pass 1  IDiag  1:
 RMSU=  3.52D-04    CP:  1.03D+00  9.52D-01  5.37D-01  3.09D-01  8.19D-01
                    CP:  6.25D-01
 E= -419.820196194488     Delta-E=       -0.009138910617 Rises=F Damp=F
 DIIS: error= 1.73D-03 at cycle   7 NSaved=   7.
 NSaved= 7 IEnMin= 7 EnMin= -419.820196194488     IErMin= 7 ErrMin= 1.73D-03
 ErrMax= 1.73D-03  0.00D+00 EMaxC= 1.00D-01 BMatC= 8.47D-04 BMatP= 1.19D-02
 IDIUse=3 WtCom= 9.83D-01 WtEn= 1.73D-02
 Coeff-Com: -0.228D-01 0.389D-01 0.178D-01-0.122D-02 0.204D+00 0.256D+00
 Coeff-Com:  0.507D+00
 Coeff-En:   0.000D+00 0.000D+00 0.000D+00 0.000D+00 0.000D+00 0.000D+00
 Coeff-En:   0.100D+01
 Coeff:     -0.224D-01 0.383D-01 0.175D-01-0.120D-02 0.201D+00 0.252D+00
 Coeff:      0.516D+00
 Gap=     0.068 Goal=   None    Shift=    0.000
 RMSDP=2.60D-04 MaxDP=1.05D-02 DE=-9.14D-03 OVMax= 2.03D-02

 Cycle   8  Pass 1  IDiag  1:
 RMSU=  1.53D-04    CP:  1.03D+00  9.69D-01  5.17D-01  3.39D-01  8.24D-01
                    CP:  6.66D-01  7.68D-01
 E= -419.820878533927     Delta-E=       -0.000682339439 Rises=F Damp=F
 DIIS: error= 4.89D-04 at cycle   8 NSaved=   8.
 NSaved= 8 IEnMin= 8 EnMin= -419.820878533927     IErMin= 8 ErrMin= 4.89D-04
 ErrMax= 4.89D-04  0.00D+00 EMaxC= 1.00D-01 BMatC= 1.38D-04 BMatP= 8.47D-04
 IDIUse=3 WtCom= 9.95D-01 WtEn= 4.89D-03
 Coeff-Com: -0.127D-02 0.237D-03-0.843D-02 0.412D-03 0.459D-01 0.844D-01
 Coeff-Com:  0.352D+00 0.527D+00
 Coeff-En:   0.000D+00 0.000D+00 0.000D+00 0.000D+00 0.000D+00 0.000D+00
 Coeff-En:   0.141D+00 0.859D+00
 Coeff:     -0.126D-02 0.236D-03-0.839D-02 0.410D-03 0.456D-01 0.839D-01
 Coeff:      0.351D+00 0.529D+00
 Gap=     0.069 Goal=   None    Shift=    0.000
 RMSDP=9.01D-05 MaxDP=2.66D-03 DE=-6.82D-04 OVMax= 4.50D-03

 Cycle   9  Pass 1  IDiag  1:
 RMSU=  7.86D-05    CP:  1.03D+00  9.69D-01  5.18D-01  3.39D-01  8.28D-01
                    CP:  6.72D-01  8.23D-01  7.56D-01
 E= -419.821002697478     Delta-E=       -0.000124163551 Rises=F Damp=F
 DIIS: error= 1.32D-04 at cycle   9 NSaved=   9.
 NSaved= 9 IEnMin= 9 EnMin= -419.821002697478     IErMin= 9 ErrMin= 1.32D-04
 ErrMax= 1.32D-04  0.00D+00 EMaxC= 1.00D-01 BMatC= 8.30D-06 BMatP= 1.38D-04
 IDIUse=3 WtCom= 9.99D-01 WtEn= 1.32D-03
 Coeff-Com:  0.326D-02-0.480D-02-0.332D-02-0.113D-03 0.457D-02 0.997D-02
 Coeff-Com:  0.927D-01 0.202D+00 0.696D+00
 Coeff-En:   0.000D+00 0.000D+00 0.000D+00 0.000D+00 0.000D+00 0.000D+00
 Coeff-En:   0.000D+00 0.000D+00 0.100D+01
 Coeff:      0.325D-02-0.479D-02-0.332D-02-0.113D-03 0.456D-02 0.995D-02
 Coeff:      0.926D-01 0.202D+00 0.696D+00
 Gap=     0.070 Goal=   None    Shift=    0.000
 RMSDP=4.15D-05 MaxDP=2.20D-03 DE=-1.24D-04 OVMax= 2.53D-03

 Cycle  10  Pass 1  IDiag  1:
 RMSU=  2.98D-05    CP:  1.03D+00  9.65D-01  5.15D-01  3.41D-01  8.27D-01
                    CP:  6.75D-01  8.50D-01  8.53D-01  9.34D-01
 E= -419.821007778021     Delta-E=       -0.000005080543 Rises=F Damp=F
 DIIS: error= 1.10D-04 at cycle  10 NSaved=  10.
 NSaved=10 IEnMin=10 EnMin= -419.821007778021     IErMin=10 ErrMin= 1.10D-04
 ErrMax= 1.10D-04  0.00D+00 EMaxC= 1.00D-01 BMatC= 5.52D-06 BMatP= 8.30D-06
 IDIUse=3 WtCom= 9.99D-01 WtEn= 1.10D-03
 Coeff-Com:  0.275D-02-0.301D-02 0.581D-03-0.484D-03 0.202D-02-0.197D-02
 Coeff-Com:  0.186D-01 0.399D-01 0.407D+00 0.535D+00
 Coeff-En:   0.000D+00 0.000D+00 0.000D+00 0.000D+00 0.000D+00 0.000D+00
 Coeff-En:   0.000D+00 0.000D+00 0.673D-01 0.933D+00
 Coeff:      0.275D-02-0.301D-02 0.580D-03-0.483D-03 0.202D-02-0.197D-02
 Coeff:      0.186D-01 0.398D-01 0.406D+00 0.535D+00
 Gap=     0.070 Goal=   None    Shift=    0.000
 RMSDP=1.50D-05 MaxDP=5.35D-04 DE=-5.08D-06 OVMax= 8.38D-04

 Cycle  11  Pass 1  IDiag  1:
 RMSU=  1.17D-05    CP:  1.03D+00  9.64D-01  5.16D-01  3.41D-01  8.26D-01
                    CP:  6.76D-01  8.48D-01  8.45D-01  1.02D+00  9.43D-01
 E= -419.821012035465     Delta-E=       -0.000004257444 Rises=F Damp=F
 DIIS: error= 7.71D-05 at cycle  11 NSaved=  11.
 NSaved=11 IEnMin=11 EnMin= -419.821012035465     IErMin=11 ErrMin= 7.71D-05
 ErrMax= 7.71D-05  0.00D+00 EMaxC= 1.00D-01 BMatC= 2.08D-06 BMatP= 5.52D-06
 IDIUse=1 WtCom= 1.00D+00 WtEn= 0.00D+00
 Coeff-Com:  0.159D-02-0.167D-02 0.162D-02-0.393D-03 0.241D-02-0.159D-02
 Coeff-Com: -0.270D-02-0.327D-01-0.124D-01 0.487D-01 0.997D+00
 Coeff:      0.159D-02-0.167D-02 0.162D-02-0.393D-03 0.241D-02-0.159D-02
 Coeff:     -0.270D-02-0.327D-01-0.124D-01 0.487D-01 0.997D+00
 Gap=     0.070 Goal=   None    Shift=    0.000
 RMSDP=1.07D-05 MaxDP=3.61D-04 DE=-4.26D-06 OVMax= 9.65D-04

 Cycle  12  Pass 1  IDiag  1:
 RMSU=  4.15D-06    CP:  1.03D+00  9.63D-01  5.16D-01  3.41D-01  8.26D-01
                    CP:  6.74D-01  8.49D-01  8.51D-01  1.11D+00  1.07D+00
                    CP:  1.29D+00
 E= -419.821013997925     Delta-E=       -0.000001962460 Rises=F Damp=F
 DIIS: error= 3.21D-05 at cycle  12 NSaved=  12.
 NSaved=12 IEnMin=12 EnMin= -419.821013997925     IErMin=12 ErrMin= 3.21D-05
 ErrMax= 3.21D-05  0.00D+00 EMaxC= 1.00D-01 BMatC= 5.73D-07 BMatP= 2.08D-06
 IDIUse=1 WtCom= 1.00D+00 WtEn= 0.00D+00
 Coeff-Com:  0.215D-03-0.130D-03 0.765D-03-0.183D-03 0.139D-02 0.196D-02
 Coeff-Com:  0.235D-02-0.133D-01-0.108D+00-0.199D+00 0.289D+00 0.102D+01
 Coeff:      0.215D-03-0.130D-03 0.765D-03-0.183D-03 0.139D-02 0.196D-02
 Coeff:      0.235D-02-0.133D-01-0.108D+00-0.199D+00 0.289D+00 0.102D+01
 Gap=     0.070 Goal=   None    Shift=    0.000
 RMSDP=8.82D-06 MaxDP=5.22D-04 DE=-1.96D-06 OVMax= 5.85D-04

 Cycle  13  Pass 1  IDiag  1:
 RMSU=  2.43D-06    CP:  1.03D+00  9.62D-01  5.16D-01  3.40D-01  8.25D-01
                    CP:  6.74D-01  8.50D-01  8.46D-01  1.13D+00  1.14D+00
                    CP:  1.66D+00  1.15D+00
 E= -419.821014621657     Delta-E=       -0.000000623732 Rises=F Damp=F
 DIIS: error= 1.12D-05 at cycle  13 NSaved=  13.
 NSaved=13 IEnMin=13 EnMin= -419.821014621657     IErMin=13 ErrMin= 1.12D-05
 ErrMax= 1.12D-05  0.00D+00 EMaxC= 1.00D-01 BMatC= 4.63D-08 BMatP= 5.73D-07
 IDIUse=1 WtCom= 1.00D+00 WtEn= 0.00D+00
 Coeff-Com:  0.215D-05-0.770D-04 0.482D-04-0.122D-04 0.409D-03 0.196D-02
 Coeff-Com:  0.497D-02 0.554D-02-0.386D-01-0.118D+00-0.639D-01 0.661D+00
 Coeff-Com:  0.546D+00
 Coeff:      0.215D-05-0.770D-04 0.482D-04-0.122D-04 0.409D-03 0.196D-02
 Coeff:      0.497D-02 0.554D-02-0.386D-01-0.118D+00-0.639D-01 0.661D+00
 Coeff:      0.546D+00
 Gap=     0.070 Goal=   None    Shift=    0.000
 RMSDP=1.55D-06 MaxDP=3.54D-05 DE=-6.24D-07 OVMax= 1.03D-04

 Cycle  14  Pass 1  IDiag  1:
 RMSU=  8.45D-07    CP:  1.03D+00  9.62D-01  5.16D-01  3.40D-01  8.25D-01
                    CP:  6.74D-01  8.49D-01  8.46D-01  1.13D+00  1.14D+00
                    CP:  1.68D+00  1.31D+00  6.89D-01
 E= -419.821014661121     Delta-E=       -0.000000039464 Rises=F Damp=F
 DIIS: error= 3.73D-06 at cycle  14 NSaved=  14.
 NSaved=14 IEnMin=14 EnMin= -419.821014661121     IErMin=14 ErrMin= 3.73D-06
 ErrMax= 3.73D-06  0.00D+00 EMaxC= 1.00D-01 BMatC= 4.37D-09 BMatP= 4.63D-08
 IDIUse=1 WtCom= 1.00D+00 WtEn= 0.00D+00
 Coeff-Com: -0.399D-04 0.405D-04-0.129D-04-0.399D-05 0.383D-04 0.901D-03
 Coeff-Com:  0.228D-02 0.414D-02-0.969D-02-0.433D-01-0.524D-01 0.277D+00
 Coeff-Com:  0.275D+00 0.545D+00
 Coeff:     -0.399D-04 0.405D-04-0.129D-04-0.399D-05 0.383D-04 0.901D-03
 Coeff:      0.228D-02 0.414D-02-0.969D-02-0.433D-01-0.524D-01 0.277D+00
 Coeff:      0.275D+00 0.545D+00
 Gap=     0.070 Goal=   None    Shift=    0.000
 RMSDP=7.53D-07 MaxDP=5.72D-05 DE=-3.95D-08 OVMax= 4.45D-05

 Cycle  15  Pass 1  IDiag  1:
 RMSU=  3.90D-07    CP:  1.03D+00  9.62D-01  5.17D-01  3.40D-01  8.25D-01
                    CP:  6.74D-01  8.49D-01  8.46D-01  1.13D+00  1.13D+00
                    CP:  1.67D+00  1.31D+00  6.99D-01  8.05D-01
 E= -419.821014664225     Delta-E=       -0.000000003104 Rises=F Damp=F
 DIIS: error= 1.84D-06 at cycle  15 NSaved=  15.
 NSaved=15 IEnMin=15 EnMin= -419.821014664225     IErMin=15 ErrMin= 1.84D-06
 ErrMax= 1.84D-06  0.00D+00 EMaxC= 1.00D-01 BMatC= 1.85D-09 BMatP= 4.37D-09
 IDIUse=1 WtCom= 1.00D+00 WtEn= 0.00D+00
 Coeff-Com: -0.143D-04 0.123D-04-0.167D-04 0.909D-06-0.134D-04 0.217D-03
 Coeff-Com:  0.415D-03 0.830D-03-0.108D-02-0.647D-02-0.221D-02 0.648D-01
 Coeff-Com:  0.491D-01 0.224D+00 0.670D+00
 Coeff:     -0.143D-04 0.123D-04-0.167D-04 0.909D-06-0.134D-04 0.217D-03
 Coeff:      0.415D-03 0.830D-03-0.108D-02-0.647D-02-0.221D-02 0.648D-01
 Coeff:      0.491D-01 0.224D+00 0.670D+00
 Gap=     0.070 Goal=   None    Shift=    0.000
 RMSDP=2.72D-07 MaxDP=7.95D-06 DE=-3.10D-09 OVMax= 1.35D-05

 Cycle  16  Pass 1  IDiag  1:
 RMSU=  1.18D-07    CP:  1.03D+00  9.62D-01  5.17D-01  3.40D-01  8.25D-01
                    CP:  6.74D-01  8.49D-01  8.46D-01  1.13D+00  1.13D+00
                    CP:  1.66D+00  1.31D+00  6.85D-01  8.69D-01  9.44D-01
 E= -419.821014665873     Delta-E=       -0.000000001648 Rises=F Damp=F
 DIIS: error= 9.13D-07 at cycle  16 NSaved=  16.
 NSaved=16 IEnMin=16 EnMin= -419.821014665873     IErMin=16 ErrMin= 9.13D-07
 ErrMax= 9.13D-07  0.00D+00 EMaxC= 1.00D-01 BMatC= 2.83D-10 BMatP= 1.85D-09
 IDIUse=1 WtCom= 1.00D+00 WtEn= 0.00D+00
 Coeff-Com: -0.584D-05 0.521D-05-0.800D-05 0.993D-06-0.129D-04 0.253D-04
 Coeff-Com: -0.794D-04-0.198D-03-0.478D-03-0.111D-03 0.647D-02 0.119D-01
 Coeff-Com: -0.166D-02 0.417D-01 0.203D+00 0.739D+00
 Coeff:     -0.584D-05 0.521D-05-0.800D-05 0.993D-06-0.129D-04 0.253D-04
 Coeff:     -0.794D-04-0.198D-03-0.478D-03-0.111D-03 0.647D-02 0.119D-01
 Coeff:     -0.166D-02 0.417D-01 0.203D+00 0.739D+00
 Gap=     0.070 Goal=   None    Shift=    0.000
 RMSDP=1.14D-07 MaxDP=3.61D-06 DE=-1.65D-09 OVMax= 4.13D-06

 Cycle  17  Pass 1  IDiag  1:
 RMSU=  4.82D-08    CP:  1.03D+00  9.62D-01  5.17D-01  3.40D-01  8.25D-01
                    CP:  6.74D-01  8.49D-01  8.46D-01  1.13D+00  1.13D+00
                    CP:  1.66D+00  1.31D+00  6.84D-01  8.95D-01  9.46D-01
                    CP:  1.17D+00
 E= -419.821014666131     Delta-E=       -0.000000000258 Rises=F Damp=F
 DIIS: error= 3.87D-07 at cycle  17 NSaved=  17.
 NSaved=17 IEnMin=17 EnMin= -419.821014666131     IErMin=17 ErrMin= 3.87D-07
 ErrMax= 3.87D-07  0.00D+00 EMaxC= 1.00D-01 BMatC= 5.11D-11 BMatP= 2.83D-10
 IDIUse=1 WtCom= 1.00D+00 WtEn= 0.00D+00
 Coeff-Com: -0.164D-05 0.215D-05-0.192D-05 0.523D-06-0.550D-05-0.143D-04
 Coeff-Com: -0.107D-03-0.275D-03-0.303D-03 0.410D-03 0.409D-02-0.765D-03
 Coeff-Com: -0.621D-02-0.197D-01-0.576D-01 0.352D+00 0.729D+00
 Coeff:     -0.164D-05 0.215D-05-0.192D-05 0.523D-06-0.550D-05-0.143D-04
 Coeff:     -0.107D-03-0.275D-03-0.303D-03 0.410D-03 0.409D-02-0.765D-03
 Coeff:     -0.621D-02-0.197D-01-0.576D-01 0.352D+00 0.729D+00
 Gap=     0.070 Goal=   None    Shift=    0.000
 RMSDP=5.50D-08 MaxDP=3.27D-06 DE=-2.58D-10 OVMax= 2.26D-06

 Cycle  18  Pass 1  IDiag  1:
 RMSU=  2.25D-08    CP:  1.03D+00  9.62D-01  5.17D-01  3.40D-01  8.25D-01
                    CP:  6.74D-01  8.49D-01  8.46D-01  1.13D+00  1.13D+00
                    CP:  1.66D+00  1.31D+00  6.83D-01  9.04D-01  9.99D-01
                    CP:  1.23D+00  1.02D+00
 E= -419.821014666184     Delta-E=       -0.000000000053 Rises=F Damp=F
 DIIS: error= 1.11D-07 at cycle  18 NSaved=  18.
 NSaved=18 IEnMin=18 EnMin= -419.821014666184     IErMin=18 ErrMin= 1.11D-07
 ErrMax= 1.11D-07  0.00D+00 EMaxC= 1.00D-01 BMatC= 3.92D-12 BMatP= 5.11D-11
 IDIUse=1 WtCom= 1.00D+00 WtEn= 0.00D+00
 Coeff-Com:  0.536D-07-0.782D-08 0.805D-06 0.254D-07 0.284D-05 0.484D-05
 Coeff-Com:  0.130D-04-0.137D-04-0.203D-03-0.663D-03-0.786D-03 0.137D-02
 Coeff-Com:  0.241D-02-0.107D-01-0.710D-01-0.116D+00 0.167D+00 0.103D+01
 Coeff:      0.536D-07-0.782D-08 0.805D-06 0.254D-07 0.284D-05 0.484D-05
 Coeff:      0.130D-04-0.137D-04-0.203D-03-0.663D-03-0.786D-03 0.137D-02
 Coeff:      0.241D-02-0.107D-01-0.710D-01-0.116D+00 0.167D+00 0.103D+01
 Gap=     0.070 Goal=   None    Shift=    0.000
 RMSDP=3.14D-08 MaxDP=9.23D-07 DE=-5.30D-11 OVMax= 1.77D-06

 Cycle  19  Pass 1  IDiag  1:
 RMSU=  7.15D-09    CP:  1.03D+00  9.62D-01  5.17D-01  3.40D-01  8.25D-01
                    CP:  6.74D-01  8.49D-01  8.46D-01  1.13D+00  1.13D+00
                    CP:  1.66D+00  1.31D+00  6.83D-01  9.08D-01  1.00D+00
                    CP:  1.33D+00  1.16D+00  1.21D+00
 E= -419.821014666192     Delta-E=       -0.000000000008 Rises=F Damp=F
 DIIS: error= 2.98D-08 at cycle  19 NSaved=  19.
 NSaved=19 IEnMin=19 EnMin= -419.821014666192     IErMin=19 ErrMin= 2.98D-08
 ErrMax= 2.98D-08  0.00D+00 EMaxC= 1.00D-01 BMatC= 3.45D-13 BMatP= 3.92D-12
 IDIUse=1 WtCom= 1.00D+00 WtEn= 0.00D+00
 Coeff-Com:  0.527D-07-0.787D-07 0.139D-06 0.884D-08 0.485D-06 0.257D-05
 Coeff-Com:  0.979D-05 0.109D-04-0.365D-04-0.235D-03-0.450D-03 0.682D-03
 Coeff-Com:  0.113D-02-0.248D-03-0.602D-02-0.334D-01 0.776D-02 0.215D+00
 Coeff-Com:  0.816D+00
 Coeff:      0.527D-07-0.787D-07 0.139D-06 0.884D-08 0.485D-06 0.257D-05
 Coeff:      0.979D-05 0.109D-04-0.365D-04-0.235D-03-0.450D-03 0.682D-03
 Coeff:      0.113D-02-0.248D-03-0.602D-02-0.334D-01 0.776D-02 0.215D+00
 Coeff:      0.816D+00
 Gap=     0.070 Goal=   None    Shift=    0.000
 RMSDP=5.84D-09 MaxDP=1.87D-07 DE=-7.62D-12 OVMax= 4.09D-07

 SCF Done:  E(RB3LYP) =  -419.821014666     A.U. after   19 cycles
            NFock= 19  Conv=0.58D-08     -V/T= 2.0044
 KE= 4.179951403003D+02 PE=-1.820867302655D+03 EE= 5.560309115234D+02
 Leave Link  502 at Sun Jun 18 21:45:15 2023, MaxMem= 16106127360 cpu:             220.2 elap:               6.9
 (Enter /public/software/apps/Gaussian/g16/l601.exe)
 Copying SCF densities to generalized density rwf, IOpCl= 0 IROHF=0.

 **********************************************************************

            Population analysis using the SCF Density.

 **********************************************************************

 Orbital symmetries:
       Occupied  (A) (A) (A) (A) (A) (A) (A) (A) (A) (A) (A) (A)
                 (A) (A) (A) (A) (A) (A) (A) (A) (A) (A) (A) (A)
                 (A) (A) (A) (A) (A) (A) (A)
       Virtual   (A) (A) (A) (A) (A) (A) (A) (A) (A) (A) (A) (A)
                 (A) (A) (A) (A) (A) (A) (A) (A) (A) (A) (A) (A)
                 (A) (A) (A) (A) (A) (A) (A) (A) (A) (A) (A) (A)
                 (A) (A) (A) (A) (A) (A) (A) (A) (A) (A) (A) (A)
                 (A) (A) (A) (A) (A) (A) (A) (A) (A) (A) (A) (A)
                 (A) (A) (A) (A) (A) (A) (A) (A) (A) (A) (A) (A)
                 (A) (A) (A) (A) (A) (A) (A) (A) (A) (A) (A) (A)
                 (A) (A) (A) (A) (A) (A) (A) (A) (A) (A) (A) (A)
                 (A) (A) (A) (A) (A) (A) (A) (A) (A) (A) (A) (A)
                 (A) (A) (A) (A) (A) (A) (A) (A) (A) (A) (A) (A)
                 (A) (A) (A) (A) (A) (A) (A) (A) (A) (A) (A) (A)
                 (A) (A) (A) (A) (A) (A) (A) (A) (A) (A) (A) (A)
                 (A) (A) (A) (A) (A) (A) (A) (A) (A) (A) (A) (A)
                 (A) (A) (A) (A) (A) (A) (A) (A) (A) (A) (A) (A)
                 (A) (A) (A) (A) (A) (A) (A) (A) (A) (A) (A) (A)
                 (A) (A) (A) (A) (A) (A) (A) (A) (A) (A) (A) (A)
                 (A) (A) (A) (A) (A)
 The electronic state is 1-A.
 Alpha  occ. eigenvalues --  -19.41539 -19.35010 -10.55817 -10.49156 -10.48563
 Alpha  occ. eigenvalues --  -10.45165 -10.42502 -10.42200 -10.42005  -1.33282
 Alpha  occ. eigenvalues --   -1.27540  -1.10503  -1.01943  -0.96574  -0.86252
 Alpha  occ. eigenvalues --   -0.83078  -0.80883  -0.76024  -0.72677  -0.70785
 Alpha  occ. eigenvalues --   -0.68513  -0.67334  -0.66682  -0.62548  -0.62061
 Alpha  occ. eigenvalues --   -0.60952  -0.59057  -0.56458  -0.52429  -0.50218
 Alpha  occ. eigenvalues --   -0.46441
 Alpha virt. eigenvalues --   -0.39448  -0.26134  -0.22400  -0.16693  -0.13962
 Alpha virt. eigenvalues --   -0.12100  -0.11700  -0.10418  -0.10115  -0.09952
 Alpha virt. eigenvalues --   -0.08894  -0.08153  -0.07613  -0.06680  -0.06199
 Alpha virt. eigenvalues --   -0.04584  -0.03992  -0.03598  -0.02460  -0.02092
 Alpha virt. eigenvalues --   -0.01544  -0.00868  -0.00798  -0.00592   0.01105
 Alpha virt. eigenvalues --    0.02546   0.02992   0.03518   0.03778   0.04372
 Alpha virt. eigenvalues --    0.05018   0.05155   0.05577   0.05630   0.06381
 Alpha virt. eigenvalues --    0.06712   0.07154   0.07953   0.08758   0.09444
 Alpha virt. eigenvalues --    0.10181   0.10958   0.12110   0.13253   0.15168
 Alpha virt. eigenvalues --    0.15351   0.16888   0.18173   0.19496   0.20093
 Alpha virt. eigenvalues --    0.20797   0.21288   0.22734   0.25670   0.27891
 Alpha virt. eigenvalues --    0.29013   0.31694   0.33920   0.34191   0.35558
 Alpha virt. eigenvalues --    0.38026   0.38272   0.38922   0.41291   0.42478
 Alpha virt. eigenvalues --    0.42672   0.43598   0.44935   0.45795   0.46475
 Alpha virt. eigenvalues --    0.48200   0.49087   0.49562   0.50329   0.53228
 Alpha virt. eigenvalues --    0.54922   0.55160   0.57882   0.59240   0.63954
 Alpha virt. eigenvalues --    0.65512   0.68088   0.69473   0.73728   0.74773
 Alpha virt. eigenvalues --    0.76604   0.81666   0.88362   0.90213   0.92939
 Alpha virt. eigenvalues --    0.94557   0.95750   0.98643   1.01374   1.01948
 Alpha virt. eigenvalues --    1.03787   1.07294   1.07840   1.15016   1.16795
 Alpha virt. eigenvalues --    1.19206   1.19685   1.23648   1.27265   1.27807
 Alpha virt. eigenvalues --    1.31271   1.35670   1.37673   1.39218   1.41035
 Alpha virt. eigenvalues --    1.42318   1.43831   1.47355   1.49402   1.51336
 Alpha virt. eigenvalues --    1.53145   1.54599   1.56657   1.58912   1.60154
 Alpha virt. eigenvalues --    1.62894   1.64995   1.66875   1.68125   1.70788
 Alpha virt. eigenvalues --    1.74413   1.74525   1.77045   1.81523   1.83700
 Alpha virt. eigenvalues --    1.86393   1.87981   1.91627   1.96408   2.00397
 Alpha virt. eigenvalues --    2.03668   2.05542   2.08378   2.12535   2.18743
 Alpha virt. eigenvalues --    2.22909   2.34255   2.39183   2.43040   2.45465
 Alpha virt. eigenvalues --    2.48765   2.49742   2.52994   2.53410   2.55177
 Alpha virt. eigenvalues --    2.56399   2.60802   2.62919   2.65202   2.67027
 Alpha virt. eigenvalues --    2.67957   2.69027   2.73105   2.75798   2.78732
 Alpha virt. eigenvalues --    2.80652   2.84505   2.89491   2.91766   2.93745
 Alpha virt. eigenvalues --    3.00083   3.03098   3.12754   3.20565   3.24321
 Alpha virt. eigenvalues --    3.28267   3.39219   3.49971   3.59927   3.64354
 Alpha virt. eigenvalues --    3.77833   3.79755   3.82500   3.86944   4.00985
 Alpha virt. eigenvalues --    4.09220   4.18534   4.86245   4.88790   4.98803
 Alpha virt. eigenvalues --    5.14013   5.30767   5.52676  23.34371  23.50301
 Alpha virt. eigenvalues --   23.55105  23.70846  23.71316  23.78574  24.02037
 Alpha virt. eigenvalues --   49.69777  49.82031
          Condensed to atoms (all electrons):
               1          2          3          4          5          6
     1  O    7.889762   0.215813   0.041244   0.005842   0.027248  -0.017782
     2  C    0.215813   6.575244  -0.289870  -0.052018  -0.440304   0.229511
     3  C    0.041244  -0.289870   6.753057  -0.213955   0.395043  -0.512571
     4  C    0.005842  -0.052018  -0.213955   5.383847   0.325822   0.172077
     5  C    0.027248  -0.440304   0.395043   0.325822   5.673001  -0.516524
     6  C   -0.017782   0.229511  -0.512571   0.172077  -0.516524   6.442250
     7  O   -0.001862   0.042042  -0.110528   0.009227  -0.040475   0.111791
     8  C    0.000840   0.057025  -1.137269   0.474743  -0.254665   0.072762
     9  C    0.006215  -0.425682   0.571715  -0.297092   0.518972  -0.264831
    10  H    0.000808   0.006733   0.306863   0.029671  -0.022867   0.029556
    11  H    0.000940   0.009137  -0.055284   0.419118  -0.003348  -0.013444
    12  H   -0.000315   0.004880  -0.007697  -0.028904   0.421073  -0.048440
    13  H   -0.000227  -0.013136   0.008391  -0.011791   0.009434   0.003138
    14  H   -0.003734  -0.009465  -0.001092   0.000128   0.004694  -0.028018
               7          8          9         10         11         12
     1  O   -0.001862   0.000840   0.006215   0.000808   0.000940  -0.000315
     2  C    0.042042   0.057025  -0.425682   0.006733   0.009137   0.004880
     3  C   -0.110528  -1.137269   0.571715   0.306863  -0.055284  -0.007697
     4  C    0.009227   0.474743  -0.297092   0.029671   0.419118  -0.028904
     5  C   -0.040475  -0.254665   0.518972  -0.022867  -0.003348   0.421073
     6  C    0.111791   0.072762  -0.264831   0.029556  -0.013444  -0.048440
     7  O    7.880928   0.230995  -0.146966   0.000552   0.001124   0.005195
     8  C    0.230995   7.218911  -0.639234   0.042874   0.010007   0.008895
     9  C   -0.146966  -0.639234   6.279377  -0.030497   0.003653   0.004574
    10  H    0.000552   0.042874  -0.030497   0.403830  -0.003170   0.000046
    11  H    0.001124   0.010007   0.003653  -0.003170   0.414639  -0.004620
    12  H    0.005195   0.008895   0.004574   0.000046  -0.004620   0.423032
    13  H   -0.038218   0.348817   0.039221  -0.002150  -0.000078   0.000037
    14  H    0.008059   0.008658   0.387202   0.000085   0.000017  -0.000026
              13         14
     1  O   -0.000227  -0.003734
     2  C   -0.013136  -0.009465
     3  C    0.008391  -0.001092
     4  C   -0.011791   0.000128
     5  C    0.009434   0.004694
     6  C    0.003138  -0.028018
     7  O   -0.038218   0.008059
     8  C    0.348817   0.008658
     9  C    0.039221   0.387202
    10  H   -0.002150   0.000085
    11  H   -0.000078   0.000017
    12  H    0.000037  -0.000026
    13  H    0.404347  -0.002870
    14  H   -0.002870   0.374796
 Mulliken charges:
               1
     1  O   -0.164793
     2  C    0.090089
     3  C    0.251954
     4  C   -0.216715
     5  C   -0.097104
     6  C    0.340524
     7  O    0.048136
     8  C   -0.443358
     9  C   -0.006627
    10  H    0.237668
    11  H    0.221308
    12  H    0.222268
    13  H    0.255082
    14  H    0.261568
 Sum of Mulliken charges =   1.00000
 Mulliken charges with hydrogens summed into heavy atoms:
               1
     1  O   -0.164793
     2  C    0.090089
     3  C    0.489622
     4  C    0.004593
     5  C    0.125164
     6  C    0.340524
     7  O    0.048136
     8  C   -0.188276
     9  C    0.254941
 Electronic spatial extent (au):  <R**2>=            802.5239
 Charge=              1.0000 electrons
 Dipole moment (field-independent basis, Debye):
    X=             -2.0463    Y=              0.1831    Z=              0.2353  Tot=              2.0679
 Quadrupole moment (field-independent basis, Debye-Ang):
   XX=            -51.4898   YY=            -35.2783   ZZ=            -39.5240
   XY=             -3.1869   XZ=              5.5034   YZ=              0.9711
 Traceless Quadrupole moment (field-independent basis, Debye-Ang):
   XX=             -9.3924   YY=              6.8190   ZZ=              2.5734
   XY=             -3.1869   XZ=              5.5034   YZ=              0.9711
 Octapole moment (field-independent basis, Debye-Ang**2):
  XXX=            -12.1334  YYY=              6.0893  ZZZ=              6.0655  XYY=             -2.3628
  XXY=              2.5471  XXZ=             -3.8655  XZZ=             -1.6138  YZZ=             -3.0175
  YYZ=              2.6478  XYZ=              4.7284
 Hexadecapole moment (field-independent basis, Debye-Ang**3):
 XXXX=           -538.8981 YYYY=           -245.2491 ZZZZ=           -173.0194 XXXY=             -5.2153
 XXXZ=             17.2990 YYYX=            -11.4270 YYYZ=              7.4230 ZZZX=              5.5469
 ZZZY=             -1.0614 XXYY=           -127.5677 XXZZ=           -105.9224 YYZZ=            -63.1568
 XXYZ=             -5.5667 YYXZ=              2.2752 ZZXY=             -0.1833
 N-N= 4.270202361650D+02 E-N=-1.820867303402D+03  KE= 4.179951403003D+02
 No NMR shielding tensors so no spin-rotation constants.
 Leave Link  601 at Sun Jun 18 21:45:15 2023, MaxMem= 16106127360 cpu:               2.3 elap:               0.1
 (Enter /public/software/apps/Gaussian/g16/l701.exe)
 ... and contract with generalized density number  0.
 Compute integral first derivatives.
 R6Disp: Adding Grimme-D3(BJ) dispersion energy 1st derivatives to the gradient.
 Leave Link  701 at Sun Jun 18 21:45:15 2023, MaxMem= 16106127360 cpu:               6.7 elap:               0.2
 (Enter /public/software/apps/Gaussian/g16/l702.exe)
 L702 exits ... SP integral derivatives will be done elsewhere.
 Leave Link  702 at Sun Jun 18 21:45:15 2023, MaxMem= 16106127360 cpu:               0.7 elap:               0.0
 (Enter /public/software/apps/Gaussian/g16/l703.exe)
 Integral derivatives from FoFJK, PRISM(SPDF).
 Compute integral first derivatives, UseDBF=F ICtDFT=           0.
 Calling FoFJK, ICntrl=      2127 FMM=F ISym2X=0 I1Cent= 0 IOpClX= 0 NMat=1 NMatS=1 NMatT=0.
 FoFJK:  IHMeth= 1 ICntrl=    2127 DoSepK=F KAlg= 0 I1Cent=           0 FoldK=F
 IRaf=         0 NMat=       1 IRICut=       1 DoRegI=T DoRafI=F ISym2E= 0 IDoP0=0 IntGTp=1.
 FoFCou: FMM=F IPFlag=           0 FMFlag=      100000 FMFlg1=         800
         NFxFlg=           0 DoJE=F BraDBF=F KetDBF=F FulRan=T
         wScrn=  0.000000 ICntrl=      2127 IOpCl=  0 I1Cent=           0 NGrid=           0
         NMat0=    1 NMatS0=      1 NMatT0=    0 NMatD0=    1 NMtDS0=    0 NMtDT0=    0
 Symmetry not used in FoFCou.
 Leave Link  703 at Sun Jun 18 21:45:16 2023, MaxMem= 16106127360 cpu:              42.8 elap:               1.4
 (Enter /public/software/apps/Gaussian/g16/l716.exe)
 Dipole        =-8.05092095D-01 7.20533893D-02 9.25632021D-02
 ***** Axes restored to original set *****
 -------------------------------------------------------------------
 Center     Atomic                   Forces (Hartrees/Bohr)
 Number     Number              X              Y              Z
 -------------------------------------------------------------------
      1        8           0.003466870    0.028761996    0.000318435
      2        6          -0.011549682   -0.053190132    0.014736088
      3        6          -0.000059325    0.011150709   -0.000723597
      4        6           0.011508894    0.003332005   -0.031716757
      5        6           0.023836033    0.032613723    0.039611363
      6        6          -0.077117268   -0.022139507   -0.080633976
      7        8           0.013998369   -0.008922951    0.047987969
      8        6          -0.003447744    0.007902982   -0.008135018
      9        6           0.030520626    0.012725694    0.024232334
     10        1           0.003819646   -0.000739238   -0.003515404
     11        1           0.002745742   -0.005698452    0.004647040
     12        1           0.000078696   -0.004413284    0.001587519
     13        1           0.004911522    0.000712817    0.000862987
     14        1          -0.002712379   -0.002096361   -0.009258982
 -------------------------------------------------------------------
 Cartesian Forces:  Max     0.080633976 RMS     0.024912698
 Leave Link  716 at Sun Jun 18 21:45:16 2023, MaxMem= 16106127360 cpu:               1.0 elap:               0.0
 (Enter /public/software/apps/Gaussian/g16/l103.exe)

 GradGradGradGradGradGradGradGradGradGradGradGradGradGradGradGradGradGrad
 Berny optimization.
 FormGI is forming the generalized inverse of G from B-inverse, IUseBI=4.
 Internal  Forces:  Max     0.034407316 RMS     0.008820674
 Search for a local minimum.
 Step number   1 out of a maximum of  100
 All quantities printed in internal units (Hartrees-Bohrs-Radians)
 RMS Force = .88207D-02 SwitMx=.10000D-02 MixMth= 1
 Mixed Optimization -- RFO/linear search
 Second derivative matrix not updated -- first step.
 ITU=  0
     Eigenvalues ---    0.00438   0.01292   0.01543   0.01954   0.02104
     Eigenvalues ---    0.02745   0.03177   0.03570   0.04271   0.05247
     Eigenvalues ---    0.05893   0.06049   0.06880   0.10467   0.11511
     Eigenvalues ---    0.13628   0.14703   0.15794   0.15983   0.17389
     Eigenvalues ---    0.20594   0.21665   0.23474   0.25587   0.27476
     Eigenvalues ---    0.28919   0.30320   0.30763   0.34877   0.34970
     Eigenvalues ---    0.35018   0.35571   0.35651   0.37404   0.52756
     Eigenvalues ---    1.07195
 RFO step:  Lambda=-3.76836112D-02 EMin= 4.38394403D-03
 Linear search not attempted -- first point.
 Maximum step size (   0.300) exceeded in Quadratic search.
    -- Step size scaled by   0.897
 Iteration  1 RMS(Cart)=  0.03196146 RMS(Int)=  0.00257038
 Iteration  2 RMS(Cart)=  0.00199407 RMS(Int)=  0.00175457
 Iteration  3 RMS(Cart)=  0.00000388 RMS(Int)=  0.00175457
 Iteration  4 RMS(Cart)=  0.00000001 RMS(Int)=  0.00175457
 ITry= 1 IFail=0 DXMaxC= 1.51D-01 DCOld= 1.00D+10 DXMaxT= 3.00D-01 DXLimC= 3.00D+00 Rises=F
 Variable       Old X    -DE/DX   Delta X   Delta X   Delta X     New X
                                 (Linear)    (Quad)   (Total)
    R1        2.25888  -0.02880   0.00000  -0.02327  -0.02327   2.23561
    R2        2.92992   0.01167   0.00000   0.02505   0.02446   2.95438
    R3        2.86722   0.01167   0.00000   0.02592   0.02607   2.89329
    R4        2.85104  -0.00486   0.00000   0.00338   0.00146   2.85250
    R5        3.05686  -0.00895   0.00000  -0.01435  -0.01620   3.04066
    R6        2.05723  -0.00138   0.00000  -0.00320  -0.00320   2.05402
    R7        2.52507   0.00590   0.00000   0.01379   0.01432   2.53938
    R8        2.04757   0.00043   0.00000   0.00097   0.00097   2.04854
    R9        2.84885  -0.01300   0.00000  -0.04310  -0.04063   2.80823
   R10        2.04631   0.00015   0.00000   0.00034   0.00034   2.04665
   R11        2.78624  -0.03441   0.00000  -0.10777  -0.10441   2.68184
   R12        2.99732  -0.02087   0.00000  -0.08360  -0.08017   2.91715
   R13        2.67510  -0.00064   0.00000   0.00954   0.00745   2.68256
   R14        2.94555  -0.00012   0.00000   0.02001   0.01688   2.96243
   R15        2.05876  -0.00130   0.00000  -0.00303  -0.00303   2.05573
   R16        2.05646   0.00124   0.00000   0.00286   0.00286   2.05932
    A1        2.33838   0.00806   0.00000   0.02614   0.02587   2.36425
    A2        2.34854   0.00237   0.00000   0.00542   0.00587   2.35441
    A3        1.58133  -0.01088   0.00000  -0.03726  -0.03786   1.54347
    A4        1.81322  -0.00253   0.00000  -0.01962  -0.01922   1.79399
    A5        1.48801   0.00802   0.00000   0.04464   0.04447   1.53248
    A6        2.06813  -0.00294   0.00000  -0.01746  -0.01739   2.05074
    A7        1.91186  -0.00673   0.00000  -0.01871  -0.02040   1.89146
    A8        2.01686   0.00490   0.00000   0.02275   0.02334   2.04020
    A9        2.08705  -0.00095   0.00000  -0.01129  -0.01045   2.07661
   A10        2.00510   0.01100   0.00000   0.04008   0.03915   2.04424
   A11        2.10360  -0.00270   0.00000  -0.00769  -0.00771   2.09589
   A12        2.17372  -0.00839   0.00000  -0.03417  -0.03413   2.13959
   A13        1.98015  -0.02491   0.00000  -0.11702  -0.11436   1.86579
   A14        2.17692   0.01155   0.00000   0.05555   0.05345   2.23037
   A15        2.11793   0.01391   0.00000   0.06833   0.06642   2.18434
   A16        1.83569   0.00395   0.00000   0.02053   0.00957   1.84527
   A17        1.96965   0.02193   0.00000   0.10756   0.10615   2.07580
   A18        1.57924   0.01651   0.00000   0.09194   0.09077   1.67001
   A19        1.52773  -0.00492   0.00000  -0.04730  -0.04620   1.48153
   A20        2.01792  -0.00596   0.00000  -0.03666  -0.03677   1.98115
   A21        1.51310   0.00035   0.00000  -0.01977  -0.01950   1.49361
   A22        2.02391   0.00262   0.00000   0.02943   0.02933   2.05324
   A23        1.63783  -0.00251   0.00000   0.01555   0.01357   1.65140
   A24        1.99615   0.00482   0.00000   0.01074   0.01199   2.00814
   A25        2.20774  -0.00218   0.00000  -0.01380  -0.01345   2.19429
   A26        1.99790  -0.00524   0.00000  -0.04444  -0.04376   1.95414
   A27        1.54417   0.00538   0.00000   0.03499   0.03470   1.57887
   A28        2.13305   0.00008   0.00000   0.00565   0.00617   2.13922
   A29        1.37804  -0.00913   0.00000  -0.05306  -0.05151   1.32652
   A30        2.03451   0.00698   0.00000   0.05382   0.05221   2.08672
   A31        2.19887  -0.00253   0.00000  -0.03178  -0.03161   2.16726
    D1        1.80156   0.00390   0.00000   0.01539   0.01726   1.81882
    D2       -2.57957  -0.00115   0.00000   0.00657   0.00620  -2.57337
    D3       -0.46361   0.00175   0.00000   0.01550   0.01572  -0.44789
    D4       -1.51164   0.00088   0.00000  -0.01884  -0.01665  -1.52829
    D5        0.39041  -0.00417   0.00000  -0.02767  -0.02771   0.36270
    D6        2.50637  -0.00127   0.00000  -0.01873  -0.01819   2.48818
    D7       -2.37338  -0.00361   0.00000  -0.03490  -0.03382  -2.40720
    D8        2.56356   0.00326   0.00000   0.00143   0.00209   2.56566
    D9        0.24778   0.00203   0.00000   0.01059   0.01056   0.25834
   D10        0.94155  -0.00152   0.00000  -0.00380  -0.00368   0.93787
   D11       -0.40470   0.00535   0.00000   0.03253   0.03223  -0.37247
   D12       -2.72048   0.00412   0.00000   0.04169   0.04070  -2.67979
   D13        1.03580   0.00366   0.00000   0.02510   0.02555   1.06135
   D14       -2.06559   0.00640   0.00000   0.07256   0.07240  -1.99320
   D15       -0.53237  -0.00253   0.00000  -0.01197  -0.01107  -0.54344
   D16        2.64942   0.00022   0.00000   0.03549   0.03578   2.68520
   D17       -2.95175   0.00124   0.00000   0.00201   0.00308  -2.94868
   D18        0.23003   0.00398   0.00000   0.04947   0.04993   0.27996
   D19       -1.99766   0.00477   0.00000   0.01623   0.01760  -1.98006
   D20       -0.38014   0.00237   0.00000   0.02535   0.02531  -0.35482
   D21        1.87798   0.00090   0.00000   0.00741   0.00745   1.88543
   D22       -0.19875   0.00487   0.00000   0.01087   0.01198  -0.18676
   D23        1.41878   0.00247   0.00000   0.01999   0.01970   1.43848
   D24       -2.60629   0.00100   0.00000   0.00205   0.00183  -2.60445
   D25        2.18724   0.00356   0.00000   0.01220   0.01342   2.20065
   D26       -2.47842   0.00116   0.00000   0.02133   0.02113  -2.45729
   D27       -0.22030  -0.00030   0.00000   0.00338   0.00327  -0.21704
   D28        0.14821  -0.00097   0.00000  -0.01299  -0.01381   0.13439
   D29       -3.12950   0.00442   0.00000   0.04776   0.04621  -3.08329
   D30       -3.03542  -0.00366   0.00000  -0.06182  -0.06118  -3.09660
   D31       -0.02994   0.00172   0.00000  -0.00108  -0.00116  -0.03110
   D32        1.01493   0.01902   0.00000   0.10707   0.10756   1.12249
   D33       -0.68000  -0.00864   0.00000  -0.04158  -0.04507  -0.72507
   D34       -1.99570   0.01390   0.00000   0.04906   0.05014  -1.94557
   D35        2.59255  -0.01376   0.00000  -0.09958  -0.10248   2.49007
   D36       -1.58175  -0.02636   0.00000  -0.14345  -0.14537  -1.72712
   D37        0.40570   0.00200   0.00000  -0.00087   0.00028   0.40598
   D38        0.03724   0.00925   0.00000   0.05147   0.05354   0.09078
   D39        1.48913   0.01223   0.00000   0.07650   0.08077   1.56990
   D40       -2.61462   0.00584   0.00000   0.02162   0.02387  -2.59075
   D41       -1.82535  -0.00535   0.00000  -0.02623  -0.02964  -1.85500
   D42       -0.37347  -0.00237   0.00000  -0.00121  -0.00240  -0.37587
   D43        1.80597  -0.00876   0.00000  -0.05609  -0.05930   1.74666
   D44        1.12466   0.00001   0.00000  -0.00040  -0.00182   1.12284
   D45       -0.41423   0.00113   0.00000   0.01602   0.01552  -0.39871
   D46       -2.73936   0.00299   0.00000   0.01656   0.01606  -2.72329
   D47        0.38763  -0.00224   0.00000  -0.02497  -0.02524   0.36239
   D48       -1.62478   0.00326   0.00000   0.02216   0.02283  -1.60195
   D49        2.65255   0.00139   0.00000  -0.00312  -0.00364   2.64891
   D50        2.40313  -0.00813   0.00000  -0.06316  -0.06368   2.33945
   D51        0.39071  -0.00263   0.00000  -0.01602  -0.01561   0.37511
   D52       -1.61513  -0.00450   0.00000  -0.04130  -0.04208  -1.65722
   D53       -1.70990  -0.00513   0.00000  -0.04184  -0.04249  -1.75239
   D54        2.56087   0.00037   0.00000   0.00529   0.00559   2.56645
   D55        0.55502  -0.00150   0.00000  -0.01999  -0.02089   0.53413
         Item               Value     Threshold  Converged?
 Maximum Force            0.034407     0.000450     NO 
 RMS     Force            0.008821     0.000300     NO 
 Maximum Displacement     0.150857     0.001800     NO 
 RMS     Displacement     0.032368     0.001200     NO 
 Predicted change in Energy=-2.247402D-02
 Lowest energy point so far.  Saving SCF results.
 GradGradGradGradGradGradGradGradGradGradGradGradGradGradGradGradGradGrad

 Leave Link  103 at Sun Jun 18 21:45:17 2023, MaxMem= 16106127360 cpu:               2.3 elap:               0.1
 (Enter /public/software/apps/Gaussian/g16/l202.exe)
                          Input orientation:                          
 ---------------------------------------------------------------------
 Center     Atomic      Atomic             Coordinates (Angstroms)
 Number     Number       Type             X           Y           Z
 ---------------------------------------------------------------------
      1          8           0       -0.051414   -0.015520    0.022060
      2          6           0       -0.032245    1.166326    0.071459
      3          6           0       -1.101377    2.303085   -0.022991
      4          6           0       -1.254936    2.737605    1.414416
      5          6           0       -0.161780    3.220997    2.028499
      6          6           0        0.892805    3.356124    0.990263
      7          8           0        0.413211    4.333363    0.079752
      8          6           0        0.025808    3.221127   -0.712692
      9          6           0        1.055408    2.235932   -0.059356
     10          1           0       -2.014609    2.088787   -0.572106
     11          1           0       -2.193699    2.578918    1.932770
     12          1           0       -0.063820    3.532610    3.061104
     13          1           0       -0.070931    3.424990   -1.776878
     14          1           0        2.042405    2.021914   -0.468719
 ---------------------------------------------------------------------
                    Distance matrix (angstroms):
                    1          2          3          4          5
     1  O    0.000000
     2  C    1.183034   0.000000
     3  C    2.545659   1.563388   0.000000
     4  C    3.311618   2.401546   1.509479   0.000000
     5  C    3.809595   2.840502   2.435983   1.343784   0.000000
     6  C    3.632761   2.548555   2.472314   2.274921   1.486049
     7  O    4.374013   3.198222   2.535067   2.666550   2.316374
     8  C    3.319896   2.200107   1.609048   2.529563   2.747602
     9  C    2.510123   1.531064   2.158136   2.785923   2.609796
    10  H    2.938584   2.279227   1.086943   2.223587   3.387923
    11  H    3.869278   3.183045   2.257045   1.084043   2.133102
    12  H    4.671742   3.812908   3.478490   2.182286   1.083039
    13  H    3.882483   2.918802   2.323061   3.472567   3.811923
    14  H    2.962446   2.308246   3.187648   3.864049   3.540103
                    6          7          8          9         10
     6  C    0.000000
     7  O    1.419168   0.000000
     8  C    1.915715   1.419549   0.000000
     9  C    1.543688   2.197950   1.567652   0.000000
    10  H    3.535562   3.370067   2.337789   3.116018   0.000000
    11  H    3.319470   3.647977   3.512423   3.826605   2.558654
    12  H    2.287938   3.123655   3.787689   3.559679   4.369258
    13  H    2.930972   2.122877   1.087846   2.373263   2.648546
    14  H    2.286991   2.880606   2.358877   1.089746   4.058883
                   11         12         13         14
    11  H    0.000000
    12  H    2.592113   0.000000
    13  H    4.357003   4.839183   0.000000
    14  H    4.901223   4.379274   2.854136   0.000000
 Stoichiometry    C7H5O2(1+)
 Framework group  C1[X(C7H5O2)]
 Deg. of freedom    36
 Full point group                 C1      NOp   1
 RotChk:  IX=0 Diff= 5.67D-02
 Largest Abelian subgroup         C1      NOp   1
 Largest concise Abelian subgroup C1      NOp   1
                         Standard orientation:                         
 ---------------------------------------------------------------------
 Center     Atomic      Atomic             Coordinates (Angstroms)
 Number     Number       Type             X           Y           Z
 ---------------------------------------------------------------------
      1          8           0        2.522055    0.072322   -0.340969
      2          6           0        1.368855   -0.071292   -0.119440
      3          6           0        0.393917    0.348358    1.028415
      4          6           0       -0.371258    1.495437    0.414214
      5          6           0       -1.090274    1.230951   -0.689788
      6          6           0       -1.055946   -0.241792   -0.885210
      7          8           0       -1.726068   -0.794454    0.237082
      8          6           0       -0.420291   -1.011264    0.749973
      9          6           0        0.272061   -0.994799   -0.656409
     10          1           0        0.820967    0.514005    2.014130
     11          1           0       -0.263071    2.497046    0.814495
     12          1           0       -1.658340    1.927155   -1.294414
     13          1           0       -0.341242   -1.806944    1.487572
     14          1           0        0.491394   -1.887796   -1.241214
 ---------------------------------------------------------------------
 Rotational constants (GHZ):           3.2927837           1.9073735           1.6371873
 Leave Link  202 at Sun Jun 18 21:45:17 2023, MaxMem= 16106127360 cpu:               1.1 elap:               0.1
 (Enter /public/software/apps/Gaussian/g16/l301.exe)
 Standard basis: 6-311+G(d,p) (5D, 7F)
 Ernie: Thresh=  0.10000D-02 Tol=  0.10000D-05 Strict=F.
 There are   237 symmetry adapted cartesian basis functions of A   symmetry.
 There are   228 symmetry adapted basis functions of A   symmetry.
   228 basis functions,   364 primitive gaussians,   237 cartesian basis functions
    31 alpha electrons       31 beta electrons
       nuclear repulsion energy       429.4153258249 Hartrees.
 IExCor=  402 DFT=T Ex+Corr=B3LYP ExCW=0 ScaHFX=  0.200000
 ScaDFX=  0.800000  0.720000  1.000000  0.810000 ScalE2=  1.000000  1.000000
 IRadAn=      5 IRanWt=     -1 IRanGd=            0 ICorTp=0 IEmpDi=141
 NAtoms=   14 NActive=   14 NUniq=   14 SFac= 1.00D+00 NAtFMM=   60 NAOKFM=F Big=F
 Integral buffers will be    131072 words long.
 Raffenetti 2 integral format.
 Two-electron integral symmetry is turned on.
 R6Disp:  Grimme-D3(BJ) Dispersion energy=       -0.0257241281 Hartrees.
 Nuclear repulsion after empirical dispersion term =      429.3896016968 Hartrees.
 Leave Link  301 at Sun Jun 18 21:45:17 2023, MaxMem= 16106127360 cpu:               0.6 elap:               0.0
 (Enter /public/software/apps/Gaussian/g16/l302.exe)
 NPDir=0 NMtPBC=     1 NCelOv=     1 NCel=       1 NClECP=     1 NCelD=      1
         NCelK=      1 NCelE2=     1 NClLst=     1 CellRange=     0.0.
 One-electron integrals computed using PRISM.
 One-electron integral symmetry used in STVInt
 NBasis=   228 RedAO= T EigKep=  7.37D-06  NBF=   228
 NBsUse=   228 1.00D-06 EigRej= -1.00D+00 NBFU=   228
 Precomputing XC quadrature grid using
 IXCGrd= 4 IRadAn=           5 IRanWt=          -1 IRanGd=           0 AccXCQ= 0.00D+00.
 Generated NRdTot=       0 NPtTot=           0 NUsed=           0 NTot=          32
 NSgBfM=   237   237   237   237   237 MxSgAt=    14 MxSgA2=    14.
 Leave Link  302 at Sun Jun 18 21:45:17 2023, MaxMem= 16106127360 cpu:               3.1 elap:               0.1
 (Enter /public/software/apps/Gaussian/g16/l303.exe)
 DipDrv:  MaxL=1.
 Leave Link  303 at Sun Jun 18 21:45:17 2023, MaxMem= 16106127360 cpu:               0.4 elap:               0.0
 (Enter /public/software/apps/Gaussian/g16/l401.exe)
 Initial guess from the checkpoint file:  "dsgdb9nsd_042726-4.chk"
 B after Tr=     0.000000   -0.000000    0.000000
         Rot=    0.999803   -0.017205    0.007812   -0.006014 Ang=  -2.27 deg.
 Guess basis will be translated and rotated to current coordinates.
 JPrj=2 DoOrth=T DoCkMO=T.
 Generating alternative initial guess.
 ExpMin= 4.38D-02 ExpMax= 8.59D+03 ExpMxC= 1.30D+03 IAcc=3 IRadAn=         5 AccDes= 0.00D+00
 Harris functional with IExCor=  402 and IRadAn=       5 diagonalized for initial guess.
 HarFok:  IExCor=  402 AccDes= 0.00D+00 IRadAn=         5 IDoV= 1 UseB2=F ITyADJ=14
 ICtDFT=  3500011 ScaDFX=  1.000000  1.000000  1.000000  1.000000
 FoFCou: FMM=F IPFlag=           0 FMFlag=      100000 FMFlg1=           0
         NFxFlg=           0 DoJE=T BraDBF=F KetDBF=T FulRan=T
         wScrn=  0.000000 ICntrl=       500 IOpCl=  0 I1Cent=   200000004 NGrid=           0
         NMat0=    1 NMatS0=      1 NMatT0=    0 NMatD0=    1 NMtDS0=    0 NMtDT0=    0
 Petite list used in FoFCou.
 Harris En= -419.892964498773    
 Leave Link  401 at Sun Jun 18 21:45:18 2023, MaxMem= 16106127360 cpu:              25.7 elap:               0.9
 (Enter /public/software/apps/Gaussian/g16/l502.exe)
 Integral symmetry usage will be decided dynamically.
 Closed shell SCF:
 Using DIIS extrapolation, IDIIS=  1040.
 NGot= 16106127360 LenX= 16106004792 LenY= 16105948182
 Requested convergence on RMS density matrix=1.00D-08 within 128 cycles.
 Requested convergence on MAX density matrix=1.00D-06.
 Requested convergence on             energy=1.00D-06.
 No special actions if energy rises.
 Fock matrices will be formed incrementally for  20 cycles.

 Cycle   1  Pass 1  IDiag  1:
 FoFJK:  IHMeth= 1 ICntrl=       0 DoSepK=F KAlg= 0 I1Cent=           0 FoldK=F
 IRaf= 980000000 NMat=       1 IRICut=       1 DoRegI=T DoRafI=F ISym2E= 0 IDoP0=0 IntGTp=1.
 FoFCou: FMM=F IPFlag=           0 FMFlag=      100000 FMFlg1=           0
         NFxFlg=           0 DoJE=F BraDBF=F KetDBF=F FulRan=T
         wScrn=  0.000000 ICntrl=         0 IOpCl=  0 I1Cent=           0 NGrid=           0
         NMat0=    1 NMatS0=      1 NMatT0=    0 NMatD0=    1 NMtDS0=    0 NMtDT0=    0
 Symmetry not used in FoFCou.
 E= -419.834764487145    
 DIIS: error= 3.61D-03 at cycle   1 NSaved=   1.
 NSaved= 1 IEnMin= 1 EnMin= -419.834764487145     IErMin= 1 ErrMin= 3.61D-03
 ErrMax= 3.61D-03  0.00D+00 EMaxC= 1.00D-01 BMatC= 7.38D-03 BMatP= 7.38D-03
 IDIUse=3 WtCom= 9.64D-01 WtEn= 3.61D-02
 Coeff-Com:  0.100D+01
 Coeff-En:   0.100D+01
 Coeff:      0.100D+01
 Gap=     0.582 Goal=   None    Shift=    0.000
 GapD=    0.582 DampG=2.000 DampE=1.000 DampFc=2.0000 IDamp=-1.
 RMSDP=2.39D-03 MaxDP=1.29D-01              OVMax= 2.86D-02

 Cycle   2  Pass 1  IDiag  1:
 RMSU=  2.37D-03    CP:  1.01D+00
 E= -419.844575586119     Delta-E=       -0.009811098975 Rises=F Damp=F
 DIIS: error= 1.18D-03 at cycle   2 NSaved=   2.
 NSaved= 2 IEnMin= 2 EnMin= -419.844575586119     IErMin= 2 ErrMin= 1.18D-03
 ErrMax= 1.18D-03  0.00D+00 EMaxC= 1.00D-01 BMatC= 7.11D-04 BMatP= 7.38D-03
 IDIUse=3 WtCom= 9.88D-01 WtEn= 1.18D-02
 Coeff-Com:  0.106D+00 0.894D+00
 Coeff-En:   0.000D+00 0.100D+01
 Coeff:      0.105D+00 0.895D+00
 Gap=     0.095 Goal=   None    Shift=    0.000
 RMSDP=8.01D-04 MaxDP=5.84D-02 DE=-9.81D-03 OVMax= 3.00D-02

 Cycle   3  Pass 1  IDiag  1:
 RMSU=  6.72D-04    CP:  9.95D-01  9.46D-01
 E= -419.843538742036     Delta-E=        0.001036844084 Rises=F Damp=F
 DIIS: error= 2.00D-03 at cycle   3 NSaved=   3.
 NSaved= 3 IEnMin= 2 EnMin= -419.844575586119     IErMin= 2 ErrMin= 1.18D-03
 ErrMax= 2.00D-03  0.00D+00 EMaxC= 1.00D-01 BMatC= 1.89D-03 BMatP= 7.11D-04
 IDIUse=3 WtCom= 1.83D-01 WtEn= 8.17D-01
 Coeff-Com: -0.204D-01 0.635D+00 0.386D+00
 Coeff-En:   0.000D+00 0.682D+00 0.318D+00
 Coeff:     -0.373D-02 0.673D+00 0.330D+00
 Gap=     0.091 Goal=   None    Shift=    0.000
 RMSDP=4.14D-04 MaxDP=3.55D-02 DE= 1.04D-03 OVMax= 1.60D-02

 Cycle   4  Pass 1  IDiag  1:
 RMSU=  1.56D-04    CP:  1.00D+00  9.95D-01  5.16D-01
 E= -419.845236712526     Delta-E=       -0.001697970491 Rises=F Damp=F
 DIIS: error= 3.09D-04 at cycle   4 NSaved=   4.
 NSaved= 4 IEnMin= 4 EnMin= -419.845236712526     IErMin= 4 ErrMin= 3.09D-04
 ErrMax= 3.09D-04  0.00D+00 EMaxC= 1.00D-01 BMatC= 5.86D-05 BMatP= 7.11D-04
 IDIUse=3 WtCom= 9.97D-01 WtEn= 3.09D-03
 Coeff-Com: -0.181D-01 0.327D+00 0.166D+00 0.525D+00
 Coeff-En:   0.000D+00 0.000D+00 0.000D+00 0.100D+01
 Coeff:     -0.181D-01 0.326D+00 0.166D+00 0.526D+00
 Gap=     0.092 Goal=   None    Shift=    0.000
 RMSDP=1.23D-04 MaxDP=8.59D-03 DE=-1.70D-03 OVMax= 4.78D-03

 Cycle   5  Pass 1  IDiag  1:
 RMSU=  7.43D-05    CP:  1.01D+00  1.01D+00  4.53D-01  6.87D-01
 E= -419.845286367659     Delta-E=       -0.000049655133 Rises=F Damp=F
 DIIS: error= 2.01D-04 at cycle   5 NSaved=   5.
 NSaved= 5 IEnMin= 5 EnMin= -419.845286367659     IErMin= 5 ErrMin= 2.01D-04
 ErrMax= 2.01D-04  0.00D+00 EMaxC= 1.00D-01 BMatC= 9.07D-06 BMatP= 5.86D-05
 IDIUse=3 WtCom= 9.98D-01 WtEn= 2.01D-03
 Coeff-Com: -0.875D-02 0.120D+00 0.457D-01 0.317D+00 0.526D+00
 Coeff-En:   0.000D+00 0.000D+00 0.000D+00 0.581D-01 0.942D+00
 Coeff:     -0.873D-02 0.119D+00 0.456D-01 0.317D+00 0.527D+00
 Gap=     0.091 Goal=   None    Shift=    0.000
 RMSDP=2.87D-05 MaxDP=2.14D-03 DE=-4.97D-05 OVMax= 1.38D-03

 Cycle   6  Pass 1  IDiag  1:
 RMSU=  2.03D-05    CP:  1.01D+00  1.01D+00  4.39D-01  7.87D-01  9.48D-01
 E= -419.845293146533     Delta-E=       -0.000006778874 Rises=F Damp=F
 DIIS: error= 1.09D-04 at cycle   6 NSaved=   6.
 NSaved= 6 IEnMin= 6 EnMin= -419.845293146533     IErMin= 6 ErrMin= 1.09D-04
 ErrMax= 1.09D-04  0.00D+00 EMaxC= 1.00D-01 BMatC= 3.20D-06 BMatP= 9.07D-06
 IDIUse=3 WtCom= 9.99D-01 WtEn= 1.09D-03
 Coeff-Com: -0.184D-02 0.185D-01-0.941D-02 0.136D+00 0.385D+00 0.472D+00
 Coeff-En:   0.000D+00 0.000D+00 0.000D+00 0.000D+00 0.189D+00 0.811D+00
 Coeff:     -0.183D-02 0.185D-01-0.940D-02 0.136D+00 0.385D+00 0.472D+00
 Gap=     0.091 Goal=   None    Shift=    0.000
 RMSDP=2.69D-05 MaxDP=1.44D-03 DE=-6.78D-06 OVMax= 1.56D-03

 Cycle   7  Pass 1  IDiag  1:
 RMSU=  1.31D-05    CP:  1.01D+00  1.01D+00  4.61D-01  8.03D-01  9.80D-01
                    CP:  5.69D-01
 E= -419.845295460787     Delta-E=       -0.000002314253 Rises=F Damp=F
 DIIS: error= 3.91D-05 at cycle   7 NSaved=   7.
 NSaved= 7 IEnMin= 7 EnMin= -419.845295460787     IErMin= 7 ErrMin= 3.91D-05
[...]


 Natural Bond Orbitals (Summary):

                                                            Principal Delocalizations
           NBO                        Occupancy    Energy   (geminal,vicinal,remote)
 ====================================================================================
 Molecular unit  1  (C7H5O2)
     1. BD (   1) O   1 - C   2          1.99834    -1.35846  50(g),213(g),214(g)
     2. BD (   2) O   1 - C   2          1.98579    -0.61599  224(v),215(v)
     3. BD (   1) C   2 - C   3          1.92724    -0.79268  219(v),228(v),225(v),33(v)
                                                    218(v),86(v),211(g),170(v)
                                                    215(g),227(v)
     4. BD (   1) C   2 - C   9          1.95308    -0.82153  30(v),217(v),33(v),120(v)
                                                    223(v),211(g),227(v)
     5. BD (   1) C   3 - C   4          1.95339    -0.85540  30(r),212(v),222(v),103(v)
                                                    211(v),227(v),225(v),217(g)
                                                    218(g),152(v)
     6. BD (   1) C   3 - C   8          1.96550    -0.80676  30(r),211(v),228(v),220(v)
                                                    212(v),223(v),225(g),85(v)
     7. BD (   1) C   3 - H  10          1.97597    -0.74187  218(v),219(v),212(v),215(g)
                                                    225(v)
     8. BD (   1) C   4 - C   5          1.96671    -0.86238  30(v),224(v),222(g),68(v)
                                                    120(v),221(g),220(g),67(v)
                                                    223(v)
     9. BD (   2) C   4 - C   5          1.85049    -0.58998  30(v),223(v),212(r),213(v)
                                                    224(v),217(v),222(g),220(g)
                                                    221(g)
    10. BD (   1) C   4 - H  11          1.95444    -0.73624  221(v),216(v),30(r),101(v)
                                                    67(v)
    11. BD (   1) C   5 - C   6          1.98268    -0.91399  30(g),220(v),169(v),85(v)
                                                    135(v),84(v),222(g),225(v)
                                                    218(g)
    12. BD (   1) C   5 - H  12          1.97311    -0.75806  215(v),218(g),219(g),30(v)
                                                    84(v),224(v),121(v)
    13. BD (   1) C   6 - O   7          1.98906    -1.15157  30(g),227(v),225(g),153(v)
                                                    118(g),214(v),103(v),219(v)
                                                    101(v)
    14. BD (   1) C   6 - C   9          1.96724    -0.88770  30(g),227(v),225(v),102(v)
                                                    212(v),228(g),211(v),135(v)
    15. BD (   1) O   7 - C   8          1.90735    -0.96273  30(v),118(v),221(v),223(g)
                                                    122(v),226(g),225(g)
    16. BD (   1) C   8 - C   9          1.86705    -0.77221  30(v),221(v),211(v),223(v)
                                                    212(v),217(v),224(g),69(v)
                                                    228(g),119(v),123(v),227(g)
    17. BD (   1) C   8 - H  13          1.97926    -0.77716  225(g),215(v),30(r),67(v)
                                                    223(v)
    18. BD (   1) C   9 - H  14          1.96399    -0.76938  30(v),221(v),212(v)
    19. CR (   1) O   1                  1.99971   -19.05263  50(v),213(v),214(v)
    20. CR (   1) C   2                  1.99937   -10.37235  169(v),70(v)
    21. CR (   1) C   3                  1.99913   -10.29323  211(v),85(v),186(v)
    22. CR (   1) C   4                  1.99911   -10.28528  103(v),102(v),69(v),191(v)
                                                    222(v),219(g)
    23. CR (   1) C   5                  1.99883   -10.27478  85(v),30(v),120(v),196(v)
                                                    219(g),224(v),215(v),218(g)
    24. CR (   1) C   6                  1.99887   -10.42466  225(v),172(v),223(g)
    25. CR (   1) O   7                  1.99974   -19.18381  118(v),152(v),30(v)
    26. CR (   1) C   8                  1.99917   -10.37830  30(r),225(g),223(v),201(v)
    27. CR (   1) C   9                  1.99897   -10.30904  30(v),120(v),211(v),206(v)
                                                    221(v),54(v),118(v)
    28. LP (   1) O   1                  1.97460    -0.88438  50(v),213(v),214(v),65(v)
    29. LP (   2) O   1                  1.76948    -0.46991  214(v),213(v),51(v),54(v)
                                                    33(g),66(v)
    30. LP*(   1) C   6                  0.59192    -0.37951  224(g),223(g),221(g),222(v)
                                                    228(v),227(r),218(v),214(v)
                                                    219(v),220(r)
    31. LP (   1) O   7                  1.97936    -0.88234  118(v),152(v),224(v),119(v)
                                                    227(v)
    32. LP (   2) O   7                  1.71914    -0.58477  30(v),225(g),216(v),221(v)
                                                    224(v),226(v),227(v),121(v)
                                                    154(v),119(v)
    33. RY*(   1) O   1                  0.00454     0.54714   
    34. RY*(   2) O   1                  0.00117     1.09888   
    35. RY*(   3) O   1                  0.00046     0.61088   
    36. RY*(   4) O   1                  0.00014     0.98097   
    37. RY*(   5) O   1                  0.00010     1.19373   
    38. RY*(   6) O   1                  0.00005     0.96512   
    39. RY*(   7) O   1                  0.00002     4.13716   
    40. RY*(   8) O   1                  0.00002     1.11403   
    41. RY*(   9) O   1                  0.00001     0.88417   
    42. RY*(  10) O   1                  0.00000    49.36520   
    43. RY*(  11) O   1                  0.00000     4.76740   
    44. RY*(  12) O   1                  0.00000     4.80942   
    45. RY*(  13) O   1                  0.00000     2.94800   
    46. RY*(  14) O   1                  0.00000     3.19282   
    47. RY*(  15) O   1                  0.00000     2.62763   
    48. RY*(  16) O   1                  0.00000     3.51999   
    49. RY*(  17) O   1                  0.00000     2.66224   
    50. RY*(   1) C   2                  0.02027     0.47101   
    51. RY*(   2) C   2                  0.00608     1.77364   
    52. RY*(   3) C   2                  0.00345     1.12296   
    53. RY*(   4) C   2                  0.00299     1.30015   
    54. RY*(   5) C   2                  0.00097     1.10827   
    55. RY*(   6) C   2                  0.00079     0.69170   
    56. RY*(   7) C   2                  0.00035     1.29487   
    57. RY*(   8) C   2                  0.00031     1.26028   
    58. RY*(   9) C   2                  0.00014     1.87878   
    59. RY*(  10) C   2                  0.00009     2.05058   
    60. RY*(  11) C   2                  0.00006     3.61552   
    61. RY*(  12) C   2                  0.00007     0.57488   
    62. RY*(  13) C   2                  0.00002     0.86991   
    63. RY*(  14) C   2                  0.00002    18.51207   
    64. RY*(  15) C   2                  0.00000     2.79078   
    65. RY*(  16) C   2                  0.00001     3.02845   
    66. RY*(  17) C   2                  0.00000     0.58177   
    67. RY*(   1) C   3                  0.00346     0.57808   
    68. RY*(   2) C   3                  0.00275     0.71790   
    69. RY*(   3) C   3                  0.00176     0.96397   
    70. RY*(   4) C   3                  0.00118     0.65117   
    71. RY*(   5) C   3                  0.00086     1.38832   
    72. RY*(   6) C   3                  0.00053     1.34343   
    73. RY*(   7) C   3                  0.00045     1.13108   
    74. RY*(   8) C   3                  0.00027     1.29389   
    75. RY*(   9) C   3                  0.00017     1.48506   
    76. RY*(  10) C   3                  0.00010     2.16829   
    77. RY*(  11) C   3                  0.00010     0.47017   
    78. RY*(  12) C   3                  0.00005     3.12894   
    79. RY*(  13) C   3                  0.00003     3.47440   
    80. RY*(  14) C   3                  0.00001     2.48138   
    81. RY*(  15) C   3                  0.00001     1.12334   
    82. RY*(  16) C   3                  0.00001     1.47410   
    83. RY*(  17) C   3                  0.00000    21.23053   
    84. RY*(   1) C   4                  0.00436     0.69749   
    85. RY*(   2) C   4                  0.00212     0.83628   
    86. RY*(   3) C   4                  0.00165     0.66709   
    87. RY*(   4) C   4                  0.00056     0.89928   
    88. RY*(   5) C   4                  0.00028     2.04349   
    89. RY*(   6) C   4                  0.00019     0.74060   
    90. RY*(   7) C   4                  0.00013     0.64187   
    91. RY*(   8) C   4                  0.00008     1.94665   
    92. RY*(   9) C   4                  0.00007     1.62077   
    93. RY*(  10) C   4                  0.00005     1.66785   
    94. RY*(  11) C   4                  0.00005     1.81253   
    95. RY*(  12) C   4                  0.00002     3.88989   
    96. RY*(  13) C   4                  0.00000     1.42646   
    97. RY*(  14) C   4                  0.00000     2.23579   
    98. RY*(  15) C   4                  0.00000    20.68379   
    99. RY*(  16) C   4                  0.00001     1.43953   
   100. RY*(  17) C   4                  0.00001     1.47130   
   101. RY*(   1) C   5                  0.00335     0.91451   
   102. RY*(   2) C   5                  0.00267     0.52685   
   103. RY*(   3) C   5                  0.00247     0.64195   
   104. RY*(   4) C   5                  0.00060     1.25451   
   105. RY*(   5) C   5                  0.00032     1.43752   
   106. RY*(   6) C   5                  0.00024     0.68619   
   107. RY*(   7) C   5                  0.00019     0.99843   
   108. RY*(   8) C   5                  0.00011     1.59681   
   109. RY*(   9) C   5                  0.00006     0.99122   
   110. RY*(  10) C   5                  0.00006     1.10533   
   111. RY*(  11) C   5                  0.00003     1.13489   
   112. RY*(  12) C   5                  0.00001     2.71389   
   113. RY*(  13) C   5                  0.00001     2.97725   
   114. RY*(  14) C   5                  0.00000     2.19806   
   115. RY*(  15) C   5                  0.00000     0.61379   
   116. RY*(  16) C   5                  0.00000    20.35894   
   117. RY*(  17) C   5                  0.00000     1.91038   
   118. RY*(   1) C   6                  0.00819     0.60235   
   119. RY*(   2) C   6                  0.00407     1.23192   
   120. RY*(   3) C   6                  0.00373     1.02205   
   121. RY*(   4) C   6                  0.00270     1.05102   
   122. RY*(   5) C   6                  0.00183     1.38149   
   123. RY*(   6) C   6                  0.00169     1.09720   
   124. RY*(   7) C   6                  0.00113     0.97879   
   125. RY*(   8) C   6                  0.00031     1.57135   
   126. RY*(   9) C   6                  0.00022     1.97453   
   127. RY*(  10) C   6                  0.00014     2.64791   
   128. RY*(  11) C   6                  0.00007     0.44871   
   129. RY*(  12) C   6                  0.00003     1.99027   
   130. RY*(  13) C   6                  0.00004     4.18859   
   131. RY*(  14) C   6                  0.00001     1.50956   
   132. RY*(  15) C   6                  0.00000     2.37925   
   133. RY*(  16) C   6                  0.00000    19.66610   
   134. RY*(  17) C   6                  0.00001     0.96099   
   135. RY*(   1) O   7                  0.00401     0.55802   
   136. RY*(   2) O   7                  0.00127     1.09449   
   137. RY*(   3) O   7                  0.00064     0.84197   
   138. RY*(   4) O   7                  0.00049     0.94561   
   139. RY*(   5) O   7                  0.00018     1.81574   
   140. RY*(   6) O   7                  0.00012     1.29926   
   141. RY*(   7) O   7                  0.00005     2.83916   
   142. RY*(   8) O   7                  0.00005     1.03330   
   143. RY*(   9) O   7                  0.00002     2.55901   
   144. RY*(  10) O   7                  0.00003     2.36277   
   145. RY*(  11) O   7                  0.00001     2.35797   
   146. RY*(  12) O   7                  0.00000     4.67343   
   147. RY*(  13) O   7                  0.00000     4.00209   
   148. RY*(  14) O   7                  0.00000     4.76700   
   149. RY*(  15) O   7                  0.00001     2.50648   
   150. RY*(  16) O   7                  0.00000    49.25358   
   151. RY*(  17) O   7                  0.00001     1.75549   
   152. RY*(   1) C   8                  0.00525     0.70952   
   153. RY*(   2) C   8                  0.00286     0.97512   
   154. RY*(   3) C   8                  0.00186     1.16466   
   155. RY*(   4) C   8                  0.00106     1.09259   
   156. RY*(   5) C   8                  0.00081     1.18366   
   157. RY*(   6) C   8                  0.00076     1.13893   
   158. RY*(   7) C   8                  0.00058     1.46322   
   159. RY*(   8) C   8                  0.00029     1.63373   
   160. RY*(   9) C   8                  0.00013     2.30381   
   161. RY*(  10) C   8                  0.00008     2.15888   
   162. RY*(  11) C   8                  0.00005     1.67758   
   163. RY*(  12) C   8                  0.00002     0.84966   
   164. RY*(  13) C   8                  0.00002     2.43252   
   165. RY*(  14) C   8                  0.00003     1.52154   
   166. RY*(  15) C   8                  0.00000     1.39512   
   167. RY*(  16) C   8                  0.00000    21.72897   
   168. RY*(  17) C   8                  0.00001     0.85770   
   169. RY*(   1) C   9                  0.00368     0.69012   
   170. RY*(   2) C   9                  0.00230     0.74793   
   171. RY*(   3) C   9                  0.00211     0.67564   
   172. RY*(   4) C   9                  0.00084     0.78651   
   173. RY*(   5) C   9                  0.00079     1.36343   
   174. RY*(   6) C   9                  0.00057     0.98842   
   175. RY*(   7) C   9                  0.00055     1.45877   
   176. RY*(   8) C   9                  0.00039     0.94627   
   177. RY*(   9) C   9                  0.00016     0.83920   
   178. RY*(  10) C   9                  0.00009     1.13237   
   179. RY*(  11) C   9                  0.00005     1.67921   
   180. RY*(  12) C   9                  0.00004     1.68483   
   181. RY*(  13) C   9                  0.00002     2.91142   
   182. RY*(  14) C   9                  0.00000    21.59648   
   183. RY*(  15) C   9                  0.00001     0.80976   
   184. RY*(  16) C   9                  0.00001     1.89782   
   185. RY*(  17) C   9                  0.00001     2.62276   
   186. RY*(   1) H  10                  0.00067     1.62730   
   187. RY*(   2) H  10                  0.00025     0.77313   
   188. RY*(   3) H  10                  0.00011     1.92266   
   189. RY*(   4) H  10                  0.00008     2.18207   
   190. RY*(   5) H  10                  0.00006     1.60893   
   191. RY*(   1) H  11                  0.00043     1.48756   
   192. RY*(   2) H  11                  0.00023     1.16873   
   193. RY*(   3) H  11                  0.00013     1.57076   
   194. RY*(   4) H  11                  0.00009     1.56469   
   195. RY*(   5) H  11                  0.00006     2.19507   
   196. RY*(   1) H  12                  0.00047     1.55389   
   197. RY*(   2) H  12                  0.00037     1.47673   
   198. RY*(   3) H  12                  0.00020     1.38639   
   199. RY*(   4) H  12                  0.00013     1.59370   
   200. RY*(   5) H  12                  0.00002     2.29778   
   201. RY*(   1) H  13                  0.00047     1.40942   
   202. RY*(   2) H  13                  0.00019     1.08015   
   203. RY*(   3) H  13                  0.00015     1.69700   
   204. RY*(   4) H  13                  0.00012     2.18748   
   205. RY*(   5) H  13                  0.00005     1.63076   
   206. RY*(   1) H  14                  0.00073     1.44232   
   207. RY*(   2) H  14                  0.00021     1.62706   
   208. RY*(   3) H  14                  0.00017     1.26670   
   209. RY*(   4) H  14                  0.00014     1.72905   
   210. RY*(   5) H  14                  0.00006     2.28770   
   211. BD*(   1) O   1 - C   2          0.01719     0.46651   
   212. BD*(   2) O   1 - C   2          0.07164    -0.16724   
   213. BD*(   1) C   2 - C   3          0.10041     0.08359  214(g),216(g),226(v),219(v)
                                                    211(g),215(g),53(g),224(v)
   214. BD*(   1) C   2 - C   9          0.10921     0.08725  216(v),213(g),226(g),223(v)
                                                    221(v),169(g),211(g),51(g)
   215. BD*(   1) C   3 - C   4          0.01250     0.16681   
   216. BD*(   1) C   3 - C   8          0.02970     0.06054   
   217. BD*(   1) C   3 - H  10          0.01478     0.22099   
   218. BD*(   1) C   4 - C   5          0.02006     0.25872   
   219. BD*(   2) C   4 - C   5          0.05519    -0.06455   
   220. BD*(   1) C   4 - H  11          0.01349     0.23753   
   221. BD*(   1) C   5 - C   6          0.03289     0.17942   
   222. BD*(   1) C   5 - H  12          0.01603     0.22367   
   223. BD*(   1) C   6 - O   7          0.05470     0.11501   
   224. BD*(   1) C   6 - C   9          0.03691     0.11053   
   225. BD*(   1) O   7 - C   8          0.04278    -0.03263   
   226. BD*(   1) C   8 - C   9          0.00758     0.02627   
   227. BD*(   1) C   8 - H  13          0.02566     0.18213   
   228. BD*(   1) C   9 - H  14          0.01551     0.19182   
       -------------------------------
              Total Lewis   60.59617  ( 97.7358%)
        Valence non-Lewis    1.26813  (  2.0454%)
        Rydberg non-Lewis    0.13570  (  0.2189%)
       -------------------------------
            Total unit  1   62.00000  (100.0000%)
           Charge unit  1    1.00000
 Leave Link  607 at Sun Jun 18 21:47:10 2023, MaxMem= 16106127360 cpu:             145.9 elap:               4.6
 (Enter /public/software/apps/Gaussian/g16/l9999.exe)
 Unable to Open any file for archive entry.
 1\1\GINC-NODE16\SP\RB3LYP\Gen\C7H5O2(1+)\ZTC_HG\18-Jun-2023\0\\#p b3ly
 p/chkbas pop=nbo geom=allcheck guess=tcheck em=gd3bj\\dsgdb9nsd_042726
 -4\\1,1\O,0,-0.0907836706,0.0188004782,0.1786242779\C,0,-0.066161165,1
 .1912919188,0.1191255941\C,0,-1.1259701613,2.3517280648,-0.0614106262\
 C,0,-1.2579420197,2.7815833964,1.3884055365\C,0,-0.1591808807,3.260139
 2488,2.0247445374\C,0,0.7904726102,3.3914428053,0.9165033891\O,0,0.415
 6273872,4.3383085487,0.0625889429\C,0,0.0177560365,3.1967290463,-0.776
 2500261\C,0,1.0688799211,2.2653826297,-0.0232708485\H,0,-2.0459642081,
 2.1396651633,-0.5970217833\H,0,-2.1234511937,2.4383384605,1.9470424702
 \H,0,0.001329687,3.3620560976,3.0879276881\H,0,0.0105898555,3.41850461
 03,-1.8391511687\H,0,2.0496215339,2.0522876231,-0.4402776002\\Version=
 ES64L-G16RevC.01\State=1-A\HF=-419.8584106\RMSD=7.255e-09\Dipole=0.102
 4089,0.7960562,0.031059\Quadrupole=3.1980033,-8.933154,5.7351507,0.917
 5057,-1.08985,0.9212224\PG=C01 [X(C7H5O2)]\\@
 The archive entry for this job was punched.


 Sorry, no quote for you today!
 Job cpu time:       0 days  0 hours  3 minutes  6.7 seconds.
 Elapsed time:       0 days  0 hours  0 minutes  6.0 seconds.
 File lengths (MBytes):  RWF=     45 Int=      0 D2E=      0 Chk=     67 Scr=      2
 Normal termination of Gaussian 16 at Sun Jun 18 21:47:11 2023.
