 Entering Gaussian System, Link 0=/public3/home/scg5914/software-scg5914/g16/g16
 Input=dsgdb9nsd_123508-4.gjf
 Output=dsgdb9nsd_123508-4.log
 Initial command:
 /public3/home/scg5914/software-scg5914/g16/l1.exe "/public3/home/scg5914/software-scg5914/test/tmp/dsgdb9nsd_123508-4/Gau-44557.inp" -scrdir="/public3/home/scg5914/software-scg5914/test/tmp/dsgdb9nsd_123508-4/"
 Entering Link 1 = /public3/home/scg5914/software-scg5914/g16/l1.exe PID=     44558.
  
 Copyright (c) 1988-2019, Gaussian, Inc.  All Rights Reserved.
  
 This is part of the Gaussian(R) 16 program.  It is based on
 the Gaussian(R) 09 system (copyright 2009, Gaussian, Inc.),
 the Gaussian(R) 03 system (copyright 2003, Gaussian, Inc.),
 the Gaussian(R) 98 system (copyright 1998, Gaussian, Inc.),
 the Gaussian(R) 94 system (copyright 1995, Gaussian, Inc.),
 the Gaussian 92(TM) system (copyright 1992, Gaussian, Inc.),
 the Gaussian 90(TM) system (copyright 1990, Gaussian, Inc.),
 the Gaussian 88(TM) system (copyright 1988, Gaussian, Inc.),
 the Gaussian 86(TM) system (copyright 1986, Carnegie Mellon
 University), and the Gaussian 82(TM) system (copyright 1983,
 Carnegie Mellon University). Gaussian is a federally registered
 trademark of Gaussian, Inc.
  
 This software contains proprietary and confidential information,
 including trade secrets, belonging to Gaussian, Inc.
  
 This software is provided under written license and may be
 used, copied, transmitted, or stored only in accord with that
 written license.
  
 The following legend is applicable only to US Government
 contracts under FAR:
  
                    RESTRICTED RIGHTS LEGEND
  
 Use, reproduction and disclosure by the US Government is
 subject to restrictions as set forth in subparagraphs (a)
 and (c) of the Commercial Computer Software - Restricted
 Rights clause in FAR 52.227-19.
  
 Gaussian, Inc.
 340 Quinnipiac St., Bldg. 40, Wallingford CT 06492
  
  
 ---------------------------------------------------------------
 Warning -- This program may not be used in any manner that
 competes with the business of Gaussian, Inc. or will provide
 assistance to any competitor of Gaussian, Inc.  The licensee
 of this program is prohibited from giving any competitor of
 Gaussian, Inc. access to this program.  By using this program,
 the user acknowledges that Gaussian, Inc. is engaged in the
 business of creating and licensing software in the field of
 computational chemistry and represents and warrants to the
 licensee that it is not a competitor of Gaussian, Inc. and that
 it will not use this program in any manner prohibited above.
 ---------------------------------------------------------------
  

 Cite this work as:
 Gaussian 16, Revision C.01,
 M. J. Frisch, G. W. Trucks, H. B. Schlegel, G. E. Scuseria, 
 M. A. Robb, J. R. Cheeseman, G. Scalmani, V. Barone, 
 G. A. Petersson, H. Nakatsuji, X. Li, M. Caricato, A. V. Marenich, 
 J. Bloino, B. G. Janesko, R. Gomperts, B. Mennucci, H. P. Hratchian, 
 J. V. Ortiz, A. F. Izmaylov, J. L. Sonnenberg, D. Williams-Young, 
 F. Ding, F. Lipparini, F. Egidi, J. Goings, B. Peng, A. Petrone, 
 T. Henderson, D. Ranasinghe, V. G. Zakrzewski, J. Gao, N. Rega, 
 G. Zheng, W. Liang, M. Hada, M. Ehara, K. Toyota, R. Fukuda, 
 J. Hasegawa, M. Ishida, T. Nakajima, Y. Honda, O. Kitao, H. Nakai, 
 T. Vreven, K. Throssell, J. A. Montgomery, Jr., J. E. Peralta, 
 F. Ogliaro, M. J. Bearpark, J. J. Heyd, E. N. Brothers, K. N. Kudin, 
 V. N. Staroverov, T. A. Keith, R. Kobayashi, J. Normand, 
 K. Raghavachari, A. P. Rendell, J. C. Burant, S. S. Iyengar, 
 J. Tomasi, M. Cossi, J. M. Millam, M. Klene, C. Adamo, R. Cammi, 
 J. W. Ochterski, R. L. Martin, K. Morokuma, O. Farkas, 
 J. B. Foresman, and D. J. Fox, Gaussian, Inc., Wallingford CT, 2019.
 
 ******************************************
 Gaussian 16:  ES64L-G16RevC.01  3-Jul-2019
                28-Oct-2022 
 ******************************************
 %chk=dsgdb9nsd_123508-4.chk
 %mem=60GB
 %nprocshared=32
 Will use up to   32 processors via shared memory.
 ------------------------------------
 #p opt freq b3lyp/6-311+g** em=gd3bj
 ------------------------------------
 1/18=20,19=15,26=3,38=1/1,3;
 2/9=110,12=2,17=6,18=5,40=1/2;
 3/5=4,6=6,7=111,11=2,25=1,30=1,71=1,74=-5,124=41/1,2,3;
 4//1;
 5/5=2,38=5/2;
 6/7=2,8=2,9=2,10=2,28=1/1;
 7//1,2,3,16;
 1/18=20,19=15,26=3/3(2);
 2/9=110/2;
 99//99;
 2/9=110/2;
 3/5=4,6=6,7=111,11=2,25=1,30=1,71=1,74=-5,124=41/1,2,3;
 4/5=5,16=3,69=1/1;
 5/5=2,38=5/2;
 7//1,2,3,16;
 1/18=20,19=15,26=3/3(-5);
 2/9=110/2;
 6/7=2,8=2,9=2,10=2,19=2,28=1/1;
 99/9=1/99;
 Leave Link    1 at Fri Oct 28 17:36:16 2022, MaxMem=  8053063680 cpu:               2.8 elap:               0.1
 (Enter /public3/home/scg5914/software-scg5914/g16/l101.exe)
 ------------------
 dsgdb9nsd_123508-4
 ------------------
 Symbolic Z-matrix:
 Charge =  0 Multiplicity = 2
 C                     0.03135   1.2978    0.00914 
 C                     1.32689   1.78583  -0.00071 
 N                     2.11325   0.67501  -0.01441 
 N                     3.44834   0.60628  -0.02771 
 C                     3.90798  -0.62381  -0.03891 
 C                     3.06819  -1.7694   -0.03705 
 N                     1.75558  -1.68746  -0.02392 
 C                     1.24565  -0.45144  -0.01221 
 N                    -0.0179   -0.06124   0.00215 
 H                    -0.87465   1.88629   0.02114 
 H                     1.74568   2.77746   0.00068 
 H                     4.988    -0.71866  -0.04989 
 
 ITRead=  0  0  0  0  0  0  0  0  0  0  0  0
 MicOpt= -1 -1 -1 -1 -1 -1 -1 -1 -1 -1 -1 -1
 NAtoms=     12 NQM=       12 NQMF=       0 NMMI=      0 NMMIF=      0
                NMic=       0 NMicF=      0.
                    Isotopes and Nuclear Properties:
 (Nuclear quadrupole moments (NQMom) in fm**2, nuclear magnetic moments (NMagM)
  in nuclear magnetons)

  Atom         1           2           3           4           5           6           7           8           9          10
 IAtWgt=          12          12          14          14          12          12          14          12          14           1
 AtmWgt=  12.0000000  12.0000000  14.0030740  14.0030740  12.0000000  12.0000000  14.0030740  12.0000000  14.0030740   1.0078250
 NucSpn=           0           0           2           2           0           0           2           0           2           1
 AtZEff=  -0.0000000  -0.0000000  -0.0000000  -0.0000000  -0.0000000  -0.0000000  -0.0000000  -0.0000000  -0.0000000  -0.0000000
 NQMom=    0.0000000   0.0000000   2.0440000   2.0440000   0.0000000   0.0000000   2.0440000   0.0000000   2.0440000   0.0000000
 NMagM=    0.0000000   0.0000000   0.4037610   0.4037610   0.0000000   0.0000000   0.4037610   0.0000000   0.4037610   2.7928460
 AtZNuc=   6.0000000   6.0000000   7.0000000   7.0000000   6.0000000   6.0000000   7.0000000   6.0000000   7.0000000   1.0000000

  Atom        11          12
 IAtWgt=           1           1
 AtmWgt=   1.0078250   1.0078250
 NucSpn=           1           1
 AtZEff=  -0.0000000  -0.0000000
 NQMom=    0.0000000   0.0000000
 NMagM=    2.7928460   2.7928460
 AtZNuc=   1.0000000   1.0000000
 Leave Link  101 at Fri Oct 28 17:36:17 2022, MaxMem=  8053063680 cpu:               4.8 elap:               0.2
 (Enter /public3/home/scg5914/software-scg5914/g16/l103.exe)

 GradGradGradGradGradGradGradGradGradGradGradGradGradGradGradGradGradGrad
 Berny optimization.
 Initialization pass.
                           ----------------------------
                           !    Initial Parameters    !
                           ! (Angstroms and Degrees)  !
 --------------------------                            --------------------------
 ! Name  Definition              Value          Derivative Info.                !
 --------------------------------------------------------------------------------
 ! R1    R(1,2)                  1.3844         estimate D2E/DX2                !
 ! R2    R(1,9)                  1.36           estimate D2E/DX2                !
 ! R3    R(1,10)                 1.0804         estimate D2E/DX2                !
 ! R4    R(2,3)                  1.3611         estimate D2E/DX2                !
 ! R5    R(2,11)                 1.0764         estimate D2E/DX2                !
 ! R6    R(3,4)                  1.3369         estimate D2E/DX2                !
 ! R7    R(3,8)                  1.4218         estimate D2E/DX2                !
 ! R8    R(4,5)                  1.3132         estimate D2E/DX2                !
 ! R9    R(5,6)                  1.4204         estimate D2E/DX2                !
 ! R10   R(5,12)                 1.0842         estimate D2E/DX2                !
 ! R11   R(6,7)                  1.3152         estimate D2E/DX2                !
 ! R12   R(7,8)                  1.3371         estimate D2E/DX2                !
 ! R13   R(8,9)                  1.3225         estimate D2E/DX2                !
 ! A1    A(2,1,9)              112.714          estimate D2E/DX2                !
 ! A2    A(2,1,10)             126.3548         estimate D2E/DX2                !
 ! A3    A(9,1,10)             120.9311         estimate D2E/DX2                !
 ! A4    A(1,2,3)              104.6565         estimate D2E/DX2                !
 ! A5    A(1,2,11)             133.5353         estimate D2E/DX2                !
 ! A6    A(3,2,11)             121.8082         estimate D2E/DX2                !
 ! A7    A(2,3,4)              128.2447         estimate D2E/DX2                !
 ! A8    A(2,3,8)              107.0992         estimate D2E/DX2                !
 ! A9    A(4,3,8)              124.6561         estimate D2E/DX2                !
 ! A10   A(3,4,5)              113.4394         estimate D2E/DX2                !
 ! A11   A(4,5,6)              123.2649         estimate D2E/DX2                !
 ! A12   A(4,5,12)             115.5112         estimate D2E/DX2                !
 ! A13   A(6,5,12)             121.2239         estimate D2E/DX2                !
 ! A14   A(5,6,7)              122.6706         estimate D2E/DX2                !
 ! A15   A(6,7,8)              115.9945         estimate D2E/DX2                !
 ! A16   A(3,8,7)              119.9746         estimate D2E/DX2                !
 ! A17   A(3,8,9)              110.4426         estimate D2E/DX2                !
 ! A18   A(7,8,9)              129.5828         estimate D2E/DX2                !
 ! A19   A(1,9,8)              105.0877         estimate D2E/DX2                !
 ! D1    D(9,1,2,3)             -0.0004         estimate D2E/DX2                !
 ! D2    D(9,1,2,11)           179.9998         estimate D2E/DX2                !
 ! D3    D(10,1,2,3)           179.9997         estimate D2E/DX2                !
 ! D4    D(10,1,2,11)           -0.0001         estimate D2E/DX2                !
 ! D5    D(2,1,9,8)              0.0003         estimate D2E/DX2                !
 ! D6    D(10,1,9,8)          -179.9998         estimate D2E/DX2                !
 ! D7    D(1,2,3,4)            179.9997         estimate D2E/DX2                !
 ! D8    D(1,2,3,8)              0.0003         estimate D2E/DX2                !
 ! D9    D(11,2,3,4)            -0.0004         estimate D2E/DX2                !
 ! D10   D(11,2,3,8)          -179.9999         estimate D2E/DX2                !
 ! D11   D(2,3,4,5)           -179.9996         estimate D2E/DX2                !
 ! D12   D(8,3,4,5)             -0.0002         estimate D2E/DX2                !
 ! D13   D(2,3,8,7)           -179.9995         estimate D2E/DX2                !
 ! D14   D(2,3,8,9)             -0.0001         estimate D2E/DX2                !
 ! D15   D(4,3,8,7)              0.001          estimate D2E/DX2                !
 ! D16   D(4,3,8,9)           -179.9995         estimate D2E/DX2                !
 ! D17   D(3,4,5,6)             -0.0013         estimate D2E/DX2                !
 ! D18   D(3,4,5,12)          -180.0            estimate D2E/DX2                !
 ! D19   D(4,5,6,7)              0.0021         estimate D2E/DX2                !
 ! D20   D(12,5,6,7)          -179.9992         estimate D2E/DX2                !
 ! D21   D(5,6,7,8)             -0.0012         estimate D2E/DX2                !
 ! D22   D(6,7,8,3)             -0.0002         estimate D2E/DX2                !
 ! D23   D(6,7,8,9)           -179.9996         estimate D2E/DX2                !
 ! D24   D(3,8,9,1)             -0.0002         estimate D2E/DX2                !
 ! D25   D(7,8,9,1)            179.9993         estimate D2E/DX2                !
 --------------------------------------------------------------------------------
 Trust Radius=3.00D-01 FncErr=1.00D-07 GrdErr=1.00D-06 EigMax=2.50D+02 EigMin=1.00D-04
 Number of steps in this run=     67 maximum allowed number of steps=    100.
 GradGradGradGradGradGradGradGradGradGradGradGradGradGradGradGradGradGrad

 Leave Link  103 at Fri Oct 28 17:36:17 2022, MaxMem=  8053063680 cpu:               0.2 elap:               0.0
 (Enter /public3/home/scg5914/software-scg5914/g16/l202.exe)
                          Input orientation:                          
 ---------------------------------------------------------------------
 Center     Atomic      Atomic             Coordinates (Angstroms)
 Number     Number       Type             X           Y           Z
 ---------------------------------------------------------------------
      1          6           0        0.031353    1.297799    0.009140
      2          6           0        1.326886    1.785832   -0.000713
      3          7           0        2.113248    0.675006   -0.014415
      4          7           0        3.448338    0.606275   -0.027711
      5          6           0        3.907985   -0.623809   -0.038915
      6          6           0        3.068195   -1.769401   -0.037055
      7          7           0        1.755581   -1.687458   -0.023918
      8          6           0        1.245645   -0.451438   -0.012211
      9          7           0       -0.017902   -0.061243    0.002150
     10          1           0       -0.874650    1.886289    0.021136
     11          1           0        1.745681    2.777456    0.000680
     12          1           0        4.988004   -0.718657   -0.049885
 ---------------------------------------------------------------------
                    Distance matrix (angstroms):
                    1          2          3          4          5
     1  C    0.000000
     2  C    1.384441   0.000000
     3  N    2.173181   1.361062   0.000000
     4  N    3.486453   2.427477   1.336924   0.000000
     5  C    4.327027   3.531274   2.215535   1.313205   0.000000
     6  C    4.316510   3.958934   2.624415   2.405916   1.420434
     7  N    3.447582   3.499723   2.389404   2.850729   2.400920
     8  C    2.129505   2.238773   1.421835   2.443533   2.668047
     9  N    1.359953   2.284764   2.254804   3.530056   3.966202
    10  H    1.080419   2.203935   3.224284   4.508775   5.401647
    11  H    2.264592   1.076434   2.134393   2.759325   4.030599
    12  H    5.351445   4.436064   3.194960   2.031380   1.084231
                    6          7          8          9         10
     6  C    0.000000
     7  N    1.315235   0.000000
     8  C    2.249296   1.337131   0.000000
     9  N    3.527511   2.406345   1.322501   0.000000
    10  H    5.377125   4.437546   3.156220   2.127735   0.000000
    11  H    4.735438   4.464993   3.267408   3.341922   2.767803
    12  H    2.188582   3.374583   3.752076   5.049158   6.415722
                   11         12
    11  H    0.000000
    12  H    4.768440   0.000000
 Stoichiometry    C5H3N4(2)
 Framework group  C1[X(C5H3N4)]
 Deg. of freedom    30
 Full point group                 C1      NOp   1
 Largest Abelian subgroup         C1      NOp   1
 Largest concise Abelian subgroup C1      NOp   1
                         Standard orientation:                         
 ---------------------------------------------------------------------
 Center     Atomic      Atomic             Coordinates (Angstroms)
 Number     Number       Type             X           Y           Z
 ---------------------------------------------------------------------
      1          6           0       -2.235836    0.009545    0.000002
      2          6           0       -1.437791    1.140829    0.000004
      3          7           0       -0.163288    0.663199    0.000003
      4          7           0        0.980132    1.355989   -0.000001
      5          6           0        2.051235    0.596222   -0.000009
      6          6           0        1.999572   -0.823272    0.000012
      7          7           0        0.867333   -1.492508    0.000002
      8          6           0       -0.248720   -0.756067   -0.000005
      9          7           0       -1.513449   -1.142682   -0.000008
     10          1           0       -3.316035   -0.012223    0.000006
     11          1           0       -1.648056    2.196527    0.000007
     12          1           0        2.998242    1.124176   -0.000013
 ---------------------------------------------------------------------
 Rotational constants (GHZ):           4.1320688           1.9194856           1.3106461
 Leave Link  202 at Fri Oct 28 17:36:17 2022, MaxMem=  8053063680 cpu:               0.2 elap:               0.0
 (Enter /public3/home/scg5914/software-scg5914/g16/l301.exe)
 Standard basis: 6-311+G(d,p) (5D, 7F)
 Ernie: Thresh=  0.10000D-02 Tol=  0.10000D-05 Strict=F.
 There are   225 symmetry adapted cartesian basis functions of A   symmetry.
 There are   216 symmetry adapted basis functions of A   symmetry.
   216 basis functions,   348 primitive gaussians,   225 cartesian basis functions
    31 alpha electrons       30 beta electrons
       nuclear repulsion energy       404.6958376733 Hartrees.
 IExCor=  402 DFT=T Ex+Corr=B3LYP ExCW=0 ScaHFX=  0.200000
 ScaDFX=  0.800000  0.720000  1.000000  0.810000 ScalE2=  1.000000  1.000000
 IRadAn=      5 IRanWt=     -1 IRanGd=            0 ICorTp=0 IEmpDi=141
 NAtoms=   12 NActive=   12 NUniq=   12 SFac= 1.00D+00 NAtFMM=   60 NAOKFM=F Big=F
 Integral buffers will be    131072 words long.
 Raffenetti 2 integral format.
 Two-electron integral symmetry is turned on.
 R6Disp:  Grimme-D3(BJ) Dispersion energy=       -0.0227631404 Hartrees.
 Nuclear repulsion after empirical dispersion term =      404.6730745329 Hartrees.
 Leave Link  301 at Fri Oct 28 17:36:17 2022, MaxMem=  8053063680 cpu:               1.0 elap:               0.0
 (Enter /public3/home/scg5914/software-scg5914/g16/l302.exe)
 NPDir=0 NMtPBC=     1 NCelOv=     1 NCel=       1 NClECP=     1 NCelD=      1
         NCelK=      1 NCelE2=     1 NClLst=     1 CellRange=     0.0.
 One-electron integrals computed using PRISM.
 One-electron integral symmetry used in STVInt
 NBasis=   216 RedAO= T EigKep=  2.02D-05  NBF=   216
 NBsUse=   216 1.00D-06 EigRej= -1.00D+00 NBFU=   216
 Precomputing XC quadrature grid using
 IXCGrd= 4 IRadAn=           5 IRanWt=          -1 IRanGd=           0 AccXCQ= 0.00D+00.
 Generated NRdTot=       0 NPtTot=           0 NUsed=           0 NTot=          32
 NSgBfM=   225   225   225   225   225 MxSgAt=    12 MxSgA2=    12.
 Leave Link  302 at Fri Oct 28 17:36:17 2022, MaxMem=  8053063680 cpu:               4.4 elap:               0.2
 (Enter /public3/home/scg5914/software-scg5914/g16/l303.exe)
 DipDrv:  MaxL=1.
 Leave Link  303 at Fri Oct 28 17:36:17 2022, MaxMem=  8053063680 cpu:               0.9 elap:               0.0
 (Enter /public3/home/scg5914/software-scg5914/g16/l401.exe)
 ExpMin= 4.38D-02 ExpMax= 6.29D+03 ExpMxC= 9.49D+02 IAcc=3 IRadAn=         5 AccDes= 0.00D+00
 Harris functional with IExCor=  402 and IRadAn=       5 diagonalized for initial guess.
 HarFok:  IExCor=  402 AccDes= 0.00D+00 IRadAn=         5 IDoV= 1 UseB2=F ITyADJ=14
 ICtDFT=  3500011 ScaDFX=  1.000000  1.000000  1.000000  1.000000
 FoFCou: FMM=F IPFlag=           0 FMFlag=      100000 FMFlg1=           0
         NFxFlg=           0 DoJE=T BraDBF=F KetDBF=T FulRan=T
         wScrn=  0.000000 ICntrl=       500 IOpCl=  0 I1Cent=   200000004 NGrid=           0
         NMat0=    1 NMatS0=      1 NMatT0=    0 NMatD0=    1 NMtDS0=    0 NMtDT0=    0
 Petite list used in FoFCou.
 Harris En= -411.270443166010    
 JPrj=0 DoOrth=F DoCkMO=F.
 Initial guess <Sx>= 0.0000 <Sy>= 0.0000 <Sz>= 0.5000 <S**2>= 0.7500 S= 0.5000
 Leave Link  401 at Fri Oct 28 17:36:18 2022, MaxMem=  8053063680 cpu:              11.2 elap:               0.4
 (Enter /public3/home/scg5914/software-scg5914/g16/l502.exe)
 Keep R1 and R2 ints in memory in canonical form, NReq=583032912.
 FoFCou: FMM=F IPFlag=           0 FMFlag=           0 FMFlg1=           0
         NFxFlg=           0 DoJE=F BraDBF=F KetDBF=F FulRan=T
         wScrn=  0.000000 ICntrl=       600 IOpCl=  0 I1Cent=           0 NGrid=           0
         NMat0=    1 NMatS0=  23436 NMatT0=    0 NMatD0=    1 NMtDS0=    0 NMtDT0=    0
 Symmetry not used in FoFCou.
 Two-electron integral symmetry not used.
 UHF open shell SCF:
 Using DIIS extrapolation, IDIIS=  1040.
 NGot=  8053063680 LenX=  7503683276 LenY=  7503632210
 Requested convergence on RMS density matrix=1.00D-08 within 128 cycles.
 Requested convergence on MAX density matrix=1.00D-06.
 Requested convergence on             energy=1.00D-06.
 No special actions if energy rises.

 Cycle   1  Pass 1  IDiag  1:
 E= -411.180590275112    
 DIIS: error= 2.51D-02 at cycle   1 NSaved=   1.
 NSaved= 1 IEnMin= 1 EnMin= -411.180590275112     IErMin= 1 ErrMin= 2.51D-02
 ErrMax= 2.51D-02  0.00D+00 EMaxC= 1.00D-01 BMatC= 7.87D-01 BMatP= 7.87D-01
 IDIUse=3 WtCom= 7.49D-01 WtEn= 2.51D-01
 Coeff-Com:  0.100D+01
 Coeff-En:   0.100D+01
 Coeff:      0.100D+01
 Gap=     0.145 Goal=   None    Shift=    0.000
 Gap=     0.093 Goal=   None    Shift=    0.000
 GapD=    0.093 DampG=0.500 DampE=0.500 DampFc=0.2500 IDamp=-1.
 Damping current iteration by 2.50D-01
 RMSDP=1.05D-02 MaxDP=4.18D-01              OVMax= 3.37D-01

 Cycle   2  Pass 1  IDiag  1:
 E= -411.233399652303     Delta-E=       -0.052809377191 Rises=F Damp=T
 DIIS: error= 1.38D-02 at cycle   2 NSaved=   2.
 NSaved= 2 IEnMin= 2 EnMin= -411.233399652303     IErMin= 2 ErrMin= 1.38D-02
 ErrMax= 1.38D-02  0.00D+00 EMaxC= 1.00D-01 BMatC= 1.84D-01 BMatP= 7.87D-01
 IDIUse=3 WtCom= 8.62D-01 WtEn= 1.38D-01
 Coeff-Com: -0.446D+00 0.145D+01
 Coeff-En:   0.000D+00 0.100D+01
 Coeff:     -0.385D+00 0.138D+01
 Gap=     0.214 Goal=   None    Shift=    0.000
 Gap=     0.191 Goal=   None    Shift=    0.000
 RMSDP=2.88D-03 MaxDP=7.81D-02 DE=-5.28D-02 OVMax= 2.78D-01

 Cycle   3  Pass 1  IDiag  1:
 E= -411.316235871386     Delta-E=       -0.082836219083 Rises=F Damp=F
 DIIS: error= 1.72D-02 at cycle   3 NSaved=   3.
 NSaved= 3 IEnMin= 3 EnMin= -411.316235871386     IErMin= 2 ErrMin= 1.38D-02
 ErrMax= 1.72D-02  0.00D+00 EMaxC= 1.00D-01 BMatC= 1.03D-01 BMatP= 1.84D-01
 IDIUse=3 WtCom= 8.28D-01 WtEn= 1.72D-01
 Coeff-Com: -0.357D+00 0.791D+00 0.566D+00
 Coeff-En:   0.000D+00 0.000D+00 0.100D+01
 Coeff:     -0.295D+00 0.654D+00 0.641D+00
 Gap=     0.153 Goal=   None    Shift=    0.000
 Gap=     0.122 Goal=   None    Shift=    0.000
 RMSDP=1.43D-03 MaxDP=3.51D-02 DE=-8.28D-02 OVMax= 1.10D-01

 Cycle   4  Pass 1  IDiag  1:
 E= -411.328844484174     Delta-E=       -0.012608612788 Rises=F Damp=F
 DIIS: error= 1.38D-02 at cycle   4 NSaved=   4.
 NSaved= 4 IEnMin= 4 EnMin= -411.328844484174     IErMin= 2 ErrMin= 1.38D-02
 ErrMax= 1.38D-02  0.00D+00 EMaxC= 1.00D-01 BMatC= 5.12D-02 BMatP= 1.03D-01
 IDIUse=3 WtCom= 8.62D-01 WtEn= 1.38D-01
 Coeff-Com: -0.129D+00 0.278D+00 0.431D+00 0.419D+00
 Coeff-En:   0.000D+00 0.000D+00 0.368D+00 0.632D+00
 Coeff:     -0.111D+00 0.240D+00 0.422D+00 0.449D+00
 Gap=     0.150 Goal=   None    Shift=    0.000
 Gap=     0.124 Goal=   None    Shift=    0.000
 RMSDP=7.59D-04 MaxDP=2.40D-02 DE=-1.26D-02 OVMax= 5.85D-02

 Cycle   5  Pass 1  IDiag  1:
 E= -411.340697229080     Delta-E=       -0.011852744906 Rises=F Damp=F
 DIIS: error= 3.98D-03 at cycle   5 NSaved=   5.
 NSaved= 5 IEnMin= 5 EnMin= -411.340697229080     IErMin= 5 ErrMin= 3.98D-03
 ErrMax= 3.98D-03  0.00D+00 EMaxC= 1.00D-01 BMatC= 5.05D-03 BMatP= 5.12D-02
 IDIUse=3 WtCom= 9.60D-01 WtEn= 3.98D-02
 Coeff-Com: -0.220D-01 0.430D-01 0.194D+00 0.308D+00 0.477D+00
 Coeff-En:   0.000D+00 0.000D+00 0.000D+00 0.597D-01 0.940D+00
 Coeff:     -0.211D-01 0.413D-01 0.186D+00 0.298D+00 0.496D+00
 Gap=     0.152 Goal=   None    Shift=    0.000
 Gap=     0.126 Goal=   None    Shift=    0.000
 RMSDP=2.46D-04 MaxDP=6.77D-03 DE=-1.19D-02 OVMax= 1.21D-02

 Cycle   6  Pass 1  IDiag  1:
 E= -411.341825947014     Delta-E=       -0.001128717935 Rises=F Damp=F
 DIIS: error= 9.52D-04 at cycle   6 NSaved=   6.
 NSaved= 6 IEnMin= 6 EnMin= -411.341825947014     IErMin= 6 ErrMin= 9.52D-04
 ErrMax= 9.52D-04  0.00D+00 EMaxC= 1.00D-01 BMatC= 4.14D-04 BMatP= 5.05D-03
 IDIUse=3 WtCom= 9.90D-01 WtEn= 9.52D-03
 Coeff-Com:  0.328D-03-0.433D-02 0.557D-01 0.117D+00 0.288D+00 0.543D+00
 Coeff-En:   0.000D+00 0.000D+00 0.000D+00 0.000D+00 0.930D-02 0.991D+00
 Coeff:      0.325D-03-0.429D-02 0.552D-01 0.116D+00 0.285D+00 0.547D+00
 Gap=     0.151 Goal=   None    Shift=    0.000
 Gap=     0.127 Goal=   None    Shift=    0.000
 RMSDP=6.54D-05 MaxDP=1.72D-03 DE=-1.13D-03 OVMax= 7.11D-03

 Cycle   7  Pass 1  IDiag  1:
 E= -411.341919399257     Delta-E=       -0.000093452243 Rises=F Damp=F
 DIIS: error= 4.09D-04 at cycle   7 NSaved=   7.
 NSaved= 7 IEnMin= 7 EnMin= -411.341919399257     IErMin= 7 ErrMin= 4.09D-04
 ErrMax= 4.09D-04  0.00D+00 EMaxC= 1.00D-01 BMatC= 7.59D-05 BMatP= 4.14D-04
 IDIUse=3 WtCom= 9.96D-01 WtEn= 4.09D-03
 Coeff-Com:  0.342D-02-0.909D-02 0.633D-03 0.166D-01 0.854D-01 0.347D+00
 Coeff-Com:  0.556D+00
 Coeff-En:   0.000D+00 0.000D+00 0.000D+00 0.000D+00 0.000D+00 0.378D-01
 Coeff-En:   0.962D+00
 Coeff:      0.340D-02-0.906D-02 0.630D-03 0.165D-01 0.850D-01 0.346D+00
 Coeff:      0.557D+00
 Gap=     0.151 Goal=   None    Shift=    0.000
 Gap=     0.127 Goal=   None    Shift=    0.000
 RMSDP=4.90D-05 MaxDP=1.75D-03 DE=-9.35D-05 OVMax= 3.25D-03

 Cycle   8  Pass 1  IDiag  1:
 E= -411.341942942573     Delta-E=       -0.000023543316 Rises=F Damp=F
 DIIS: error= 1.52D-04 at cycle   8 NSaved=   8.
 NSaved= 8 IEnMin= 8 EnMin= -411.341942942573     IErMin= 8 ErrMin= 1.52D-04
 ErrMax= 1.52D-04  0.00D+00 EMaxC= 1.00D-01 BMatC= 7.47D-06 BMatP= 7.59D-05
 IDIUse=3 WtCom= 9.98D-01 WtEn= 1.52D-03
 Coeff-Com:  0.131D-02-0.246D-02-0.111D-01-0.179D-01-0.300D-01 0.387D-01
 Coeff-Com:  0.185D+00 0.836D+00
 Coeff-En:   0.000D+00 0.000D+00 0.000D+00 0.000D+00 0.000D+00 0.000D+00
 Coeff-En:   0.000D+00 0.100D+01
 Coeff:      0.131D-02-0.246D-02-0.111D-01-0.179D-01-0.299D-01 0.387D-01
 Coeff:      0.185D+00 0.836D+00
 Gap=     0.152 Goal=   None    Shift=    0.000
 Gap=     0.128 Goal=   None    Shift=    0.000
 RMSDP=2.37D-05 MaxDP=4.97D-04 DE=-2.35D-05 OVMax= 2.20D-03

 Cycle   9  Pass 1  IDiag  1:
 E= -411.341948343267     Delta-E=       -0.000005400693 Rises=F Damp=F
 DIIS: error= 1.48D-04 at cycle   9 NSaved=   9.
 NSaved= 9 IEnMin= 9 EnMin= -411.341948343267     IErMin= 9 ErrMin= 1.48D-04
 ErrMax= 1.48D-04  0.00D+00 EMaxC= 1.00D-01 BMatC= 8.04D-06 BMatP= 7.47D-06
 IDIUse=3 WtCom= 9.99D-01 WtEn= 1.48D-03
 Coeff-Com:  0.230D-03 0.304D-03-0.898D-02-0.192D-01-0.529D-01-0.783D-01
 Coeff-Com: -0.435D-01 0.662D+00 0.540D+00
 Coeff-En:   0.000D+00 0.000D+00 0.000D+00 0.000D+00 0.000D+00 0.000D+00
 Coeff-En:   0.000D+00 0.000D+00 0.100D+01
 Coeff:      0.230D-03 0.304D-03-0.897D-02-0.191D-01-0.528D-01-0.782D-01
 Coeff:     -0.435D-01 0.661D+00 0.541D+00
 Gap=     0.152 Goal=   None    Shift=    0.000
 Gap=     0.128 Goal=   None    Shift=    0.000
 RMSDP=1.50D-05 MaxDP=4.56D-04 DE=-5.40D-06 OVMax= 1.90D-03

 Cycle  10  Pass 1  IDiag  1:
 E= -411.341952355139     Delta-E=       -0.000004011873 Rises=F Damp=F
 DIIS: error= 6.48D-05 at cycle  10 NSaved=  10.
 NSaved=10 IEnMin=10 EnMin= -411.341952355139     IErMin=10 ErrMin= 6.48D-05
 ErrMax= 6.48D-05  0.00D+00 EMaxC= 1.00D-01 BMatC= 9.57D-07 BMatP= 7.47D-06
 IDIUse=1 WtCom= 1.00D+00 WtEn= 0.00D+00
 Coeff-Com: -0.349D-03 0.102D-02-0.538D-03-0.297D-02-0.146D-01-0.425D-01
 Coeff-Com: -0.665D-01 0.312D-01 0.229D+00 0.866D+00
 Coeff:     -0.349D-03 0.102D-02-0.538D-03-0.297D-02-0.146D-01-0.425D-01
 Coeff:     -0.665D-01 0.312D-01 0.229D+00 0.866D+00
 Gap=     0.152 Goal=   None    Shift=    0.000
 Gap=     0.128 Goal=   None    Shift=    0.000
 RMSDP=8.82D-06 MaxDP=2.39D-04 DE=-4.01D-06 OVMax= 9.97D-04

 Cycle  11  Pass 1  IDiag  1:
 E= -411.341953470008     Delta-E=       -0.000001114869 Rises=F Damp=F
 DIIS: error= 3.61D-05 at cycle  11 NSaved=  11.
 NSaved=11 IEnMin=11 EnMin= -411.341953470008     IErMin=11 ErrMin= 3.61D-05
 ErrMax= 3.61D-05  0.00D+00 EMaxC= 1.00D-01 BMatC= 5.28D-07 BMatP= 9.57D-07
 IDIUse=1 WtCom= 1.00D+00 WtEn= 0.00D+00
 Coeff-Com: -0.261D-03 0.378D-03 0.320D-02 0.567D-02 0.114D-01 0.122D-02
 Coeff-Com: -0.277D-01-0.243D+00-0.549D-01 0.577D+00 0.727D+00
 Coeff:     -0.261D-03 0.378D-03 0.320D-02 0.567D-02 0.114D-01 0.122D-02
 Coeff:     -0.277D-01-0.243D+00-0.549D-01 0.577D+00 0.727D+00
 Gap=     0.152 Goal=   None    Shift=    0.000
 Gap=     0.128 Goal=   None    Shift=    0.000
 RMSDP=5.65D-06 MaxDP=2.22D-04 DE=-1.11D-06 OVMax= 7.46D-04

 Cycle  12  Pass 1  IDiag  1:
 E= -411.341953954122     Delta-E=       -0.000000484114 Rises=F Damp=F
 DIIS: error= 1.59D-05 at cycle  12 NSaved=  12.
 NSaved=12 IEnMin=12 EnMin= -411.341953954122     IErMin=12 ErrMin= 1.59D-05
 ErrMax= 1.59D-05  0.00D+00 EMaxC= 1.00D-01 BMatC= 7.26D-08 BMatP= 5.28D-07
 IDIUse=1 WtCom= 1.00D+00 WtEn= 0.00D+00
 Coeff-Com:  0.405D-04-0.150D-03 0.314D-03 0.110D-02 0.525D-02 0.110D-01
 Coeff-Com:  0.180D-01-0.235D-01-0.623D-01-0.252D+00 0.983D-01 0.120D+01
 Coeff:      0.405D-04-0.150D-03 0.314D-03 0.110D-02 0.525D-02 0.110D-01
 Coeff:      0.180D-01-0.235D-01-0.623D-01-0.252D+00 0.983D-01 0.120D+01
 Gap=     0.152 Goal=   None    Shift=    0.000
 Gap=     0.128 Goal=   None    Shift=    0.000
 RMSDP=3.87D-06 MaxDP=1.29D-04 DE=-4.84D-07 OVMax= 4.11D-04

 Cycle  13  Pass 1  IDiag  1:
 E= -411.341954089244     Delta-E=       -0.000000135122 Rises=F Damp=F
 DIIS: error= 6.62D-06 at cycle  13 NSaved=  13.
 NSaved=13 IEnMin=13 EnMin= -411.341954089244     IErMin=13 ErrMin= 6.62D-06
 ErrMax= 6.62D-06  0.00D+00 EMaxC= 1.00D-01 BMatC= 1.87D-08 BMatP= 7.26D-08
 IDIUse=1 WtCom= 1.00D+00 WtEn= 0.00D+00
 Coeff-Com:  0.864D-04-0.168D-03-0.439D-03-0.553D-03 0.111D-03 0.399D-02
 Coeff-Com:  0.134D-01 0.352D-01-0.120D-01-0.213D+00-0.917D-01 0.486D+00
 Coeff-Com:  0.779D+00
 Coeff:      0.864D-04-0.168D-03-0.439D-03-0.553D-03 0.111D-03 0.399D-02
 Coeff:      0.134D-01 0.352D-01-0.120D-01-0.213D+00-0.917D-01 0.486D+00
 Coeff:      0.779D+00
 Gap=     0.152 Goal=   None    Shift=    0.000
 Gap=     0.128 Goal=   None    Shift=    0.000
 RMSDP=1.40D-06 MaxDP=3.89D-05 DE=-1.35D-07 OVMax= 1.28D-04

 Cycle  14  Pass 1  IDiag  1:
 E= -411.341954106561     Delta-E=       -0.000000017317 Rises=F Damp=F
 DIIS: error= 3.71D-06 at cycle  14 NSaved=  14.
 NSaved=14 IEnMin=14 EnMin= -411.341954106561     IErMin=14 ErrMin= 3.71D-06
 ErrMax= 3.71D-06  0.00D+00 EMaxC= 1.00D-01 BMatC= 7.11D-09 BMatP= 1.87D-08
 IDIUse=1 WtCom= 1.00D+00 WtEn= 0.00D+00
 Coeff-Com:  0.319D-04-0.382D-04-0.348D-03-0.672D-03-0.162D-02-0.133D-02
 Coeff-Com:  0.269D-02 0.270D-01 0.109D-01-0.472D-01-0.847D-01-0.800D-01
 Coeff-Com:  0.461D+00 0.714D+00
 Coeff:      0.319D-04-0.382D-04-0.348D-03-0.672D-03-0.162D-02-0.133D-02
 Coeff:      0.269D-02 0.270D-01 0.109D-01-0.472D-01-0.847D-01-0.800D-01
 Coeff:      0.461D+00 0.714D+00
 Gap=     0.152 Goal=   None    Shift=    0.000
 Gap=     0.128 Goal=   None    Shift=    0.000
 RMSDP=6.96D-07 MaxDP=2.13D-05 DE=-1.73D-08 OVMax= 6.48D-05

 Cycle  15  Pass 1  IDiag  1:
 E= -411.341954111222     Delta-E=       -0.000000004661 Rises=F Damp=F
 DIIS: error= 1.39D-06 at cycle  15 NSaved=  15.
 NSaved=15 IEnMin=15 EnMin= -411.341954111222     IErMin=15 ErrMin= 1.39D-06
 ErrMax= 1.39D-06  0.00D+00 EMaxC= 1.00D-01 BMatC= 4.79D-10 BMatP= 7.11D-09
 IDIUse=1 WtCom= 1.00D+00 WtEn= 0.00D+00
 Coeff-Com: -0.902D-05 0.183D-04 0.407D-04 0.251D-04-0.239D-03-0.884D-03
 Coeff-Com: -0.223D-02-0.377D-02 0.270D-02 0.398D-01 0.576D-02-0.108D+00
 Coeff-Com: -0.941D-01 0.839D-01 0.108D+01
 Coeff:     -0.902D-05 0.183D-04 0.407D-04 0.251D-04-0.239D-03-0.884D-03
 Coeff:     -0.223D-02-0.377D-02 0.270D-02 0.398D-01 0.576D-02-0.108D+00
 Coeff:     -0.941D-01 0.839D-01 0.108D+01
 Gap=     0.152 Goal=   None    Shift=    0.000
 Gap=     0.128 Goal=   None    Shift=    0.000
 RMSDP=3.27D-07 MaxDP=1.14D-05 DE=-4.66D-09 OVMax= 3.15D-05

 Cycle  16  Pass 1  IDiag  1:
 E= -411.341954111810     Delta-E=       -0.000000000587 Rises=F Damp=F
 DIIS: error= 8.67D-07 at cycle  16 NSaved=  16.
 NSaved=16 IEnMin=16 EnMin= -411.341954111810     IErMin=16 ErrMin= 8.67D-07
 ErrMax= 8.67D-07  0.00D+00 EMaxC= 1.00D-01 BMatC= 1.61D-10 BMatP= 4.79D-10
 IDIUse=1 WtCom= 1.00D+00 WtEn= 0.00D+00
 Coeff-Com: -0.697D-05 0.120D-04 0.465D-04 0.645D-04 0.180D-04-0.306D-03
 Coeff-Com: -0.135D-02-0.429D-02 0.689D-03 0.220D-01 0.102D-01-0.433D-01
 Coeff-Com: -0.791D-01-0.244D-01 0.510D+00 0.610D+00
 Coeff:     -0.697D-05 0.120D-04 0.465D-04 0.645D-04 0.180D-04-0.306D-03
 Coeff:     -0.135D-02-0.429D-02 0.689D-03 0.220D-01 0.102D-01-0.433D-01
 Coeff:     -0.791D-01-0.244D-01 0.510D+00 0.610D+00
 Gap=     0.152 Goal=   None    Shift=    0.000
 Gap=     0.128 Goal=   None    Shift=    0.000
 RMSDP=7.30D-08 MaxDP=1.68D-06 DE=-5.87D-10 OVMax= 7.33D-06

 Cycle  17  Pass 1  IDiag  1:
 E= -411.341954111873     Delta-E=       -0.000000000063 Rises=F Damp=F
 DIIS: error= 4.09D-07 at cycle  17 NSaved=  17.
 NSaved=17 IEnMin=17 EnMin= -411.341954111873     IErMin=17 ErrMin= 4.09D-07
 ErrMax= 4.09D-07  0.00D+00 EMaxC= 1.00D-01 BMatC= 6.79D-11 BMatP= 1.61D-10
 IDIUse=1 WtCom= 1.00D+00 WtEn= 0.00D+00
 Coeff-Com: -0.168D-05 0.156D-05 0.234D-04 0.504D-04 0.153D-03 0.214D-03
 Coeff-Com: -0.769D-04-0.202D-02-0.737D-03-0.288D-03 0.640D-02 0.158D-01
 Coeff-Com: -0.254D-01-0.683D-01-0.748D-01 0.435D+00 0.714D+00
 Coeff:     -0.168D-05 0.156D-05 0.234D-04 0.504D-04 0.153D-03 0.214D-03
 Coeff:     -0.769D-04-0.202D-02-0.737D-03-0.288D-03 0.640D-02 0.158D-01
 Coeff:     -0.254D-01-0.683D-01-0.748D-01 0.435D+00 0.714D+00
 Gap=     0.152 Goal=   None    Shift=    0.000
 Gap=     0.128 Goal=   None    Shift=    0.000
 RMSDP=4.92D-08 MaxDP=1.24D-06 DE=-6.31D-11 OVMax= 4.77D-06

 Cycle  18  Pass 1  IDiag  1:
 E= -411.341954111905     Delta-E=       -0.000000000032 Rises=F Damp=F
 DIIS: error= 7.47D-08 at cycle  18 NSaved=  18.
 NSaved=18 IEnMin=18 EnMin= -411.341954111905     IErMin=18 ErrMin= 7.47D-08
 ErrMax= 7.47D-08  0.00D+00 EMaxC= 1.00D-01 BMatC= 2.71D-12 BMatP= 6.79D-11
 IDIUse=1 WtCom= 1.00D+00 WtEn= 0.00D+00
 Coeff-Com:  0.490D-06-0.968D-06-0.336D-05-0.282D-05 0.171D-04 0.691D-04
 Coeff-Com:  0.176D-03 0.472D-03-0.291D-03-0.291D-02-0.979D-03 0.737D-02
 Coeff-Com:  0.850D-02-0.279D-02-0.786D-01-0.557D-01 0.770D-01 0.105D+01
 Coeff:      0.490D-06-0.968D-06-0.336D-05-0.282D-05 0.171D-04 0.691D-04
 Coeff:      0.176D-03 0.472D-03-0.291D-03-0.291D-02-0.979D-03 0.737D-02
 Coeff:      0.850D-02-0.279D-02-0.786D-01-0.557D-01 0.770D-01 0.105D+01
 Gap=     0.152 Goal=   None    Shift=    0.000
 Gap=     0.128 Goal=   None    Shift=    0.000
 RMSDP=1.57D-08 MaxDP=4.44D-07 DE=-3.21D-11 OVMax= 1.55D-06

 Cycle  19  Pass 1  IDiag  1:
 E= -411.341954111907     Delta-E=       -0.000000000003 Rises=F Damp=F
 DIIS: error= 2.11D-08 at cycle  19 NSaved=  19.
 NSaved=19 IEnMin=19 EnMin= -411.341954111907     IErMin=19 ErrMin= 2.11D-08
 ErrMax= 2.11D-08  0.00D+00 EMaxC= 1.00D-01 BMatC= 3.09D-13 BMatP= 2.71D-12
 IDIUse=1 WtCom= 1.00D+00 WtEn= 0.00D+00
 Coeff-Com:  0.341D-06-0.514D-06-0.291D-05-0.542D-05-0.989D-05-0.105D-05
 Coeff-Com:  0.478D-04 0.314D-03 0.103D-04-0.657D-03-0.893D-03 0.307D-03
 Coeff-Com:  0.413D-02 0.560D-02-0.121D-01-0.493D-01-0.399D-01 0.255D+00
 Coeff-Com:  0.837D+00
 Coeff:      0.341D-06-0.514D-06-0.291D-05-0.542D-05-0.989D-05-0.105D-05
 Coeff:      0.478D-04 0.314D-03 0.103D-04-0.657D-03-0.893D-03 0.307D-03
 Coeff:      0.413D-02 0.560D-02-0.121D-01-0.493D-01-0.399D-01 0.255D+00
 Coeff:      0.837D+00
 Gap=     0.152 Goal=   None    Shift=    0.000
 Gap=     0.128 Goal=   None    Shift=    0.000
 RMSDP=3.75D-09 MaxDP=8.69D-08 DE=-2.61D-12 OVMax= 3.93D-07

 SCF Done:  E(UB3LYP) =  -411.341954112     A.U. after   19 cycles
            NFock= 19  Conv=0.37D-08     -V/T= 2.0040
 <Sx>= 0.0000 <Sy>= 0.0000 <Sz>= 0.5000 <S**2>= 0.7582 S= 0.5041
 <L.S>=  0.00000000000    
 KE= 4.096950798695D+02 PE=-1.766667013250D+03 EE= 5.409569047357D+02
 Annihilation of the first spin contaminant:
 S**2 before annihilation     0.7582,   after     0.7500
 Leave Link  502 at Fri Oct 28 17:37:05 2022, MaxMem=  8053063680 cpu:             602.1 elap:              29.4
 (Enter /public3/home/scg5914/software-scg5914/g16/l601.exe)
 Copying SCF densities to generalized density rwf, IOpCl= 1 IROHF=0.

 **********************************************************************

            Population analysis using the SCF Density.

 **********************************************************************

 Orbital symmetries:
 Alpha Orbitals:
       Occupied  (A) (A) (A) (A) (A) (A) (A) (A) (A) (A) (A) (A)
                 (A) (A) (A) (A) (A) (A) (A) (A) (A) (A) (A) (A)
                 (A) (A) (A) (A) (A) (A) (A)
       Virtual   (A) (A) (A) (A) (A) (A) (A) (A) (A) (A) (A) (A)
                 (A) (A) (A) (A) (A) (A) (A) (A) (A) (A) (A) (A)
                 (A) (A) (A) (A) (A) (A) (A) (A) (A) (A) (A) (A)
                 (A) (A) (A) (A) (A) (A) (A) (A) (A) (A) (A) (A)
                 (A) (A) (A) (A) (A) (A) (A) (A) (A) (A) (A) (A)
                 (A) (A) (A) (A) (A) (A) (A) (A) (A) (A) (A) (A)
                 (A) (A) (A) (A) (A) (A) (A) (A) (A) (A) (A) (A)
                 (A) (A) (A) (A) (A) (A) (A) (A) (A) (A) (A) (A)
                 (A) (A) (A) (A) (A) (A) (A) (A) (A) (A) (A) (A)
                 (A) (A) (A) (A) (A) (A) (A) (A) (A) (A) (A) (A)
                 (A) (A) (A) (A) (A) (A) (A) (A) (A) (A) (A) (A)
                 (A) (A) (A) (A) (A) (A) (A) (A) (A) (A) (A) (A)
                 (A) (A) (A) (A) (A) (A) (A) (A) (A) (A) (A) (A)
                 (A) (A) (A) (A) (A) (A) (A) (A) (A) (A) (A) (A)
                 (A) (A) (A) (A) (A) (A) (A) (A) (A) (A) (A) (A)
                 (A) (A) (A) (A) (A)
 Beta  Orbitals:
       Occupied  (A) (A) (A) (A) (A) (A) (A) (A) (A) (A) (A) (A)
                 (A) (A) (A) (A) (A) (A) (A) (A) (A) (A) (A) (A)
                 (A) (A) (A) (A) (A) (A)
       Virtual   (A) (A) (A) (A) (A) (A) (A) (A) (A) (A) (A) (A)
                 (A) (A) (A) (A) (A) (A) (A) (A) (A) (A) (A) (A)
                 (A) (A) (A) (A) (A) (A) (A) (A) (A) (A) (A) (A)
                 (A) (A) (A) (A) (A) (A) (A) (A) (A) (A) (A) (A)
                 (A) (A) (A) (A) (A) (A) (A) (A) (A) (A) (A) (A)
                 (A) (A) (A) (A) (A) (A) (A) (A) (A) (A) (A) (A)
                 (A) (A) (A) (A) (A) (A) (A) (A) (A) (A) (A) (A)
                 (A) (A) (A) (A) (A) (A) (A) (A) (A) (A) (A) (A)
                 (A) (A) (A) (A) (A) (A) (A) (A) (A) (A) (A) (A)
                 (A) (A) (A) (A) (A) (A) (A) (A) (A) (A) (A) (A)
                 (A) (A) (A) (A) (A) (A) (A) (A) (A) (A) (A) (A)
                 (A) (A) (A) (A) (A) (A) (A) (A) (A) (A) (A) (A)
                 (A) (A) (A) (A) (A) (A) (A) (A) (A) (A) (A) (A)
                 (A) (A) (A) (A) (A) (A) (A) (A) (A) (A) (A) (A)
                 (A) (A) (A) (A) (A) (A) (A) (A) (A) (A) (A) (A)
                 (A) (A) (A) (A) (A) (A)
 The electronic state is 2-A.
 Alpha  occ. eigenvalues --  -14.45177 -14.41181 -14.37905 -14.32362 -10.29785
 Alpha  occ. eigenvalues --  -10.26947 -10.26230 -10.23160 -10.22628  -1.12068
 Alpha  occ. eigenvalues --   -1.00062  -0.98357  -0.87605  -0.78761  -0.72151
 Alpha  occ. eigenvalues --   -0.68289  -0.64605  -0.60185  -0.54646  -0.52306
 Alpha  occ. eigenvalues --   -0.49621  -0.48938  -0.45101  -0.40888  -0.40377
 Alpha  occ. eigenvalues --   -0.38729  -0.36788  -0.30847  -0.29859  -0.26577
 Alpha  occ. eigenvalues --   -0.26079
 Alpha virt. eigenvalues --   -0.10910  -0.04211  -0.00092   0.01204   0.01904
 Alpha virt. eigenvalues --    0.02607   0.03187   0.03978   0.04739   0.06439
 Alpha virt. eigenvalues --    0.06752   0.07397   0.08249   0.08378   0.08511
 Alpha virt. eigenvalues --    0.09595   0.11964   0.12237   0.12693   0.12725
 Alpha virt. eigenvalues --    0.13558   0.15929   0.16079   0.16189   0.17006
 Alpha virt. eigenvalues --    0.17750   0.19084   0.19927   0.20165   0.20807
 Alpha virt. eigenvalues --    0.20911   0.21514   0.22713   0.23073   0.23383
 Alpha virt. eigenvalues --    0.24460   0.24492   0.25008   0.25622   0.26835
 Alpha virt. eigenvalues --    0.28061   0.28719   0.29789   0.30806   0.32941
 Alpha virt. eigenvalues --    0.33201   0.35341   0.39349   0.41033   0.41199
 Alpha virt. eigenvalues --    0.42118   0.47262   0.48638   0.51609   0.51754
 Alpha virt. eigenvalues --    0.54553   0.54793   0.56514   0.57565   0.57836
 Alpha virt. eigenvalues --    0.60149   0.62335   0.63645   0.65359   0.70090
 Alpha virt. eigenvalues --    0.72770   0.73245   0.75255   0.76468   0.77384
 Alpha virt. eigenvalues --    0.79542   0.80856   0.82306   0.83801   0.85981
 Alpha virt. eigenvalues --    0.87599   0.88040   0.90341   0.90503   0.91987
 Alpha virt. eigenvalues --    0.92611   0.93985   0.95369   0.98071   0.99886
 Alpha virt. eigenvalues --    1.03353   1.04720   1.06143   1.08183   1.09793
 Alpha virt. eigenvalues --    1.17039   1.17540   1.19301   1.20127   1.26807
 Alpha virt. eigenvalues --    1.30745   1.33436   1.35017   1.35629   1.40820
 Alpha virt. eigenvalues --    1.48077   1.53338   1.56650   1.57646   1.60294
 Alpha virt. eigenvalues --    1.61869   1.63519   1.68253   1.71079   1.74433
 Alpha virt. eigenvalues --    1.74784   1.77535   1.80442   1.83215   1.83653
 Alpha virt. eigenvalues --    1.89089   1.93924   1.95629   2.00867   2.05200
 Alpha virt. eigenvalues --    2.08661   2.13265   2.14519   2.21071   2.22768
 Alpha virt. eigenvalues --    2.27372   2.28373   2.35290   2.39501   2.40883
 Alpha virt. eigenvalues --    2.46649   2.49976   2.53643   2.56643   2.58711
 Alpha virt. eigenvalues --    2.61961   2.63507   2.67778   2.70664   2.73529
 Alpha virt. eigenvalues --    2.73818   2.73863   2.76293   2.77721   2.79222
 Alpha virt. eigenvalues --    2.84782   2.85080   2.88994   2.89267   2.92771
 Alpha virt. eigenvalues --    2.96439   3.05879   3.10533   3.23014   3.27818
 Alpha virt. eigenvalues --    3.37795   3.41508   3.51899   3.56918   3.64505
 Alpha virt. eigenvalues --    3.66758   3.74535   3.75240   3.85396   3.90765
 Alpha virt. eigenvalues --    3.93736   3.94036   4.07683   4.13563   4.29789
 Alpha virt. eigenvalues --    4.46301   4.60990   4.63803   5.07514   5.23112
 Alpha virt. eigenvalues --    5.52063  23.72728  23.82245  23.84910  23.94879
 Alpha virt. eigenvalues --   24.09257  35.39778  35.50160  35.61672  35.68712
  Beta  occ. eigenvalues --  -14.45186 -14.41022 -14.37584 -14.32390 -10.29610
  Beta  occ. eigenvalues --  -10.26079 -10.25459 -10.23177 -10.22629  -1.11901
  Beta  occ. eigenvalues --   -0.99876  -0.97688  -0.87456  -0.78064  -0.71670
  Beta  occ. eigenvalues --   -0.67178  -0.64395  -0.59311  -0.54480  -0.52232
  Beta  occ. eigenvalues --   -0.49150  -0.48402  -0.45009  -0.40756  -0.39822
  Beta  occ. eigenvalues --   -0.37425  -0.33833  -0.30032  -0.29907  -0.25712
  Beta virt. eigenvalues --   -0.12947  -0.10345  -0.03468  -0.00051   0.01263
  Beta virt. eigenvalues --    0.01961   0.02642   0.03258   0.03978   0.05181
  Beta virt. eigenvalues --    0.06468   0.06873   0.07441   0.08387   0.08404
  Beta virt. eigenvalues --    0.09098   0.09660   0.12058   0.12273   0.12790
  Beta virt. eigenvalues --    0.12916   0.13689   0.15966   0.16264   0.16326
  Beta virt. eigenvalues --    0.17049   0.17891   0.19176   0.19986   0.20171
  Beta virt. eigenvalues --    0.20904   0.21033   0.21642   0.22789   0.23248
  Beta virt. eigenvalues --    0.23370   0.24470   0.24993   0.25105   0.25933
  Beta virt. eigenvalues --    0.27067   0.28436   0.28848   0.30052   0.31084
  Beta virt. eigenvalues --    0.33199   0.33443   0.35599   0.39591   0.41357
  Beta virt. eigenvalues --    0.41785   0.42672   0.47434   0.49447   0.51861
  Beta virt. eigenvalues --    0.52564   0.54559   0.55623   0.56508   0.58507
  Beta virt. eigenvalues --    0.58635   0.61446   0.62573   0.63777   0.65942
  Beta virt. eigenvalues --    0.70234   0.73198   0.73585   0.75529   0.76585
  Beta virt. eigenvalues --    0.77686   0.79885   0.80843   0.82420   0.84477
  Beta virt. eigenvalues --    0.86917   0.87960   0.88052   0.90497   0.90568
  Beta virt. eigenvalues --    0.92092   0.93470   0.94642   0.95715   0.98469
  Beta virt. eigenvalues --    0.99960   1.03712   1.05769   1.06375   1.08512
  Beta virt. eigenvalues --    1.09861   1.17067   1.17640   1.19352   1.20234
  Beta virt. eigenvalues --    1.27161   1.33276   1.34131   1.35771   1.36383
  Beta virt. eigenvalues --    1.41601   1.48272   1.54105   1.57138   1.58062
  Beta virt. eigenvalues --    1.61177   1.62389   1.63677   1.68825   1.71346
  Beta virt. eigenvalues --    1.74809   1.74913   1.77964   1.80851   1.83962
  Beta virt. eigenvalues --    1.84015   1.90002   1.94644   1.96018   2.01975
  Beta virt. eigenvalues --    2.05292   2.09117   2.13365   2.15027   2.21227
  Beta virt. eigenvalues --    2.23230   2.28426   2.28830   2.35706   2.39872
  Beta virt. eigenvalues --    2.41219   2.47002   2.50112   2.53963   2.57271
  Beta virt. eigenvalues --    2.58988   2.62837   2.64268   2.67879   2.70967
  Beta virt. eigenvalues --    2.73633   2.74311   2.74317   2.76324   2.78401
  Beta virt. eigenvalues --    2.79298   2.85432   2.85814   2.89572   2.89651
  Beta virt. eigenvalues --    2.92724   2.96649   3.08725   3.10826   3.23648
  Beta virt. eigenvalues --    3.28915   3.37810   3.41982   3.52301   3.57061
  Beta virt. eigenvalues --    3.64576   3.66955   3.74579   3.75362   3.85444
  Beta virt. eigenvalues --    3.90678   3.94099   3.94619   4.07669   4.13762
  Beta virt. eigenvalues --    4.30511   4.46396   4.61590   4.63956   5.07812
  Beta virt. eigenvalues --    5.23156   5.52341  23.73725  23.82450  23.85183
  Beta virt. eigenvalues --   23.95450  24.09246  35.39848  35.50281  35.61875
  Beta virt. eigenvalues --   35.68795
          Condensed to atoms (all electrons):
               1          2          3          4          5          6
     1  C    6.092728  -0.336985   0.017918  -0.097782  -0.010639  -0.147793
     2  C   -0.336985   6.087333   0.212801  -0.111239   0.067602   0.004890
     3  N    0.017918   0.212801   7.188763   0.024592   0.117510  -0.334522
     4  N   -0.097782  -0.111239   0.024592   6.760536   0.292966   0.094803
     5  C   -0.010639   0.067602   0.117510   0.292966   5.763535  -0.357694
     6  C   -0.147793   0.004890  -0.334522   0.094803  -0.357694   6.379587
     7  N    0.088433  -0.000005   0.022908  -0.050043   0.126815   0.086051
     8  C   -0.069460  -0.349477  -0.151184   0.117514  -0.147531   0.028118
     9  N    0.031209   0.172738  -0.101963   0.011739  -0.021596   0.075810
    10  H    0.494208  -0.114254   0.015919   0.001309   0.000108  -0.000641
    11  H   -0.029900   0.441567  -0.077941   0.026075  -0.000939   0.000014
    12  H   -0.004349   0.003343   0.000318  -0.085137   0.433733  -0.031950
               7          8          9         10         11         12
     1  C    0.088433  -0.069460   0.031209   0.494208  -0.029900  -0.004349
     2  C   -0.000005  -0.349477   0.172738  -0.114254   0.441567   0.003343
     3  N    0.022908  -0.151184  -0.101963   0.015919  -0.077941   0.000318
     4  N   -0.050043   0.117514   0.011739   0.001309   0.026075  -0.085137
     5  C    0.126815  -0.147531  -0.021596   0.000108  -0.000939   0.433733
     6  C    0.086051   0.028118   0.075810  -0.000641   0.000014  -0.031950
     7  N    6.482756   0.364432  -0.098189   0.000472  -0.000511   0.002134
     8  C    0.364432   5.902144   0.468191   0.021933   0.006494  -0.007391
     9  N   -0.098189   0.468191   6.694207  -0.076237   0.002262   0.000675
    10  H    0.000472   0.021933  -0.076237   0.518099  -0.001076  -0.000000
    11  H   -0.000511   0.006494   0.002262  -0.001076   0.489531   0.000018
    12  H    0.002134  -0.007391   0.000675  -0.000000   0.000018   0.518392
          Atomic-Atomic Spin Densities.
               1          2          3          4          5          6
     1  C   -0.053096   0.029970  -0.029894   0.001997   0.011351  -0.001640
     2  C    0.029970  -0.039883   0.014304   0.009499  -0.020758   0.010941
     3  N   -0.029894   0.014304  -0.053131  -0.023608   0.040739  -0.007091
     4  N    0.001997   0.009499  -0.023608   0.082684  -0.028707   0.017207
     5  C    0.011351  -0.020758   0.040739  -0.028707   0.109857  -0.119333
     6  C   -0.001640   0.010941  -0.007091   0.017207  -0.119333   1.205367
     7  N    0.001174  -0.003222   0.000820  -0.008022   0.031196  -0.210211
     8  C    0.007629  -0.001896   0.031207   0.000689  -0.000897  -0.022645
     9  N    0.027204  -0.013297   0.023583  -0.007983   0.005566  -0.012160
    10  H   -0.000487   0.000372   0.000050  -0.000056  -0.000059   0.000022
    11  H   -0.001078   0.000110   0.000552  -0.000331   0.000262  -0.000108
    12  H    0.000755  -0.000575   0.002948   0.006163  -0.002633   0.001442
               7          8          9         10         11         12
     1  C    0.001174   0.007629   0.027204  -0.000487  -0.001078   0.000755
     2  C   -0.003222  -0.001896  -0.013297   0.000372   0.000110  -0.000575
     3  N    0.000820   0.031207   0.023583   0.000050   0.000552   0.002948
     4  N   -0.008022   0.000689  -0.007983  -0.000056  -0.000331   0.006163
     5  C    0.031196  -0.000897   0.005566  -0.000059   0.000262  -0.002633
     6  C   -0.210211  -0.022645  -0.012160   0.000022  -0.000108   0.001442
     7  N    0.253100  -0.025352   0.017227  -0.000123  -0.000035   0.000840
     8  C   -0.025352   0.057516  -0.016082   0.000059   0.000446  -0.000155
     9  N    0.017227  -0.016082  -0.031234   0.000287   0.000265  -0.000119
    10  H   -0.000123   0.000059   0.000287   0.000280  -0.000009  -0.000000
    11  H   -0.000035   0.000446   0.000265  -0.000009   0.001259   0.000001
    12  H    0.000840  -0.000155  -0.000119  -0.000000   0.000001  -0.009343
 Mulliken charges and spin densities:
               1          2
     1  C   -0.027586  -0.006117
     2  C   -0.078312  -0.014435
     3  N    0.064882   0.000480
     4  N    0.014667   0.049532
     5  C   -0.263870   0.026584
     6  C    0.203327   0.861790
     7  N   -0.025255   0.057394
     8  C   -0.183784   0.030520
     9  N   -0.158848  -0.006742
    10  H    0.140160   0.000338
    11  H    0.144405   0.001334
    12  H    0.170213  -0.000677
 Sum of Mulliken charges =  -0.00000   1.00000
 Mulliken charges and spin densities with hydrogens summed into heavy atoms:
               1          2
     1  C    0.112574  -0.005779
     2  C    0.066093  -0.013102
     3  N    0.064882   0.000480
     4  N    0.014667   0.049532
     5  C   -0.093657   0.025907
     6  C    0.203327   0.861790
     7  N   -0.025255   0.057394
     8  C   -0.183784   0.030520
     9  N   -0.158848  -0.006742
 Electronic spatial extent (au):  <R**2>=            854.2945
 Charge=             -0.0000 electrons
 Dipole moment (field-independent basis, Debye):
    X=              0.4520    Y=              3.3142    Z=             -0.0000  Tot=              3.3449
 Quadrupole moment (field-independent basis, Debye-Ang):
   XX=            -44.5190   YY=            -57.8091   ZZ=            -51.8571
   XY=             -2.7287   XZ=             -0.0001   YZ=              0.0000
 Traceless Quadrupole moment (field-independent basis, Debye-Ang):
   XX=              6.8761   YY=             -6.4140   ZZ=             -0.4620
   XY=             -2.7287   XZ=             -0.0001   YZ=              0.0000
 Octapole moment (field-independent basis, Debye-Ang**2):
  XXX=             -4.8748  YYY=             17.8589  ZZZ=             -0.0000  XYY=             -3.0859
  XXY=             17.3288  XXZ=             -0.0001  XZZ=              1.2390  YZZ=              0.0099
  YYZ=              0.0000  XYZ=              0.0000
 Hexadecapole moment (field-independent basis, Debye-Ang**3):
 XXXX=           -674.9590 YYYY=           -400.0349 ZZZZ=            -55.0921 XXXY=             19.3330
 XXXZ=             -0.0008 YYYX=            -18.3260 YYYZ=              0.0001 ZZZX=             -0.0001
 ZZZY=              0.0000 XXYY=           -196.9632 XXZZ=           -147.2775 YYZZ=            -74.4499
 XXYZ=             -0.0000 YYXZ=             -0.0002 ZZXY=              2.1621
 N-N= 4.046730745329D+02 E-N=-1.766667013610D+03  KE= 4.096950798695D+02
                          Isotropic Fermi Contact Couplings
        Atom                 a.u.       MegaHertz       Gauss      10(-4) cm-1
     1  C(13)              0.00291       3.27369       1.16813       1.09198
     2  C(13)              0.00231       2.59948       0.92756       0.86709
     3  N(14)             -0.00648      -2.09310      -0.74687      -0.69818
     4  N(14)             -0.00444      -1.43492      -0.51201      -0.47864
     5  C(13)              0.07136      80.22705      28.62701      26.76086
     6  C(13)              0.50295     565.41176     201.75298     188.60106
     7  N(14)              0.27873      90.05755      32.13477      30.03996
     8  C(13)              0.07286      81.90830      29.22692      27.32167
     9  N(14)              0.00043       0.13996       0.04994       0.04669
    10  H(1)               0.00007       0.30050       0.10723       0.10024
    11  H(1)               0.00026       1.15849       0.41338       0.38643
    12  H(1)              -0.00067      -3.00179      -1.07111      -1.00129
 --------------------------------------------------------
       Center         ----  Spin Dipole Couplings  ----
                      3XX-RR        3YY-RR        3ZZ-RR
 --------------------------------------------------------
     1   Atom        0.007072      0.002020     -0.009092
     2   Atom        0.016315      0.007868     -0.024183
     3   Atom        0.007232      0.035276     -0.042508
     4   Atom       -0.042581      0.102992     -0.060412
     5   Atom       -0.057328      0.149989     -0.092661
     6   Atom        0.305835      0.034425     -0.340260
     7   Atom       -0.010774      0.242368     -0.231594
     8   Atom        0.037613     -0.000595     -0.037018
     9   Atom        0.019190      0.018581     -0.037771
    10   Atom        0.001370     -0.000441     -0.000929
    11   Atom        0.002951     -0.001135     -0.001815
    12   Atom       -0.003342      0.016928     -0.013586
 --------------------------------------------------------
                        XY            XZ            YZ
 --------------------------------------------------------
     1   Atom       -0.002884     -0.000000      0.000000
     2   Atom       -0.002986     -0.000001      0.000000
     3   Atom        0.005165      0.000001      0.000003
     4   Atom       -0.122233     -0.000000      0.000003
     5   Atom       -0.016887     -0.000000     -0.000003
     6   Atom       -0.618325      0.000005     -0.000004
     7   Atom       -0.152870      0.000007     -0.000015
     8   Atom       -0.066073      0.000001     -0.000001
     9   Atom       -0.002112     -0.000000      0.000002
    10   Atom       -0.000829     -0.000000      0.000000
    11   Atom       -0.001921     -0.000000      0.000000
    12   Atom        0.012222     -0.000000     -0.000000
 --------------------------------------------------------


 ---------------------------------------------------------------------------------
              Anisotropic Spin Dipole Couplings in Principal Axis System
 ---------------------------------------------------------------------------------

       Atom             a.u.   MegaHertz   Gauss  10(-4) cm-1        Axes

              Baa    -0.0091    -1.220    -0.435    -0.407  0.0000 -0.0000  1.0000
     1 C(13)  Bbb     0.0007     0.096     0.034     0.032  0.4130  0.9107  0.0000
              Bcc     0.0084     1.125     0.401     0.375  0.9107 -0.4130 -0.0000
 
              Baa    -0.0242    -3.245    -1.158    -1.082  0.0000 -0.0000  1.0000
     2 C(13)  Bbb     0.0069     0.928     0.331     0.310  0.3029  0.9530 -0.0000
              Bcc     0.0173     2.317     0.827     0.773  0.9530 -0.3029 -0.0000
 
              Baa    -0.0425    -1.639    -0.585    -0.547 -0.0000 -0.0000  1.0000
     3 N(14)  Bbb     0.0063     0.243     0.087     0.081  0.9845 -0.1755 -0.0000
              Bcc     0.0362     1.396     0.498     0.466  0.1755  0.9845  0.0000
 
              Baa    -0.1121    -4.322    -1.542    -1.442  0.8694  0.4941 -0.0000
     4 N(14)  Bbb    -0.0604    -2.330    -0.831    -0.777  0.0000  0.0000  1.0000
              Bcc     0.1725     6.652     2.374     2.219 -0.4941  0.8694  0.0000
 
              Baa    -0.0927   -12.434    -4.437    -4.148  0.0000  0.0000  1.0000
     5 C(13)  Bbb    -0.0587    -7.876    -2.810    -2.627  0.9967  0.0807 -0.0000
              Bcc     0.1514    20.310     7.247     6.775 -0.0807  0.9967 -0.0000
 
              Baa    -0.4629   -62.118   -22.165   -20.720  0.6267  0.7792  0.0000
     6 C(13)  Bbb    -0.3403   -45.660   -16.293   -15.230 -0.0000  0.0000  1.0000
              Bcc     0.8032   107.778    38.458    35.951  0.7792 -0.6267  0.0000
 
              Baa    -0.2316    -8.932    -3.187    -2.979 -0.0000  0.0000  1.0000
     7 N(14)  Bbb    -0.0827    -3.188    -1.138    -1.064  0.9049  0.4256 -0.0000
              Bcc     0.3143    12.120     4.325     4.043 -0.4256  0.9049 -0.0000
 
              Baa    -0.0503    -6.746    -2.407    -2.250  0.6009  0.7993 -0.0000
     8 C(13)  Bbb    -0.0370    -4.967    -1.773    -1.657 -0.0000  0.0000  1.0000
              Bcc     0.0873    11.713     4.180     3.907  0.7993 -0.6009  0.0000
 
              Baa    -0.0378    -1.457    -0.520    -0.486  0.0000 -0.0000  1.0000
     9 N(14)  Bbb     0.0168     0.646     0.231     0.216  0.6548  0.7558  0.0000
              Bcc     0.0210     0.811     0.289     0.270  0.7558 -0.6548 -0.0000
 
              Baa    -0.0009    -0.496    -0.177    -0.165 -0.0000 -0.0001  1.0000
    10 H(1)   Bbb    -0.0008    -0.407    -0.145    -0.136  0.3623  0.9321  0.0001
              Bcc     0.0017     0.903     0.322     0.301  0.9321 -0.3623 -0.0000
 
              Baa    -0.0019    -1.012    -0.361    -0.338  0.3684  0.9297  0.0000
    11 H(1)   Bbb    -0.0018    -0.969    -0.346    -0.323 -0.0000 -0.0000  1.0000
              Bcc     0.0037     1.981     0.707     0.661  0.9297 -0.3684 -0.0000
 
              Baa    -0.0136    -7.249    -2.587    -2.418  0.0000  0.0000  1.0000
    12 H(1)   Bbb    -0.0091    -4.847    -1.730    -1.617  0.9051 -0.4253 -0.0000
              Bcc     0.0227    12.096     4.316     4.035  0.4253  0.9051 -0.0000
 

 ---------------------------------------------------------------------------------

 No NMR shielding tensors so no spin-rotation constants.
 Leave Link  601 at Fri Oct 28 17:37:05 2022, MaxMem=  8053063680 cpu:               4.4 elap:               0.2
 (Enter /public3/home/scg5914/software-scg5914/g16/l701.exe)
 ... and contract with generalized density number  0.
 Compute integral first derivatives.
 R6Disp: Adding Grimme-D3(BJ) dispersion energy 1st derivatives to the gradient.
 Leave Link  701 at Fri Oct 28 17:37:05 2022, MaxMem=  8053063680 cpu:               3.0 elap:               0.1
 (Enter /public3/home/scg5914/software-scg5914/g16/l702.exe)
 L702 exits ... SP integral derivatives will be done elsewhere.
 Leave Link  702 at Fri Oct 28 17:37:24 2022, MaxMem=  8053063680 cpu:               7.3 elap:               1.3
 (Enter /public3/home/scg5914/software-scg5914/g16/l703.exe)
 Integral derivatives from FoFJK, PRISM(SPDF).
 Compute integral first derivatives, UseDBF=F ICtDFT=           0.
 Calling FoFJK, ICntrl=      2127 FMM=F ISym2X=0 I1Cent= 0 IOpClX= 1 NMat=1 NMatS=1 NMatT=0.
 FoFJK:  IHMeth= 1 ICntrl=    2127 DoSepK=F KAlg= 0 I1Cent=           0 FoldK=F
 IRaf=         0 NMat=       1 IRICut=       1 DoRegI=T DoRafI=F ISym2E= 0 IDoP0=0 IntGTp=1.
 FoFCou: FMM=F IPFlag=           0 FMFlag=      100000 FMFlg1=         800
         NFxFlg=           0 DoJE=F BraDBF=F KetDBF=F FulRan=T
         wScrn=  0.000000 ICntrl=      2127 IOpCl=  1 I1Cent=           0 NGrid=           0
         NMat0=    1 NMatS0=      1 NMatT0=    0 NMatD0=    1 NMtDS0=    0 NMtDT0=    0
 Symmetry not used in FoFCou.
 Leave Link  703 at Fri Oct 28 17:37:26 2022, MaxMem=  8053063680 cpu:              46.9 elap:               1.5
 (Enter /public3/home/scg5914/software-scg5914/g16/l716.exe)
 Dipole        = 1.77817365D-01 1.30390457D+00-4.21716091D-07
 ***** Axes restored to original set *****
 -------------------------------------------------------------------
 Center     Atomic                   Forces (Hartrees/Bohr)
 Number     Number              X              Y              Z
 -------------------------------------------------------------------
      1        6          -0.001717946    0.004263424    0.000039322
      2        6          -0.002890334    0.003165223    0.000045990
      3        7           0.005539665   -0.000677867   -0.000057695
      4        7          -0.007878466   -0.004569306    0.000050023
      5        6           0.018474417   -0.008167910   -0.000221267
      6        6          -0.050189522    0.013620704    0.000557902
      7        7           0.052967383   -0.006590687   -0.000547594
      8        6          -0.018169854    0.000081649    0.000176582
      9        7           0.005263016   -0.001067315   -0.000056229
     10        1           0.000564104   -0.000344032   -0.000007478
     11        1          -0.000477172   -0.000267809    0.000003187
     12        1          -0.001485291    0.000553927    0.000017256
 -------------------------------------------------------------------
 Cartesian Forces:  Max     0.052967383 RMS     0.013414389
 Leave Link  716 at Fri Oct 28 17:37:48 2022, MaxMem=  8053063680 cpu:              20.6 elap:               3.1
 (Enter /public3/home/scg5914/software-scg5914/g16/l103.exe)

 GradGradGradGradGradGradGradGradGradGradGradGradGradGradGradGradGradGrad
 Berny optimization.
 FormGI is forming the generalized inverse of G from B-inverse, IUseBI=4.
 Internal  Forces:  Max     0.042132773 RMS     0.006605125
 Search for a local minimum.
 Step number   1 out of a maximum of   67
 All quantities printed in internal units (Hartrees-Bohrs-Radians)
 RMS Force = .66051D-02 SwitMx=.10000D-02 MixMth= 1
 Mixed Optimization -- RFO/linear search
 Second derivative matrix not updated -- first step.
 ITU=  0
     Eigenvalues ---    0.01856   0.01996   0.02140   0.02238   0.02250
     Eigenvalues ---    0.02274   0.02311   0.02356   0.02594   0.16000
     Eigenvalues ---    0.16000   0.16000   0.22723   0.23218   0.24757
     Eigenvalues ---    0.25000   0.25000   0.35488   0.35944   0.36429
     Eigenvalues ---    0.36818   0.41619   0.45895   0.48489   0.52447
     Eigenvalues ---    0.54950   0.56591   0.58979   0.61764   0.62393
 RFO step:  Lambda=-5.35353700D-03 EMin= 1.85581274D-02
 Linear search not attempted -- first point.
 Iteration  1 RMS(Cart)=  0.01380209 RMS(Int)=  0.00024233
 Iteration  2 RMS(Cart)=  0.00024385 RMS(Int)=  0.00005083
 Iteration  3 RMS(Cart)=  0.00000003 RMS(Int)=  0.00005083
 ITry= 1 IFail=0 DXMaxC= 4.33D-02 DCOld= 1.00D+10 DXMaxT= 3.00D-01 DXLimC= 3.00D+00 Rises=F
 Variable       Old X    -DE/DX   Delta X   Delta X   Delta X     New X
                                 (Linear)    (Quad)   (Total)
    R1        2.61622   0.00003   0.00000   0.00034   0.00035   2.61657
    R2        2.56994   0.00352   0.00000   0.00598   0.00599   2.57593
    R3        2.04170  -0.00066   0.00000  -0.00181  -0.00181   2.03988
    R4        2.57203   0.00471   0.00000   0.00963   0.00963   2.58166
    R5        2.03417  -0.00043   0.00000  -0.00117  -0.00117   2.03300
    R6        2.52642   0.00100   0.00000   0.00406   0.00400   2.53042
    R7        2.68688   0.00083   0.00000   0.00431   0.00420   2.69107
    R8        2.48160   0.00223   0.00000   0.00409   0.00414   2.48573
    R9        2.68423  -0.00194   0.00000  -0.00657  -0.00647   2.67776
   R10        2.04890  -0.00153   0.00000  -0.00424  -0.00424   2.04466
   R11        2.48543  -0.04213   0.00000  -0.06832  -0.06826   2.41717
   R12        2.52681   0.00557   0.00000   0.00878   0.00874   2.53555
   R13        2.49917  -0.00336   0.00000  -0.00600  -0.00600   2.49316
    A1        1.96723  -0.00099   0.00000  -0.00346  -0.00346   1.96377
    A2        2.20531   0.00047   0.00000   0.00161   0.00161   2.20692
    A3        2.11065   0.00051   0.00000   0.00185   0.00185   2.11249
    A4        1.82660  -0.00050   0.00000   0.00182   0.00180   1.82840
    A5        2.33063  -0.00009   0.00000  -0.00297  -0.00296   2.32767
    A6        2.12595   0.00059   0.00000   0.00115   0.00116   2.12712
    A7        2.23829   0.00312   0.00000   0.00547   0.00557   2.24386
    A8        1.86923  -0.00056   0.00000  -0.00385  -0.00382   1.86541
    A9        2.17566  -0.00256   0.00000  -0.00162  -0.00175   2.17391
   A10        1.97989   0.00354   0.00000   0.02749   0.02744   2.00733
   A11        2.15138  -0.01190   0.00000  -0.05221  -0.05210   2.09928
   A12        2.01605   0.00552   0.00000   0.02349   0.02344   2.03949
   A13        2.11576   0.00638   0.00000   0.02872   0.02866   2.14442
   A14        2.14101   0.01315   0.00000   0.04115   0.04134   2.18235
   A15        2.02449   0.00690   0.00000   0.01835   0.01835   2.04284
   A16        2.09395  -0.00913   0.00000  -0.03317  -0.03329   2.06066
   A17        1.92759   0.00069   0.00000   0.00178   0.00181   1.92939
   A18        2.26165   0.00844   0.00000   0.03139   0.03148   2.29313
   A19        1.83413   0.00136   0.00000   0.00371   0.00368   1.83781
    D1       -0.00001   0.00000   0.00000   0.00001   0.00001   0.00001
    D2        3.14159   0.00000   0.00000   0.00001   0.00001  -3.14159
    D3        3.14159   0.00000   0.00000   0.00001   0.00001  -3.14159
    D4       -0.00000  -0.00000   0.00000  -0.00000  -0.00000  -0.00000
    D5        0.00001  -0.00000   0.00000  -0.00001  -0.00001  -0.00001
    D6       -3.14159  -0.00000   0.00000  -0.00000  -0.00000   3.14159
    D7        3.14159  -0.00000   0.00000  -0.00000  -0.00000   3.14159
    D8        0.00000  -0.00000   0.00000  -0.00001  -0.00001  -0.00000
    D9       -0.00001   0.00000   0.00000   0.00000   0.00000  -0.00000
   D10       -3.14159  -0.00000   0.00000  -0.00000  -0.00000   3.14159
   D11       -3.14158  -0.00000   0.00000  -0.00001  -0.00001   3.14159
   D12       -0.00000  -0.00000   0.00000  -0.00000  -0.00000  -0.00001
   D13       -3.14158  -0.00000   0.00000  -0.00001  -0.00001  -3.14159
   D14       -0.00000   0.00000   0.00000   0.00000   0.00000   0.00000
   D15        0.00002  -0.00000   0.00000  -0.00001  -0.00001   0.00000
   D16       -3.14158  -0.00000   0.00000  -0.00000  -0.00000  -3.14159
   D17       -0.00002   0.00000   0.00000   0.00003   0.00003   0.00001
   D18       -3.14159  -0.00000   0.00000  -0.00001  -0.00001   3.14159
   D19        0.00004  -0.00000   0.00000  -0.00004  -0.00004  -0.00000
   D20       -3.14158   0.00000   0.00000  -0.00000  -0.00000  -3.14158
   D21       -0.00002   0.00000   0.00000   0.00002   0.00002  -0.00000
   D22       -0.00000   0.00000   0.00000   0.00001   0.00001   0.00000
   D23       -3.14158  -0.00000   0.00000  -0.00001  -0.00001  -3.14159
   D24       -0.00000   0.00000   0.00000   0.00001   0.00001   0.00000
   D25        3.14158   0.00000   0.00000   0.00002   0.00002  -3.14159
         Item               Value     Threshold  Converged?
 Maximum Force            0.042133     0.000450     NO 
 RMS     Force            0.006605     0.000300     NO 
 Maximum Displacement     0.043311     0.001800     NO 
 RMS     Displacement     0.013833     0.001200     NO 
 Predicted change in Energy=-2.716092D-03
 Lowest energy point so far.  Saving SCF results.
 GradGradGradGradGradGradGradGradGradGradGradGradGradGradGradGradGradGrad

 Leave Link  103 at Fri Oct 28 17:37:48 2022, MaxMem=  8053063680 cpu:               1.5 elap:               0.1
 (Enter /public3/home/scg5914/software-scg5914/g16/l202.exe)
                          Input orientation:                          
 ---------------------------------------------------------------------
 Center     Atomic      Atomic             Coordinates (Angstroms)
 Number     Number       Type             X           Y           Z
 ---------------------------------------------------------------------
      1          6           0        0.023895    1.302999    0.009239
      2          6           0        1.321460    1.786139   -0.000658
      3          7           0        2.108503    0.669557   -0.014400
      4          7           0        3.445144    0.590558   -0.027769
      5          6           0        3.929914   -0.632196   -0.039164
      6          6           0        3.055735   -1.747416   -0.036826
      7          7           0        1.778500   -1.679329   -0.024098
      8          6           0        1.232962   -0.453544   -0.012094
      9          7           0       -0.025967   -0.059195    0.002249
     10          1           0       -0.880003    1.892965    0.021219
     11          1           0        1.740870    2.776832    0.000722
     12          1           0        5.007349   -0.730719   -0.050137
 ---------------------------------------------------------------------
                    Distance matrix (angstroms):
                    1          2          3          4          5
     1  C    0.000000
     2  C    1.384629   0.000000
     3  N    2.178852   1.366155   0.000000
     4  N    3.494837   2.437249   1.339041   0.000000
     5  C    4.359393   3.557227   2.238909   1.315394   0.000000
     6  C    4.301070   3.936373   2.596057   2.370199   1.417007
     7  N    3.460351   3.495555   2.371975   2.816045   2.392759
     8  C    2.132543   2.241460   1.424055   2.446251   2.702998
     9  N    1.363124   2.284912   2.255508   3.531528   3.997379
    10  H    1.079461   2.204162   3.229421   4.517251   5.432807
    11  H    2.262799   1.075815   2.139156   2.772211   4.051540
    12  H    5.382783   4.463497   3.219529   2.046157   1.081986
                    6          7          8          9         10
     6  C    0.000000
     7  N    1.279112   0.000000
     8  C    2.235446   1.341755   0.000000
     9  N    3.514044   2.425208   1.319325   0.000000
    10  H    5.361509   4.453199   3.157821   2.130884   0.000000
    11  H    4.711592   4.456389   3.270085   3.341371   2.765974
    12  H    2.200602   3.365414   3.784742   5.078185   6.445908
                   11         12
    11  H    0.000000
    12  H    4.793265   0.000000
 Stoichiometry    C5H3N4(2)
 Framework group  C1[X(C5H3N4)]
 Deg. of freedom    30
 Full point group                 C1      NOp   1
 RotChk:  IX=2 Diff= 8.45D-03
 Largest Abelian subgroup         C1      NOp   1
 Largest concise Abelian subgroup C1      NOp   1
                         Standard orientation:                         
 ---------------------------------------------------------------------
 Center     Atomic      Atomic             Coordinates (Angstroms)
 Number     Number       Type             X           Y           Z
 ---------------------------------------------------------------------
      1          6           0       -2.244124    0.023169   -0.000002
      2          6           0       -1.434924    1.146731    0.000003
      3          7           0       -0.159528    0.657091    0.000001
      4          7           0        0.995015    1.335369   -0.000003
      5          6           0        2.078354    0.589288    0.000001
      6          6           0        1.972734   -0.823777    0.000002
      7          7           0        0.873623   -1.478058   -0.000001
      8          6           0       -0.261893   -0.763280    0.000000
      9          7           0       -1.527385   -1.136310    0.000000
     10          1           0       -3.323507    0.010254   -0.000004
     11          1           0       -1.637847    2.203235    0.000004
     12          1           0        3.028397    1.107084   -0.000008
 ---------------------------------------------------------------------
 Rotational constants (GHZ):           4.1831668           1.9062061           1.3094908
 Leave Link  202 at Fri Oct 28 17:37:48 2022, MaxMem=  8053063680 cpu:               1.5 elap:               0.1
 (Enter /public3/home/scg5914/software-scg5914/g16/l301.exe)
 Standard basis: 6-311+G(d,p) (5D, 7F)
 Ernie: Thresh=  0.10000D-02 Tol=  0.10000D-05 Strict=F.
 There are   225 symmetry adapted cartesian basis functions of A   symmetry.
 There are   216 symmetry adapted basis functions of A   symmetry.
   216 basis functions,   348 primitive gaussians,   225 cartesian basis functions
    31 alpha electrons       30 beta electrons
       nuclear repulsion energy       404.9914147029 Hartrees.
 IExCor=  402 DFT=T Ex+Corr=B3LYP ExCW=0 ScaHFX=  0.200000
 ScaDFX=  0.800000  0.720000  1.000000  0.810000 ScalE2=  1.000000  1.000000
 IRadAn=      5 IRanWt=     -1 IRanGd=            0 ICorTp=0 IEmpDi=141
 NAtoms=   12 NActive=   12 NUniq=   12 SFac= 1.00D+00 NAtFMM=   60 NAOKFM=F Big=F
 Integral buffers will be    131072 words long.
 Raffenetti 2 integral format.
 Two-electron integral symmetry is turned on.
 R6Disp:  Grimme-D3(BJ) Dispersion energy=       -0.0227592298 Hartrees.
 Nuclear repulsion after empirical dispersion term =      404.9686554731 Hartrees.
 Leave Link  301 at Fri Oct 28 17:37:48 2022, MaxMem=  8053063680 cpu:               0.7 elap:               0.0
 (Enter /public3/home/scg5914/software-scg5914/g16/l302.exe)
 NPDir=0 NMtPBC=     1 NCelOv=     1 NCel=       1 NClECP=     1 NCelD=      1
         NCelK=      1 NCelE2=     1 NClLst=     1 CellRange=     0.0.
 One-electron integrals computed using PRISM.
 One-electron integral symmetry used in STVInt
 NBasis=   216 RedAO= T EigKep=  2.02D-05  NBF=   216
 NBsUse=   216 1.00D-06 EigRej= -1.00D+00 NBFU=   216
 Precomputing XC quadrature grid using
 IXCGrd= 4 IRadAn=           5 IRanWt=          -1 IRanGd=           0 AccXCQ= 0.00D+00.
 Generated NRdTot=       0 NPtTot=           0 NUsed=           0 NTot=          32
 NSgBfM=   225   225   225   225   225 MxSgAt=    12 MxSgA2=    12.
 Leave Link  302 at Fri Oct 28 17:37:48 2022, MaxMem=  8053063680 cpu:               3.3 elap:               0.1
 (Enter /public3/home/scg5914/software-scg5914/g16/l303.exe)
 DipDrv:  MaxL=1.
 Leave Link  303 at Fri Oct 28 17:37:48 2022, MaxMem=  8053063680 cpu:               0.4 elap:               0.0
 (Enter /public3/home/scg5914/software-scg5914/g16/l401.exe)
 Initial guess from the checkpoint file:  "dsgdb9nsd_123508-4.chk"
 B after Tr=     0.000000    0.000000    0.000000
         Rot=    0.999996    0.000000    0.000000    0.002738 Ang=   0.31 deg.
 Guess basis will be translated and rotated to current coordinates.
 JPrj=2 DoOrth=T DoCkMO=T.
 Initial guess <Sx>= 0.0000 <Sy>= 0.0000 <Sz>= 0.5000 <S**2>= 0.7580 S= 0.5040
 Generating alternative initial guess.
 ExpMin= 4.38D-02 ExpMax= 6.29D+03 ExpMxC= 9.49D+02 IAcc=3 IRadAn=         5 AccDes= 0.00D+00
 Harris functional with IExCor=  402 and IRadAn=       5 diagonalized for initial guess.
 HarFok:  IExCor=  402 AccDes= 0.00D+00 IRadAn=         5 IDoV= 1 UseB2=F ITyADJ=14
 ICtDFT=  3500011 ScaDFX=  1.000000  1.000000  1.000000  1.000000
 FoFCou: FMM=F IPFlag=           0 FMFlag=      100000 FMFlg1=           0
         NFxFlg=           0 DoJE=T BraDBF=F KetDBF=T FulRan=T
         wScrn=  0.000000 ICntrl=       500 IOpCl=  0 I1Cent=   200000004 NGrid=           0
         NMat0=    1 NMatS0=      1 NMatT0=    0 NMatD0=    1 NMtDS0=    0 NMtDT0=    0
 Petite list used in FoFCou.
 Harris En= -411.275572911377    
 Leave Link  401 at Fri Oct 28 17:37:48 2022, MaxMem=  8053063680 cpu:              12.0 elap:               0.4
 (Enter /public3/home/scg5914/software-scg5914/g16/l502.exe)
 Keep R1 and R2 ints in memory in canonical form, NReq=583032912.
 FoFCou: FMM=F IPFlag=           0 FMFlag=           0 FMFlg1=           0
         NFxFlg=           0 DoJE=F BraDBF=F KetDBF=F FulRan=T
         wScrn=  0.000000 ICntrl=       600 IOpCl=  0 I1Cent=           0 NGrid=           0
         NMat0=    1 NMatS0=  23436 NMatT0=    0 NMatD0=    1 NMtDS0=    0 NMtDT0=    0
 Symmetry not used in FoFCou.
 Two-electron integral symmetry not used.
 UHF open shell SCF:
 Using DIIS extrapolation, IDIIS=  1040.
 NGot=  8053063680 LenX=  7503683276 LenY=  7503632210
 Requested convergence on RMS density matrix=1.00D-08 within 128 cycles.
 Requested convergence on MAX density matrix=1.00D-06.
 Requested convergence on             energy=1.00D-06.
 No special actions if energy rises.

 Cycle   1  Pass 1  IDiag  1:
 E= -411.343653312603    
 DIIS: error= 1.94D-03 at cycle   1 NSaved=   1.
 NSaved= 1 IEnMin= 1 EnMin= -411.343653312603     IErMin= 1 ErrMin= 1.94D-03
 ErrMax= 1.94D-03  0.00D+00 EMaxC= 1.00D-01 BMatC= 4.99D-03 BMatP= 4.99D-03
 IDIUse=3 WtCom= 9.81D-01 WtEn= 1.94D-02
 Coeff-Com:  0.100D+01
 Coeff-En:   0.100D+01
 Coeff:      0.100D+01
 Gap=     0.432 Goal=   None    Shift=    0.000
 Gap=     0.428 Goal=   None    Shift=    0.000
 GapD=    0.428 DampG=2.000 DampE=1.000 DampFc=2.0000 IDamp=-1.
 RMSDP=5.48D-04 MaxDP=1.89D-02              OVMax= 1.77D-02

 Cycle   2  Pass 1  IDiag  1:
 E= -411.344992337998     Delta-E=       -0.001339025395 Rises=F Damp=F
 DIIS: error= 1.50D-03 at cycle   2 NSaved=   2.
 NSaved= 2 IEnMin= 2 EnMin= -411.344992337998     IErMin= 2 ErrMin= 1.50D-03
 ErrMax= 1.50D-03  0.00D+00 EMaxC= 1.00D-01 BMatC= 1.04D-03 BMatP= 4.99D-03
 IDIUse=3 WtCom= 9.85D-01 WtEn= 1.50D-02
 Coeff-Com:  0.210D+00 0.790D+00
 Coeff-En:   0.000D+00 0.100D+01
 Coeff:      0.207D+00 0.793D+00
 Gap=     0.146 Goal=   None    Shift=    0.000
 Gap=     0.143 Goal=   None    Shift=    0.000
 RMSDP=2.14D-04 MaxDP=5.06D-03 DE=-1.34D-03 OVMax= 1.34D-02

 Cycle   3  Pass 1  IDiag  1:
 E= -411.344724041639     Delta-E=        0.000268296359 Rises=F Damp=F
 DIIS: error= 2.52D-03 at cycle   3 NSaved=   3.
 NSaved= 3 IEnMin= 2 EnMin= -411.344992337998     IErMin= 2 ErrMin= 1.50D-03
 ErrMax= 2.52D-03  0.00D+00 EMaxC= 1.00D-01 BMatC= 2.09D-03 BMatP= 1.04D-03
 IDIUse=3 WtCom= 1.66D-01 WtEn= 8.34D-01
 Coeff-Com: -0.588D-03 0.591D+00 0.410D+00
 Coeff-En:   0.000D+00 0.643D+00 0.357D+00
 Coeff:     -0.976D-04 0.634D+00 0.366D+00
 Gap=     0.148 Goal=   None    Shift=    0.000
 Gap=     0.140 Goal=   None    Shift=    0.000
 RMSDP=1.44D-04 MaxDP=3.86D-03 DE= 2.68D-04 OVMax= 8.70D-03

 Cycle   4  Pass 1  IDiag  1:
 E= -411.345229648338     Delta-E=       -0.000505606699 Rises=F Damp=F
 DIIS: error= 2.38D-04 at cycle   4 NSaved=   4.
 NSaved= 4 IEnMin= 4 EnMin= -411.345229648338     IErMin= 4 ErrMin= 2.38D-04
 ErrMax= 2.38D-04  0.00D+00 EMaxC= 1.00D-01 BMatC= 5.47D-05 BMatP= 1.04D-03
 IDIUse=3 WtCom= 9.98D-01 WtEn= 2.38D-03
 Coeff-Com: -0.152D-01 0.281D+00 0.177D+00 0.557D+00
 Coeff-En:   0.000D+00 0.000D+00 0.000D+00 0.100D+01
 Coeff:     -0.151D-01 0.280D+00 0.177D+00 0.558D+00
 Gap=     0.148 Goal=   None    Shift=    0.000
 Gap=     0.140 Goal=   None    Shift=    0.000
 RMSDP=2.42D-05 MaxDP=8.08D-04 DE=-5.06D-04 OVMax= 1.66D-03

 Cycle   5  Pass 1  IDiag  1:
[...]
 213. BD*(   2) C   6 - N   7        /138. RY*(   5) N   7                    0.50    1.26    0.098
 216. BD*(   2) C   8 - N   9        /154. RY*(   4) C   8                    0.81    1.59    0.097
 216. BD*(   2) C   8 - N   9        /155. RY*(   5) C   8                    0.29    0.88    0.043
 216. BD*(   2) C   8 - N   9        /170. RY*(   3) N   9                    1.16    0.49    0.065
 216. BD*(   2) C   8 - N   9        /172. RY*(   5) N   9                    0.26    2.15    0.064
 216. BD*(   2) C   8 - N   9        /182. RY*(  15) N   9                    0.27    1.65    0.058
 216. BD*(   2) C   8 - N   9        /201. BD*(   2) C   1 - C   2           72.39    0.01    0.061
 216. BD*(   2) C   8 - N   9        /213. BD*(   2) C   6 - N   7           32.59    0.03    0.072


 Natural Bond Orbitals (Summary):

                                                            Principal Delocalizations
           NBO                        Occupancy    Energy   (geminal,vicinal,remote)
 ====================================================================================
 Molecular unit  1  (C5H3N4)
     1. BD (   1) C   1 - C   2          0.99069    -0.74130  206(v),205(g),214(r),67(v)
                                                    203(g),168(v),169(v),68(v)
                                                    204(g)
     2. BD (   2) C   1 - C   2          0.90363    -0.29594  216(v),72(v),170(v)
     3. BD (   1) C   1 - N   9          0.98562    -0.79220  214(v),205(v),152(v),207(v)
                                                    204(v),200(g),215(g)
     4. BD (   1) C   1 - H  10          0.99306    -0.56001  215(v),204(v),168(v),49(v)
                                                    200(g)
     5. BD (   1) C   2 - N   3          0.99081    -0.85246  214(v),203(v),208(v),207(g)
                                                    206(g),83(v),200(g),32(v)
                                                    36(v),202(v)
     6. BD (   1) C   2 - H  11          0.99257    -0.58397  207(v),202(v),200(g),33(v)
                                                    68(v)
     7. BD (   1) N   3 - N   4          0.99435    -0.95515  101(v),211(v),204(g),207(g)
                                                    49(v),215(v)
     8. BD (   1) N   3 - C   8          0.99079    -0.81799  205(v),49(v),83(v),204(g)
                                                    169(v),135(v),84(v),151(g)
                                                    215(g)
     9. BD (   1) N   4 - C   5          0.98503    -0.90734  29(v),204(v),210(g),69(v)
                                                    66(v),67(v)
    10. BD (   2) N   4 - C   5          0.92857    -0.37091  213(v),70(v),209(g),120(v)
    11. BD (   1) C   5 - C   6          0.99654    -0.74513  29(g),134(v),84(v),135(v)
                                                    211(g),214(v)
    12. BD (   1) C   5 - H  12          0.99010    -0.57677  206(v),212(v),83(v),208(g)
    13. BD (   1) C   6 - N   7          0.99432    -0.94111  215(v),152(v),214(g),100(v)
                                                    211(v)
    14. BD (   2) C   6 - N   7          0.89972    -0.35755  216(v),209(v),154(v),157(v)
                                                    104(v)
    15. BD (   1) N   7 - C   8          0.96884    -0.85849  29(v),215(g),117(v),212(g)
                                                    204(v),202(v)
    16. BD (   1) C   8 - N   9          0.99198    -0.87489  214(g),33(v),203(v),206(v)
                                                    212(v),202(g)
    17. BD (   2) C   8 - N   9          0.90852    -0.33660  201(v),213(v),34(v),216(g)
                                                    136(v)
    18. CR (   1) C   1                  0.99962   -10.09349  49(v),205(v),215(v),52(v)
                                                    169(v)
    19. CR (   1) C   2                  0.99959   -10.09616  206(v),33(v),207(v),190(v)
                                                    200(g),203(v)
    20. CR (   1) N   3                  0.99960   -14.28315  152(v),51(v),84(v),208(v)
    21. CR (   1) N   4                  0.99970   -14.23091  100(v),204(v),207(v),210(v)
                                                    71(v)
    22. CR (   1) C   5                  0.99960   -10.13261  29(v),117(v),206(v),212(v)
    23. CR (   1) C   6                  0.99889   -10.12989  29(g),214(v),135(v),101(v)
    24. CR (   1) N   7                  0.99938   -14.18250  117(v),158(v),153(v),118(v)
                                                    215(v),210(v),29(v)
    25. CR (   1) C   8                  0.99954   -10.17161  212(v),202(v),206(v),169(v)
                                                    204(v)
    26. CR (   1) N   9                  0.99968   -14.13015  32(v),152(v),214(v),153(v)
                                                    156(v),151(v)
    27. LP (   1) N   3                  0.74263    -0.31585  209(v),216(v),201(v),50(v)
                                                    85(v),155(v)
    28. LP (   1) N   4                  0.94302    -0.44734  207(v),210(v),100(v),211(v)
                                                    66(v),29(r)
    29. LP*(   1) C   6                  0.20491    -0.08747  210(g),214(v),118(g),208(v)
                                                    211(v),212(g),101(v),135(v)
                                                    124(g)
    30. LP (   1) N   7                  0.81663    -0.36217  29(v),207(v),210(v),118(v)
                                                    153(v),215(v),117(v),151(v)
                                                    214(g),212(g)
    31. LP (   1) N   9                  0.95354    -0.38548  207(v),200(v),151(v),32(v)
                                                    203(v),153(v),152(v),214(v)
                                                    162(v),206(r),40(v)
    32. RY*(   1) C   1                  0.00307     1.09014   
    33. RY*(   2) C   1                  0.00194     1.25824   
    34. RY*(   3) C   1                  0.00092     1.31522   
    35. RY*(   4) C   1                  0.00037     0.85766   
    36. RY*(   5) C   1                  0.00032     0.95713   
    37. RY*(   6) C   1                  0.00016     1.46732   
    38. RY*(   7) C   1                  0.00007     3.39781   
    39. RY*(   8) C   1                  0.00003     1.39471   
    40. RY*(   9) C   1                  0.00001     2.04012   
    41. RY*(  10) C   1                  0.00001     2.07507   
    42. RY*(  11) C   1                  0.00001     0.39687   
    43. RY*(  12) C   1                  0.00001     2.00582   
    44. RY*(  13) C   1                  0.00000     0.47936   
    45. RY*(  14) C   1                  0.00000     1.34300   
    46. RY*(  15) C   1                  0.00000    21.60787   
    47. RY*(  16) C   1                  0.00000     2.69787   
    48. RY*(  17) C   1                  0.00000     2.12926   
    49. RY*(   1) C   2                  0.00229     1.16659   
    50. RY*(   2) C   2                  0.00128     0.64977   
    51. RY*(   3) C   2                  0.00076     1.18959   
    52. RY*(   4) C   2                  0.00034     0.88376   
    53. RY*(   5) C   2                  0.00028     1.43732   
    54. RY*(   6) C   2                  0.00012     2.55547   
    55. RY*(   7) C   2                  0.00007     3.15856   
    56. RY*(   8) C   2                  0.00005     2.76528   
    57. RY*(   9) C   2                  0.00004     1.16478   
    58. RY*(  10) C   2                  0.00002     4.47493   
    59. RY*(  11) C   2                  0.00000     1.01866   
    60. RY*(  12) C   2                  0.00001     2.23191   
    61. RY*(  13) C   2                  0.00000     2.39180   
    62. RY*(  14) C   2                  0.00000     1.40325   
    63. RY*(  15) C   2                  0.00000    16.56961   
    64. RY*(  16) C   2                  0.00001     1.65641   
    65. RY*(  17) C   2                  0.00001     2.09667   
    66. RY*(   1) N   3                  0.00409     0.71048   
    67. RY*(   2) N   3                  0.00203     1.14056   
    68. RY*(   3) N   3                  0.00132     1.03518   
    69. RY*(   4) N   3                  0.00100     0.98494   
    70. RY*(   5) N   3                  0.00083     1.68805   
    71. RY*(   6) N   3                  0.00073     0.96911   
    72. RY*(   7) N   3                  0.00055     1.20560   
    73. RY*(   8) N   3                  0.00020     1.14044   
    74. RY*(   9) N   3                  0.00019     1.94463   
    75. RY*(  10) N   3                  0.00004     2.85648   
    76. RY*(  11) N   3                  0.00003     0.35576   
    77. RY*(  12) N   3                  0.00002     4.22051   
    78. RY*(  13) N   3                  0.00001     2.45969   
    79. RY*(  14) N   3                  0.00000    34.97742   
    80. RY*(  15) N   3                  0.00000     3.71222   
    81. RY*(  16) N   3                  0.00000     3.99026   
    82. RY*(  17) N   3                  0.00001     2.60079   
    83. RY*(   1) N   4                  0.00273     0.82173   
    84. RY*(   2) N   4                  0.00108     0.99457   
    85. RY*(   3) N   4                  0.00083     1.22409   
    86. RY*(   4) N   4                  0.00033     1.53017   
    87. RY*(   5) N   4                  0.00019     1.55404   
    88. RY*(   6) N   4                  0.00010     2.25298   
    89. RY*(   7) N   4                  0.00003     1.14294   
    90. RY*(   8) N   4                  0.00002     1.14455   
    91. RY*(   9) N   4                  0.00002     3.03208   
    92. RY*(  10) N   4                  0.00001     1.34715   
    93. RY*(  11) N   4                  0.00001     3.89886   
    94. RY*(  12) N   4                  0.00001     2.41494   
    95. RY*(  13) N   4                  0.00000    34.54264   
    96. RY*(  14) N   4                  0.00001     0.94833   
    97. RY*(  15) N   4                  0.00000     1.53809   
    98. RY*(  16) N   4                  0.00000     3.78340   
    99. RY*(  17) N   4                  0.00000     3.65660   
   100. RY*(   1) C   5                  0.00260     1.12706   
   101. RY*(   2) C   5                  0.00198     1.13207   
   102. RY*(   3) C   5                  0.00062     1.10058   
   103. RY*(   4) C   5                  0.00043     1.83927   
   104. RY*(   5) C   5                  0.00034     0.99482   
   105. RY*(   6) C   5                  0.00018     1.15850   
   106. RY*(   7) C   5                  0.00008     1.03413   
   107. RY*(   8) C   5                  0.00003     2.13767   
   108. RY*(   9) C   5                  0.00000     2.06113   
   109. RY*(  10) C   5                  0.00000     0.46075   
   110. RY*(  11) C   5                  0.00001     0.35428   
   111. RY*(  12) C   5                  0.00000     2.66227   
   112. RY*(  13) C   5                  0.00000     2.92017   
   113. RY*(  14) C   5                  0.00001     1.37822   
   114. RY*(  15) C   5                  0.00000    22.76182   
   115. RY*(  16) C   5                  0.00001     0.72642   
   116. RY*(  17) C   5                  0.00000     1.98021   
   117. RY*(   1) C   6                  0.00218     1.12869   
   118. RY*(   2) C   6                  0.00081     0.73511   
   119. RY*(   3) C   6                  0.00059     1.22373   
   120. RY*(   4) C   6                  0.00032     0.98182   
   121. RY*(   5) C   6                  0.00023     0.88737   
   122. RY*(   6) C   6                  0.00017     1.34418   
   123. RY*(   7) C   6                  0.00005     2.88361   
   124. RY*(   8) C   6                  0.00003     1.06706   
   125. RY*(   9) C   6                  0.00003     0.56653   
   126. RY*(  10) C   6                  0.00001     2.51965   
   127. RY*(  11) C   6                  0.00000    21.81445   
   128. RY*(  12) C   6                  0.00001     2.63443   
   129. RY*(  13) C   6                  0.00000     2.70163   
   130. RY*(  14) C   6                  0.00000     1.08387   
   131. RY*(  15) C   6                  0.00001     0.41476   
   132. RY*(  16) C   6                  0.00000     1.59921   
   133. RY*(  17) C   6                  0.00000     1.80737   
   134. RY*(   1) N   7                  0.00142     0.72906   
   135. RY*(   2) N   7                  0.00085     1.10465   
   136. RY*(   3) N   7                  0.00035     1.43702   
   137. RY*(   4) N   7                  0.00028     1.43405   
   138. RY*(   5) N   7                  0.00016     1.27460   
   139. RY*(   6) N   7                  0.00007     1.76823   
   140. RY*(   7) N   7                  0.00003     2.35631   
   141. RY*(   8) N   7                  0.00001     0.81097   
   142. RY*(   9) N   7                  0.00001     0.72454   
   143. RY*(  10) N   7                  0.00001     2.80013   
   144. RY*(  11) N   7                  0.00000     3.83241   
   145. RY*(  12) N   7                  0.00001     1.70460   
   146. RY*(  13) N   7                  0.00000    35.07485   
   147. RY*(  14) N   7                  0.00001     3.41825   
   148. RY*(  15) N   7                  0.00001     2.12490   
   149. RY*(  16) N   7                  0.00000     3.77240   
   150. RY*(  17) N   7                  0.00000     2.49981   
   151. RY*(   1) C   8                  0.00976     0.67814   
   152. RY*(   2) C   8                  0.00385     1.07741   
   153. RY*(   3) C   8                  0.00291     1.63874   
   154. RY*(   4) C   8                  0.00213     1.56580   
   155. RY*(   5) C   8                  0.00077     0.86437   
   156. RY*(   6) C   8                  0.00056     0.83322   
   157. RY*(   7) C   8                  0.00043     1.06015   
   158. RY*(   8) C   8                  0.00035     1.20867   
   159. RY*(   9) C   8                  0.00014     1.89857   
   160. RY*(  10) C   8                  0.00009     2.30154   
   161. RY*(  11) C   8                  0.00003     2.97834   
   162. RY*(  12) C   8                  0.00004     2.66907   
   163. RY*(  13) C   8                  0.00000     2.10658   
   164. RY*(  14) C   8                  0.00000    20.17017   
   165. RY*(  15) C   8                  0.00000     0.47287   
   166. RY*(  16) C   8                  0.00000     2.70173   
   167. RY*(  17) C   8                  0.00001     1.79253   
   168. RY*(   1) N   9                  0.00136     0.76706   
   169. RY*(   2) N   9                  0.00070     1.13682   
   170. RY*(   3) N   9                  0.00049     0.47036   
   171. RY*(   4) N   9                  0.00026     1.52754   
   172. RY*(   5) N   9                  0.00018     2.13335   
   173. RY*(   6) N   9                  0.00007     2.00499   
   174. RY*(   7) N   9                  0.00005     2.09917   
   175. RY*(   8) N   9                  0.00003     1.37103   
   176. RY*(   9) N   9                  0.00003     1.78496   
   177. RY*(  10) N   9                  0.00000    35.13683   
   178. RY*(  11) N   9                  0.00000     3.18398   
   179. RY*(  12) N   9                  0.00000     3.80361   
   180. RY*(  13) N   9                  0.00001     2.32180   
   181. RY*(  14) N   9                  0.00000     3.71827   
   182. RY*(  15) N   9                  0.00000     1.62921   
   183. RY*(  16) N   9                  0.00000     1.42818   
   184. RY*(  17) N   9                  0.00001     2.33316   
   185. RY*(   1) H  10                  0.00016     0.61387   
   186. RY*(   2) H  10                  0.00010     2.40773   
   187. RY*(   3) H  10                  0.00008     1.57273   
   188. RY*(   4) H  10                  0.00005     2.45729   
   189. RY*(   5) H  10                  0.00002     1.77692   
   190. RY*(   1) H  11                  0.00031     1.74064   
   191. RY*(   2) H  11                  0.00012     1.56779   
   192. RY*(   3) H  11                  0.00010     0.94265   
   193. RY*(   4) H  11                  0.00004     1.95849   
   194. RY*(   5) H  11                  0.00001     2.53677   
   195. RY*(   1) H  12                  0.00030     0.44059   
   196. RY*(   2) H  12                  0.00008     2.46768   
   197. RY*(   3) H  12                  0.00006     2.38178   
   198. RY*(   4) H  12                  0.00006     1.55661   
   199. RY*(   5) H  12                  0.00002     1.90706   
   200. BD*(   1) C   1 - C   2          0.00898     0.54678   
   201. BD*(   2) C   1 - C   2          0.15035    -0.00799  216(v),35(g),53(g),50(g)
   202. BD*(   1) C   1 - N   9          0.00385     0.47243   
   203. BD*(   1) C   1 - H  10          0.00853     0.40944   
   204. BD*(   1) C   2 - N   3          0.00910     0.41003   
   205. BD*(   1) C   2 - H  11          0.00582     0.39392   
   206. BD*(   1) N   3 - N   4          0.01581     0.35868   
   207. BD*(   1) N   3 - C   8          0.04736     0.32583   
   208. BD*(   1) N   4 - C   5          0.00553     0.50869   
   209. BD*(   2) N   4 - C   5          0.13513    -0.04733  213(v),102(g),87(g)
   210. BD*(   1) C   5 - C   6          0.01551     0.45077   
   211. BD*(   1) C   5 - H  12          0.01085     0.37836   
   212. BD*(   1) C   6 - N   7          0.00348     0.63347   
   213. BD*(   2) C   6 - N   7          0.10433     0.01267  216(v),209(v),119(g),138(g)
   214. BD*(   1) N   7 - C   8          0.02004     0.46515   
   215. BD*(   1) C   8 - N   9          0.01057     0.54307   
   216. BD*(   2) C   8 - N   9          0.21481    -0.01962  201(v),213(v),170(g),154(g)
                                                    209(r),155(g),182(g),172(g)
       -------------------------------
              Total Lewis   28.95658  ( 96.5219%)
        Valence non-Lewis    0.97497  (  3.2499%)
        Rydberg non-Lewis    0.06846  (  0.2282%)
       -------------------------------
            Total unit  1   30.00000  (100.0000%)
           Charge unit  1    0.50000
 Leave Link  607 at Fri Oct 28 17:40:47 2022, MaxMem=  8053063680 cpu:              58.0 elap:               1.8
 (Enter /public3/home/scg5914/software-scg5914/g16/l9999.exe)
 Unable to Open any file for archive entry.
 1\1\GINC-J1105\SP\UB3LYP\Gen\C5H3N4(2)\SCG5914\28-Oct-2022\0\\#p b3lyp
 /chkbas pop=nbo geom=allcheck guess=tcheck em=gd3bj\\dsgdb9nsd_123508-
 4\\0,2\C,0,0.027617695,1.3086602893,0.0092455001\C,0,1.321652727,1.785
 5999064,-0.0006726183\N,0,2.1075414961,0.6624309188,-0.0144306188\N,0,
 3.4402120322,0.5876644514,-0.0277323209\C,0,3.9306900857,-0.6309729447
 ,-0.0391690656\C,0,3.0522535746,-1.7528535533,-0.0368261657\N,0,1.7891
 801975,-1.6816836109,-0.024219249\C,0,1.221265577,-0.4555211867,-0.011
 9955056\N,0,-0.0268455694,-0.0605241332,0.0022419761\H,0,-0.8764430099
 ,1.8974277371,0.021228018\H,0,1.7437668627,2.7751129822,0.0006689454\H
 ,0,5.0074700713,-0.7186892065,-0.0500550059\\Version=ES64L-G16RevC.01\
 State=2-A\HF=-411.3456871\S2=0.756071\S2-1=0.\S2A=0.750024\RMSD=2.973e
 -09\Dipole=0.8664847,0.9788606,-0.0030057\Quadrupole=0.3307843,-0.0058
 346,-0.3249496,-5.1004283,-0.0343686,0.0510805\PG=C01 [X(C5H3N4)]\\@
 The archive entry for this job was punched.


 A CHEMICAL PHYSICIST MAKES PRECISE MEASUREMENTS ON IMPURE COMPOUNDS.
 A THEORETICAL PHYSICAL CHEMIST MAKES IMPRECISE
     MEASUREMENTS ON PURE COMPOUNDS.
 AN EXPERIMENTAL PHYSICAL CHEMIST MAKES IMPRECISE
     MEASUREMENTS ON IMPURE COMPOUNDS.
 Job cpu time:       0 days  0 hours  2 minutes  2.0 seconds.
 Elapsed time:       0 days  0 hours  0 minutes  4.3 seconds.
 File lengths (MBytes):  RWF=     34 Int=      0 D2E=      0 Chk=      6 Scr=      1
 Normal termination of Gaussian 16 at Fri Oct 28 17:40:47 2022.
