 Entering Gaussian System, Link 0=/public3/home/scg5914/software-scg5914/g16/g16
 Input=dsgdb9nsd_130472-2.gjf
 Output=dsgdb9nsd_130472-2.log
 Initial command:
 /public3/home/scg5914/software-scg5914/g16/l1.exe "/public3/home/scg5914/software-scg5914/test/tmp/dsgdb9nsd_130472-2/Gau-227749.inp" -scrdir="/public3/home/scg5914/software-scg5914/test/tmp/dsgdb9nsd_130472-2/"
 Entering Link 1 = /public3/home/scg5914/software-scg5914/g16/l1.exe PID=    227750.
  
 Copyright (c) 1988-2019, Gaussian, Inc.  All Rights Reserved.
  
 This is part of the Gaussian(R) 16 program.  It is based on
 the Gaussian(R) 09 system (copyright 2009, Gaussian, Inc.),
 the Gaussian(R) 03 system (copyright 2003, Gaussian, Inc.),
 the Gaussian(R) 98 system (copyright 1998, Gaussian, Inc.),
 the Gaussian(R) 94 system (copyright 1995, Gaussian, Inc.),
 the Gaussian 92(TM) system (copyright 1992, Gaussian, Inc.),
 the Gaussian 90(TM) system (copyright 1990, Gaussian, Inc.),
 the Gaussian 88(TM) system (copyright 1988, Gaussian, Inc.),
 the Gaussian 86(TM) system (copyright 1986, Carnegie Mellon
 University), and the Gaussian 82(TM) system (copyright 1983,
 Carnegie Mellon University). Gaussian is a federally registered
 trademark of Gaussian, Inc.
  
 This software contains proprietary and confidential information,
 including trade secrets, belonging to Gaussian, Inc.
  
 This software is provided under written license and may be
 used, copied, transmitted, or stored only in accord with that
 written license.
  
 The following legend is applicable only to US Government
 contracts under FAR:
  
                    RESTRICTED RIGHTS LEGEND
  
 Use, reproduction and disclosure by the US Government is
 subject to restrictions as set forth in subparagraphs (a)
 and (c) of the Commercial Computer Software - Restricted
 Rights clause in FAR 52.227-19.
  
 Gaussian, Inc.
 340 Quinnipiac St., Bldg. 40, Wallingford CT 06492
  
  
 ---------------------------------------------------------------
 Warning -- This program may not be used in any manner that
 competes with the business of Gaussian, Inc. or will provide
 assistance to any competitor of Gaussian, Inc.  The licensee
 of this program is prohibited from giving any competitor of
 Gaussian, Inc. access to this program.  By using this program,
 the user acknowledges that Gaussian, Inc. is engaged in the
 business of creating and licensing software in the field of
 computational chemistry and represents and warrants to the
 licensee that it is not a competitor of Gaussian, Inc. and that
 it will not use this program in any manner prohibited above.
 ---------------------------------------------------------------
  

 Cite this work as:
 Gaussian 16, Revision C.01,
 M. J. Frisch, G. W. Trucks, H. B. Schlegel, G. E. Scuseria, 
 M. A. Robb, J. R. Cheeseman, G. Scalmani, V. Barone, 
 G. A. Petersson, H. Nakatsuji, X. Li, M. Caricato, A. V. Marenich, 
 J. Bloino, B. G. Janesko, R. Gomperts, B. Mennucci, H. P. Hratchian, 
 J. V. Ortiz, A. F. Izmaylov, J. L. Sonnenberg, D. Williams-Young, 
 F. Ding, F. Lipparini, F. Egidi, J. Goings, B. Peng, A. Petrone, 
 T. Henderson, D. Ranasinghe, V. G. Zakrzewski, J. Gao, N. Rega, 
 G. Zheng, W. Liang, M. Hada, M. Ehara, K. Toyota, R. Fukuda, 
 J. Hasegawa, M. Ishida, T. Nakajima, Y. Honda, O. Kitao, H. Nakai, 
 T. Vreven, K. Throssell, J. A. Montgomery, Jr., J. E. Peralta, 
 F. Ogliaro, M. J. Bearpark, J. J. Heyd, E. N. Brothers, K. N. Kudin, 
 V. N. Staroverov, T. A. Keith, R. Kobayashi, J. Normand, 
 K. Raghavachari, A. P. Rendell, J. C. Burant, S. S. Iyengar, 
 J. Tomasi, M. Cossi, J. M. Millam, M. Klene, C. Adamo, R. Cammi, 
 J. W. Ochterski, R. L. Martin, K. Morokuma, O. Farkas, 
 J. B. Foresman, and D. J. Fox, Gaussian, Inc., Wallingford CT, 2019.
 
 ******************************************
 Gaussian 16:  ES64L-G16RevC.01  3-Jul-2019
                 3-Nov-2022 
 ******************************************
 %chk=dsgdb9nsd_130472-2.chk
 %mem=60GB
 %nprocshared=32
 Will use up to   32 processors via shared memory.
 ------------------------------------
 #p opt freq b3lyp/6-311+g** em=gd3bj
 ------------------------------------
 1/18=20,19=15,26=3,38=1/1,3;
 2/9=110,12=2,17=6,18=5,40=1/2;
 3/5=4,6=6,7=111,11=2,25=1,30=1,71=1,74=-5,124=41/1,2,3;
 4//1;
 5/5=2,38=5/2;
 6/7=2,8=2,9=2,10=2,28=1/1;
 7//1,2,3,16;
 1/18=20,19=15,26=3/3(2);
 2/9=110/2;
 99//99;
 2/9=110/2;
 3/5=4,6=6,7=111,11=2,25=1,30=1,71=1,74=-5,124=41/1,2,3;
 4/5=5,16=3,69=1/1;
 5/5=2,38=5/2;
 7//1,2,3,16;
 1/18=20,19=15,26=3/3(-5);
 2/9=110/2;
 6/7=2,8=2,9=2,10=2,19=2,28=1/1;
 99/9=1/99;
 Leave Link    1 at Thu Nov  3 03:51:24 2022, MaxMem=  8053063680 cpu:               0.9 elap:               0.0
 (Enter /public3/home/scg5914/software-scg5914/g16/l101.exe)
 ------------------
 dsgdb9nsd_130472-2
 ------------------
 Symbolic Z-matrix:
 Charge =  0 Multiplicity = 2
 O                    -0.01664   1.26536   0.00923 
 C                     1.21628   1.75913  -0.00005 
 C                     2.11454   0.72243  -0.01449 
 C                     3.51405   0.49969  -0.02934 
 N                     3.98824  -0.71739  -0.04059 
 C                     3.07844  -1.75698  -0.0374 
 N                     1.77373  -1.70895  -0.02448 
 C                     1.27403  -0.44202  -0.01269 
 N                    -0.01327  -0.12889   0.00152 
 H                     1.29873   2.83522   0.00505 
 H                     3.53222  -2.7447   -0.0473 
 
 ITRead=  0  0  0  0  0  0  0  0  0  0  0
 MicOpt= -1 -1 -1 -1 -1 -1 -1 -1 -1 -1 -1
 NAtoms=     11 NQM=       11 NQMF=       0 NMMI=      0 NMMIF=      0
                NMic=       0 NMicF=      0.
                    Isotopes and Nuclear Properties:
 (Nuclear quadrupole moments (NQMom) in fm**2, nuclear magnetic moments (NMagM)
  in nuclear magnetons)

  Atom         1           2           3           4           5           6           7           8           9          10
 IAtWgt=          16          12          12          12          14          12          14          12          14           1
 AtmWgt=  15.9949146  12.0000000  12.0000000  12.0000000  14.0030740  12.0000000  14.0030740  12.0000000  14.0030740   1.0078250
 NucSpn=           0           0           0           0           2           0           2           0           2           1
 AtZEff=  -0.0000000  -0.0000000  -0.0000000  -0.0000000  -0.0000000  -0.0000000  -0.0000000  -0.0000000  -0.0000000  -0.0000000
 NQMom=    0.0000000   0.0000000   0.0000000   0.0000000   2.0440000   0.0000000   2.0440000   0.0000000   2.0440000   0.0000000
 NMagM=    0.0000000   0.0000000   0.0000000   0.0000000   0.4037610   0.0000000   0.4037610   0.0000000   0.4037610   2.7928460
 AtZNuc=   8.0000000   6.0000000   6.0000000   6.0000000   7.0000000   6.0000000   7.0000000   6.0000000   7.0000000   1.0000000

  Atom        11
 IAtWgt=           1
 AtmWgt=   1.0078250
 NucSpn=           1
 AtZEff=  -0.0000000
 NQMom=    0.0000000
 NMagM=    2.7928460
 AtZNuc=   1.0000000
 Leave Link  101 at Thu Nov  3 03:51:25 2022, MaxMem=  8053063680 cpu:               4.4 elap:               0.2
 (Enter /public3/home/scg5914/software-scg5914/g16/l103.exe)

 GradGradGradGradGradGradGradGradGradGradGradGradGradGradGradGradGradGrad
 Berny optimization.
 Initialization pass.
                           ----------------------------
                           !    Initial Parameters    !
                           ! (Angstroms and Degrees)  !
 --------------------------                            --------------------------
 ! Name  Definition              Value          Derivative Info.                !
 --------------------------------------------------------------------------------
 ! R1    R(1,2)                  1.3282         estimate D2E/DX2                !
 ! R2    R(1,9)                  1.3943         estimate D2E/DX2                !
 ! R3    R(2,3)                  1.3718         estimate D2E/DX2                !
 ! R4    R(2,10)                 1.0793         estimate D2E/DX2                !
 ! R5    R(3,4)                  1.4172         estimate D2E/DX2                !
 ! R6    R(3,8)                  1.4361         estimate D2E/DX2                !
 ! R7    R(4,5)                  1.3062         estimate D2E/DX2                !
 ! R8    R(5,6)                  1.3815         estimate D2E/DX2                !
 ! R9    R(6,7)                  1.3057         estimate D2E/DX2                !
 ! R10   R(6,11)                 1.087          estimate D2E/DX2                !
 ! R11   R(7,8)                  1.362          estimate D2E/DX2                !
 ! R12   R(8,9)                  1.3249         estimate D2E/DX2                !
 ! A1    A(2,1,9)              111.6835         estimate D2E/DX2                !
 ! A2    A(1,2,3)              109.0849         estimate D2E/DX2                !
 ! A3    A(1,2,10)             116.2036         estimate D2E/DX2                !
 ! A4    A(3,2,10)             134.7115         estimate D2E/DX2                !
 ! A5    A(2,3,4)              139.9529         estimate D2E/DX2                !
 ! A6    A(2,3,8)              103.2691         estimate D2E/DX2                !
 ! A7    A(4,3,8)              116.7781         estimate D2E/DX2                !
 ! A8    A(3,4,5)              120.3323         estimate D2E/DX2                !
 ! A9    A(4,5,6)              117.5204         estimate D2E/DX2                !
 ! A10   A(5,6,7)              129.0815         estimate D2E/DX2                !
 ! A11   A(5,6,11)             114.1318         estimate D2E/DX2                !
 ! A12   A(7,6,11)             116.7867         estimate D2E/DX2                !
 ! A13   A(6,7,8)              113.637          estimate D2E/DX2                !
 ! A14   A(3,8,7)              122.6507         estimate D2E/DX2                !
 ! A15   A(3,8,9)              112.1498         estimate D2E/DX2                !
 ! A16   A(7,8,9)              125.1995         estimate D2E/DX2                !
 ! A17   A(1,9,8)              103.8127         estimate D2E/DX2                !
 ! D1    D(9,1,2,3)             -0.0004         estimate D2E/DX2                !
 ! D2    D(9,1,2,10)           179.9988         estimate D2E/DX2                !
 ! D3    D(2,1,9,8)              0.0015         estimate D2E/DX2                !
 ! D4    D(1,2,3,4)            179.9991         estimate D2E/DX2                !
 ! D5    D(1,2,3,8)             -0.0007         estimate D2E/DX2                !
 ! D6    D(10,2,3,4)             0.0            estimate D2E/DX2                !
 ! D7    D(10,2,3,8)          -179.9998         estimate D2E/DX2                !
 ! D8    D(2,3,4,5)            179.9982         estimate D2E/DX2                !
 ! D9    D(8,3,4,5)             -0.0021         estimate D2E/DX2                !
 ! D10   D(2,3,8,7)           -179.9984         estimate D2E/DX2                !
 ! D11   D(2,3,8,9)              0.0017         estimate D2E/DX2                !
 ! D12   D(4,3,8,7)              0.0018         estimate D2E/DX2                !
 ! D13   D(4,3,8,9)           -179.9982         estimate D2E/DX2                !
 ! D14   D(3,4,5,6)              0.0001         estimate D2E/DX2                !
 ! D15   D(4,5,6,7)              0.0028         estimate D2E/DX2                !
 ! D16   D(4,5,6,11)           179.9946         estimate D2E/DX2                !
 ! D17   D(5,6,7,8)             -0.0031         estimate D2E/DX2                !
 ! D18   D(11,6,7,8)          -179.9947         estimate D2E/DX2                !
 ! D19   D(6,7,8,3)              0.0006         estimate D2E/DX2                !
 ! D20   D(6,7,8,9)           -179.9995         estimate D2E/DX2                !
 ! D21   D(3,8,9,1)             -0.0019         estimate D2E/DX2                !
 ! D22   D(7,8,9,1)            179.9982         estimate D2E/DX2                !
 --------------------------------------------------------------------------------
 Trust Radius=3.00D-01 FncErr=1.00D-07 GrdErr=1.00D-06 EigMax=2.50D+02 EigMin=1.00D-04
 Number of steps in this run=     61 maximum allowed number of steps=    100.
 GradGradGradGradGradGradGradGradGradGradGradGradGradGradGradGradGradGrad

 Leave Link  103 at Thu Nov  3 03:51:25 2022, MaxMem=  8053063680 cpu:               0.2 elap:               0.0
 (Enter /public3/home/scg5914/software-scg5914/g16/l202.exe)
                          Input orientation:                          
 ---------------------------------------------------------------------
 Center     Atomic      Atomic             Coordinates (Angstroms)
 Number     Number       Type             X           Y           Z
 ---------------------------------------------------------------------
      1          8           0       -0.016643    1.265360    0.009227
      2          6           0        1.216281    1.759130   -0.000052
      3          6           0        2.114536    0.722429   -0.014485
      4          6           0        3.514052    0.499688   -0.029336
      5          7           0        3.988238   -0.717395   -0.040593
      6          6           0        3.078440   -1.756985   -0.037399
      7          7           0        1.773730   -1.708947   -0.024477
      8          6           0        1.274031   -0.442022   -0.012693
      9          7           0       -0.013269   -0.128888    0.001522
     10          1           0        1.298729    2.835220    0.005047
     11          1           0        3.532216   -2.744703   -0.047300
 ---------------------------------------------------------------------
                    Distance matrix (angstroms):
                    1          2          3          4          5
     1  O    0.000000
     2  C    1.328156   0.000000
     3  C    2.199377   1.371794   0.000000
     4  C    3.612970   2.620458   1.417208   0.000000
     5  N    4.469102   3.717333   2.363162   1.306243   0.000000
     6  C    4.326231   3.978956   2.660287   2.298346   1.381481
     7  N    3.471753   3.512677   2.455166   2.811906   2.426414
     8  C    2.140437   2.201945   1.436105   2.429978   2.728284
     9  N    1.394273   2.253088   2.291845   3.583023   4.044771
    10  H    2.048093   1.079257   2.264909   3.219247   4.456077
    11  H    5.355203   5.064612   3.745917   3.244491   2.077975
                    6          7          8          9         10
     6  C    0.000000
     7  N    1.305658   0.000000
     8  C    2.232853   1.361961   0.000000
     9  N    3.494407   2.385503   1.324913   0.000000
    10  H    4.925193   4.569021   3.277383   3.241495   0.000000
    11  H    1.087013   2.040977   3.225359   4.406284   6.010553
                   11
    11  H    0.000000
 Stoichiometry    C5H2N3O(2)
 Framework group  C1[X(C5H2N3O)]
 Deg. of freedom    27
 Full point group                 C1      NOp   1
 Largest Abelian subgroup         C1      NOp   1
 Largest concise Abelian subgroup C1      NOp   1
                         Standard orientation:                         
 ---------------------------------------------------------------------
 Center     Atomic      Atomic             Coordinates (Angstroms)
 Number     Number       Type             X           Y           Z
 ---------------------------------------------------------------------
      1          8           0        2.270785   -0.106331   -0.000010
      2          6           0        1.603192    1.041848   -0.000017
      3          6           0        0.257016    0.777974    0.000004
      4          6           0       -0.983021    1.464115    0.000024
      5          7           0       -2.106069    0.797008    0.000004
      6          6           0       -2.029180   -0.582332   -0.000035
      7          7           0       -0.971422   -1.347768   -0.000006
      8          6           0        0.202420   -0.657093    0.000007
      9          7           0        1.409679   -1.202914    0.000026
     10          1           0        2.200774    1.940564   -0.000025
     11          1           0       -2.994925   -1.081266    0.000043
 ---------------------------------------------------------------------
 Rotational constants (GHZ):           4.4063742           1.7248958           1.2396349
 Leave Link  202 at Thu Nov  3 03:51:25 2022, MaxMem=  8053063680 cpu:               0.2 elap:               0.0
 (Enter /public3/home/scg5914/software-scg5914/g16/l301.exe)
 Standard basis: 6-311+G(d,p) (5D, 7F)
 Ernie: Thresh=  0.10000D-02 Tol=  0.10000D-05 Strict=F.
 There are   219 symmetry adapted cartesian basis functions of A   symmetry.
 There are   210 symmetry adapted basis functions of A   symmetry.
   210 basis functions,   340 primitive gaussians,   219 cartesian basis functions
    31 alpha electrons       30 beta electrons
       nuclear repulsion energy       398.5836624761 Hartrees.
 IExCor=  402 DFT=T Ex+Corr=B3LYP ExCW=0 ScaHFX=  0.200000
 ScaDFX=  0.800000  0.720000  1.000000  0.810000 ScalE2=  1.000000  1.000000
 IRadAn=      5 IRanWt=     -1 IRanGd=            0 ICorTp=0 IEmpDi=141
 NAtoms=   11 NActive=   11 NUniq=   11 SFac= 1.00D+00 NAtFMM=   60 NAOKFM=F Big=F
 Integral buffers will be    131072 words long.
 Raffenetti 2 integral format.
 Two-electron integral symmetry is turned on.
 R6Disp:  Grimme-D3(BJ) Dispersion energy=       -0.0211260143 Hartrees.
 Nuclear repulsion after empirical dispersion term =      398.5625364618 Hartrees.
 Leave Link  301 at Thu Nov  3 03:51:25 2022, MaxMem=  8053063680 cpu:               1.3 elap:               0.1
 (Enter /public3/home/scg5914/software-scg5914/g16/l302.exe)
 NPDir=0 NMtPBC=     1 NCelOv=     1 NCel=       1 NClECP=     1 NCelD=      1
         NCelK=      1 NCelE2=     1 NClLst=     1 CellRange=     0.0.
 One-electron integrals computed using PRISM.
 One-electron integral symmetry used in STVInt
 NBasis=   210 RedAO= T EigKep=  6.83D-06  NBF=   210
 NBsUse=   210 1.00D-06 EigRej= -1.00D+00 NBFU=   210
 Precomputing XC quadrature grid using
 IXCGrd= 4 IRadAn=           5 IRanWt=          -1 IRanGd=           0 AccXCQ= 0.00D+00.
 Generated NRdTot=       0 NPtTot=           0 NUsed=           0 NTot=          32
 NSgBfM=   219   219   219   219   219 MxSgAt=    11 MxSgA2=    11.
 Leave Link  302 at Thu Nov  3 03:51:25 2022, MaxMem=  8053063680 cpu:               4.9 elap:               0.2
 (Enter /public3/home/scg5914/software-scg5914/g16/l303.exe)
 DipDrv:  MaxL=1.
 Leave Link  303 at Thu Nov  3 03:51:25 2022, MaxMem=  8053063680 cpu:               0.5 elap:               0.0
 (Enter /public3/home/scg5914/software-scg5914/g16/l401.exe)
 ExpMin= 4.38D-02 ExpMax= 8.59D+03 ExpMxC= 1.30D+03 IAcc=3 IRadAn=         5 AccDes= 0.00D+00
 Harris functional with IExCor=  402 and IRadAn=       5 diagonalized for initial guess.
 HarFok:  IExCor=  402 AccDes= 0.00D+00 IRadAn=         5 IDoV= 1 UseB2=F ITyADJ=14
 ICtDFT=  3500011 ScaDFX=  1.000000  1.000000  1.000000  1.000000
 FoFCou: FMM=F IPFlag=           0 FMFlag=      100000 FMFlg1=           0
         NFxFlg=           0 DoJE=T BraDBF=F KetDBF=T FulRan=T
         wScrn=  0.000000 ICntrl=       500 IOpCl=  0 I1Cent=   200000004 NGrid=           0
         NMat0=    1 NMatS0=      1 NMatT0=    0 NMatD0=    1 NMtDS0=    0 NMtDT0=    0
 Petite list used in FoFCou.
 Harris En= -431.116884231454    
 JPrj=0 DoOrth=F DoCkMO=F.
 Initial guess <Sx>= 0.0000 <Sy>= 0.0000 <Sz>= 0.5000 <S**2>= 0.7500 S= 0.5000
 Leave Link  401 at Thu Nov  3 03:51:26 2022, MaxMem=  8053063680 cpu:              10.6 elap:               0.4
 (Enter /public3/home/scg5914/software-scg5914/g16/l502.exe)
 Keep R1 and R2 ints in memory in canonical form, NReq=524366968.
 FoFCou: FMM=F IPFlag=           0 FMFlag=           0 FMFlg1=           0
         NFxFlg=           0 DoJE=F BraDBF=F KetDBF=F FulRan=T
         wScrn=  0.000000 ICntrl=       600 IOpCl=  0 I1Cent=           0 NGrid=           0
         NMat0=    1 NMatS0=  22155 NMatT0=    0 NMatD0=    1 NMtDS0=    0 NMtDT0=    0
 Symmetry not used in FoFCou.
 Two-electron integral symmetry not used.
 UHF open shell SCF:
 Using DIIS extrapolation, IDIIS=  1040.
 NGot=  8053063680 LenX=  7562092246 LenY=  7562043844
 Requested convergence on RMS density matrix=1.00D-08 within 128 cycles.
 Requested convergence on MAX density matrix=1.00D-06.
 Requested convergence on             energy=1.00D-06.
 No special actions if energy rises.

 Cycle   1  Pass 1  IDiag  1:
 E= -431.096231024739    
 DIIS: error= 2.03D-02 at cycle   1 NSaved=   1.
 NSaved= 1 IEnMin= 1 EnMin= -431.096231024739     IErMin= 1 ErrMin= 2.03D-02
 ErrMax= 2.03D-02  0.00D+00 EMaxC= 1.00D-01 BMatC= 5.19D-01 BMatP= 5.19D-01
 IDIUse=3 WtCom= 7.97D-01 WtEn= 2.03D-01
 Coeff-Com:  0.100D+01
 Coeff-En:   0.100D+01
 Coeff:      0.100D+01
 Gap=     0.146 Goal=   None    Shift=    0.000
 Gap=     0.150 Goal=   None    Shift=    0.000
 GapD=    0.146 DampG=1.000 DampE=0.500 DampFc=0.5000 IDamp=-1.
 Damping current iteration by 5.00D-01
 RMSDP=1.30D-02 MaxDP=1.06D+00              OVMax= 1.85D-01

 Cycle   2  Pass 1  IDiag  1:
 E= -431.124672711347     Delta-E=       -0.028441686608 Rises=F Damp=T
 DIIS: error= 1.07D-02 at cycle   2 NSaved=   2.
 NSaved= 2 IEnMin= 2 EnMin= -431.124672711347     IErMin= 2 ErrMin= 1.07D-02
 ErrMax= 1.07D-02  0.00D+00 EMaxC= 1.00D-01 BMatC= 9.27D-02 BMatP= 5.19D-01
 IDIUse=3 WtCom= 8.93D-01 WtEn= 1.07D-01
 Coeff-Com:  0.103D+00 0.897D+00
 Coeff-En:   0.279D+00 0.721D+00
 Coeff:      0.122D+00 0.878D+00
 Gap=     0.173 Goal=   None    Shift=    0.000
 Gap=     0.203 Goal=   None    Shift=    0.000
 RMSDP=5.35D-03 MaxDP=5.51D-01 DE=-2.84D-02 OVMax= 2.24D-01

 Cycle   3  Pass 1  IDiag  1:
 E= -431.157772060656     Delta-E=       -0.033099349309 Rises=F Damp=F
 DIIS: error= 1.60D-02 at cycle   3 NSaved=   3.
 NSaved= 3 IEnMin= 3 EnMin= -431.157772060656     IErMin= 2 ErrMin= 1.07D-02
 ErrMax= 1.60D-02  0.00D+00 EMaxC= 1.00D-01 BMatC= 1.37D-01 BMatP= 9.27D-02
 IDIUse=2 WtCom= 0.00D+00 WtEn= 1.00D+00
 Coeff-En:   0.000D+00 0.208D+00 0.792D+00
 Coeff:      0.000D+00 0.208D+00 0.792D+00
 Gap=     0.154 Goal=   None    Shift=    0.000
 Gap=     0.133 Goal=   None    Shift=    0.000
 RMSDP=3.77D-03 MaxDP=2.79D-01 DE=-3.31D-02 OVMax= 1.79D-01

 Cycle   4  Pass 1  IDiag  1:
 E= -431.099141571687     Delta-E=        0.058630488968 Rises=F Damp=F
 DIIS: error= 2.92D-02 at cycle   4 NSaved=   4.
 NSaved= 4 IEnMin= 3 EnMin= -431.157772060656     IErMin= 2 ErrMin= 1.07D-02
 ErrMax= 2.92D-02  0.00D+00 EMaxC= 1.00D-01 BMatC= 3.82D-01 BMatP= 9.27D-02
 IDIUse=2 WtCom= 0.00D+00 WtEn= 1.00D+00
 Coeff-En:   0.000D+00 0.000D+00 0.683D+00 0.317D+00
 Coeff:      0.000D+00 0.000D+00 0.683D+00 0.317D+00
 Gap=     0.147 Goal=   None    Shift=    0.000
 Gap=     0.147 Goal=   None    Shift=    0.000
 RMSDP=1.76D-03 MaxDP=6.45D-02 DE= 5.86D-02 OVMax= 1.10D-01

 Cycle   5  Pass 1  IDiag  1:
 E= -431.185828934180     Delta-E=       -0.086687362493 Rises=F Damp=F
 DIIS: error= 5.44D-03 at cycle   5 NSaved=   5.
 NSaved= 5 IEnMin= 5 EnMin= -431.185828934180     IErMin= 5 ErrMin= 5.44D-03
 ErrMax= 5.44D-03  0.00D+00 EMaxC= 1.00D-01 BMatC= 1.66D-02 BMatP= 9.27D-02
 IDIUse=3 WtCom= 9.46D-01 WtEn= 5.44D-02
 Coeff-Com:  0.170D-01-0.167D-01 0.372D+00 0.142D+00 0.485D+00
 Coeff-En:   0.000D+00 0.000D+00 0.127D+00 0.000D+00 0.873D+00
 Coeff:      0.160D-01-0.158D-01 0.359D+00 0.135D+00 0.506D+00
 Gap=     0.145 Goal=   None    Shift=    0.000
 Gap=     0.149 Goal=   None    Shift=    0.000
 RMSDP=7.26D-04 MaxDP=6.48D-02 DE=-8.67D-02 OVMax= 2.06D-02

 Cycle   6  Pass 1  IDiag  1:
 E= -431.189173246894     Delta-E=       -0.003344312714 Rises=F Damp=F
 DIIS: error= 1.83D-03 at cycle   6 NSaved=   6.
 NSaved= 6 IEnMin= 6 EnMin= -431.189173246894     IErMin= 6 ErrMin= 1.83D-03
 ErrMax= 1.83D-03  0.00D+00 EMaxC= 1.00D-01 BMatC= 1.08D-03 BMatP= 1.66D-02
 IDIUse=3 WtCom= 9.82D-01 WtEn= 1.83D-02
 Coeff-Com:  0.671D-02-0.266D-01 0.953D-01 0.664D-02 0.373D+00 0.545D+00
 Coeff-En:   0.000D+00 0.000D+00 0.000D+00 0.000D+00 0.000D+00 0.100D+01
 Coeff:      0.659D-02-0.261D-01 0.935D-01 0.652D-02 0.366D+00 0.553D+00
 Gap=     0.145 Goal=   None    Shift=    0.000
 Gap=     0.151 Goal=   None    Shift=    0.000
 RMSDP=1.42D-04 MaxDP=5.72D-03 DE=-3.34D-03 OVMax= 5.86D-03

 Cycle   7  Pass 1  IDiag  1:
 E= -431.189403305881     Delta-E=       -0.000230058988 Rises=F Damp=F
 DIIS: error= 3.09D-04 at cycle   7 NSaved=   7.
 NSaved= 7 IEnMin= 7 EnMin= -431.189403305881     IErMin= 7 ErrMin= 3.09D-04
 ErrMax= 3.09D-04  0.00D+00 EMaxC= 1.00D-01 BMatC= 4.83D-05 BMatP= 1.08D-03
 IDIUse=3 WtCom= 9.97D-01 WtEn= 3.09D-03
 Coeff-Com:  0.959D-04-0.553D-02 0.128D-01-0.969D-02 0.121D+00 0.272D+00
 Coeff-Com:  0.610D+00
 Coeff-En:   0.000D+00 0.000D+00 0.000D+00 0.000D+00 0.000D+00 0.000D+00
 Coeff-En:   0.100D+01
 Coeff:      0.956D-04-0.551D-02 0.127D-01-0.966D-02 0.120D+00 0.271D+00
 Coeff:      0.611D+00
 Gap=     0.145 Goal=   None    Shift=    0.000
 Gap=     0.152 Goal=   None    Shift=    0.000
 RMSDP=6.26D-05 MaxDP=6.67D-03 DE=-2.30D-04 OVMax= 1.98D-03

 Cycle   8  Pass 1  IDiag  1:
 E= -431.189416375250     Delta-E=       -0.000013069369 Rises=F Damp=F
 DIIS: error= 1.46D-04 at cycle   8 NSaved=   8.
 NSaved= 8 IEnMin= 8 EnMin= -431.189416375250     IErMin= 8 ErrMin= 1.46D-04
 ErrMax= 1.46D-04  0.00D+00 EMaxC= 1.00D-01 BMatC= 1.32D-05 BMatP= 4.83D-05
 IDIUse=3 WtCom= 9.99D-01 WtEn= 1.46D-03
 Coeff-Com: -0.136D-02 0.238D-02-0.116D-01-0.642D-02-0.418D-02 0.595D-01
 Coeff-Com:  0.378D+00 0.584D+00
 Coeff-En:   0.000D+00 0.000D+00 0.000D+00 0.000D+00 0.000D+00 0.000D+00
 Coeff-En:   0.000D+00 0.100D+01
 Coeff:     -0.136D-02 0.238D-02-0.116D-01-0.641D-02-0.417D-02 0.595D-01
 Coeff:      0.377D+00 0.584D+00
 Gap=     0.145 Goal=   None    Shift=    0.000
 Gap=     0.152 Goal=   None    Shift=    0.000
 RMSDP=2.06D-05 MaxDP=1.02D-03 DE=-1.31D-05 OVMax= 1.40D-03

 Cycle   9  Pass 1  IDiag  1:
 E= -431.189421014424     Delta-E=       -0.000004639174 Rises=F Damp=F
 DIIS: error= 1.53D-04 at cycle   9 NSaved=   9.
 NSaved= 9 IEnMin= 9 EnMin= -431.189421014424     IErMin= 8 ErrMin= 1.46D-04
 ErrMax= 1.53D-04  0.00D+00 EMaxC= 1.00D-01 BMatC= 4.34D-06 BMatP= 1.32D-05
 IDIUse=3 WtCom= 9.99D-01 WtEn= 1.46D-03
 Coeff-Com: -0.891D-03 0.265D-02-0.129D-01-0.836D-03-0.414D-01-0.389D-01
 Coeff-Com:  0.828D-01 0.378D+00 0.631D+00
 Coeff-En:   0.000D+00 0.000D+00 0.000D+00 0.000D+00 0.000D+00 0.000D+00
 Coeff-En:   0.000D+00 0.000D+00 0.100D+01
 Coeff:     -0.890D-03 0.264D-02-0.129D-01-0.835D-03-0.414D-01-0.388D-01
 Coeff:      0.827D-01 0.378D+00 0.632D+00
 Gap=     0.145 Goal=   None    Shift=    0.000
 Gap=     0.152 Goal=   None    Shift=    0.000
 RMSDP=1.57D-05 MaxDP=9.16D-04 DE=-4.64D-06 OVMax= 1.22D-03

 Cycle  10  Pass 1  IDiag  1:
 E= -431.189423388871     Delta-E=       -0.000002374447 Rises=F Damp=F
 DIIS: error= 6.44D-05 at cycle  10 NSaved=  10.
 NSaved=10 IEnMin=10 EnMin= -431.189423388871     IErMin=10 ErrMin= 6.44D-05
 ErrMax= 6.44D-05  0.00D+00 EMaxC= 1.00D-01 BMatC= 1.54D-06 BMatP= 4.34D-06
 IDIUse=1 WtCom= 1.00D+00 WtEn= 0.00D+00
 Coeff-Com: -0.760D-05 0.441D-03-0.424D-02 0.261D-02-0.275D-01-0.506D-01
 Coeff-Com: -0.963D-01-0.199D-01 0.429D+00 0.767D+00
 Coeff:     -0.760D-05 0.441D-03-0.424D-02 0.261D-02-0.275D-01-0.506D-01
 Coeff:     -0.963D-01-0.199D-01 0.429D+00 0.767D+00
 Gap=     0.145 Goal=   None    Shift=    0.000
 Gap=     0.152 Goal=   None    Shift=    0.000
 RMSDP=1.05D-05 MaxDP=4.19D-04 DE=-2.37D-06 OVMax= 9.62D-04

 Cycle  11  Pass 1  IDiag  1:
 E= -431.189424565967     Delta-E=       -0.000001177096 Rises=F Damp=F
 DIIS: error= 3.16D-05 at cycle  11 NSaved=  11.
 NSaved=11 IEnMin=11 EnMin= -431.189424565967     IErMin=11 ErrMin= 3.16D-05
 ErrMax= 3.16D-05  0.00D+00 EMaxC= 1.00D-01 BMatC= 3.34D-07 BMatP= 1.54D-06
 IDIUse=1 WtCom= 1.00D+00 WtEn= 0.00D+00
 Coeff-Com:  0.270D-03-0.439D-03 0.171D-02 0.171D-02-0.281D-02-0.166D-01
 Coeff-Com: -0.782D-01-0.134D+00 0.450D-01 0.417D+00 0.767D+00
 Coeff:      0.270D-03-0.439D-03 0.171D-02 0.171D-02-0.281D-02-0.166D-01
 Coeff:     -0.782D-01-0.134D+00 0.450D-01 0.417D+00 0.767D+00
 Gap=     0.145 Goal=   None    Shift=    0.000
 Gap=     0.152 Goal=   None    Shift=    0.000
 RMSDP=7.39D-06 MaxDP=5.52D-04 DE=-1.18D-06 OVMax= 6.33D-04

 Cycle  12  Pass 1  IDiag  1:
 E= -431.189424905142     Delta-E=       -0.000000339176 Rises=F Damp=F
 DIIS: error= 2.05D-05 at cycle  12 NSaved=  12.
 NSaved=12 IEnMin=12 EnMin= -431.189424905142     IErMin=12 ErrMin= 2.05D-05
 ErrMax= 2.05D-05  0.00D+00 EMaxC= 1.00D-01 BMatC= 1.05D-07 BMatP= 3.34D-07
 IDIUse=1 WtCom= 1.00D+00 WtEn= 0.00D+00
 Coeff-Com:  0.138D-03-0.365D-03 0.235D-02-0.146D-03 0.804D-02 0.784D-02
 Coeff-Com: -0.832D-02-0.529D-01-0.104D+00-0.294D-01 0.344D+00 0.833D+00
 Coeff:      0.138D-03-0.365D-03 0.235D-02-0.146D-03 0.804D-02 0.784D-02
 Coeff:     -0.832D-02-0.529D-01-0.104D+00-0.294D-01 0.344D+00 0.833D+00
 Gap=     0.145 Goal=   None    Shift=    0.000
 Gap=     0.152 Goal=   None    Shift=    0.000
 RMSDP=3.54D-06 MaxDP=1.72D-04 DE=-3.39D-07 OVMax= 3.68D-04

 Cycle  13  Pass 1  IDiag  1:
 E= -431.189425002788     Delta-E=       -0.000000097646 Rises=F Damp=F
 DIIS: error= 1.93D-05 at cycle  13 NSaved=  13.
 NSaved=13 IEnMin=13 EnMin= -431.189425002788     IErMin=13 ErrMin= 1.93D-05
 ErrMax= 1.93D-05  0.00D+00 EMaxC= 1.00D-01 BMatC= 7.24D-08 BMatP= 1.05D-07
 IDIUse=1 WtCom= 1.00D+00 WtEn= 0.00D+00
 Coeff-Com:  0.651D-05-0.980D-04 0.126D-02-0.870D-03 0.786D-02 0.132D-01
 Coeff-Com:  0.268D-01 0.192D-01-0.984D-01-0.190D+00-0.593D-01 0.662D+00
 Coeff-Com:  0.618D+00
 Coeff:      0.651D-05-0.980D-04 0.126D-02-0.870D-03 0.786D-02 0.132D-01
 Coeff:      0.268D-01 0.192D-01-0.984D-01-0.190D+00-0.593D-01 0.662D+00
 Coeff:      0.618D+00
 Gap=     0.145 Goal=   None    Shift=    0.000
 Gap=     0.152 Goal=   None    Shift=    0.000
 RMSDP=2.75D-06 MaxDP=2.64D-04 DE=-9.76D-08 OVMax= 2.15D-04

 Cycle  14  Pass 1  IDiag  1:
 E= -431.189425048490     Delta-E=       -0.000000045703 Rises=F Damp=F
 DIIS: error= 6.76D-06 at cycle  14 NSaved=  14.
 NSaved=14 IEnMin=14 EnMin= -431.189425048490     IErMin=14 ErrMin= 6.76D-06
 ErrMax= 6.76D-06  0.00D+00 EMaxC= 1.00D-01 BMatC= 7.26D-09 BMatP= 7.24D-08
 IDIUse=1 WtCom= 1.00D+00 WtEn= 0.00D+00
 Coeff-Com: -0.483D-04 0.106D-03-0.282D-03-0.263D-03 0.174D-03 0.161D-02
 Coeff-Com:  0.957D-02 0.226D-01-0.673D-02-0.494D-01-0.125D+00-0.289D-01
 Coeff-Com:  0.196D+00 0.980D+00
 Coeff:     -0.483D-04 0.106D-03-0.282D-03-0.263D-03 0.174D-03 0.161D-02
 Coeff:      0.957D-02 0.226D-01-0.673D-02-0.494D-01-0.125D+00-0.289D-01
 Coeff:      0.196D+00 0.980D+00
 Gap=     0.145 Goal=   None    Shift=    0.000
 Gap=     0.152 Goal=   None    Shift=    0.000
 RMSDP=1.57D-06 MaxDP=9.78D-05 DE=-4.57D-08 OVMax= 1.67D-04

 Cycle  15  Pass 1  IDiag  1:
 E= -431.189425060668     Delta-E=       -0.000000012177 Rises=F Damp=F
 DIIS: error= 3.53D-06 at cycle  15 NSaved=  15.
 NSaved=15 IEnMin=15 EnMin= -431.189425060668     IErMin=15 ErrMin= 3.53D-06
 ErrMax= 3.53D-06  0.00D+00 EMaxC= 1.00D-01 BMatC= 3.14D-09 BMatP= 7.26D-09
 IDIUse=1 WtCom= 1.00D+00 WtEn= 0.00D+00
 Coeff-Com: -0.234D-04 0.600D-04-0.448D-03 0.785D-04-0.173D-02-0.215D-02
 Coeff-Com: -0.124D-02 0.696D-02 0.186D-01 0.188D-01-0.529D-01-0.168D+00
 Coeff-Com: -0.260D-01 0.519D+00 0.689D+00
 Coeff:     -0.234D-04 0.600D-04-0.448D-03 0.785D-04-0.173D-02-0.215D-02
 Coeff:     -0.124D-02 0.696D-02 0.186D-01 0.188D-01-0.529D-01-0.168D+00
 Coeff:     -0.260D-01 0.519D+00 0.689D+00
 Gap=     0.145 Goal=   None    Shift=    0.000
 Gap=     0.152 Goal=   None    Shift=    0.000
 RMSDP=6.75D-07 MaxDP=4.30D-05 DE=-1.22D-08 OVMax= 6.84D-05

 Cycle  16  Pass 1  IDiag  1:
 E= -431.189425063360     Delta-E=       -0.000000002692 Rises=F Damp=F
 DIIS: error= 2.16D-06 at cycle  16 NSaved=  16.
 NSaved=16 IEnMin=16 EnMin= -431.189425063360     IErMin=16 ErrMin= 2.16D-06
 ErrMax= 2.16D-06  0.00D+00 EMaxC= 1.00D-01 BMatC= 8.97D-10 BMatP= 3.14D-09
 IDIUse=1 WtCom= 1.00D+00 WtEn= 0.00D+00
 Coeff-Com:  0.788D-05-0.158D-04-0.132D-03 0.150D-03-0.100D-02-0.169D-02
 Coeff-Com: -0.430D-02-0.597D-02 0.114D-01 0.286D-01 0.258D-01-0.760D-01
 Coeff-Com: -0.826D-01-0.155D+00 0.374D+00 0.886D+00
 Coeff:      0.788D-05-0.158D-04-0.132D-03 0.150D-03-0.100D-02-0.169D-02
 Coeff:     -0.430D-02-0.597D-02 0.114D-01 0.286D-01 0.258D-01-0.760D-01
 Coeff:     -0.826D-01-0.155D+00 0.374D+00 0.886D+00
 Gap=     0.145 Goal=   None    Shift=    0.000
 Gap=     0.152 Goal=   None    Shift=    0.000
 RMSDP=4.68D-07 MaxDP=4.17D-05 DE=-2.69D-09 OVMax= 4.63D-05

 Cycle  17  Pass 1  IDiag  1:
 E= -431.189425064356     Delta-E=       -0.000000000996 Rises=F Damp=F
 DIIS: error= 8.20D-07 at cycle  17 NSaved=  17.
 NSaved=17 IEnMin=17 EnMin= -431.189425064356     IErMin=17 ErrMin= 8.20D-07
 ErrMax= 8.20D-07  0.00D+00 EMaxC= 1.00D-01 BMatC= 6.61D-11 BMatP= 8.97D-10
 IDIUse=1 WtCom= 1.00D+00 WtEn= 0.00D+00
 Coeff-Com:  0.376D-05-0.789D-05 0.915D-04-0.265D-04 0.386D-03 0.503D-03
 Coeff-Com:  0.706D-03-0.787D-03-0.372D-02-0.539D-02 0.685D-02 0.365D-01
 Coeff-Com:  0.674D-02-0.890D-01-0.154D+00-0.565D-01 0.126D+01
 Coeff:      0.376D-05-0.789D-05 0.915D-04-0.265D-04 0.386D-03 0.503D-03
 Coeff:      0.706D-03-0.787D-03-0.372D-02-0.539D-02 0.685D-02 0.365D-01
 Coeff:      0.674D-02-0.890D-01-0.154D+00-0.565D-01 0.126D+01
 Gap=     0.145 Goal=   None    Shift=    0.000
 Gap=     0.152 Goal=   None    Shift=    0.000
 RMSDP=2.05D-07 MaxDP=1.23D-05 DE=-9.96D-10 OVMax= 1.98D-05

 Cycle  18  Pass 1  IDiag  1:
 E= -431.189425064497     Delta-E=       -0.000000000141 Rises=F Damp=F
 DIIS: error= 2.62D-07 at cycle  18 NSaved=  18.
 NSaved=18 IEnMin=18 EnMin= -431.189425064497     IErMin=18 ErrMin= 2.62D-07
 ErrMax= 2.62D-07  0.00D+00 EMaxC= 1.00D-01 BMatC= 9.75D-12 BMatP= 6.61D-11
 IDIUse=1 WtCom= 1.00D+00 WtEn= 0.00D+00
 Coeff-Com: -0.752D-06 0.191D-05 0.312D-04-0.231D-04 0.185D-03 0.273D-03
 Coeff-Com:  0.650D-03 0.575D-03-0.175D-02-0.437D-02-0.198D-02 0.143D-01
 Coeff-Com:  0.105D-01 0.209D-02-0.657D-01-0.108D+00 0.236D+00 0.917D+00
 Coeff:     -0.752D-06 0.191D-05 0.312D-04-0.231D-04 0.185D-03 0.273D-03
 Coeff:      0.650D-03 0.575D-03-0.175D-02-0.437D-02-0.198D-02 0.143D-01
 Coeff:      0.105D-01 0.209D-02-0.657D-01-0.108D+00 0.236D+00 0.917D+00
 Gap=     0.145 Goal=   None    Shift=    0.000
 Gap=     0.152 Goal=   None    Shift=    0.000
 RMSDP=4.66D-08 MaxDP=2.62D-06 DE=-1.41D-10 OVMax= 3.61D-06

 Cycle  19  Pass 1  IDiag  1:
 E= -431.189425064507     Delta-E=       -0.000000000011 Rises=F Damp=F
 DIIS: error= 9.02D-08 at cycle  19 NSaved=  19.
 NSaved=19 IEnMin=19 EnMin= -431.189425064507     IErMin=19 ErrMin= 9.02D-08
 ErrMax= 9.02D-08  0.00D+00 EMaxC= 1.00D-01 BMatC= 6.46D-12 BMatP= 9.75D-12
 IDIUse=1 WtCom= 1.00D+00 WtEn= 0.00D+00
 Coeff-Com: -0.122D-05 0.281D-05 0.462D-08-0.749D-05 0.272D-04 0.516D-04
 Coeff-Com:  0.207D-03 0.447D-03-0.258D-03-0.149D-02-0.238D-02 0.117D-02
 Coeff-Com:  0.532D-02 0.185D-01-0.629D-02-0.538D-01-0.127D+00 0.572D+00
 Coeff-Com:  0.593D+00
 Coeff:     -0.122D-05 0.281D-05 0.462D-08-0.749D-05 0.272D-04 0.516D-04
 Coeff:      0.207D-03 0.447D-03-0.258D-03-0.149D-02-0.238D-02 0.117D-02
 Coeff:      0.532D-02 0.185D-01-0.629D-02-0.538D-01-0.127D+00 0.572D+00
 Coeff:      0.593D+00
 Gap=     0.145 Goal=   None    Shift=    0.000
 Gap=     0.152 Goal=   None    Shift=    0.000
 RMSDP=2.05D-08 MaxDP=1.39D-06 DE=-1.08D-11 OVMax= 1.09D-06

 Cycle  20  Pass 1  IDiag  1:
 E= -431.189425064508     Delta-E=       -0.000000000000 Rises=F Damp=F
 DIIS: error= 3.99D-08 at cycle  20 NSaved=  20.
 NSaved=20 IEnMin=20 EnMin= -431.189425064508     IErMin=20 ErrMin= 3.99D-08
 ErrMax= 3.99D-08  0.00D+00 EMaxC= 1.00D-01 BMatC= 4.49D-13 BMatP= 6.46D-12
 IDIUse=1 WtCom= 1.00D+00 WtEn= 0.00D+00
 Coeff-Com: -0.968D-07-0.567D-08-0.691D-05 0.331D-05-0.325D-04-0.366D-04
 Coeff-Com: -0.732D-04-0.220D-04 0.343D-03 0.401D-03-0.131D-03-0.233D-02
 Coeff-Com: -0.486D-03 0.241D-02 0.105D-01 0.866D-02-0.593D-01-0.630D-01
 Coeff-Com:  0.768D-01 0.103D+01
 Coeff:     -0.968D-07-0.567D-08-0.691D-05 0.331D-05-0.325D-04-0.366D-04
 Coeff:     -0.732D-04-0.220D-04 0.343D-03 0.401D-03-0.131D-03-0.233D-02
 Coeff:     -0.486D-03 0.241D-02 0.105D-01 0.866D-02-0.593D-01-0.630D-01
 Coeff:      0.768D-01 0.103D+01
 Gap=     0.145 Goal=   None    Shift=    0.000
 Gap=     0.152 Goal=   None    Shift=    0.000
 RMSDP=8.55D-09 MaxDP=5.92D-07 DE=-4.55D-13 OVMax= 3.95D-07

 SCF Done:  E(UB3LYP) =  -431.189425065     A.U. after   20 cycles
            NFock= 20  Conv=0.86D-08     -V/T= 2.0038
 <Sx>= 0.0000 <Sy>= 0.0000 <Sz>= 0.5000 <S**2>= 0.7561 S= 0.5030
 <L.S>=  0.00000000000    
 KE= 4.295501274958D+02 PE=-1.802861457674D+03 EE= 5.435593686521D+02
 Annihilation of the first spin contaminant:
 S**2 before annihilation     0.7561,   after     0.7500
 Leave Link  502 at Thu Nov  3 03:51:41 2022, MaxMem=  8053063680 cpu:             304.8 elap:              15.0
 (Enter /public3/home/scg5914/software-scg5914/g16/l601.exe)
 Copying SCF densities to generalized density rwf, IOpCl= 1 IROHF=0.

 **********************************************************************

            Population analysis using the SCF Density.

 **********************************************************************

 Orbital symmetries:
 Alpha Orbitals:
       Occupied  (A) (A) (A) (A) (A) (A) (A) (A) (A) (A) (A) (A)
                 (A) (A) (A) (A) (A) (A) (A) (A) (A) (A) (A) (A)
                 (A) (A) (A) (A) (A) (A) (A)
       Virtual   (A) (A) (A) (A) (A) (A) (A) (A) (A) (A) (A) (A)
                 (A) (A) (A) (A) (A) (A) (A) (A) (A) (A) (A) (A)
                 (A) (A) (A) (A) (A) (A) (A) (A) (A) (A) (A) (A)
                 (A) (A) (A) (A) (A) (A) (A) (A) (A) (A) (A) (A)
                 (A) (A) (A) (A) (A) (A) (A) (A) (A) (A) (A) (A)
                 (A) (A) (A) (A) (A) (A) (A) (A) (A) (A) (A) (A)
                 (A) (A) (A) (A) (A) (A) (A) (A) (A) (A) (A) (A)
                 (A) (A) (A) (A) (A) (A) (A) (A) (A) (A) (A) (A)
                 (A) (A) (A) (A) (A) (A) (A) (A) (A) (A) (A) (A)
                 (A) (A) (A) (A) (A) (A) (A) (A) (A) (A) (A) (A)
                 (A) (A) (A) (A) (A) (A) (A) (A) (A) (A) (A) (A)
                 (A) (A) (A) (A) (A) (A) (A) (A) (A) (A) (A) (A)
                 (A) (A) (A) (A) (A) (A) (A) (A) (A) (A) (A) (A)
                 (A) (A) (A) (A) (A) (A) (A) (A) (A) (A) (A) (A)
                 (A) (A) (A) (A) (A) (A) (A) (A) (A) (A) (A)
 Beta  Orbitals:
       Occupied  (A) (A) (A) (A) (A) (A) (A) (A) (A) (A) (A) (A)
                 (A) (A) (A) (A) (A) (A) (A) (A) (A) (A) (A) (A)
                 (A) (A) (A) (A) (A) (A)
       Virtual   (A) (A) (A) (A) (A) (A) (A) (A) (A) (A) (A) (A)
                 (A) (A) (A) (A) (A) (A) (A) (A) (A) (A) (A) (A)
                 (A) (A) (A) (A) (A) (A) (A) (A) (A) (A) (A) (A)
                 (A) (A) (A) (A) (A) (A) (A) (A) (A) (A) (A) (A)
                 (A) (A) (A) (A) (A) (A) (A) (A) (A) (A) (A) (A)
                 (A) (A) (A) (A) (A) (A) (A) (A) (A) (A) (A) (A)
                 (A) (A) (A) (A) (A) (A) (A) (A) (A) (A) (A) (A)
                 (A) (A) (A) (A) (A) (A) (A) (A) (A) (A) (A) (A)
                 (A) (A) (A) (A) (A) (A) (A) (A) (A) (A) (A) (A)
                 (A) (A) (A) (A) (A) (A) (A) (A) (A) (A) (A) (A)
                 (A) (A) (A) (A) (A) (A) (A) (A) (A) (A) (A) (A)
                 (A) (A) (A) (A) (A) (A) (A) (A) (A) (A) (A) (A)
                 (A) (A) (A) (A) (A) (A) (A) (A) (A) (A) (A) (A)
                 (A) (A) (A) (A) (A) (A) (A) (A) (A) (A) (A) (A)
                 (A) (A) (A) (A) (A) (A) (A) (A) (A) (A) (A) (A)
 The electronic state is 2-A.
 Alpha  occ. eigenvalues --  -19.26568 -14.39503 -14.36953 -14.35697 -10.29567
 Alpha  occ. eigenvalues --  -10.28570 -10.28425 -10.27649 -10.24235  -1.19980
 Alpha  occ. eigenvalues --   -1.02992  -0.94713  -0.89248  -0.85564  -0.72860
 Alpha  occ. eigenvalues --   -0.69763  -0.63501  -0.59538  -0.57509  -0.52486
 Alpha  occ. eigenvalues --   -0.51894  -0.48995  -0.45464  -0.43929  -0.37752
 Alpha  occ. eigenvalues --   -0.37426  -0.35249  -0.34000  -0.33658  -0.28953
 Alpha  occ. eigenvalues --   -0.26314
 Alpha virt. eigenvalues --   -0.11855  -0.04047  -0.02867  -0.00148   0.01100
 Alpha virt. eigenvalues --    0.02475   0.03142   0.03432   0.04380   0.06289
 Alpha virt. eigenvalues --    0.06772   0.07065   0.08211   0.08464   0.09953
 Alpha virt. eigenvalues --    0.10884   0.11672   0.12311   0.13004   0.13235
 Alpha virt. eigenvalues --    0.14256   0.14691   0.15593   0.16353   0.18244
 Alpha virt. eigenvalues --    0.18594   0.18815   0.19403   0.20903   0.22057
 Alpha virt. eigenvalues --    0.22109   0.23050   0.23080   0.23683   0.24321
 Alpha virt. eigenvalues --    0.24986   0.25881   0.26001   0.26013   0.27276
 Alpha virt. eigenvalues --    0.28322   0.29863   0.32578   0.33334   0.34772
 Alpha virt. eigenvalues --    0.35494   0.36198   0.39718   0.40963   0.43472
 Alpha virt. eigenvalues --    0.46735   0.50733   0.51234   0.52636   0.53690
 Alpha virt. eigenvalues --    0.54407   0.56066   0.57217   0.58307   0.62077
 Alpha virt. eigenvalues --    0.63219   0.66298   0.67875   0.69906   0.73493
 Alpha virt. eigenvalues --    0.77100   0.78575   0.79835   0.82051   0.82513
 Alpha virt. eigenvalues --    0.83817   0.85044   0.87362   0.89488   0.89624
 Alpha virt. eigenvalues --    0.91458   0.92632   0.94005   0.94725   0.95148
 Alpha virt. eigenvalues --    0.97288   0.98145   0.99931   1.03774   1.06216
 Alpha virt. eigenvalues --    1.09253   1.11098   1.14762   1.16851   1.21078
 Alpha virt. eigenvalues --    1.23981   1.24224   1.25984   1.30021   1.34642
 Alpha virt. eigenvalues --    1.35432   1.43254   1.50124   1.51114   1.52167
 Alpha virt. eigenvalues --    1.55238   1.61262   1.65985   1.69235   1.71573
 Alpha virt. eigenvalues --    1.73879   1.77514   1.77699   1.79414   1.83425
 Alpha virt. eigenvalues --    1.85428   1.88633   1.90769   1.97137   2.04171
 Alpha virt. eigenvalues --    2.08980   2.11734   2.11957   2.17550   2.20160
 Alpha virt. eigenvalues --    2.24497   2.29119   2.31224   2.33941   2.42602
 Alpha virt. eigenvalues --    2.49158   2.50804   2.54854   2.62005   2.65770
 Alpha virt. eigenvalues --    2.67243   2.68442   2.71991   2.75846   2.77447
 Alpha virt. eigenvalues --    2.77537   2.81585   2.81850   2.83466   2.92433
 Alpha virt. eigenvalues --    2.93128   2.97601   2.99614   3.02464   3.05000
 Alpha virt. eigenvalues --    3.14496   3.15322   3.28669   3.31848   3.40133
 Alpha virt. eigenvalues --    3.46919   3.48694   3.52280   3.57732   3.67907
 Alpha virt. eigenvalues --    3.84933   3.85784   3.88752   3.91738   4.03428
 Alpha virt. eigenvalues --    4.13345   4.29749   4.32375   4.46470   4.63628
 Alpha virt. eigenvalues --    4.90517   4.91090   5.18885   5.39402   5.82444
 Alpha virt. eigenvalues --   23.62357  23.82099  23.86287  23.90021  24.13436
 Alpha virt. eigenvalues --   35.47972  35.54904  35.65231  49.81835
  Beta  occ. eigenvalues --  -19.26575 -14.39480 -14.36589 -14.35685 -10.29562
  Beta  occ. eigenvalues --  -10.28389 -10.27577 -10.27037 -10.24045  -1.19957
  Beta  occ. eigenvalues --   -1.02600  -0.94202  -0.89037  -0.85151  -0.71898
  Beta  occ. eigenvalues --   -0.69358  -0.62689  -0.58812  -0.57003  -0.52481
  Beta  occ. eigenvalues --   -0.51177  -0.48329  -0.45220  -0.43827  -0.37342
  Beta  occ. eigenvalues --   -0.35904  -0.33508  -0.33418  -0.32092  -0.28872
  Beta virt. eigenvalues --   -0.13658  -0.11078  -0.03766  -0.02324   0.00035
  Beta virt. eigenvalues --    0.01121   0.02603   0.03209   0.03446   0.04578
  Beta virt. eigenvalues --    0.06349   0.06962   0.07070   0.08339   0.08546
  Beta virt. eigenvalues --    0.10016   0.11207   0.11728   0.12799   0.13104
  Beta virt. eigenvalues --    0.13346   0.14422   0.14747   0.15628   0.16562
  Beta virt. eigenvalues --    0.18354   0.18599   0.18929   0.19563   0.21242
  Beta virt. eigenvalues --    0.22055   0.22224   0.23048   0.23211   0.23942
  Beta virt. eigenvalues --    0.24541   0.25178   0.25994   0.26017   0.26230
  Beta virt. eigenvalues --    0.27528   0.28475   0.30132   0.32634   0.33391
  Beta virt. eigenvalues --    0.35181   0.35828   0.36931   0.40007   0.41755
  Beta virt. eigenvalues --    0.43886   0.46965   0.50818   0.52718   0.53038
  Beta virt. eigenvalues --    0.54005   0.55081   0.56316   0.57346   0.60029
  Beta virt. eigenvalues --    0.62379   0.63521   0.66523   0.68255   0.70860
  Beta virt. eigenvalues --    0.73922   0.77287   0.78685   0.80201   0.82025
  Beta virt. eigenvalues --    0.83695   0.84460   0.85170   0.87519   0.89616
  Beta virt. eigenvalues --    0.89911   0.91775   0.92890   0.94407   0.95026
  Beta virt. eigenvalues --    0.95705   0.97910   0.98280   1.00231   1.04401
  Beta virt. eigenvalues --    1.06390   1.09389   1.11349   1.14825   1.16982
  Beta virt. eigenvalues --    1.21630   1.24184   1.24765   1.27871   1.30362
  Beta virt. eigenvalues --    1.35717   1.36090   1.43997   1.50472   1.51932
  Beta virt. eigenvalues --    1.52752   1.55845   1.62136   1.66331   1.69714
  Beta virt. eigenvalues --    1.72034   1.74211   1.77962   1.78454   1.80121
  Beta virt. eigenvalues --    1.83590   1.86578   1.89040   1.90873   1.98021
  Beta virt. eigenvalues --    2.04750   2.09317   2.12187   2.12545   2.17835
  Beta virt. eigenvalues --    2.20937   2.24897   2.29383   2.32209   2.34265
  Beta virt. eigenvalues --    2.43674   2.49377   2.51077   2.55579   2.62209
  Beta virt. eigenvalues --    2.66146   2.67675   2.69181   2.72768   2.76576
  Beta virt. eigenvalues --    2.77615   2.77953   2.82086   2.82142   2.83912
  Beta virt. eigenvalues --    2.92902   2.93457   2.97944   2.99599   3.03924
  Beta virt. eigenvalues --    3.06458   3.14485   3.15804   3.28802   3.33031
  Beta virt. eigenvalues --    3.40651   3.47108   3.49043   3.52715   3.58111
  Beta virt. eigenvalues --    3.68113   3.84901   3.85884   3.88617   3.91826
  Beta virt. eigenvalues --    4.03895   4.13771   4.29894   4.33036   4.47046
  Beta virt. eigenvalues --    4.63760   4.90460   4.91392   5.19210   5.39419
  Beta virt. eigenvalues --    5.82463  23.62764  23.83179  23.86524  23.90166
  Beta virt. eigenvalues --   24.13641  35.48027  35.55269  35.65244  49.81830
          Condensed to atoms (all electrons):
               1          2          3          4          5          6
     1  O    7.641166   0.263133  -0.116888   0.021534   0.001573  -0.020101
     2  C    0.263133   8.193566  -0.055128  -2.104767  -0.012773   0.023560
     3  C   -0.116888  -0.055128   9.042473  -3.174330   0.148189   0.217854
     4  C    0.021534  -2.104767  -3.174330  11.551059   0.298592  -0.298085
     5  N    0.001573  -0.012773   0.148189   0.298592   6.638930   0.042731
     6  C   -0.020101   0.023560   0.217854  -0.298085   0.042731   5.760040
     7  N    0.005453  -0.070024  -0.002367   0.091409   0.082984   0.121982
     8  C   -0.038535  -0.139436  -0.985172  -0.003516  -0.053594  -0.483422
     9  N    0.105431   0.014498   0.229668  -0.109435  -0.009949   0.108782
    10  H   -0.040795   0.401582  -0.018997   0.008867  -0.000288   0.003294
    11  H    0.000031   0.007140   0.026460  -0.024568  -0.101022   0.500256
               7          8          9         10         11
     1  O    0.005453  -0.038535   0.105431  -0.040795   0.000031
     2  C   -0.070024  -0.139436   0.014498   0.401582   0.007140
     3  C   -0.002367  -0.985172   0.229668  -0.018997   0.026460
     4  C    0.091409  -0.003516  -0.109435   0.008867  -0.024568
     5  N    0.082984  -0.053594  -0.009949  -0.000288  -0.101022
     6  C    0.121982  -0.483422   0.108782   0.003294   0.500256
     7  N    6.768227   0.266422  -0.087757  -0.000116  -0.106828
     8  C    0.266422   7.575722  -0.104646  -0.004360   0.006209
     9  N   -0.087757  -0.104646   7.161993   0.002744   0.000846
    10  H   -0.000116  -0.004360   0.002744   0.469031  -0.000000
    11  H   -0.106828   0.006209   0.000846  -0.000000   0.529135
          Atomic-Atomic Spin Densities.
               1          2          3          4          5          6
     1  O    0.000153  -0.000151  -0.004220   0.002570  -0.000033  -0.000371
     2  C   -0.000151  -0.018429   0.021000   0.029291  -0.012557   0.006005
     3  C   -0.004220   0.021000   0.034231   0.010451  -0.057346   0.031487
     4  C    0.002570   0.029291   0.010451   0.789658  -0.072287  -0.036926
     5  N   -0.000033  -0.012557  -0.057346  -0.072287   0.240880  -0.030525
     6  C   -0.000371   0.006005   0.031487  -0.036926  -0.030525   0.084114
     7  N   -0.001880   0.007178   0.020512  -0.002653  -0.002231   0.022354
     8  C   -0.006487   0.024151   0.000300   0.007694   0.017644   0.002427
     9  N    0.006593  -0.013426  -0.008337   0.007862  -0.000103  -0.004874
    10  H   -0.001076   0.002338  -0.000838   0.000267  -0.000002   0.000165
    11  H    0.000033  -0.000765  -0.003974   0.003214   0.007377  -0.010206
               7          8          9         10         11
     1  O   -0.001880  -0.006487   0.006593  -0.001076   0.000033
     2  C    0.007178   0.024151  -0.013426   0.002338  -0.000765
     3  C    0.020512   0.000300  -0.008337  -0.000838  -0.003974
     4  C   -0.002653   0.007694   0.007862   0.000267   0.003214
     5  N   -0.002231   0.017644  -0.000103  -0.000002   0.007377
     6  C    0.022354   0.002427  -0.004874   0.000165  -0.010206
     7  N   -0.004758  -0.040596   0.004967   0.000031   0.003852
     8  C   -0.040596  -0.017445   0.016416  -0.000786   0.005074
     9  N    0.004967   0.016416  -0.002954  -0.000049  -0.000180
    10  H    0.000031  -0.000786  -0.000049   0.001047  -0.000001
    11  H    0.003852   0.005074  -0.000180  -0.000001  -0.003250
 Mulliken charges and spin densities:
               1          2
     1  O    0.177997  -0.004869
     2  C   -0.521351   0.044635
     3  C    0.688237   0.043268
     4  C   -0.256761   0.739143
     5  N   -0.035374   0.090819
     6  C    0.023108   0.063649
     7  N   -0.069385   0.006776
     8  C   -0.035673   0.008392
     9  N   -0.312175   0.005916
    10  H    0.179038   0.001098
    11  H    0.162340   0.001173
 Sum of Mulliken charges =  -0.00000   1.00000
 Mulliken charges and spin densities with hydrogens summed into heavy atoms:
               1          2
     1  O    0.177997  -0.004869
     2  C   -0.342314   0.045733
     3  C    0.688237   0.043268
     4  C   -0.256761   0.739143
     5  N   -0.035374   0.090819
     6  C    0.185448   0.064822
     7  N   -0.069385   0.006776
     8  C   -0.035673   0.008392
     9  N   -0.312175   0.005916
 Electronic spatial extent (au):  <R**2>=            876.5690
 Charge=             -0.0000 electrons
 Dipole moment (field-independent basis, Debye):
    X=              0.4631    Y=              2.7767    Z=             -0.0000  Tot=              2.8150
 Quadrupole moment (field-independent basis, Debye-Ang):
   XX=            -50.5494   YY=            -54.6325   ZZ=            -50.0599
   XY=              9.6268   XZ=             -0.0001   YZ=             -0.0001
 Traceless Quadrupole moment (field-independent basis, Debye-Ang):
   XX=              1.1979   YY=             -2.8853   ZZ=              1.6874
   XY=              9.6268   XZ=             -0.0001   YZ=             -0.0001
 Octapole moment (field-independent basis, Debye-Ang**2):
  XXX=              5.7524  YYY=             11.4348  ZZZ=             -0.0000  XYY=             11.6256
  XXY=             -0.9401  XXZ=              0.0001  XZZ=              3.0586  YZZ=             -1.4425
  YYZ=             -0.0001  XYZ=              0.0002
 Hexadecapole moment (field-independent basis, Debye-Ang**3):
 XXXX=           -762.6912 YYYY=           -383.2865 ZZZZ=            -51.1630 XXXY=             74.4254
 XXXZ=             -0.0015 YYYX=             27.1335 YYYZ=             -0.0005 ZZZX=             -0.0002
 ZZZY=             -0.0001 XXYY=           -184.2406 XXZZ=           -137.5491 YYZZ=            -71.1716
 XXYZ=             -0.0008 YYXZ=             -0.0006 ZZXY=              0.9415
 N-N= 3.985625364618D+02 E-N=-1.802861458543D+03  KE= 4.295501274958D+02
                          Isotropic Fermi Contact Couplings
        Atom                 a.u.       MegaHertz       Gauss      10(-4) cm-1
     1  O(17)              0.01245      -7.54692      -2.69293      -2.51738
     2  C(13)             -0.00390      -4.38871      -1.56600      -1.46392
     3  C(13)              0.06589      74.06983      26.42996      24.70703
     4  C(13)              0.48580     546.13557     194.87475     182.17122
     5  N(14)              0.27566      89.06856      31.78188      29.71007
     6  C(13)              0.04748      53.37320      19.04488      17.80338
     7  N(14)             -0.00036      -0.11526      -0.04113      -0.03845
     8  C(13)              0.00495       5.56931       1.98727       1.85772
     9  N(14)             -0.00117      -0.37875      -0.13515      -0.12634
    10  H(1)               0.00041       1.85209       0.66087       0.61779
    11  H(1)               0.00009       0.42409       0.15133       0.14146
 --------------------------------------------------------
       Center         ----  Spin Dipole Couplings  ----
                      3XX-RR        3YY-RR        3ZZ-RR
 --------------------------------------------------------
     1   Atom        0.024780      0.006108     -0.030888
     2   Atom        0.012359     -0.006641     -0.005718
     3   Atom        0.044560      0.051569     -0.096129
     4   Atom       -0.399063      0.737551     -0.338488
     5   Atom        0.036412      0.198782     -0.235194
     6   Atom       -0.065007      0.108907     -0.043900
     7   Atom       -0.011724      0.116249     -0.104525
     8   Atom       -0.033389      0.068250     -0.034860
     9   Atom        0.040307      0.001704     -0.042011
    10   Atom        0.007400     -0.003059     -0.004341
    11   Atom        0.003534      0.004634     -0.008169
 --------------------------------------------------------
                        XY            XZ            YZ
 --------------------------------------------------------
     1   Atom        0.002310      0.000001     -0.000000
     2   Atom       -0.008282     -0.000001      0.000001
     3   Atom       -0.120105     -0.000004      0.000003
     4   Atom       -0.181797     -0.000007      0.000038
     5   Atom       -0.214692     -0.000006      0.000013
     6   Atom       -0.005283      0.000001      0.000002
     7   Atom       -0.033302      0.000004     -0.000013
     8   Atom        0.005807     -0.000001     -0.000004
     9   Atom       -0.038873      0.000000     -0.000000
    10   Atom        0.001350     -0.000000      0.000000
    11   Atom        0.008958     -0.000001     -0.000000
 --------------------------------------------------------


 ---------------------------------------------------------------------------------
              Anisotropic Spin Dipole Couplings in Principal Axis System
 ---------------------------------------------------------------------------------

       Atom             a.u.   MegaHertz   Gauss  10(-4) cm-1        Axes

              Baa    -0.0309     2.235     0.798     0.746 -0.0000  0.0000  1.0000
     1 O(17)  Bbb     0.0058    -0.422    -0.150    -0.141 -0.1210  0.9927 -0.0000
              Bcc     0.0251    -1.813    -0.647    -0.605  0.9927  0.1210  0.0000
 
              Baa    -0.0097    -1.308    -0.467    -0.436  0.3509  0.9364 -0.0001
     2 C(13)  Bbb    -0.0057    -0.767    -0.274    -0.256  0.0001  0.0001  1.0000
              Bcc     0.0155     2.075     0.740     0.692  0.9364 -0.3509 -0.0001
 
              Baa    -0.0961   -12.900    -4.603    -4.303  0.0000 -0.0000  1.0000
     3 C(13)  Bbb    -0.0721    -9.674    -3.452    -3.227  0.7173  0.6967 -0.0000
              Bcc     0.1682    22.574     8.055     7.530 -0.6967  0.7173  0.0000
 
              Baa    -0.4274   -57.357   -20.467   -19.132  0.9880  0.1542  0.0000
     4 C(13)  Bbb    -0.3385   -45.422   -16.208   -15.151 -0.0000 -0.0000  1.0000
              Bcc     0.7659   102.779    36.674    34.283 -0.1542  0.9880  0.0000
 
              Baa    -0.2352    -9.071    -3.237    -3.026  0.0000 -0.0000  1.0000
     5 N(14)  Bbb    -0.1119    -4.317    -1.540    -1.440  0.8227  0.5685  0.0000
              Bcc     0.3471    13.388     4.777     4.466 -0.5685  0.8227  0.0000
 
              Baa    -0.0652    -8.745    -3.120    -2.917  0.9995  0.0303 -0.0001
     6 C(13)  Bbb    -0.0439    -5.891    -2.102    -1.965  0.0001 -0.0000  1.0000
              Bcc     0.1091    14.636     5.222     4.882 -0.0303  0.9995  0.0000
 
              Baa    -0.1045    -4.031    -1.438    -1.345 -0.0000  0.0001  1.0000
     7 N(14)  Bbb    -0.0199    -0.766    -0.273    -0.256  0.9714  0.2376  0.0000
              Bcc     0.1244     4.798     1.712     1.600 -0.2376  0.9714 -0.0001
 
              Baa    -0.0349    -4.678    -1.669    -1.560  0.0004  0.0000  1.0000
     8 C(13)  Bbb    -0.0337    -4.525    -1.615    -1.509  0.9984 -0.0569 -0.0004
              Bcc     0.0686     9.203     3.284     3.070  0.0569  0.9984 -0.0000
 
              Baa    -0.0420    -1.620    -0.578    -0.540  0.0000  0.0000  1.0000
     9 N(14)  Bbb    -0.0224    -0.864    -0.308    -0.288  0.5269  0.8499 -0.0000
              Bcc     0.0644     2.484     0.886     0.829  0.8499 -0.5269  0.0000
 
              Baa    -0.0043    -2.316    -0.827    -0.773  0.0000 -0.0001  1.0000
    10 H(1)   Bbb    -0.0032    -1.723    -0.615    -0.575 -0.1260  0.9920  0.0001
              Bcc     0.0076     4.040     1.442     1.348  0.9920  0.1260 -0.0000
 
              Baa    -0.0082    -4.358    -1.555    -1.454  0.0001 -0.0000  1.0000
    11 H(1)   Bbb    -0.0049    -2.610    -0.931    -0.870  0.7284 -0.6851 -0.0001
              Bcc     0.0131     6.968     2.486     2.324  0.6851  0.7284 -0.0000
 

 ---------------------------------------------------------------------------------

 No NMR shielding tensors so no spin-rotation constants.
 Leave Link  601 at Thu Nov  3 03:51:41 2022, MaxMem=  8053063680 cpu:               9.1 elap:               0.3
 (Enter /public3/home/scg5914/software-scg5914/g16/l701.exe)
 ... and contract with generalized density number  0.
 Compute integral first derivatives.
 R6Disp: Adding Grimme-D3(BJ) dispersion energy 1st derivatives to the gradient.
 Leave Link  701 at Thu Nov  3 03:51:41 2022, MaxMem=  8053063680 cpu:               3.5 elap:               0.1
 (Enter /public3/home/scg5914/software-scg5914/g16/l702.exe)
 L702 exits ... SP integral derivatives will be done elsewhere.
 Leave Link  702 at Thu Nov  3 03:51:42 2022, MaxMem=  8053063680 cpu:               0.2 elap:               0.0
 (Enter /public3/home/scg5914/software-scg5914/g16/l703.exe)
 Integral derivatives from FoFJK, PRISM(SPDF).
 Compute integral first derivatives, UseDBF=F ICtDFT=           0.
 Calling FoFJK, ICntrl=      2127 FMM=F ISym2X=0 I1Cent= 0 IOpClX= 1 NMat=1 NMatS=1 NMatT=0.
 FoFJK:  IHMeth= 1 ICntrl=    2127 DoSepK=F KAlg= 0 I1Cent=           0 FoldK=F
 IRaf=         0 NMat=       1 IRICut=       1 DoRegI=T DoRafI=F ISym2E= 0 IDoP0=0 IntGTp=1.
 FoFCou: FMM=F IPFlag=           0 FMFlag=      100000 FMFlg1=         800
         NFxFlg=           0 DoJE=F BraDBF=F KetDBF=F FulRan=T
         wScrn=  0.000000 ICntrl=      2127 IOpCl=  1 I1Cent=           0 NGrid=           0
         NMat0=    1 NMatS0=      1 NMatT0=    0 NMatD0=    1 NMtDS0=    0 NMtDT0=    0
 Symmetry not used in FoFCou.
 Leave Link  703 at Thu Nov  3 03:51:43 2022, MaxMem=  8053063680 cpu:              40.5 elap:               1.3
 (Enter /public3/home/scg5914/software-scg5914/g16/l716.exe)
 Dipole        = 1.82197537D-01 1.09242091D+00-1.28951307D-05
 ***** Axes restored to original set *****
 -------------------------------------------------------------------
 Center     Atomic                   Forces (Hartrees/Bohr)
 Number     Number              X              Y              Z
 -------------------------------------------------------------------
      1        8           0.001169247    0.003307199    0.000004442
      2        6          -0.001437842    0.004925662    0.000039516
      3        6           0.008869485    0.011827400   -0.000020913
      4        6           0.005306168   -0.045135227   -0.000295750
      5        7          -0.018117757    0.051474395    0.000459622
      6        6          -0.000507387   -0.021331433   -0.000125171
      7        7           0.008034066    0.008089693   -0.000032211
      8        6          -0.008087961   -0.011018992    0.000018286
      9        7           0.004333985   -0.002527201   -0.000052148
     10        1           0.000964900   -0.000752457   -0.000013047
     11        1          -0.000526904    0.001140961    0.000017372
 -------------------------------------------------------------------
 Cartesian Forces:  Max     0.051474395 RMS     0.013597101
 Leave Link  716 at Thu Nov  3 03:51:43 2022, MaxMem=  8053063680 cpu:               0.3 elap:               0.0
 (Enter /public3/home/scg5914/software-scg5914/g16/l103.exe)

 GradGradGradGradGradGradGradGradGradGradGradGradGradGradGradGradGradGrad
 Berny optimization.
 FormGI is forming the generalized inverse of G from B-inverse, IUseBI=4.
 Internal  Forces:  Max     0.041888752 RMS     0.007042062
 Search for a local minimum.
 Step number   1 out of a maximum of   61
 All quantities printed in internal units (Hartrees-Bohrs-Radians)
 RMS Force = .70421D-02 SwitMx=.10000D-02 MixMth= 1
 Mixed Optimization -- RFO/linear search
 Second derivative matrix not updated -- first step.
 ITU=  0
     Eigenvalues ---    0.01947   0.02035   0.02111   0.02265   0.02314
     Eigenvalues ---    0.02436   0.02507   0.02585   0.16000   0.16000
     Eigenvalues ---    0.23134   0.23634   0.25000   0.25000   0.25000
     Eigenvalues ---    0.35160   0.36084   0.36327   0.41811   0.44415
     Eigenvalues ---    0.47381   0.48381   0.51255   0.55493   0.59962
     Eigenvalues ---    0.63227   0.64300
 RFO step:  Lambda=-5.26386568D-03 EMin= 1.94671583D-02
 Linear search not attempted -- first point.
 Iteration  1 RMS(Cart)=  0.01619458 RMS(Int)=  0.00028176
 Iteration  2 RMS(Cart)=  0.00026832 RMS(Int)=  0.00004633
 Iteration  3 RMS(Cart)=  0.00000006 RMS(Int)=  0.00004633
 ITry= 1 IFail=0 DXMaxC= 4.82D-02 DCOld= 1.00D+10 DXMaxT= 3.00D-01 DXLimC= 3.00D+00 Rises=F
 Variable       Old X    -DE/DX   Delta X   Delta X   Delta X     New X
                                 (Linear)    (Quad)   (Total)
    R1        2.50985  -0.00024   0.00000  -0.00055  -0.00055   2.50930
    R2        2.63479   0.00585   0.00000   0.01220   0.01222   2.64701
    R3        2.59231   0.00070   0.00000   0.00146   0.00144   2.59376
    R4        2.03950  -0.00068   0.00000  -0.00185  -0.00185   2.03765
    R5        2.67814  -0.00872   0.00000  -0.02197  -0.02200   2.65613
    R6        2.71385   0.00592   0.00000   0.01628   0.01618   2.73003
    R7        2.46844  -0.04189   0.00000  -0.06546  -0.06541   2.40303
    R8        2.61062   0.00735   0.00000   0.01395   0.01403   2.62465
    R9        2.46734  -0.00376   0.00000  -0.00465  -0.00461   2.46273
   R10        2.05416  -0.00126   0.00000  -0.00352  -0.00352   2.05064
   R11        2.57373   0.00118   0.00000   0.00472   0.00467   2.57841
   R12        2.50372  -0.00332   0.00000  -0.00537  -0.00536   2.49836
    A1        1.94925   0.00126   0.00000   0.00563   0.00561   1.95486
    A2        1.90389  -0.00321   0.00000  -0.01318  -0.01322   1.89067
    A3        2.02814   0.00265   0.00000   0.01288   0.01290   2.04104
    A4        2.35116   0.00057   0.00000   0.00030   0.00032   2.35148
    A5        2.44264   0.00326   0.00000   0.01175   0.01184   2.45448
    A6        1.80239   0.00382   0.00000   0.01650   0.01652   1.81891
    A7        2.03816  -0.00708   0.00000  -0.02826  -0.02836   2.00980
    A8        2.10020   0.00981   0.00000   0.02788   0.02788   2.12808
    A9        2.05112   0.00953   0.00000   0.02844   0.02861   2.07972
   A10        2.25290  -0.01182   0.00000  -0.04947  -0.04938   2.20352
   A11        1.99198   0.00591   0.00000   0.02475   0.02470   2.01668
   A12        2.03831   0.00591   0.00000   0.02472   0.02468   2.06299
   A13        1.98334   0.00185   0.00000   0.02228   0.02224   2.00558
   A14        2.14066  -0.00229   0.00000  -0.00087  -0.00100   2.13966
   A15        1.95738  -0.00339   0.00000  -0.01614  -0.01610   1.94129
   A16        2.18514   0.00568   0.00000   0.01701   0.01709   2.20224
   A17        1.81187   0.00152   0.00000   0.00719   0.00719   1.81906
    D1       -0.00001   0.00000   0.00000   0.00002   0.00002   0.00001
    D2        3.14157   0.00000   0.00000   0.00003   0.00003  -3.14158
    D3        0.00003  -0.00000   0.00000  -0.00005  -0.00005  -0.00003
    D4        3.14158   0.00000   0.00000   0.00002   0.00002  -3.14159
    D5       -0.00001   0.00000   0.00000   0.00002   0.00002   0.00001
    D6        0.00000  -0.00000   0.00000   0.00000   0.00000   0.00000
    D7       -3.14159   0.00000   0.00000   0.00000   0.00000  -3.14159
    D8        3.14156   0.00000   0.00000   0.00004   0.00004  -3.14158
    D9       -0.00004   0.00000   0.00000   0.00004   0.00004   0.00001
   D10       -3.14156  -0.00000   0.00000  -0.00004  -0.00004   3.14158
   D11        0.00003  -0.00000   0.00000  -0.00006  -0.00006  -0.00003
   D12        0.00003  -0.00000   0.00000  -0.00004  -0.00004  -0.00001
   D13       -3.14156  -0.00000   0.00000  -0.00006  -0.00006   3.14157
   D14        0.00000   0.00000   0.00000   0.00003   0.00003   0.00003
   D15        0.00005  -0.00000   0.00000  -0.00012  -0.00011  -0.00006
   D16        3.14150   0.00001   0.00000   0.00017   0.00017  -3.14152
   D17       -0.00005   0.00000   0.00000   0.00011   0.00011   0.00006
   D18       -3.14150  -0.00001   0.00000  -0.00018  -0.00018   3.14150
   D19        0.00001  -0.00000   0.00000  -0.00003  -0.00003  -0.00002
   D20       -3.14158  -0.00000   0.00000  -0.00001  -0.00001   3.14159
   D21       -0.00003   0.00000   0.00000   0.00007   0.00007   0.00003
   D22        3.14156   0.00000   0.00000   0.00005   0.00005  -3.14157
         Item               Value     Threshold  Converged?
 Maximum Force            0.041889     0.000450     NO 
 RMS     Force            0.007042     0.000300     NO 
 Maximum Displacement     0.048220     0.001800     NO 
 RMS     Displacement     0.016251     0.001200     NO 
 Predicted change in Energy=-2.668221D-03
 Lowest energy point so far.  Saving SCF results.
 GradGradGradGradGradGradGradGradGradGradGradGradGradGradGradGradGradGrad

 Leave Link  103 at Thu Nov  3 03:51:43 2022, MaxMem=  8053063680 cpu:               0.7 elap:               0.0
 (Enter /public3/home/scg5914/software-scg5914/g16/l202.exe)
                          Input orientation:                          
 ---------------------------------------------------------------------
 Center     Atomic      Atomic             Coordinates (Angstroms)
 Number     Number       Type             X           Y           Z
 ---------------------------------------------------------------------
      1          8           0       -0.013202    1.273076    0.009232
      2          6           0        1.216620    1.773754    0.000014
      3          6           0        2.107546    0.729743   -0.014367
      4          6           0        3.491026    0.481994   -0.029172
      5          7           0        3.962721   -0.698860   -0.040238
      6          6           0        3.087453   -1.777267   -0.037687
      7          7           0        1.785866   -1.713370   -0.024653
      8          6           0        1.272600   -0.449211   -0.012717
      9          7           0       -0.009690   -0.127635    0.001540
     10          1           0        1.306733    2.848249    0.005024
     11          1           0        3.552669   -2.757586   -0.047513
 ---------------------------------------------------------------------
                    Distance matrix (angstroms):
                    1          2          3          4          5
     1  O    0.000000
     2  C    1.327866   0.000000
     3  C    2.189370   1.372558   0.000000
     4  C    3.592617   2.615801   1.405565   0.000000
     5  N    4.438350   3.695472   2.341634   1.271627   0.000000
     6  C    4.349811   4.013874   2.691813   2.295039   1.388907
     7  N    3.486640   3.533368   2.464221   2.779787   2.401702
     8  C    2.149429   2.223707   1.444670   2.405998   2.701820
     9  N    1.400737   2.262548   2.284303   3.553534   4.013489
    10  H    2.055095   1.078279   2.264894   3.220476   4.431513
    11  H    5.381904   5.098277   3.775042   3.240219   2.099179
                    6          7          8          9         10
     6  C    0.000000
     7  N    1.303219   0.000000
     8  C    2.249009   1.364435   0.000000
     9  N    3.509290   2.395676   1.322075   0.000000
    10  H    4.956630   4.586809   3.297685   3.254054   0.000000
    11  H    1.085149   2.052438   3.244768   4.428256   6.039237
                   11
    11  H    0.000000
 Stoichiometry    C5H2N3O(2)
 Framework group  C1[X(C5H2N3O)]
 Deg. of freedom    27
 Full point group                 C1      NOp   1
 RotChk:  IX=2 Diff= 1.78D-02
 Largest Abelian subgroup         C1      NOp   1
 Largest concise Abelian subgroup C1      NOp   1
                         Standard orientation:                         
 ---------------------------------------------------------------------
 Center     Atomic      Atomic             Coordinates (Angstroms)
 Number     Number       Type             X           Y           Z
 ---------------------------------------------------------------------
      1          8           0        2.269242   -0.125661    0.000006
      2          6           0        1.622912    1.034290    0.000011
      3          6           0        0.274663    0.777112   -0.000002
      4          6           0       -0.959761    1.449281   -0.000011
      5          7           0       -2.066520    0.823086   -0.000012
      6          6           0       -2.058244   -0.565797    0.000031
      7          7           0       -1.002731   -1.330173    0.000006
      8          6           0        0.188577   -0.664991   -0.000001
      9          7           0        1.390235   -1.216262   -0.000022
     10          1           0        2.224793    1.928954    0.000021
     11          1           0       -3.034495   -1.039594   -0.000046
 ---------------------------------------------------------------------
 Rotational constants (GHZ):           4.4256263           1.7265672           1.2420190
 Leave Link  202 at Thu Nov  3 03:51:43 2022, MaxMem=  8053063680 cpu:               0.4 elap:               0.0
 (Enter /public3/home/scg5914/software-scg5914/g16/l301.exe)
 Standard basis: 6-311+G(d,p) (5D, 7F)
 Ernie: Thresh=  0.10000D-02 Tol=  0.10000D-05 Strict=F.
 There are   219 symmetry adapted cartesian basis functions of A   symmetry.
 There are   210 symmetry adapted basis functions of A   symmetry.
   210 basis functions,   340 primitive gaussians,   219 cartesian basis functions
    31 alpha electrons       30 beta electrons
       nuclear repulsion energy       399.0693749908 Hartrees.
 IExCor=  402 DFT=T Ex+Corr=B3LYP ExCW=0 ScaHFX=  0.200000
 ScaDFX=  0.800000  0.720000  1.000000  0.810000 ScalE2=  1.000000  1.000000
 IRadAn=      5 IRanWt=     -1 IRanGd=            0 ICorTp=0 IEmpDi=141
 NAtoms=   11 NActive=   11 NUniq=   11 SFac= 1.00D+00 NAtFMM=   60 NAOKFM=F Big=F
 Integral buffers will be    131072 words long.
 Raffenetti 2 integral format.
 Two-electron integral symmetry is turned on.
 R6Disp:  Grimme-D3(BJ) Dispersion energy=       -0.0212013355 Hartrees.
 Nuclear repulsion after empirical dispersion term =      399.0481736552 Hartrees.
 Leave Link  301 at Thu Nov  3 03:51:43 2022, MaxMem=  8053063680 cpu:               1.0 elap:               0.0
 (Enter /public3/home/scg5914/software-scg5914/g16/l302.exe)
 NPDir=0 NMtPBC=     1 NCelOv=     1 NCel=       1 NClECP=     1 NCelD=      1
         NCelK=      1 NCelE2=     1 NClLst=     1 CellRange=     0.0.
 One-electron integrals computed using PRISM.
 One-electron integral symmetry used in STVInt
 NBasis=   210 RedAO= T EigKep=  6.38D-06  NBF=   210
 NBsUse=   210 1.00D-06 EigRej= -1.00D+00 NBFU=   210
 Precomputing XC quadrature grid using
 IXCGrd= 4 IRadAn=           5 IRanWt=          -1 IRanGd=           0 AccXCQ= 0.00D+00.
 Generated NRdTot=       0 NPtTot=           0 NUsed=           0 NTot=          32
 NSgBfM=   219   219   219   219   219 MxSgAt=    11 MxSgA2=    11.
 Leave Link  302 at Thu Nov  3 03:51:43 2022, MaxMem=  8053063680 cpu:               3.3 elap:               0.1
 (Enter /public3/home/scg5914/software-scg5914/g16/l303.exe)
 DipDrv:  MaxL=1.
 Leave Link  303 at Thu Nov  3 03:51:43 2022, MaxMem=  8053063680 cpu:               0.4 elap:               0.0
 (Enter /public3/home/scg5914/software-scg5914/g16/l401.exe)
 Initial guess from the checkpoint file:  "dsgdb9nsd_130472-2.chk"
 B after Tr=    -0.000000   -0.000000    0.000000
         Rot=    0.999980   -0.000000    0.000000    0.006271 Ang=  -0.72 deg.
 Guess basis will be translated and rotated to current coordinates.
 JPrj=2 DoOrth=T DoCkMO=T.
 Initial guess <Sx>= 0.0000 <Sy>= 0.0000 <Sz>= 0.5000 <S**2>= 0.7559 S= 0.5030
 Generating alternative initial guess.
 ExpMin= 4.38D-02 ExpMax= 8.59D+03 ExpMxC= 1.30D+03 IAcc=3 IRadAn=         5 AccDes= 0.00D+00
 Harris functional with IExCor=  402 and IRadAn=       5 diagonalized for initial guess.
 HarFok:  IExCor=  402 AccDes= 0.00D+00 IRadAn=         5 IDoV= 1 UseB2=F ITyADJ=14
 ICtDFT=  3500011 ScaDFX=  1.000000  1.000000  1.000000  1.000000
 FoFCou: FMM=F IPFlag=           0 FMFlag=      100000 FMFlg1=           0
         NFxFlg=           0 DoJE=T BraDBF=F KetDBF=T FulRan=T
         wScrn=  0.000000 ICntrl=       500 IOpCl=  0 I1Cent=   200000004 NGrid=           0
         NMat0=    1 NMatS0=      1 NMatT0=    0 NMatD0=    1 NMtDS0=    0 NMtDT0=    0
 Petite list used in FoFCou.
 Harris En= -431.122576982209    
 Leave Link  401 at Thu Nov  3 03:51:44 2022, MaxMem=  8053063680 cpu:              10.6 elap:               0.3
 (Enter /public3/home/scg5914/software-scg5914/g16/l502.exe)
 Keep R1 and R2 ints in memory in canonical form, NReq=524366968.
 FoFCou: FMM=F IPFlag=           0 FMFlag=           0 FMFlg1=           0
         NFxFlg=           0 DoJE=F BraDBF=F KetDBF=F FulRan=T
         wScrn=  0.000000 ICntrl=       600 IOpCl=  0 I1Cent=           0 NGrid=           0
         NMat0=    1 NMatS0=  22155 NMatT0=    0 NMatD0=    1 NMtDS0=    0 NMtDT0=    0
 Symmetry not used in FoFCou.
 Two-electron integral symmetry not used.
 UHF open shell SCF:
 Using DIIS extrapolation, IDIIS=  1040.
 NGot=  8053063680 LenX=  7562092246 LenY=  7562043844
 Requested convergence on RMS density matrix=1.00D-08 within 128 cycles.
 Requested convergence on MAX density matrix=1.00D-06.
 Requested convergence on             energy=1.00D-06.
 No special actions if energy rises.

 Cycle   1  Pass 1  IDiag  1:
 E= -431.190607819238    
 DIIS: error= 1.91D-03 at cycle   1 NSaved=   1.
 NSaved= 1 IEnMin= 1 EnMin= -431.190607819238     IErMin= 1 ErrMin= 1.91D-03
 ErrMax= 1.91D-03  0.00D+00 EMaxC= 1.00D-01 BMatC= 6.00D-03 BMatP= 6.00D-03
 IDIUse=3 WtCom= 9.81D-01 WtEn= 1.91D-02
 Coeff-Com:  0.100D+01
 Coeff-En:   0.100D+01
 Coeff:      0.100D+01
 Gap=     0.434 Goal=   None    Shift=    0.000
 Gap=     0.464 Goal=   None    Shift=    0.000
 GapD=    0.434 DampG=2.000 DampE=1.000 DampFc=2.0000 IDamp=-1.
 RMSDP=3.07D-03 MaxDP=2.47D-01              OVMax= 1.76D-02

 Cycle   2  Pass 1  IDiag  1:
 E= -431.192307578454     Delta-E=       -0.001699759216 Rises=F Damp=F
 DIIS: error= 1.36D-03 at cycle   2 NSaved=   2.
 NSaved= 2 IEnMin= 2 EnMin= -431.192307578454     IErMin= 2 ErrMin= 1.36D-03
 ErrMax= 1.36D-03  0.00D+00 EMaxC= 1.00D-01 BMatC= 8.12D-04 BMatP= 6.00D-03
 IDIUse=3 WtCom= 9.86D-01 WtEn= 1.36D-02
 Coeff-Com:  0.147D+00 0.853D+00
 Coeff-En:   0.000D+00 0.100D+01
 Coeff:      0.145D+00 0.855D+00
 Gap=     0.134 Goal=   None    Shift=    0.000
 Gap=     0.170 Goal=   None    Shift=    0.000
 RMSDP=2.62D-04 MaxDP=1.14D-02 DE=-1.70D-03 OVMax= 1.04D-02

 Cycle   3  Pass 1  IDiag  1:
 E= -431.192121545621     Delta-E=        0.000186032833 Rises=F Damp=F
 DIIS: error= 2.22D-03 at cycle   3 NSaved=   3.
 NSaved= 3 IEnMin= 2 EnMin= -431.192307578454     IErMin= 2 ErrMin= 1.36D-03
 ErrMax= 2.22D-03  0.00D+00 EMaxC= 1.00D-01 BMatC= 1.42D-03 BMatP= 8.12D-04
 IDIUse=3 WtCom= 1.75D-01 WtEn= 8.25D-01
 Coeff-Com: -0.836D-02 0.576D+00 0.432D+00
 Coeff-En:   0.000D+00 0.632D+00 0.368D+00
 Coeff:     -0.146D-02 0.622D+00 0.379D+00
 Gap=     0.136 Goal=   None    Shift=    0.000
 Gap=     0.165 Goal=   None    Shift=    0.000
 RMSDP=1.88D-04 MaxDP=1.02D-02 DE= 1.86D-04 OVMax= 8.61D-03

 Cycle   4  Pass 1  IDiag  1:
 E= -431.192502816223     Delta-E=       -0.000381270602 Rises=F Damp=F
 DIIS: error= 2.85D-04 at cycle   4 NSaved=   4.
 NSaved= 4 IEnMin= 4 EnMin= -431.192502816223     IErMin= 4 ErrMin= 2.85D-04
 ErrMax= 2.85D-04  0.00D+00 EMaxC= 1.00D-01 BMatC= 6.59D-05 BMatP= 8.12D-04
 IDIUse=3 WtCom= 9.97D-01 WtEn= 2.85D-03
 Coeff-Com: -0.145D-01 0.306D+00 0.224D+00 0.484D+00
 Coeff-En:   0.000D+00 0.000D+00 0.000D+00 0.100D+01
 Coeff:     -0.145D-01 0.305D+00 0.223D+00 0.486D+00
 Gap=     0.136 Goal=   None    Shift=    0.000
 Gap=     0.165 Goal=   None    Shift=    0.000
 RMSDP=3.58D-05 MaxDP=1.13D-03 DE=-3.81D-04 OVMax= 1.86D-03

 Cycle   5  Pass 1  IDiag  1:
 E= -431.192516000886     Delta-E=       -0.000013184663 Rises=F Damp=F
 DIIS: error= 1.63D-04 at cycle   5 NSaved=   5.
 NSaved= 5 IEnMin= 5 EnMin= -431.192516000886     IErMin= 5 ErrMin= 1.63D-04
 ErrMax= 1.63D-04  0.00D+00 EMaxC= 1.00D-01 BMatC= 9.92D-06 BMatP= 6.59D-05
 IDIUse=3 WtCom= 9.98D-01 WtEn= 1.63D-03
 Coeff-Com: -0.601D-02 0.823D-01 0.750D-01 0.272D+00 0.577D+00
 Coeff-En:   0.000D+00 0.000D+00 0.000D+00 0.631D-01 0.937D+00
 Coeff:     -0.600D-02 0.821D-01 0.748D-01 0.272D+00 0.577D+00
 Gap=     0.136 Goal=   None    Shift=    0.000
 Gap=     0.165 Goal=   None    Shift=    0.000
 RMSDP=2.44D-05 MaxDP=2.32D-03 DE=-1.32D-05 OVMax= 8.24D-04

 Cycle   6  Pass 1  IDiag  1:
 E= -431.192518469388     Delta-E=       -0.000002468502 Rises=F Damp=F
 DIIS: error= 8.47D-05 at cycle   6 NSaved=   6.
 NSaved= 6 IEnMin= 6 EnMin= -431.192518469388     IErMin= 6 ErrMin= 8.47D-05
 ErrMax= 8.47D-05  0.00D+00 EMaxC= 1.00D-01 BMatC= 1.88D-06 BMatP= 9.92D-06
 IDIUse=1 WtCom= 1.00D+00 WtEn= 0.00D+00
 Coeff-Com: -0.101D-02-0.557D-02 0.886D-02 0.752D-01 0.333D+00 0.590D+00
 Coeff:     -0.101D-02-0.557D-02 0.886D-02 0.752D-01 0.333D+00 0.590D+00
 Gap=     0.136 Goal=   None    Shift=    0.000
 Gap=     0.165 Goal=   None    Shift=    0.000
 RMSDP=1.28D-05 MaxDP=1.08D-03 DE=-2.47D-06 OVMax= 5.48D-04

 Cycle   7  Pass 1  IDiag  1:
 E= -431.192519057039     Delta-E=       -0.000000587651 Rises=F Damp=F
 DIIS: error= 4.68D-05 at cycle   7 NSaved=   7.
 NSaved= 7 IEnMin= 7 EnMin= -431.192519057039     IErMin= 7 ErrMin= 4.68D-05
 ErrMax= 4.68D-05  0.00D+00 EMaxC= 1.00D-01 BMatC= 6.27D-07 BMatP= 1.88D-06
 IDIUse=1 WtCom= 1.00D+00 WtEn= 0.00D+00
 Coeff-Com:  0.135D-02-0.344D-01-0.208D-01-0.418D-01 0.300D-01 0.411D+00
 Coeff-Com:  0.655D+00
 Coeff:      0.135D-02-0.344D-01-0.208D-01-0.418D-01 0.300D-01 0.411D+00
 Coeff:      0.655D+00
 Gap=     0.136 Goal=   None    Shift=    0.000
 Gap=     0.165 Goal=   None    Shift=    0.000
 RMSDP=6.99D-06 MaxDP=4.79D-04 DE=-5.88D-07 OVMax= 3.07D-04

 Cycle   8  Pass 1  IDiag  1:
 E= -431.192519330741     Delta-E=       -0.000000273702 Rises=F Damp=F
 DIIS: error= 1.36D-05 at cycle   8 NSaved=   8.
 NSaved= 8 IEnMin= 8 EnMin= -431.192519330741     IErMin= 8 ErrMin= 1.36D-05
[...]
 206. BD*(   2) C   6 - N   7        /122. RY*(   6) C   6                    1.02    0.74    0.107
 206. BD*(   2) C   6 - N   7        /140. RY*(   7) N   7                    0.27    1.78    0.087
 206. BD*(   2) C   6 - N   7        /203. BD*(   2) C   4 - N   5           11.79    0.04    0.067
 210. BD*(   2) C   8 - N   9        /137. RY*(   4) N   7                    0.27    0.96    0.048
 210. BD*(   2) C   8 - N   9        /153. RY*(   3) C   8                    0.46    1.42    0.075
 210. BD*(   2) C   8 - N   9        /159. RY*(   9) C   8                    0.33    0.48    0.037
 210. BD*(   2) C   8 - N   9        /164. RY*(  14) C   8                    0.91    0.79    0.079
 210. BD*(   2) C   8 - N   9        /170. RY*(   3) N   9                    0.89    0.72    0.074
 210. BD*(   2) C   8 - N   9        /178. RY*(  11) N   9                    0.28    0.92    0.047


 Natural Bond Orbitals (Summary):

                                                            Principal Delocalizations
           NBO                        Occupancy    Energy   (geminal,vicinal,remote)
 ====================================================================================
 Molecular unit  1  (C5H2N3O)
     1. BD (   1) O   1 - C   2          0.99621    -0.99425  200(v),169(v),208(r),66(v)
                                                    197(g)
     2. BD (   1) O   1 - N   9          0.99104    -0.86961  208(v),50(v),199(v),154(v)
     3. BD (   1) C   2 - C   3          0.99044    -0.78782  208(v),200(g),201(g),199(g)
                                                    202(v),152(v),151(v),28(v)
                                                    84(v)
     4. BD (   2) C   2 - C   3          0.86184    -0.32415  210(v),203(v),198(g),33(v)
                                                    87(v),156(v)
     5. BD (   1) C   2 - H  10          0.99096    -0.61669  196(v),201(v),197(g),66(v)
                                                    68(v)
     6. BD (   1) C   3 - C   4          0.99253    -0.75289  197(g),100(v),28(g),201(g)
                                                    209(v),101(v),202(g),55(v)
                                                    56(v),50(v),195(v)
     7. BD (   1) C   3 - C   8          0.96578    -0.70379  28(v),199(v),200(g),195(v)
                                                    197(g),196(v),208(g),134(v)
                                                    209(g),84(v),49(v),168(v)
                                                    53(v),135(v),169(v)
     8. BD (   1) C   4 - N   5          0.99554    -0.94852  197(v),117(v),204(g),120(v)
                                                    118(v),207(v),66(v),200(g)
                                                    68(v),67(v)
     9. BD (   2) C   4 - N   5          0.90666    -0.35868  206(v),198(v),119(v),122(v)
    10. BD (   1) N   5 - C   6          0.95283    -0.79656  28(v),83(v),202(g),204(g)
                                                    135(v)
    11. BD (   1) C   6 - N   7          0.99203    -0.90714  209(v),151(v),154(v),208(g)
                                                    204(g),101(v)
    12. BD (   2) C   6 - N   7          0.92520    -0.36001  210(v),203(v),153(v),102(v)
    13. BD (   1) C   6 - H  11          0.99033    -0.57253  208(v),202(v),134(v),100(v)
                                                    205(g)
    14. BD (   1) N   7 - C   8          0.99025    -0.85333  207(v),209(g),117(v),201(g)
                                                    118(v),196(v),205(g),197(v)
                                                    120(v)
    15. BD (   1) C   8 - N   9          0.99285    -0.90290  200(v),201(g),208(g),205(v)
                                                    35(v),196(g),68(v)
    16. BD (   2) C   8 - N   9          0.93209    -0.35954  198(v),206(v),137(v),36(v)
    17. CR (   1) O   1                  0.99987   -19.06530  49(v)
    18. CR (   1) C   2                  0.99953   -10.16373  68(v),200(v),197(g),195(g)
                                                    185(v)
    19. CR (   1) C   3                  0.99941   -10.09546  28(v),83(v),151(v),50(v)
                                                    199(v),154(v),208(v),202(v)
    20. CR (   1) C   4                  0.99880   -10.13183  28(g),197(v),101(v),204(v)
                                                    66(v),67(v)
    21. CR (   1) N   5                  0.99943   -14.18306  83(v),117(v),84(v),28(v)
                                                    200(v)
    22. CR (   1) C   6                  0.99964   -10.16109  208(v),202(v)
    23. CR (   1) N   7                  0.99965   -14.16597  117(v),152(v),157(v),120(v)
                                                    204(v),201(v),209(v)
    24. CR (   1) C   8                  0.99953   -10.14503  66(v),205(v),200(v),169(v)
                                                    135(v)
    25. CR (   1) N   9                  0.99968   -14.22459  151(v),196(g),208(v),152(v)
                                                    195(v),201(v)
    26. LP (   1) O   1                  0.98871    -0.66057  49(v),197(v),209(v),168(v)
                                                    199(v)
    27. LP (   2) O   1                  0.82797    -0.38615  198(v),210(v),52(v),51(v)
                                                    170(v),172(v)
    28. LP*(   1) C   4                  0.24505    -0.09754  200(g),204(v),84(g),201(v)
                                                    197(v),202(g),67(v),86(g)
                                                    101(v),66(v),107(v)
    29. LP (   1) N   5                  0.81669    -0.37085  28(v),205(v),200(v),207(v)
                                                    204(g),84(v),83(v),202(g)
                                                    118(v),107(g),117(v),101(g)
    30. LP (   1) N   7                  0.92474    -0.38597  204(v),201(v),207(v),117(v)
                                                    152(v),209(v),118(v)
    31. LP (   1) N   9                  0.97352    -0.48510  201(v),195(v),151(v),152(v)
                                                    32(v)
    32. RY*(   1) O   1                  0.00142     1.11445   
    33. RY*(   2) O   1                  0.00063     0.70464   
    34. RY*(   3) O   1                  0.00041     1.18894   
    35. RY*(   4) O   1                  0.00030     1.81172   
    36. RY*(   5) O   1                  0.00027     2.70086   
    37. RY*(   6) O   1                  0.00015     1.65287   
    38. RY*(   7) O   1                  0.00005     1.41228   
    39. RY*(   8) O   1                  0.00001     1.92675   
    40. RY*(   9) O   1                  0.00000     5.05887   
    41. RY*(  10) O   1                  0.00001     2.93488   
    42. RY*(  11) O   1                  0.00001     1.10722   
    43. RY*(  12) O   1                  0.00000     4.87311   
    44. RY*(  13) O   1                  0.00000    49.41192   
    45. RY*(  14) O   1                  0.00000     2.68824   
    46. RY*(  15) O   1                  0.00000     4.97734   
    47. RY*(  16) O   1                  0.00000     0.86897   
    48. RY*(  17) O   1                  0.00000     2.91129   
    49. RY*(   1) C   2                  0.00278     1.02212   
    50. RY*(   2) C   2                  0.00157     1.26592   
    51. RY*(   3) C   2                  0.00111     1.45801   
    52. RY*(   4) C   2                  0.00065     0.62277   
    53. RY*(   5) C   2                  0.00066     0.97127   
    54. RY*(   6) C   2                  0.00028     0.85454   
    55. RY*(   7) C   2                  0.00019     2.34642   
    56. RY*(   8) C   2                  0.00008     2.42050   
    57. RY*(   9) C   2                  0.00006     0.97135   
    58. RY*(  10) C   2                  0.00003     1.27157   
    59. RY*(  11) C   2                  0.00002     1.91780   
    60. RY*(  12) C   2                  0.00001     2.51864   
    61. RY*(  13) C   2                  0.00000     2.71813   
    62. RY*(  14) C   2                  0.00000    20.07212   
    63. RY*(  15) C   2                  0.00000     0.40605   
    64. RY*(  16) C   2                  0.00000     2.64212   
    65. RY*(  17) C   2                  0.00000     1.80827   
    66. RY*(   1) C   3                  0.00211     1.41970   
    67. RY*(   2) C   3                  0.00175     1.01961   
    68. RY*(   3) C   3                  0.00105     1.17988   
    69. RY*(   4) C   3                  0.00031     1.50074   
    70. RY*(   5) C   3                  0.00024     1.29218   
    71. RY*(   6) C   3                  0.00023     2.01729   
    72. RY*(   7) C   3                  0.00015     1.45043   
    73. RY*(   8) C   3                  0.00008     2.20806   
    74. RY*(   9) C   3                  0.00005     1.39943   
    75. RY*(  10) C   3                  0.00006     0.73013   
    76. RY*(  11) C   3                  0.00002     2.21435   
    77. RY*(  12) C   3                  0.00002     2.21661   
    78. RY*(  13) C   3                  0.00001     2.05184   
    79. RY*(  14) C   3                  0.00000    22.11338   
    80. RY*(  15) C   3                  0.00000     0.72594   
    81. RY*(  16) C   3                  0.00000     2.38332   
    82. RY*(  17) C   3                  0.00000     2.09172   
    83. RY*(   1) C   4                  0.00204     1.08464   
    84. RY*(   2) C   4                  0.00087     0.60763   
    85. RY*(   3) C   4                  0.00057     1.60526   
    86. RY*(   4) C   4                  0.00033     1.61869   
    87. RY*(   5) C   4                  0.00015     0.62474   
    88. RY*(   6) C   4                  0.00012     0.87903   
    89. RY*(   7) C   4                  0.00006     4.45850   
    90. RY*(   8) C   4                  0.00004     0.80553   
    91. RY*(   9) C   4                  0.00001     0.65054   
    92. RY*(  10) C   4                  0.00001     3.70067   
    93. RY*(  11) C   4                  0.00002     2.44005   
    94. RY*(  12) C   4                  0.00001     1.42135   
    95. RY*(  13) C   4                  0.00000    18.03362   
    96. RY*(  14) C   4                  0.00000     2.64504   
    97. RY*(  15) C   4                  0.00000     2.60485   
    98. RY*(  16) C   4                  0.00001     0.30149   
    99. RY*(  17) C   4                  0.00000     1.72046   
   100. RY*(   1) N   5                  0.00179     0.66352   
   101. RY*(   2) N   5                  0.00075     1.04721   
   102. RY*(   3) N   5                  0.00036     0.56971   
   103. RY*(   4) N   5                  0.00023     1.34850   
   104. RY*(   5) N   5                  0.00012     2.09549   
   105. RY*(   6) N   5                  0.00009     1.72858   
   106. RY*(   7) N   5                  0.00005     1.21313   
   107. RY*(   8) N   5                  0.00004     2.18664   
   108. RY*(   9) N   5                  0.00000     3.26097   
   109. RY*(  10) N   5                  0.00000     4.08177   
   110. RY*(  11) N   5                  0.00000     0.94069   
   111. RY*(  12) N   5                  0.00000     3.72578   
   112. RY*(  13) N   5                  0.00001     2.40892   
   113. RY*(  14) N   5                  0.00000     1.93363   
   114. RY*(  15) N   5                  0.00000     1.54682   
   115. RY*(  16) N   5                  0.00000    35.06252   
   116. RY*(  17) N   5                  0.00000     2.21104   
   117. RY*(   1) C   6                  0.00569     0.85254   
   118. RY*(   2) C   6                  0.00294     1.19696   
   119. RY*(   3) C   6                  0.00096     1.53801   
   120. RY*(   4) C   6                  0.00084     1.18861   
   121. RY*(   5) C   6                  0.00068     1.99713   
   122. RY*(   6) C   6                  0.00038     0.70996   
   123. RY*(   7) C   6                  0.00022     0.74801   
   124. RY*(   8) C   6                  0.00005     0.76483   
   125. RY*(   9) C   6                  0.00002     2.39266   
   126. RY*(  10) C   6                  0.00000     2.73678   
   127. RY*(  11) C   6                  0.00000     0.20060   
   128. RY*(  12) C   6                  0.00000     2.64949   
   129. RY*(  13) C   6                  0.00000    22.59635   
   130. RY*(  14) C   6                  0.00001     1.33322   
   131. RY*(  15) C   6                  0.00000     0.38660   
   132. RY*(  16) C   6                  0.00000     2.22289   
   133. RY*(  17) C   6                  0.00000     1.93433   
   134. RY*(   1) N   7                  0.00217     0.63329   
   135. RY*(   2) N   7                  0.00074     1.32378   
   136. RY*(   3) N   7                  0.00047     1.17918   
   137. RY*(   4) N   7                  0.00036     0.93071   
   138. RY*(   5) N   7                  0.00014     1.46375   
   139. RY*(   6) N   7                  0.00011     1.57550   
   140. RY*(   7) N   7                  0.00009     1.75595   
   141. RY*(   8) N   7                  0.00003     2.76767   
   142. RY*(   9) N   7                  0.00002     1.31573   
   143. RY*(  10) N   7                  0.00001     0.74065   
   144. RY*(  11) N   7                  0.00000    35.14883   
   145. RY*(  12) N   7                  0.00000     3.76208   
   146. RY*(  13) N   7                  0.00001     3.68039   
   147. RY*(  14) N   7                  0.00000     3.71291   
   148. RY*(  15) N   7                  0.00001     2.12180   
   149. RY*(  16) N   7                  0.00001     2.28289   
   150. RY*(  17) N   7                  0.00001     2.29563   
   151. RY*(   1) C   8                  0.00485     0.99247   
   152. RY*(   2) C   8                  0.00306     1.33507   
   153. RY*(   3) C   8                  0.00191     1.38760   
   154. RY*(   4) C   8                  0.00171     1.38339   
   155. RY*(   5) C   8                  0.00050     0.93510   
   156. RY*(   6) C   8                  0.00048     1.39280   
   157. RY*(   7) C   8                  0.00029     1.20082   
   158. RY*(   8) C   8                  0.00013     1.07833   
   159. RY*(   9) C   8                  0.00009     0.44194   
   160. RY*(  10) C   8                  0.00010     1.54434   
   161. RY*(  11) C   8                  0.00003     5.15480   
   162. RY*(  12) C   8                  0.00003     1.91564   
   163. RY*(  13) C   8                  0.00000    18.67800   
   164. RY*(  14) C   8                  0.00000     0.75277   
   165. RY*(  15) C   8                  0.00001     2.90339   
   166. RY*(  16) C   8                  0.00000     2.62626   
   167. RY*(  17) C   8                  0.00000     2.40167   
   168. RY*(   1) N   9                  0.00163     0.93818   
   169. RY*(   2) N   9                  0.00101     1.08663   
   170. RY*(   3) N   9                  0.00063     0.68531   
   171. RY*(   4) N   9                  0.00053     0.82193   
   172. RY*(   5) N   9                  0.00042     1.74434   
   173. RY*(   6) N   9                  0.00019     0.86107   
   174. RY*(   7) N   9                  0.00013     1.68016   
   175. RY*(   8) N   9                  0.00001     3.98924   
   176. RY*(   9) N   9                  0.00001     4.54262   
   177. RY*(  10) N   9                  0.00001     2.46443   
   178. RY*(  11) N   9                  0.00001     0.88416   
   179. RY*(  12) N   9                  0.00001     0.55426   
   180. RY*(  13) N   9                  0.00001     2.07834   
   181. RY*(  14) N   9                  0.00001     2.56153   
   182. RY*(  15) N   9                  0.00000    34.59308   
   183. RY*(  16) N   9                  0.00001     2.10320   
   184. RY*(  17) N   9                  0.00000     3.69565   
   185. RY*(   1) H  10                  0.00026     0.74949   
   186. RY*(   2) H  10                  0.00009     2.14515   
   187. RY*(   3) H  10                  0.00010     1.54439   
   188. RY*(   4) H  10                  0.00004     2.31797   
   189. RY*(   5) H  10                  0.00003     1.90501   
   190. RY*(   1) H  11                  0.00018     1.41045   
   191. RY*(   2) H  11                  0.00005     1.85219   
   192. RY*(   3) H  11                  0.00005     2.07875   
   193. RY*(   4) H  11                  0.00004     1.55611   
   194. RY*(   5) H  11                  0.00002     1.91575   
   195. BD*(   1) O   1 - C   2          0.01227     0.34109   
   196. BD*(   1) O   1 - N   9          0.01188     0.18326   
   197. BD*(   1) C   2 - C   3          0.01182     0.53364   
   198. BD*(   2) C   2 - C   3          0.16446    -0.03280  210(v),203(v),52(g),206(r)
                                                    75(g)
   199. BD*(   1) C   2 - H  10          0.00738     0.35020   
   200. BD*(   1) C   3 - C   4          0.00835     0.47184   
   201. BD*(   1) C   3 - C   8          0.02922     0.43823   
   202. BD*(   1) C   4 - N   5          0.00374     0.63618   
   203. BD*(   2) C   4 - N   5          0.08381     0.01841   
   204. BD*(   1) N   5 - C   6          0.03247     0.39692   
   205. BD*(   1) C   6 - N   7          0.00967     0.55063   
   206. BD*(   2) C   6 - N   7          0.10379    -0.02620  210(v),203(v),122(g),198(r)
                                                    140(g)
   207. BD*(   1) C   6 - H  11          0.01471     0.37613   
   208. BD*(   1) N   7 - C   8          0.01253     0.45008   
   209. BD*(   1) C   8 - N   9          0.01171     0.50041   
   210. BD*(   2) C   8 - N   9          0.18425    -0.03386  198(v),206(v),164(g),170(g)
                                                    153(g),159(g),178(g),137(v)
       -------------------------------
              Total Lewis   28.99375  ( 96.6458%)
        Valence non-Lewis    0.94709  (  3.1570%)
        Rydberg non-Lewis    0.05915  (  0.1972%)
       -------------------------------
            Total unit  1   30.00000  (100.0000%)
           Charge unit  1    0.50000
 Leave Link  607 at Thu Nov  3 03:53:43 2022, MaxMem=  8053063680 cpu:              61.9 elap:               1.9
 (Enter /public3/home/scg5914/software-scg5914/g16/l9999.exe)
 Unable to Open any file for archive entry.
 1\1\GINC-E0909\SP\UB3LYP\Gen\C5H2N3O1(2)\SCG5914\03-Nov-2022\0\\#p b3l
 yp/chkbas pop=nbo geom=allcheck guess=tcheck em=gd3bj\\dsgdb9nsd_13047
 2-2\\0,2\O,0,-0.0164564994,1.2698987597,0.0092704535\C,0,1.2157647401,
 1.770902562,0.0000171263\C,0,2.1129894281,0.7380579825,-0.0143964979\C
 ,0,3.5004358869,0.4796336638,-0.0293387027\N,0,3.9596463936,-0.6941906
 206,-0.0402104868\C,0,3.0819164641,-1.7823796533,-0.0374437745\N,0,1.7
 869333181,-1.7082073727,-0.0245573641\C,0,1.2745021674,-0.4443001314,-
 0.0126968103\N,0,-0.007331876,-0.1321926144,0.0013726016\H,0,1.3031576
 01,2.8455685799,0.0050761337\H,0,3.5487837502,-2.7599036957,-0.0476306
 381\\Version=ES64L-G16RevC.01\State=2-A\HF=-431.1928095\S2=0.755112\S2
 -1=0.\S2A=0.750018\RMSD=9.694e-09\Dipole=0.549791,0.8479515,-0.00065\Q
 uadrupole=-7.2866484,6.149435,1.1372134,-3.6189498,0.0620786,0.0628839
 \PG=C01 [X(C5H2N3O1)]\\@
 The archive entry for this job was punched.


 "ANNA, YOU MUSN'T SPEAK OF OXIDIZED MURIATIC ACID
 ANYMORE, FROM NOW ON YOU MUST SAY CHLORINE."
   -- JENS JACOB BERZELIUS, IN 1820, TO HIS COOK, WHO HAD
 COMPLAINED OF THE SMELL OF THE FLASK SHE WAS CLEANING.
 Job cpu time:       0 days  0 hours  2 minutes  9.2 seconds.
 Elapsed time:       0 days  0 hours  0 minutes  4.7 seconds.
 File lengths (MBytes):  RWF=     33 Int=      0 D2E=      0 Chk=      6 Scr=      1
 Normal termination of Gaussian 16 at Thu Nov  3 03:53:43 2022.
