 Entering Gaussian System, Link 0=/public3/home/scg5914/software-scg5914/g16/g16
 Input=dsgdb9nsd_130483-1.gjf
 Output=dsgdb9nsd_130483-1.log
 Initial command:
 /public3/home/scg5914/software-scg5914/g16/l1.exe "/public3/home/scg5914/software-scg5914/test/tmp/dsgdb9nsd_130483-1/Gau-40131.inp" -scrdir="/public3/home/scg5914/software-scg5914/test/tmp/dsgdb9nsd_130483-1/"
 Entering Link 1 = /public3/home/scg5914/software-scg5914/g16/l1.exe PID=     40132.
  
 Copyright (c) 1988-2019, Gaussian, Inc.  All Rights Reserved.
  
 This is part of the Gaussian(R) 16 program.  It is based on
 the Gaussian(R) 09 system (copyright 2009, Gaussian, Inc.),
 the Gaussian(R) 03 system (copyright 2003, Gaussian, Inc.),
 the Gaussian(R) 98 system (copyright 1998, Gaussian, Inc.),
 the Gaussian(R) 94 system (copyright 1995, Gaussian, Inc.),
 the Gaussian 92(TM) system (copyright 1992, Gaussian, Inc.),
 the Gaussian 90(TM) system (copyright 1990, Gaussian, Inc.),
 the Gaussian 88(TM) system (copyright 1988, Gaussian, Inc.),
 the Gaussian 86(TM) system (copyright 1986, Carnegie Mellon
 University), and the Gaussian 82(TM) system (copyright 1983,
 Carnegie Mellon University). Gaussian is a federally registered
 trademark of Gaussian, Inc.
  
 This software contains proprietary and confidential information,
 including trade secrets, belonging to Gaussian, Inc.
  
 This software is provided under written license and may be
 used, copied, transmitted, or stored only in accord with that
 written license.
  
 The following legend is applicable only to US Government
 contracts under FAR:
  
                    RESTRICTED RIGHTS LEGEND
  
 Use, reproduction and disclosure by the US Government is
 subject to restrictions as set forth in subparagraphs (a)
 and (c) of the Commercial Computer Software - Restricted
 Rights clause in FAR 52.227-19.
  
 Gaussian, Inc.
 340 Quinnipiac St., Bldg. 40, Wallingford CT 06492
  
  
 ---------------------------------------------------------------
 Warning -- This program may not be used in any manner that
 competes with the business of Gaussian, Inc. or will provide
 assistance to any competitor of Gaussian, Inc.  The licensee
 of this program is prohibited from giving any competitor of
 Gaussian, Inc. access to this program.  By using this program,
 the user acknowledges that Gaussian, Inc. is engaged in the
 business of creating and licensing software in the field of
 computational chemistry and represents and warrants to the
 licensee that it is not a competitor of Gaussian, Inc. and that
 it will not use this program in any manner prohibited above.
 ---------------------------------------------------------------
  

 Cite this work as:
 Gaussian 16, Revision C.01,
 M. J. Frisch, G. W. Trucks, H. B. Schlegel, G. E. Scuseria, 
 M. A. Robb, J. R. Cheeseman, G. Scalmani, V. Barone, 
 G. A. Petersson, H. Nakatsuji, X. Li, M. Caricato, A. V. Marenich, 
 J. Bloino, B. G. Janesko, R. Gomperts, B. Mennucci, H. P. Hratchian, 
 J. V. Ortiz, A. F. Izmaylov, J. L. Sonnenberg, D. Williams-Young, 
 F. Ding, F. Lipparini, F. Egidi, J. Goings, B. Peng, A. Petrone, 
 T. Henderson, D. Ranasinghe, V. G. Zakrzewski, J. Gao, N. Rega, 
 G. Zheng, W. Liang, M. Hada, M. Ehara, K. Toyota, R. Fukuda, 
 J. Hasegawa, M. Ishida, T. Nakajima, Y. Honda, O. Kitao, H. Nakai, 
 T. Vreven, K. Throssell, J. A. Montgomery, Jr., J. E. Peralta, 
 F. Ogliaro, M. J. Bearpark, J. J. Heyd, E. N. Brothers, K. N. Kudin, 
 V. N. Staroverov, T. A. Keith, R. Kobayashi, J. Normand, 
 K. Raghavachari, A. P. Rendell, J. C. Burant, S. S. Iyengar, 
 J. Tomasi, M. Cossi, J. M. Millam, M. Klene, C. Adamo, R. Cammi, 
 J. W. Ochterski, R. L. Martin, K. Morokuma, O. Farkas, 
 J. B. Foresman, and D. J. Fox, Gaussian, Inc., Wallingford CT, 2019.
 
 ******************************************
 Gaussian 16:  ES64L-G16RevC.01  3-Jul-2019
                 3-Nov-2022 
 ******************************************
 %chk=dsgdb9nsd_130483-1.chk
 %mem=60GB
 %nprocshared=32
 Will use up to   32 processors via shared memory.
 ------------------------------------
 #p opt freq b3lyp/6-311+g** em=gd3bj
 ------------------------------------
 1/18=20,19=15,26=3,38=1/1,3;
 2/9=110,12=2,17=6,18=5,40=1/2;
 3/5=4,6=6,7=111,11=2,25=1,30=1,71=1,74=-5,124=41/1,2,3;
 4//1;
 5/5=2,38=5/2;
 6/7=2,8=2,9=2,10=2,28=1/1;
 7//1,2,3,16;
 1/18=20,19=15,26=3/3(2);
 2/9=110/2;
 99//99;
 2/9=110/2;
 3/5=4,6=6,7=111,11=2,25=1,30=1,71=1,74=-5,124=41/1,2,3;
 4/5=5,16=3,69=1/1;
 5/5=2,38=5/2;
 7//1,2,3,16;
 1/18=20,19=15,26=3/3(-5);
 2/9=110/2;
 6/7=2,8=2,9=2,10=2,19=2,28=1/1;
 99/9=1/99;
 Leave Link    1 at Thu Nov  3 03:57:53 2022, MaxMem=  8053063680 cpu:               0.8 elap:               0.0
 (Enter /public3/home/scg5914/software-scg5914/g16/l101.exe)
 ------------------
 dsgdb9nsd_130483-1
 ------------------
 Symbolic Z-matrix:
 Charge =  0 Multiplicity = 2
 O                    -0.03387   1.24094   0.00948 
 C                     1.08419   1.98939   0.00246 
 C                     2.34609   1.49147  -0.01292 
 C                     2.46063   0.08672  -0.02187 
 C                     3.4296   -0.88036  -0.03696 
 C                     2.70713  -2.12858  -0.03659 
 N                     1.39022  -2.02128  -0.02287 
 C                     1.18151  -0.65997  -0.01325 
 N                    -0.00767  -0.13721   0.00155 
 H                     3.19285   2.16663  -0.01765 
 H                     4.50194  -0.75632  -0.04702 
 H                     3.17012  -3.11045  -0.04669 
 
 ITRead=  0  0  0  0  0  0  0  0  0  0  0  0
 MicOpt= -1 -1 -1 -1 -1 -1 -1 -1 -1 -1 -1 -1
 NAtoms=     12 NQM=       12 NQMF=       0 NMMI=      0 NMMIF=      0
                NMic=       0 NMicF=      0.
                    Isotopes and Nuclear Properties:
 (Nuclear quadrupole moments (NQMom) in fm**2, nuclear magnetic moments (NMagM)
  in nuclear magnetons)

  Atom         1           2           3           4           5           6           7           8           9          10
 IAtWgt=          16          12          12          12          12          12          14          12          14           1
 AtmWgt=  15.9949146  12.0000000  12.0000000  12.0000000  12.0000000  12.0000000  14.0030740  12.0000000  14.0030740   1.0078250
 NucSpn=           0           0           0           0           0           0           2           0           2           1
 AtZEff=  -0.0000000  -0.0000000  -0.0000000  -0.0000000  -0.0000000  -0.0000000  -0.0000000  -0.0000000  -0.0000000  -0.0000000
 NQMom=    0.0000000   0.0000000   0.0000000   0.0000000   0.0000000   0.0000000   2.0440000   0.0000000   2.0440000   0.0000000
 NMagM=    0.0000000   0.0000000   0.0000000   0.0000000   0.0000000   0.0000000   0.4037610   0.0000000   0.4037610   2.7928460
 AtZNuc=   8.0000000   6.0000000   6.0000000   6.0000000   6.0000000   6.0000000   7.0000000   6.0000000   7.0000000   1.0000000

  Atom        11          12
 IAtWgt=           1           1
 AtmWgt=   1.0078250   1.0078250
 NucSpn=           1           1
 AtZEff=  -0.0000000  -0.0000000
 NQMom=    0.0000000   0.0000000
 NMagM=    2.7928460   2.7928460
 AtZNuc=   1.0000000   1.0000000
 Leave Link  101 at Thu Nov  3 03:57:53 2022, MaxMem=  8053063680 cpu:               4.3 elap:               0.1
 (Enter /public3/home/scg5914/software-scg5914/g16/l103.exe)

 GradGradGradGradGradGradGradGradGradGradGradGradGradGradGradGradGradGrad
 Berny optimization.
 Initialization pass.
                           ----------------------------
                           !    Initial Parameters    !
                           ! (Angstroms and Degrees)  !
 --------------------------                            --------------------------
 ! Name  Definition              Value          Derivative Info.                !
 --------------------------------------------------------------------------------
 ! R1    R(1,2)                  1.3455         estimate D2E/DX2                !
 ! R2    R(1,9)                  1.3784         estimate D2E/DX2                !
 ! R3    R(2,3)                  1.3567         estimate D2E/DX2                !
 ! R4    R(3,4)                  1.4094         estimate D2E/DX2                !
 ! R5    R(3,10)                 1.083          estimate D2E/DX2                !
 ! R6    R(4,5)                  1.3691         estimate D2E/DX2                !
 ! R7    R(4,8)                  1.4811         estimate D2E/DX2                !
 ! R8    R(5,6)                  1.4422         estimate D2E/DX2                !
 ! R9    R(5,11)                 1.0795         estimate D2E/DX2                !
 ! R10   R(6,7)                  1.3214         estimate D2E/DX2                !
 ! R11   R(6,12)                 1.0856         estimate D2E/DX2                !
 ! R12   R(7,8)                  1.3773         estimate D2E/DX2                !
 ! R13   R(8,9)                  1.2991         estimate D2E/DX2                !
 ! A1    A(2,1,9)              122.7066         estimate D2E/DX2                !
 ! A2    A(1,2,3)              124.6687         estimate D2E/DX2                !
 ! A3    A(2,3,4)              116.197          estimate D2E/DX2                !
 ! A4    A(2,3,10)             119.9006         estimate D2E/DX2                !
 ! A5    A(4,3,10)             123.9023         estimate D2E/DX2                !
 ! A6    A(3,4,5)              139.6065         estimate D2E/DX2                !
 ! A7    A(3,4,8)              115.6096         estimate D2E/DX2                !
 ! A8    A(5,4,8)              104.784          estimate D2E/DX2                !
 ! A9    A(4,5,6)              104.8811         estimate D2E/DX2                !
 ! A10   A(4,5,11)             128.4603         estimate D2E/DX2                !
 ! A11   A(6,5,11)             126.6586         estimate D2E/DX2                !
 ! A12   A(5,6,7)              115.4028         estimate D2E/DX2                !
 ! A13   A(5,6,12)             124.6905         estimate D2E/DX2                !
 ! A14   A(7,6,12)             119.9068         estimate D2E/DX2                !
 ! A15   A(6,7,8)              103.3775         estimate D2E/DX2                !
 ! A16   A(4,8,7)              111.5547         estimate D2E/DX2                !
 ! A17   A(4,8,9)              125.9967         estimate D2E/DX2                !
 ! A18   A(7,8,9)              122.4486         estimate D2E/DX2                !
 ! A19   A(1,9,8)              114.8213         estimate D2E/DX2                !
 ! D1    D(9,1,2,3)             -0.0003         estimate D2E/DX2                !
 ! D2    D(2,1,9,8)              0.0            estimate D2E/DX2                !
 ! D3    D(1,2,3,4)             -0.0001         estimate D2E/DX2                !
 ! D4    D(1,2,3,10)           179.9995         estimate D2E/DX2                !
 ! D5    D(2,3,4,5)            179.9983         estimate D2E/DX2                !
 ! D6    D(2,3,4,8)              0.0008         estimate D2E/DX2                !
 ! D7    D(10,3,4,5)            -0.0013         estimate D2E/DX2                !
 ! D8    D(10,3,4,8)          -179.9988         estimate D2E/DX2                !
 ! D9    D(3,4,5,6)            179.9977         estimate D2E/DX2                !
 ! D10   D(3,4,5,11)             0.0002         estimate D2E/DX2                !
 ! D11   D(8,4,5,6)             -0.0046         estimate D2E/DX2                !
 ! D12   D(8,4,5,11)           179.9979         estimate D2E/DX2                !
 ! D13   D(3,4,8,7)           -179.9987         estimate D2E/DX2                !
 ! D14   D(3,4,8,9)             -0.0013         estimate D2E/DX2                !
 ! D15   D(5,4,8,7)              0.003          estimate D2E/DX2                !
 ! D16   D(5,4,8,9)           -179.9996         estimate D2E/DX2                !
 ! D17   D(4,5,6,7)              0.0055         estimate D2E/DX2                !
 ! D18   D(4,5,6,12)           179.9989         estimate D2E/DX2                !
 ! D19   D(11,5,6,7)          -179.997          estimate D2E/DX2                !
 ! D20   D(11,5,6,12)           -0.0036         estimate D2E/DX2                !
 ! D21   D(5,6,7,8)             -0.0035         estimate D2E/DX2                !
 ! D22   D(12,6,7,8)          -179.9972         estimate D2E/DX2                !
 ! D23   D(6,7,8,4)              0.0002         estimate D2E/DX2                !
 ! D24   D(6,7,8,9)           -179.9973         estimate D2E/DX2                !
 ! D25   D(4,8,9,1)              0.0008         estimate D2E/DX2                !
 ! D26   D(7,8,9,1)            179.998          estimate D2E/DX2                !
 --------------------------------------------------------------------------------
 Trust Radius=3.00D-01 FncErr=1.00D-07 GrdErr=1.00D-06 EigMax=2.50D+02 EigMin=1.00D-04
 Number of steps in this run=     68 maximum allowed number of steps=    100.
 GradGradGradGradGradGradGradGradGradGradGradGradGradGradGradGradGradGrad

 Leave Link  103 at Thu Nov  3 03:57:53 2022, MaxMem=  8053063680 cpu:               0.2 elap:               0.0
 (Enter /public3/home/scg5914/software-scg5914/g16/l202.exe)
                          Input orientation:                          
 ---------------------------------------------------------------------
 Center     Atomic      Atomic             Coordinates (Angstroms)
 Number     Number       Type             X           Y           Z
 ---------------------------------------------------------------------
      1          8           0       -0.033875    1.240941    0.009481
      2          6           0        1.084192    1.989393    0.002461
      3          6           0        2.346087    1.491472   -0.012923
      4          6           0        2.460629    0.086724   -0.021873
      5          6           0        3.429596   -0.880358   -0.036961
      6          6           0        2.707133   -2.128578   -0.036592
      7          7           0        1.390216   -2.021281   -0.022869
      8          6           0        1.181508   -0.659969   -0.013250
      9          7           0       -0.007672   -0.137211    0.001553
     10          1           0        3.192849    2.166633   -0.017646
     11          1           0        4.501937   -0.756317   -0.047024
     12          1           0        3.170120   -3.110447   -0.046691
 ---------------------------------------------------------------------
                    Distance matrix (angstroms):
                    1          2          3          4          5
     1  O    0.000000
     2  C    1.345475   0.000000
     3  C    2.393216   1.356666   0.000000
     4  C    2.748772   2.348472   1.409438   0.000000
     5  C    4.061735   3.706473   2.607709   1.369077   0.000000
     6  C    4.343835   4.426415   3.638087   2.229023   1.442223
     7  N    3.559659   4.022412   3.640497   2.364206   2.336872
     8  C    2.256353   2.651195   2.446414   1.481139   2.258989
     9  N    1.378423   2.390525   2.862341   2.478549   3.516897
    10  H    3.356991   2.116189   1.082992   2.205037   3.056235
    11  H    4.956392   4.384331   3.114708   2.208685   1.079539
    12  H    5.404009   5.510162   4.675236   3.275042   2.245155
                    6          7          8          9         10
     6  C    0.000000
     7  N    1.321351   0.000000
     8  C    2.117755   1.377251   0.000000
     9  N    3.367071   2.346148   1.299094   0.000000
    10  H    4.322629   4.559401   3.469177   3.943527   0.000000
    11  H    2.259322   3.359096   3.321998   4.552167   3.202844
    12  H    1.085600   2.086842   3.156032   4.352106   5.277209
                   11         12
    11  H    0.000000
    12  H    2.704749   0.000000
 Stoichiometry    C6H3N2O(2)
 Framework group  C1[X(C6H3N2O)]
 Deg. of freedom    30
 Full point group                 C1      NOp   1
 Largest Abelian subgroup         C1      NOp   1
 Largest concise Abelian subgroup C1      NOp   1
                         Standard orientation:                         
 ---------------------------------------------------------------------
 Center     Atomic      Atomic             Coordinates (Angstroms)
 Number     Number       Type             X           Y           Z
 ---------------------------------------------------------------------
      1          8           0        2.038157   -0.692822   -0.000004
      2          6           0        2.082361    0.651926   -0.000012
      3          6           0        0.992520    1.459880   -0.000010
      4          6           0       -0.260477    0.814502   -0.000002
      5          6           0       -1.593698    1.125782    0.000030
      6          6           0       -2.271293   -0.147353   -0.000042
      7          7           0       -1.483949   -1.208512   -0.000000
      8          6           0       -0.218037   -0.666029    0.000023
      9          7           0        0.854442   -1.399129    0.000013
     10          1           0        1.117950    2.535584   -0.000008
     11          1           0       -2.055359    2.101626    0.000057
     12          1           0       -3.349551   -0.273397   -0.000022
 ---------------------------------------------------------------------
 Rotational constants (GHZ):           4.0168632           1.7933661           1.2398317
 Leave Link  202 at Thu Nov  3 03:57:53 2022, MaxMem=  8053063680 cpu:               0.2 elap:               0.0
 (Enter /public3/home/scg5914/software-scg5914/g16/l301.exe)
 Standard basis: 6-311+G(d,p) (5D, 7F)
 Ernie: Thresh=  0.10000D-02 Tol=  0.10000D-05 Strict=F.
 There are   225 symmetry adapted cartesian basis functions of A   symmetry.
 There are   216 symmetry adapted basis functions of A   symmetry.
   216 basis functions,   348 primitive gaussians,   225 cartesian basis functions
    31 alpha electrons       30 beta electrons
       nuclear repulsion energy       395.3813685744 Hartrees.
 IExCor=  402 DFT=T Ex+Corr=B3LYP ExCW=0 ScaHFX=  0.200000
 ScaDFX=  0.800000  0.720000  1.000000  0.810000 ScalE2=  1.000000  1.000000
 IRadAn=      5 IRanWt=     -1 IRanGd=            0 ICorTp=0 IEmpDi=141
 NAtoms=   12 NActive=   12 NUniq=   12 SFac= 1.00D+00 NAtFMM=   60 NAOKFM=F Big=F
 Integral buffers will be    131072 words long.
 Raffenetti 2 integral format.
 Two-electron integral symmetry is turned on.
 R6Disp:  Grimme-D3(BJ) Dispersion energy=       -0.0225808581 Hartrees.
 Nuclear repulsion after empirical dispersion term =      395.3587877164 Hartrees.
 Leave Link  301 at Thu Nov  3 03:57:53 2022, MaxMem=  8053063680 cpu:               1.2 elap:               0.1
 (Enter /public3/home/scg5914/software-scg5914/g16/l302.exe)
 NPDir=0 NMtPBC=     1 NCelOv=     1 NCel=       1 NClECP=     1 NCelD=      1
         NCelK=      1 NCelE2=     1 NClLst=     1 CellRange=     0.0.
 One-electron integrals computed using PRISM.
 One-electron integral symmetry used in STVInt
 NBasis=   216 RedAO= T EigKep=  3.96D-06  NBF=   216
 NBsUse=   216 1.00D-06 EigRej= -1.00D+00 NBFU=   216
 Precomputing XC quadrature grid using
 IXCGrd= 4 IRadAn=           5 IRanWt=          -1 IRanGd=           0 AccXCQ= 0.00D+00.
 Generated NRdTot=       0 NPtTot=           0 NUsed=           0 NTot=          32
 NSgBfM=   225   225   225   225   225 MxSgAt=    12 MxSgA2=    12.
 Leave Link  302 at Thu Nov  3 03:57:54 2022, MaxMem=  8053063680 cpu:               3.9 elap:               0.1
 (Enter /public3/home/scg5914/software-scg5914/g16/l303.exe)
 DipDrv:  MaxL=1.
 Leave Link  303 at Thu Nov  3 03:57:54 2022, MaxMem=  8053063680 cpu:               0.5 elap:               0.0
 (Enter /public3/home/scg5914/software-scg5914/g16/l401.exe)
 ExpMin= 4.38D-02 ExpMax= 8.59D+03 ExpMxC= 1.30D+03 IAcc=3 IRadAn=         5 AccDes= 0.00D+00
 Harris functional with IExCor=  402 and IRadAn=       5 diagonalized for initial guess.
 HarFok:  IExCor=  402 AccDes= 0.00D+00 IRadAn=         5 IDoV= 1 UseB2=F ITyADJ=14
 ICtDFT=  3500011 ScaDFX=  1.000000  1.000000  1.000000  1.000000
 FoFCou: FMM=F IPFlag=           0 FMFlag=      100000 FMFlg1=           0
         NFxFlg=           0 DoJE=T BraDBF=F KetDBF=T FulRan=T
         wScrn=  0.000000 ICntrl=       500 IOpCl=  0 I1Cent=   200000004 NGrid=           0
         NMat0=    1 NMatS0=      1 NMatT0=    0 NMatD0=    1 NMtDS0=    0 NMtDT0=    0
 Petite list used in FoFCou.
 Harris En= -415.074305471982    
 JPrj=0 DoOrth=F DoCkMO=F.
 Initial guess <Sx>= 0.0000 <Sy>= 0.0000 <Sz>= 0.5000 <S**2>= 0.7500 S= 0.5000
 Leave Link  401 at Thu Nov  3 03:57:54 2022, MaxMem=  8053063680 cpu:              11.3 elap:               0.4
 (Enter /public3/home/scg5914/software-scg5914/g16/l502.exe)
 Keep R1 and R2 ints in memory in canonical form, NReq=583032912.
 FoFCou: FMM=F IPFlag=           0 FMFlag=           0 FMFlg1=           0
         NFxFlg=           0 DoJE=F BraDBF=F KetDBF=F FulRan=T
         wScrn=  0.000000 ICntrl=       600 IOpCl=  0 I1Cent=           0 NGrid=           0
         NMat0=    1 NMatS0=  23436 NMatT0=    0 NMatD0=    1 NMtDS0=    0 NMtDT0=    0
 Symmetry not used in FoFCou.
 Two-electron integral symmetry not used.
 UHF open shell SCF:
 Using DIIS extrapolation, IDIIS=  1040.
 NGot=  8053063680 LenX=  7503683276 LenY=  7503632210
 Requested convergence on RMS density matrix=1.00D-08 within 128 cycles.
 Requested convergence on MAX density matrix=1.00D-06.
 Requested convergence on             energy=1.00D-06.
 No special actions if energy rises.

 Cycle   1  Pass 1  IDiag  1:
 E= -414.905830374003    
 DIIS: error= 3.28D-02 at cycle   1 NSaved=   1.
 NSaved= 1 IEnMin= 1 EnMin= -414.905830374003     IErMin= 1 ErrMin= 3.28D-02
 ErrMax= 3.28D-02  0.00D+00 EMaxC= 1.00D-01 BMatC= 8.65D-01 BMatP= 8.65D-01
 IDIUse=3 WtCom= 6.72D-01 WtEn= 3.28D-01
 Coeff-Com:  0.100D+01
 Coeff-En:   0.100D+01
 Coeff:      0.100D+01
 Gap=     0.312 Goal=   None    Shift=    0.000
 Gap=    -0.088 Goal=   None    Shift=    0.000
 GapD=   -0.088 DampG=0.250 DampE=0.500 DampFc=0.2500 IDamp=-1.
 Damping current iteration by 2.50D-01
 RMSDP=2.86D-02 MaxDP=2.63D+00              OVMax= 9.15D-01

 Cycle   2  Pass 1  IDiag  1:
 E= -414.923734781025     Delta-E=       -0.017904407022 Rises=F Damp=T
 DIIS: error= 1.56D-02 at cycle   2 NSaved=   2.
 NSaved= 2 IEnMin= 2 EnMin= -414.923734781025     IErMin= 2 ErrMin= 1.56D-02
 ErrMax= 1.56D-02  0.00D+00 EMaxC= 1.00D-01 BMatC= 2.20D-01 BMatP= 8.65D-01
 IDIUse=3 WtCom= 8.44D-01 WtEn= 1.56D-01
 Coeff-Com: -0.705D-01 0.107D+01
 Coeff-En:   0.434D+00 0.566D+00
 Coeff:      0.795D-02 0.992D+00
 Gap=     0.219 Goal=   None    Shift=    0.000
 Gap=    -0.091 Goal=   None    Shift=    0.000
 RMSDP=1.43D-02 MaxDP=1.26D+00 DE=-1.79D-02 OVMax= 8.81D-01

 Cycle   3  Pass 1  IDiag  1:
 E= -414.943358332535     Delta-E=       -0.019623551510 Rises=F Damp=F
 DIIS: error= 4.58D-02 at cycle   3 NSaved=   3.
 NSaved= 3 IEnMin= 3 EnMin= -414.943358332535     IErMin= 2 ErrMin= 1.56D-02
 ErrMax= 4.58D-02  0.00D+00 EMaxC= 1.00D-01 BMatC= 5.10D-01 BMatP= 2.20D-01
 IDIUse=2 WtCom= 0.00D+00 WtEn= 1.00D+00
 Coeff-En:   0.000D+00 0.458D+00 0.542D+00
 Coeff:      0.000D+00 0.458D+00 0.542D+00
 Gap=     0.257 Goal=   None    Shift=    0.000
 Gap=     0.033 Goal=   None    Shift=    0.000
 RMSDP=1.05D-02 MaxDP=3.77D-01 DE=-1.96D-02 OVMax= 9.86D-01

 Cycle   4  Pass 1  IDiag  1:
 E= -414.382492160397     Delta-E=        0.560866172138 Rises=F Damp=F
 DIIS: error= 6.98D-02 at cycle   4 NSaved=   4.
 NSaved= 4 IEnMin= 3 EnMin= -414.943358332535     IErMin= 2 ErrMin= 1.56D-02
 ErrMax= 6.98D-02  0.00D+00 EMaxC= 1.00D-01 BMatC= 1.95D+00 BMatP= 2.20D-01
 IDIUse=2 WtCom= 0.00D+00 WtEn= 1.00D+00
 EnCoef did     3 forward-backward iterations
 Coeff-En:   0.638D-01 0.000D+00 0.683D+00 0.253D+00
 Coeff:      0.638D-01 0.000D+00 0.683D+00 0.253D+00
 Gap=     0.196 Goal=   None    Shift=    0.000
 Gap=    -0.059 Goal=   None    Shift=    0.000
 RMSDP=9.82D-03 MaxDP=4.19D-01 DE= 5.61D-01 OVMax= 9.94D-01

 Cycle   5  Pass 1  IDiag  1:
 E= -415.084748330761     Delta-E=       -0.702256170364 Rises=F Damp=F
 DIIS: error= 1.01D-02 at cycle   5 NSaved=   5.
 NSaved= 5 IEnMin= 5 EnMin= -415.084748330761     IErMin= 5 ErrMin= 1.01D-02
 ErrMax= 1.01D-02  0.00D+00 EMaxC= 1.00D-01 BMatC= 8.62D-02 BMatP= 2.20D-01
 IDIUse=3 WtCom= 8.99D-01 WtEn= 1.01D-01
 Coeff-Com: -0.464D-01 0.198D+00 0.355D+00 0.963D-01 0.397D+00
 Coeff-En:   0.000D+00 0.000D+00 0.775D-01 0.000D+00 0.922D+00
 Coeff:     -0.417D-01 0.178D+00 0.327D+00 0.866D-01 0.450D+00
 Gap=     0.145 Goal=   None    Shift=    0.000
 Gap=     0.083 Goal=   None    Shift=    0.000
 RMSDP=2.17D-03 MaxDP=1.34D-01 DE=-7.02D-01 OVMax= 8.77D-02

 Cycle   6  Pass 1  IDiag  1:
 E= -415.095560320026     Delta-E=       -0.010811989265 Rises=F Damp=F
 DIIS: error= 1.02D-02 at cycle   6 NSaved=   6.
 NSaved= 6 IEnMin= 6 EnMin= -415.095560320026     IErMin= 5 ErrMin= 1.01D-02
 ErrMax= 1.02D-02  0.00D+00 EMaxC= 1.00D-01 BMatC= 3.40D-02 BMatP= 8.62D-02
 IDIUse=3 WtCom= 8.99D-01 WtEn= 1.01D-01
 Coeff-Com: -0.135D+00 0.202D+00 0.739D-01-0.589D-02 0.301D+00 0.564D+00
 Coeff-En:   0.000D+00 0.000D+00 0.000D+00 0.000D+00 0.330D+00 0.670D+00
 Coeff:     -0.121D+00 0.182D+00 0.664D-01-0.530D-02 0.304D+00 0.574D+00
 Gap=     0.140 Goal=   None    Shift=    0.000
 Gap=     0.080 Goal=   None    Shift=    0.000
 RMSDP=1.04D-03 MaxDP=6.67D-02 DE=-1.08D-02 OVMax= 5.10D-02

 Cycle   7  Pass 1  IDiag  1:
 E= -415.104991059049     Delta-E=       -0.009430739022 Rises=F Damp=F
 DIIS: error= 1.64D-03 at cycle   7 NSaved=   7.
 NSaved= 7 IEnMin= 7 EnMin= -415.104991059049     IErMin= 7 ErrMin= 1.64D-03
 ErrMax= 1.64D-03  0.00D+00 EMaxC= 1.00D-01 BMatC= 1.49D-03 BMatP= 3.40D-02
 IDIUse=3 WtCom= 9.84D-01 WtEn= 1.64D-02
 Coeff-Com: -0.888D-02 0.953D-03-0.306D-01 0.107D-01 0.906D-02 0.186D+00
 Coeff-Com:  0.833D+00
 Coeff-En:   0.000D+00 0.000D+00 0.000D+00 0.000D+00 0.000D+00 0.000D+00
 Coeff-En:   0.100D+01
 Coeff:     -0.874D-02 0.937D-03-0.301D-01 0.105D-01 0.891D-02 0.183D+00
 Coeff:      0.836D+00
 Gap=     0.143 Goal=   None    Shift=    0.000
 Gap=     0.085 Goal=   None    Shift=    0.000
 RMSDP=4.41D-04 MaxDP=4.07D-02 DE=-9.43D-03 OVMax= 1.08D-02

 Cycle   8  Pass 1  IDiag  1:
 E= -415.105372042438     Delta-E=       -0.000380983389 Rises=F Damp=F
 DIIS: error= 7.33D-04 at cycle   8 NSaved=   8.
 NSaved= 8 IEnMin= 8 EnMin= -415.105372042438     IErMin= 8 ErrMin= 7.33D-04
 ErrMax= 7.33D-04  0.00D+00 EMaxC= 1.00D-01 BMatC= 2.24D-04 BMatP= 1.49D-03
 IDIUse=3 WtCom= 9.93D-01 WtEn= 7.33D-03
 Coeff-Com:  0.405D-03-0.587D-02-0.242D-01 0.660D-02-0.196D-01 0.668D-01
 Coeff-Com:  0.429D+00 0.547D+00
 Coeff-En:   0.000D+00 0.000D+00 0.000D+00 0.000D+00 0.000D+00 0.000D+00
 Coeff-En:   0.000D+00 0.100D+01
 Coeff:      0.402D-03-0.582D-02-0.240D-01 0.655D-02-0.195D-01 0.663D-01
 Coeff:      0.426D+00 0.550D+00
 Gap=     0.143 Goal=   None    Shift=    0.000
 Gap=     0.087 Goal=   None    Shift=    0.000
 RMSDP=1.58D-04 MaxDP=1.26D-02 DE=-3.81D-04 OVMax= 3.94D-03

 Cycle   9  Pass 1  IDiag  1:
 E= -415.105421909328     Delta-E=       -0.000049866890 Rises=F Damp=F
 DIIS: error= 4.62D-04 at cycle   9 NSaved=   9.
 NSaved= 9 IEnMin= 9 EnMin= -415.105421909328     IErMin= 9 ErrMin= 4.62D-04
 ErrMax= 4.62D-04  0.00D+00 EMaxC= 1.00D-01 BMatC= 7.36D-05 BMatP= 2.24D-04
 IDIUse=3 WtCom= 9.95D-01 WtEn= 4.62D-03
 Coeff-Com:  0.228D-02-0.242D-02-0.573D-02 0.209D-02-0.178D-01-0.196D-01
 Coeff-Com: -0.323D-01 0.373D+00 0.701D+00
 Coeff-En:   0.000D+00 0.000D+00 0.000D+00 0.000D+00 0.000D+00 0.000D+00
 Coeff-En:   0.000D+00 0.000D+00 0.100D+01
 Coeff:      0.227D-02-0.241D-02-0.570D-02 0.208D-02-0.177D-01-0.195D-01
 Coeff:     -0.322D-01 0.371D+00 0.702D+00
 Gap=     0.143 Goal=   None    Shift=    0.000
 Gap=     0.087 Goal=   None    Shift=    0.000
 RMSDP=8.19D-05 MaxDP=5.59D-03 DE=-4.99D-05 OVMax= 5.64D-03

 Cycle  10  Pass 1  IDiag  1:
 E= -415.105453976407     Delta-E=       -0.000032067079 Rises=F Damp=F
 DIIS: error= 1.66D-04 at cycle  10 NSaved=  10.
 NSaved=10 IEnMin=10 EnMin= -415.105453976407     IErMin=10 ErrMin= 1.66D-04
 ErrMax= 1.66D-04  0.00D+00 EMaxC= 1.00D-01 BMatC= 7.35D-06 BMatP= 7.36D-05
 IDIUse=3 WtCom= 9.98D-01 WtEn= 1.66D-03
 Coeff-Com:  0.217D-03 0.662D-03 0.108D-02 0.351D-04-0.405D-02-0.149D-01
 Coeff-Com: -0.743D-01 0.231D-01 0.243D+00 0.825D+00
 Coeff-En:   0.000D+00 0.000D+00 0.000D+00 0.000D+00 0.000D+00 0.000D+00
 Coeff-En:   0.000D+00 0.000D+00 0.000D+00 0.100D+01
 Coeff:      0.216D-03 0.661D-03 0.108D-02 0.350D-04-0.404D-02-0.148D-01
 Coeff:     -0.742D-01 0.230D-01 0.242D+00 0.826D+00
 Gap=     0.143 Goal=   None    Shift=    0.000
 Gap=     0.087 Goal=   None    Shift=    0.000
 RMSDP=2.54D-05 MaxDP=1.06D-03 DE=-3.21D-05 OVMax= 2.66D-03

 Cycle  11  Pass 1  IDiag  1:
 E= -415.105460354139     Delta-E=       -0.000006377732 Rises=F Damp=F
 DIIS: error= 1.24D-04 at cycle  11 NSaved=  11.
 NSaved=11 IEnMin=11 EnMin= -415.105460354139     IErMin=11 ErrMin= 1.24D-04
 ErrMax= 1.24D-04  0.00D+00 EMaxC= 1.00D-01 BMatC= 3.42D-06 BMatP= 7.35D-06
 IDIUse=3 WtCom= 9.99D-01 WtEn= 1.24D-03
 Coeff-Com: -0.215D-03 0.413D-03 0.238D-02-0.325D-03 0.300D-02-0.278D-02
 Coeff-Com: -0.346D-01-0.104D+00-0.584D-01 0.524D+00 0.671D+00
 Coeff-En:   0.000D+00 0.000D+00 0.000D+00 0.000D+00 0.000D+00 0.000D+00
 Coeff-En:   0.000D+00 0.000D+00 0.000D+00 0.000D+00 0.100D+01
 Coeff:     -0.214D-03 0.412D-03 0.238D-02-0.324D-03 0.300D-02-0.278D-02
 Coeff:     -0.346D-01-0.104D+00-0.584D-01 0.523D+00 0.671D+00
 Gap=     0.142 Goal=   None    Shift=    0.000
 Gap=     0.087 Goal=   None    Shift=    0.000
 RMSDP=2.17D-05 MaxDP=2.02D-03 DE=-6.38D-06 OVMax= 1.86D-03

 Cycle  12  Pass 1  IDiag  1:
 E= -415.105463375874     Delta-E=       -0.000003021735 Rises=F Damp=F
 DIIS: error= 6.09D-05 at cycle  12 NSaved=  12.
 NSaved=12 IEnMin=12 EnMin= -415.105463375874     IErMin=12 ErrMin= 6.09D-05
 ErrMax= 6.09D-05  0.00D+00 EMaxC= 1.00D-01 BMatC= 9.39D-07 BMatP= 3.42D-06
 IDIUse=1 WtCom= 1.00D+00 WtEn= 0.00D+00
 Coeff-Com:  0.208D-03-0.672D-03 0.416D-03-0.226D-03 0.311D-02 0.576D-02
 Coeff-Com:  0.271D-01-0.439D-01-0.142D+00-0.266D+00 0.236D+00 0.118D+01
 Coeff:      0.208D-03-0.672D-03 0.416D-03-0.226D-03 0.311D-02 0.576D-02
 Coeff:      0.271D-01-0.439D-01-0.142D+00-0.266D+00 0.236D+00 0.118D+01
 Gap=     0.142 Goal=   None    Shift=    0.000
 Gap=     0.087 Goal=   None    Shift=    0.000
 RMSDP=2.76D-05 MaxDP=2.02D-03 DE=-3.02D-06 OVMax= 1.99D-03

 Cycle  13  Pass 1  IDiag  1:
 E= -415.105465052498     Delta-E=       -0.000001676623 Rises=F Damp=F
 DIIS: error= 4.01D-05 at cycle  13 NSaved=  13.
 NSaved=13 IEnMin=13 EnMin= -415.105465052498     IErMin=13 ErrMin= 4.01D-05
 ErrMax= 4.01D-05  0.00D+00 EMaxC= 1.00D-01 BMatC= 4.81D-07 BMatP= 9.39D-07
 IDIUse=1 WtCom= 1.00D+00 WtEn= 0.00D+00
 Coeff-Com:  0.210D-03-0.507D-03-0.100D-03-0.845D-04 0.156D-02 0.466D-02
 Coeff-Com:  0.245D-01-0.369D-02-0.713D-01-0.258D+00-0.120D-01 0.692D+00
 Coeff-Com:  0.623D+00
 Coeff:      0.210D-03-0.507D-03-0.100D-03-0.845D-04 0.156D-02 0.466D-02
 Coeff:      0.245D-01-0.369D-02-0.713D-01-0.258D+00-0.120D-01 0.692D+00
 Coeff:      0.623D+00
 Gap=     0.142 Goal=   None    Shift=    0.000
 Gap=     0.087 Goal=   None    Shift=    0.000
 RMSDP=1.22D-05 MaxDP=9.53D-04 DE=-1.68D-06 OVMax= 6.69D-04

 Cycle  14  Pass 1  IDiag  1:
 E= -415.105465369745     Delta-E=       -0.000000317247 Rises=F Damp=F
 DIIS: error= 1.69D-05 at cycle  14 NSaved=  14.
 NSaved=14 IEnMin=14 EnMin= -415.105465369745     IErMin=14 ErrMin= 1.69D-05
 ErrMax= 1.69D-05  0.00D+00 EMaxC= 1.00D-01 BMatC= 1.18D-07 BMatP= 4.81D-07
 IDIUse=1 WtCom= 1.00D+00 WtEn= 0.00D+00
 Coeff-Com:  0.115D-03-0.111D-03-0.151D-03 0.666D-05-0.369D-03 0.734D-04
 Coeff-Com:  0.271D-02 0.187D-01 0.216D-01-0.401D-01-0.119D+00-0.894D-01
 Coeff-Com:  0.344D+00 0.863D+00
 Coeff:      0.115D-03-0.111D-03-0.151D-03 0.666D-05-0.369D-03 0.734D-04
 Coeff:      0.271D-02 0.187D-01 0.216D-01-0.401D-01-0.119D+00-0.894D-01
 Coeff:      0.344D+00 0.863D+00
 Gap=     0.142 Goal=   None    Shift=    0.000
 Gap=     0.087 Goal=   None    Shift=    0.000
 RMSDP=9.73D-06 MaxDP=7.50D-04 DE=-3.17D-07 OVMax= 4.38D-04

 Cycle  15  Pass 1  IDiag  1:
 E= -415.105465473742     Delta-E=       -0.000000103997 Rises=F Damp=F
 DIIS: error= 9.83D-06 at cycle  15 NSaved=  15.
 NSaved=15 IEnMin=15 EnMin= -415.105465473742     IErMin=15 ErrMin= 9.83D-06
 ErrMax= 9.83D-06  0.00D+00 EMaxC= 1.00D-01 BMatC= 1.74D-08 BMatP= 1.18D-07
 IDIUse=1 WtCom= 1.00D+00 WtEn= 0.00D+00
 Coeff-Com: -0.327D-04 0.996D-04-0.203D-04-0.672D-06-0.335D-03-0.645D-03
 Coeff-Com: -0.277D-02 0.796D-02 0.194D-01 0.247D-01-0.490D-01-0.154D+00
 Coeff-Com:  0.488D-01 0.387D+00 0.719D+00
 Coeff:     -0.327D-04 0.996D-04-0.203D-04-0.672D-06-0.335D-03-0.645D-03
 Coeff:     -0.277D-02 0.796D-02 0.194D-01 0.247D-01-0.490D-01-0.154D+00
 Coeff:      0.488D-01 0.387D+00 0.719D+00
 Gap=     0.142 Goal=   None    Shift=    0.000
 Gap=     0.087 Goal=   None    Shift=    0.000
 RMSDP=3.05D-06 MaxDP=2.60D-04 DE=-1.04D-07 OVMax= 1.39D-04

 Cycle  16  Pass 1  IDiag  1:
 E= -415.105465488474     Delta-E=       -0.000000014732 Rises=F Damp=F
 DIIS: error= 5.20D-06 at cycle  16 NSaved=  16.
 NSaved=16 IEnMin=16 EnMin= -415.105465488474     IErMin=16 ErrMin= 5.20D-06
 ErrMax= 5.20D-06  0.00D+00 EMaxC= 1.00D-01 BMatC= 8.69D-09 BMatP= 1.74D-08
 IDIUse=1 WtCom= 1.00D+00 WtEn= 0.00D+00
 Coeff-Com: -0.348D-04 0.448D-04 0.255D-05 0.207D-04-0.167D-03-0.516D-03
 Coeff-Com: -0.272D-02-0.108D-02 0.497D-02 0.300D-01 0.146D-01-0.678D-01
 Coeff-Com: -0.940D-01-0.905D-01 0.448D+00 0.759D+00
 Coeff:     -0.348D-04 0.448D-04 0.255D-05 0.207D-04-0.167D-03-0.516D-03
 Coeff:     -0.272D-02-0.108D-02 0.497D-02 0.300D-01 0.146D-01-0.678D-01
 Coeff:     -0.940D-01-0.905D-01 0.448D+00 0.759D+00
 Gap=     0.142 Goal=   None    Shift=    0.000
 Gap=     0.087 Goal=   None    Shift=    0.000
 RMSDP=1.67D-06 MaxDP=1.16D-04 DE=-1.47D-08 OVMax= 8.43D-05

 Cycle  17  Pass 1  IDiag  1:
 E= -415.105465495103     Delta-E=       -0.000000006629 Rises=F Damp=F
 DIIS: error= 1.86D-06 at cycle  17 NSaved=  17.
 NSaved=17 IEnMin=17 EnMin= -415.105465495103     IErMin=17 ErrMin= 1.86D-06
 ErrMax= 1.86D-06  0.00D+00 EMaxC= 1.00D-01 BMatC= 1.39D-09 BMatP= 8.69D-09
 IDIUse=1 WtCom= 1.00D+00 WtEn= 0.00D+00
 Coeff-Com: -0.132D-04 0.182D-04-0.519D-05 0.296D-05 0.481D-04 0.153D-03
 Coeff-Com:  0.192D-03-0.214D-02-0.424D-02-0.318D-02 0.128D-01 0.310D-01
 Coeff-Com: -0.108D-01-0.976D-01-0.192D+00 0.402D-01 0.123D+01
 Coeff:     -0.132D-04 0.182D-04-0.519D-05 0.296D-05 0.481D-04 0.153D-03
 Coeff:      0.192D-03-0.214D-02-0.424D-02-0.318D-02 0.128D-01 0.310D-01
 Coeff:     -0.108D-01-0.976D-01-0.192D+00 0.402D-01 0.123D+01
 Gap=     0.142 Goal=   None    Shift=    0.000
 Gap=     0.087 Goal=   None    Shift=    0.000
 RMSDP=9.59D-07 MaxDP=8.29D-05 DE=-6.63D-09 OVMax= 5.26D-05

 Cycle  18  Pass 1  IDiag  1:
 E= -415.105465496796     Delta-E=       -0.000000001694 Rises=F Damp=F
 DIIS: error= 7.88D-07 at cycle  18 NSaved=  18.
 NSaved=18 IEnMin=18 EnMin= -415.105465496796     IErMin=18 ErrMin= 7.88D-07
 ErrMax= 7.88D-07  0.00D+00 EMaxC= 1.00D-01 BMatC= 2.12D-10 BMatP= 1.39D-09
 IDIUse=1 WtCom= 1.00D+00 WtEn= 0.00D+00
 Coeff-Com:  0.105D-05-0.246D-05-0.586D-05 0.167D-05 0.352D-04 0.103D-03
 Coeff-Com:  0.440D-03-0.456D-03-0.186D-02-0.477D-02 0.179D-02 0.182D-01
 Coeff-Com:  0.827D-02-0.166D-01-0.125D+00-0.844D-01 0.361D+00 0.843D+00
 Coeff:      0.105D-05-0.246D-05-0.586D-05 0.167D-05 0.352D-04 0.103D-03
 Coeff:      0.440D-03-0.456D-03-0.186D-02-0.477D-02 0.179D-02 0.182D-01
 Coeff:      0.827D-02-0.166D-01-0.125D+00-0.844D-01 0.361D+00 0.843D+00
 Gap=     0.142 Goal=   None    Shift=    0.000
 Gap=     0.087 Goal=   None    Shift=    0.000
 RMSDP=2.86D-07 MaxDP=2.69D-05 DE=-1.69D-09 OVMax= 1.52D-05

 Cycle  19  Pass 1  IDiag  1:
 E= -415.105465496975     Delta-E=       -0.000000000179 Rises=F Damp=F
 DIIS: error= 4.08D-07 at cycle  19 NSaved=  19.
 NSaved=19 IEnMin=19 EnMin= -415.105465496975     IErMin=19 ErrMin= 4.08D-07
 ErrMax= 4.08D-07  0.00D+00 EMaxC= 1.00D-01 BMatC= 5.42D-11 BMatP= 2.12D-10
 IDIUse=1 WtCom= 1.00D+00 WtEn= 0.00D+00
 Coeff-Com:  0.848D-06-0.979D-06 0.237D-06-0.102D-05 0.100D-04 0.860D-05
 Coeff-Com:  0.180D-03 0.285D-03 0.128D-03-0.151D-02-0.242D-02 0.571D-03
 Coeff-Com:  0.637D-02 0.183D-01-0.280D-02-0.424D-01-0.163D+00 0.340D+00
 Coeff-Com:  0.846D+00
 Coeff:      0.848D-06-0.979D-06 0.237D-06-0.102D-05 0.100D-04 0.860D-05
 Coeff:      0.180D-03 0.285D-03 0.128D-03-0.151D-02-0.242D-02 0.571D-03
 Coeff:      0.637D-02 0.183D-01-0.280D-02-0.424D-01-0.163D+00 0.340D+00
 Coeff:      0.846D+00
 Gap=     0.142 Goal=   None    Shift=    0.000
 Gap=     0.087 Goal=   None    Shift=    0.000
 RMSDP=1.12D-07 MaxDP=9.63D-06 DE=-1.79D-10 OVMax= 7.18D-06

 Cycle  20  Pass 1  IDiag  1:
 E= -415.105465497016     Delta-E=       -0.000000000041 Rises=F Damp=F
 DIIS: error= 1.52D-07 at cycle  20 NSaved=  20.
 NSaved=20 IEnMin=20 EnMin= -415.105465497016     IErMin=20 ErrMin= 1.52D-07
 ErrMax= 1.52D-07  0.00D+00 EMaxC= 1.00D-01 BMatC= 8.40D-12 BMatP= 5.42D-11
 IDIUse=1 WtCom= 1.00D+00 WtEn= 0.00D+00
 Coeff-Com: -0.420D-07 0.558D-06 0.124D-05-0.710D-06-0.597D-05-0.211D-04
 Coeff-Com: -0.567D-04 0.178D-03 0.488D-03 0.734D-03-0.105D-02-0.395D-02
 Coeff-Com: -0.409D-03 0.787D-02 0.278D-01 0.510D-02-0.115D+00-0.954D-01
 Coeff-Com:  0.264D+00 0.910D+00
 Coeff:     -0.420D-07 0.558D-06 0.124D-05-0.710D-06-0.597D-05-0.211D-04
 Coeff:     -0.567D-04 0.178D-03 0.488D-03 0.734D-03-0.105D-02-0.395D-02
 Coeff:     -0.409D-03 0.787D-02 0.278D-01 0.510D-02-0.115D+00-0.954D-01
 Coeff:      0.264D+00 0.910D+00
 Gap=     0.142 Goal=   None    Shift=    0.000
 Gap=     0.087 Goal=   None    Shift=    0.000
 RMSDP=5.52D-08 MaxDP=4.55D-06 DE=-4.12D-11 OVMax= 2.78D-06

 Cycle  21  Pass 1  IDiag  1:
 E= -415.105465497024     Delta-E=       -0.000000000008 Rises=F Damp=F
 DIIS: error= 7.42D-08 at cycle  21 NSaved=  20.
 NSaved=20 IEnMin=20 EnMin= -415.105465497024     IErMin=20 ErrMin= 7.42D-08
 ErrMax= 7.42D-08  0.00D+00 EMaxC= 1.00D-01 BMatC= 1.80D-12 BMatP= 8.40D-12
 IDIUse=1 WtCom= 1.00D+00 WtEn= 0.00D+00
 Coeff-Com:  0.608D-06-0.130D-05 0.337D-06-0.326D-05-0.584D-05-0.486D-04
 Coeff-Com:  0.774D-05 0.105D-03 0.379D-03 0.833D-04-0.106D-02-0.955D-03
 Coeff-Com: -0.997D-03 0.929D-02 0.708D-02-0.244D-03-0.108D+00-0.820D-01
 Coeff-Com:  0.254D+00 0.923D+00
 Coeff:      0.608D-06-0.130D-05 0.337D-06-0.326D-05-0.584D-05-0.486D-04
 Coeff:      0.774D-05 0.105D-03 0.379D-03 0.833D-04-0.106D-02-0.955D-03
 Coeff:     -0.997D-03 0.929D-02 0.708D-02-0.244D-03-0.108D+00-0.820D-01
 Coeff:      0.254D+00 0.923D+00
 Gap=     0.142 Goal=   None    Shift=    0.000
 Gap=     0.087 Goal=   None    Shift=    0.000
 RMSDP=2.48D-08 MaxDP=2.03D-06 DE=-8.30D-12 OVMax= 1.54D-06

 Cycle  22  Pass 1  IDiag  1:
 E= -415.105465497029     Delta-E=       -0.000000000005 Rises=F Damp=F
 DIIS: error= 3.93D-08 at cycle  22 NSaved=  20.
 NSaved=20 IEnMin=20 EnMin= -415.105465497029     IErMin=20 ErrMin= 3.93D-08
 ErrMax= 3.93D-08  0.00D+00 EMaxC= 1.00D-01 BMatC= 3.40D-13 BMatP= 1.80D-12
 IDIUse=1 WtCom= 1.00D+00 WtEn= 0.00D+00
 Coeff-Com:  0.210D-07-0.195D-07-0.341D-07 0.211D-05 0.266D-05-0.246D-04
 Coeff-Com: -0.671D-04-0.336D-04 0.207D-03 0.481D-03-0.248D-03-0.168D-02
 Coeff-Com: -0.273D-02 0.100D-02 0.193D-01-0.437D-02-0.606D-01-0.134D+00
 Coeff-Com:  0.220D+00 0.962D+00
 Coeff:      0.210D-07-0.195D-07-0.341D-07 0.211D-05 0.266D-05-0.246D-04
 Coeff:     -0.671D-04-0.336D-04 0.207D-03 0.481D-03-0.248D-03-0.168D-02
 Coeff:     -0.273D-02 0.100D-02 0.193D-01-0.437D-02-0.606D-01-0.134D+00
 Coeff:      0.220D+00 0.962D+00
 Gap=     0.142 Goal=   None    Shift=    0.000
 Gap=     0.087 Goal=   None    Shift=    0.000
 RMSDP=9.71D-09 MaxDP=7.00D-07 DE=-4.66D-12 OVMax= 7.78D-07

 SCF Done:  E(UB3LYP) =  -415.105465497     A.U. after   22 cycles
            NFock= 22  Conv=0.97D-08     -V/T= 2.0038
 <Sx>= 0.0000 <Sy>= 0.0000 <Sz>= 0.5000 <S**2>= 0.7629 S= 0.5064
 <L.S>=  0.00000000000    
 KE= 4.135377452837D+02 PE=-1.758343732809D+03 EE= 5.343417343120D+02
 Annihilation of the first spin contaminant:
 S**2 before annihilation     0.7629,   after     0.7501
 Leave Link  502 at Thu Nov  3 03:58:14 2022, MaxMem=  8053063680 cpu:             411.7 elap:              19.5
 (Enter /public3/home/scg5914/software-scg5914/g16/l601.exe)
 Copying SCF densities to generalized density rwf, IOpCl= 1 IROHF=0.

 **********************************************************************

            Population analysis using the SCF Density.

 **********************************************************************

 Orbital symmetries:
 Alpha Orbitals:
       Occupied  (A) (A) (A) (A) (A) (A) (A) (A) (A) (A) (A) (A)
                 (A) (A) (A) (A) (A) (A) (A) (A) (A) (A) (A) (A)
                 (A) (A) (A) (A) (A) (A) (A)
       Virtual   (A) (A) (A) (A) (A) (A) (A) (A) (A) (A) (A) (A)
                 (A) (A) (A) (A) (A) (A) (A) (A) (A) (A) (A) (A)
                 (A) (A) (A) (A) (A) (A) (A) (A) (A) (A) (A) (A)
                 (A) (A) (A) (A) (A) (A) (A) (A) (A) (A) (A) (A)
                 (A) (A) (A) (A) (A) (A) (A) (A) (A) (A) (A) (A)
                 (A) (A) (A) (A) (A) (A) (A) (A) (A) (A) (A) (A)
                 (A) (A) (A) (A) (A) (A) (A) (A) (A) (A) (A) (A)
                 (A) (A) (A) (A) (A) (A) (A) (A) (A) (A) (A) (A)
                 (A) (A) (A) (A) (A) (A) (A) (A) (A) (A) (A) (A)
                 (A) (A) (A) (A) (A) (A) (A) (A) (A) (A) (A) (A)
                 (A) (A) (A) (A) (A) (A) (A) (A) (A) (A) (A) (A)
                 (A) (A) (A) (A) (A) (A) (A) (A) (A) (A) (A) (A)
                 (A) (A) (A) (A) (A) (A) (A) (A) (A) (A) (A) (A)
                 (A) (A) (A) (A) (A) (A) (A) (A) (A) (A) (A) (A)
                 (A) (A) (A) (A) (A) (A) (A) (A) (A) (A) (A) (A)
                 (A) (A) (A) (A) (A)
 Beta  Orbitals:
       Occupied  (A) (A) (A) (A) (A) (A) (A) (A) (A) (A) (A) (A)
                 (A) (A) (A) (A) (A) (A) (A) (A) (A) (A) (A) (A)
                 (A) (A) (A) (A) (A) (A)
       Virtual   (A) (A) (A) (A) (A) (A) (A) (A) (A) (A) (A) (A)
                 (A) (A) (A) (A) (A) (A) (A) (A) (A) (A) (A) (A)
                 (A) (A) (A) (A) (A) (A) (A) (A) (A) (A) (A) (A)
                 (A) (A) (A) (A) (A) (A) (A) (A) (A) (A) (A) (A)
                 (A) (A) (A) (A) (A) (A) (A) (A) (A) (A) (A) (A)
                 (A) (A) (A) (A) (A) (A) (A) (A) (A) (A) (A) (A)
                 (A) (A) (A) (A) (A) (A) (A) (A) (A) (A) (A) (A)
                 (A) (A) (A) (A) (A) (A) (A) (A) (A) (A) (A) (A)
                 (A) (A) (A) (A) (A) (A) (A) (A) (A) (A) (A) (A)
                 (A) (A) (A) (A) (A) (A) (A) (A) (A) (A) (A) (A)
                 (A) (A) (A) (A) (A) (A) (A) (A) (A) (A) (A) (A)
                 (A) (A) (A) (A) (A) (A) (A) (A) (A) (A) (A) (A)
                 (A) (A) (A) (A) (A) (A) (A) (A) (A) (A) (A) (A)
                 (A) (A) (A) (A) (A) (A) (A) (A) (A) (A) (A) (A)
                 (A) (A) (A) (A) (A) (A) (A) (A) (A) (A) (A) (A)
                 (A) (A) (A) (A) (A) (A)
 The electronic state is 2-A.
 Alpha  occ. eigenvalues --  -19.26194 -14.41897 -14.31981 -10.31255 -10.26631
 Alpha  occ. eigenvalues --  -10.23796 -10.23440 -10.23280 -10.19764  -1.18611
 Alpha  occ. eigenvalues --   -0.99637  -0.91266  -0.86135  -0.78629  -0.70888
 Alpha  occ. eigenvalues --   -0.67363  -0.60592  -0.58144  -0.52192  -0.51440
 Alpha  occ. eigenvalues --   -0.49981  -0.46885  -0.44262  -0.42965  -0.42686
 Alpha  occ. eigenvalues --   -0.36451  -0.34934  -0.32148  -0.30454  -0.29441
 Alpha  occ. eigenvalues --   -0.25489
 Alpha virt. eigenvalues --   -0.11251  -0.05027  -0.00359   0.01126   0.02365
 Alpha virt. eigenvalues --    0.02746   0.03533   0.04267   0.04331   0.05150
 Alpha virt. eigenvalues --    0.06640   0.06858   0.07795   0.08105   0.09374
 Alpha virt. eigenvalues --    0.10940   0.11508   0.12385   0.12576   0.12749
 Alpha virt. eigenvalues --    0.13616   0.13870   0.15550   0.15921   0.16669
 Alpha virt. eigenvalues --    0.17280   0.17340   0.17821   0.18886   0.19349
 Alpha virt. eigenvalues --    0.20751   0.21511   0.22240   0.23158   0.23499
 Alpha virt. eigenvalues --    0.24133   0.24911   0.25134   0.26116   0.27077
 Alpha virt. eigenvalues --    0.29632   0.29981   0.31298   0.32598   0.32897
 Alpha virt. eigenvalues --    0.34642   0.35711   0.37506   0.40825   0.41543
 Alpha virt. eigenvalues --    0.46764   0.47997   0.48087   0.49381   0.50498
 Alpha virt. eigenvalues --    0.51865   0.53780   0.54265   0.54583   0.57861
 Alpha virt. eigenvalues --    0.57979   0.60540   0.61236   0.64457   0.65715
 Alpha virt. eigenvalues --    0.68285   0.69802   0.71835   0.74672   0.76698
 Alpha virt. eigenvalues --    0.78722   0.79310   0.80265   0.83904   0.84891
 Alpha virt. eigenvalues --    0.87013   0.88754   0.89579   0.92868   0.93478
 Alpha virt. eigenvalues --    0.94405   0.94631   0.96563   0.98104   1.01371
 Alpha virt. eigenvalues --    1.03658   1.04499   1.05144   1.06871   1.12902
 Alpha virt. eigenvalues --    1.13375   1.14721   1.19508   1.21619   1.25723
 Alpha virt. eigenvalues --    1.26701   1.30956   1.36109   1.43522   1.48833
 Alpha virt. eigenvalues --    1.49101   1.50492   1.55310   1.58599   1.61939
 Alpha virt. eigenvalues --    1.63589   1.64852   1.65150   1.69127   1.71470
 Alpha virt. eigenvalues --    1.73903   1.74324   1.79072   1.81892   1.82963
 Alpha virt. eigenvalues --    1.85327   1.93663   1.93747   1.95180   1.97006
 Alpha virt. eigenvalues --    2.00184   2.04003   2.07085   2.19151   2.20260
 Alpha virt. eigenvalues --    2.23790   2.30468   2.31338   2.34837   2.43204
 Alpha virt. eigenvalues --    2.45755   2.47860   2.52216   2.55805   2.58553
 Alpha virt. eigenvalues --    2.62936   2.64477   2.67665   2.70464   2.73829
 Alpha virt. eigenvalues --    2.75047   2.76587   2.77765   2.79986   2.82326
 Alpha virt. eigenvalues --    2.85333   2.87376   2.92614   2.97369   2.98248
 Alpha virt. eigenvalues --    2.99518   3.06326   3.14873   3.17095   3.22997
 Alpha virt. eigenvalues --    3.24863   3.31048   3.39082   3.51649   3.53829
 Alpha virt. eigenvalues --    3.61310   3.65922   3.66904   3.84217   3.91013
 Alpha virt. eigenvalues --    3.94634   4.05549   4.14936   4.29418   4.39254
 Alpha virt. eigenvalues --    4.48701   4.71876   4.92759   5.07685   5.33860
 Alpha virt. eigenvalues --    5.88603  23.53675  23.79367  23.86623  23.93626
 Alpha virt. eigenvalues --   24.07710  24.19074  35.50785  35.66348  49.81426
  Beta  occ. eigenvalues --  -19.26087 -14.41727 -14.32011 -10.29527 -10.26645
  Beta  occ. eigenvalues --  -10.23770 -10.23393 -10.23148 -10.19808  -1.18130
  Beta  occ. eigenvalues --   -0.99566  -0.90483  -0.85597  -0.78071  -0.70418
  Beta  occ. eigenvalues --   -0.66633  -0.60274  -0.57234  -0.51686  -0.51054
  Beta  occ. eigenvalues --   -0.49563  -0.45775  -0.43760  -0.42892  -0.42556
  Beta  occ. eigenvalues --   -0.36018  -0.33673  -0.30456  -0.29447  -0.25200
  Beta virt. eigenvalues --   -0.16484  -0.10959  -0.03508  -0.00268   0.01223
  Beta virt. eigenvalues --    0.02491   0.02681   0.03670   0.04267   0.04797
  Beta virt. eigenvalues --    0.05614   0.06719   0.06909   0.07843   0.08264
  Beta virt. eigenvalues --    0.09581   0.11389   0.11610   0.12687   0.12714
  Beta virt. eigenvalues --    0.12853   0.13716   0.13961   0.15825   0.15950
  Beta virt. eigenvalues --    0.16773   0.17403   0.17440   0.18113   0.18916
  Beta virt. eigenvalues --    0.19583   0.20819   0.21518   0.22707   0.23339
  Beta virt. eigenvalues --    0.23474   0.24239   0.24998   0.25260   0.26308
  Beta virt. eigenvalues --    0.27123   0.29842   0.29976   0.31459   0.32756
  Beta virt. eigenvalues --    0.33067   0.34774   0.35944   0.38295   0.41366
  Beta virt. eigenvalues --    0.41957   0.46993   0.48207   0.48256   0.50214
  Beta virt. eigenvalues --    0.51065   0.53048   0.53781   0.54645   0.55003
  Beta virt. eigenvalues --    0.58326   0.59950   0.60704   0.61815   0.64605
  Beta virt. eigenvalues --    0.66027   0.68612   0.69968   0.72143   0.74780
  Beta virt. eigenvalues --    0.76759   0.79137   0.79755   0.80469   0.83918
  Beta virt. eigenvalues --    0.85004   0.87460   0.89505   0.89897   0.92994
  Beta virt. eigenvalues --    0.94055   0.94494   0.95132   0.96660   0.98596
  Beta virt. eigenvalues --    1.02214   1.03740   1.04754   1.05266   1.06911
  Beta virt. eigenvalues --    1.13855   1.14412   1.14992   1.19767   1.21911
  Beta virt. eigenvalues --    1.25710   1.26810   1.33322   1.37559   1.43946
  Beta virt. eigenvalues --    1.49256   1.49451   1.51004   1.56209   1.58839
  Beta virt. eigenvalues --    1.62417   1.64643   1.65329   1.66132   1.69429
  Beta virt. eigenvalues --    1.72398   1.74426   1.74456   1.80019   1.81993
  Beta virt. eigenvalues --    1.83891   1.85619   1.93952   1.94051   1.95709
  Beta virt. eigenvalues --    1.97198   2.01200   2.04825   2.07552   2.19204
  Beta virt. eigenvalues --    2.20454   2.24332   2.30463   2.31994   2.35630
  Beta virt. eigenvalues --    2.43729   2.45756   2.47931   2.52278   2.56303
  Beta virt. eigenvalues --    2.59648   2.64061   2.64880   2.67863   2.70742
  Beta virt. eigenvalues --    2.73850   2.75211   2.77596   2.79475   2.80076
  Beta virt. eigenvalues --    2.82300   2.86014   2.87454   2.93080   2.97369
  Beta virt. eigenvalues --    2.98375   2.99836   3.06565   3.15412   3.18921
  Beta virt. eigenvalues --    3.23120   3.25206   3.31797   3.39460   3.52101
  Beta virt. eigenvalues --    3.53955   3.61823   3.66163   3.67429   3.84270
  Beta virt. eigenvalues --    3.90831   3.94816   4.05735   4.15261   4.29814
  Beta virt. eigenvalues --    4.39472   4.48772   4.72038   4.92847   5.07709
  Beta virt. eigenvalues --    5.34102   5.88971  23.54625  23.79818  23.86643
  Beta virt. eigenvalues --   23.93685  24.08319  24.19136  35.50904  35.66378
  Beta virt. eigenvalues --   49.81556
          Condensed to atoms (all electrons):
               1          2          3          4          5          6
     1  O    7.769279   0.137744  -0.115996  -0.193332   0.092225  -0.039399
     2  C    0.137744   6.255254  -0.850018   0.287828   0.516717  -0.258516
     3  C   -0.115996  -0.850018  10.332365  -1.616969  -2.289438   0.609774
     4  C   -0.193332   0.287828  -1.616969  11.092665  -3.098875   1.156794
     5  C    0.092225   0.516717  -2.289438  -3.098875  11.782457  -1.924514
     6  C   -0.039399  -0.258516   0.609774   1.156794  -1.924514   6.475745
     7  N   -0.001681   0.115536  -0.275183  -0.191328   0.587556  -0.110267
     8  C    0.201146  -0.088590  -0.080295  -2.928611   0.695738  -0.617180
     9  N   -0.067394  -0.097123   0.086791   0.514698  -0.111795   0.165855
    10  H    0.006040  -0.011491   0.276322   0.041575   0.015130  -0.000620
    11  H   -0.000111   0.004235   0.019249   0.092783   0.236657   0.020211
    12  H    0.000043  -0.001557   0.020303   0.040420  -0.113176   0.468337
               7          8          9         10         11         12
     1  O   -0.001681   0.201146  -0.067394   0.006040  -0.000111   0.000043
     2  C    0.115536  -0.088590  -0.097123  -0.011491   0.004235  -0.001557
     3  C   -0.275183  -0.080295   0.086791   0.276322   0.019249   0.020303
     4  C   -0.191328  -2.928611   0.514698   0.041575   0.092783   0.040420
     5  C    0.587556   0.695738  -0.111795   0.015130   0.236657  -0.113176
     6  C   -0.110267  -0.617180   0.165855  -0.000620   0.020211   0.468337
     7  N    6.927084   0.206959  -0.070118   0.000126   0.003037  -0.070905
     8  C    0.206959   9.801140  -0.541800   0.017563  -0.022844  -0.010800
     9  N   -0.070118  -0.541800   7.350742  -0.004182   0.000013  -0.000508
    10  H    0.000126   0.017563  -0.004182   0.500481   0.001111  -0.000017
    11  H    0.003037  -0.022844   0.000013   0.001111   0.514895  -0.000807
    12  H   -0.070905  -0.010800  -0.000508  -0.000017  -0.000807   0.531748
          Atomic-Atomic Spin Densities.
               1          2          3          4          5          6
     1  O    0.087789  -0.138275   0.057637  -0.046210  -0.028235   0.002681
     2  C   -0.138275   1.177915  -0.111537   0.051626   0.027008  -0.009793
     3  C    0.057637  -0.111537   0.113390  -0.044201  -0.195075  -0.005962
     4  C   -0.046210   0.051626  -0.044201   0.125021   0.093502  -0.044189
     5  C   -0.028235   0.027008  -0.195075   0.093502   0.135908   0.061907
     6  C    0.002681  -0.009793  -0.005962  -0.044189   0.061907   0.016630
     7  N   -0.003813   0.000328  -0.015520   0.023244   0.006877   0.013872
     8  C    0.023332  -0.014408   0.114707  -0.029736  -0.150676  -0.008438
     9  N    0.013348  -0.006660  -0.033979   0.001775   0.039949  -0.004384
    10  H    0.001398  -0.012208   0.036150  -0.017324  -0.016286   0.000122
    11  H    0.000024  -0.000089   0.001668   0.003020  -0.005174  -0.001225
    12  H    0.000012  -0.000038   0.000921   0.001261  -0.001858  -0.001858
               7          8          9         10         11         12
     1  O   -0.003813   0.023332   0.013348   0.001398   0.000024   0.000012
     2  C    0.000328  -0.014408  -0.006660  -0.012208  -0.000089  -0.000038
     3  C   -0.015520   0.114707  -0.033979   0.036150   0.001668   0.000921
     4  C    0.023244  -0.029736   0.001775  -0.017324   0.003020   0.001261
     5  C    0.006877  -0.150676   0.039949  -0.016286  -0.005174  -0.001858
     6  C    0.013872  -0.008438  -0.004384   0.000122  -0.001225  -0.001858
     7  N   -0.026380  -0.026022   0.010403  -0.000292  -0.000064  -0.000299
     8  C   -0.026022   0.077924  -0.005374   0.005558   0.001287   0.001607
     9  N    0.010403  -0.005374   0.041411  -0.000653  -0.000128  -0.000145
    10  H   -0.000292   0.005558  -0.000653   0.017144   0.000137   0.000004
    11  H   -0.000064   0.001287  -0.000128   0.000137   0.002808   0.000055
    12  H   -0.000299   0.001607  -0.000145   0.000004   0.000055  -0.000143
 Mulliken charges and spin densities:
               1          2
     1  O    0.211436  -0.030310
     2  C   -0.010019   0.963870
     3  C   -0.116905  -0.081802
     4  C    0.802353   0.117789
     5  C   -0.388682  -0.032153
     6  C    0.053781   0.019361
     7  N   -0.120814  -0.017667
     8  C   -0.632426  -0.010239
     9  N   -0.225179   0.055564
    10  H    0.157963   0.013748
    11  H    0.131573   0.002319
    12  H    0.136920  -0.000480
 Sum of Mulliken charges =  -0.00000   1.00000
 Mulliken charges and spin densities with hydrogens summed into heavy atoms:
               1          2
     1  O    0.211436  -0.030310
     2  C   -0.010019   0.963870
     3  C    0.041058  -0.068055
     4  C    0.802353   0.117789
     5  C   -0.257109  -0.029834
     6  C    0.190700   0.018881
     7  N   -0.120814  -0.017667
     8  C   -0.632426  -0.010239
     9  N   -0.225179   0.055564
 Electronic spatial extent (au):  <R**2>=            891.0041
 Charge=             -0.0000 electrons
 Dipole moment (field-independent basis, Debye):
    X=             -0.2728    Y=              4.5410    Z=             -0.0000  Tot=              4.5492
 Quadrupole moment (field-independent basis, Debye-Ang):
   XX=            -47.1012   YY=            -53.6951   ZZ=            -52.1439
   XY=             -0.7444   XZ=             -0.0000   YZ=              0.0001
 Traceless Quadrupole moment (field-independent basis, Debye-Ang):
   XX=              3.8789   YY=             -2.7151   ZZ=             -1.1638
   XY=             -0.7444   XZ=             -0.0000   YZ=              0.0001
 Octapole moment (field-independent basis, Debye-Ang**2):
  XXX=            -14.7843  YYY=             22.3970  ZZZ=              0.0000  XYY=              6.1510
  XXY=              9.8019  XXZ=             -0.0001  XZZ=              4.0102  YZZ=             -4.1893
  YYZ=              0.0002  XYZ=             -0.0002
 Hexadecapole moment (field-independent basis, Debye-Ang**3):
 XXXX=           -708.8755 YYYY=           -385.2405 ZZZZ=            -56.3149 XXXY=             -8.9474
 XXXZ=             -0.0003 YYYX=            -14.7461 YYYZ=              0.0006 ZZZX=             -0.0000
 ZZZY=              0.0000 XXYY=           -200.9591 XXZZ=           -144.4211 YYZZ=            -80.0797
 XXYZ=              0.0004 YYXZ=             -0.0006 ZZXY=             -3.4850
 N-N= 3.953587877164D+02 E-N=-1.758343735238D+03  KE= 4.135377452837D+02
                          Isotropic Fermi Contact Couplings
        Atom                 a.u.       MegaHertz       Gauss      10(-4) cm-1
     1  O(17)              0.21292    -129.07267     -46.05634     -43.05401
     2  C(13)              0.56160     631.34563     225.27982     210.59423
     3  C(13)              0.04741      53.29809      19.01808      17.77833
     4  C(13)              0.02780      31.25316      11.15190      10.42493
     5  C(13)              0.00110       1.23153       0.43944       0.41079
     6  C(13)              0.00226       2.54220       0.90712       0.84799
     7  N(14)              0.00884       2.85680       1.01938       0.95293
     8  C(13)             -0.00495      -5.56305      -1.98504      -1.85564
     9  N(14)             -0.01928      -6.22951      -2.22285      -2.07794
    10  H(1)               0.00674      30.11950      10.74739      10.04678
    11  H(1)               0.00069       3.07437       1.09701       1.02550
    12  H(1)              -0.00010      -0.43710      -0.15597      -0.14580
 --------------------------------------------------------
       Center         ----  Spin Dipole Couplings  ----
                      3XX-RR        3YY-RR        3ZZ-RR
 --------------------------------------------------------
     1   Atom        0.035991     -0.009905     -0.026086
     2   Atom        0.816172     -0.463611     -0.352561
     3   Atom        0.142567      0.001408     -0.143975
     4   Atom        0.019163     -0.010007     -0.009157
     5   Atom        0.038449      0.015210     -0.053658
     6   Atom       -0.005473     -0.000078      0.005551
     7   Atom        0.039863      0.019801     -0.059664
     8   Atom        0.008853     -0.001574     -0.007278
     9   Atom        0.031604      0.126514     -0.158118
    10   Atom        0.000266      0.014453     -0.014719
    11   Atom        0.004975     -0.002643     -0.002332
    12   Atom        0.002556     -0.001492     -0.001063
 --------------------------------------------------------
                        XY            XZ            YZ
 --------------------------------------------------------
     1   Atom        0.067903     -0.000000      0.000000
     2   Atom        0.332334     -0.000022     -0.000005
     3   Atom       -0.066809      0.000000     -0.000000
     4   Atom        0.045476      0.000003      0.000003
     5   Atom       -0.000335     -0.000002      0.000003
     6   Atom        0.002394     -0.000000     -0.000000
     7   Atom        0.000799      0.000001     -0.000002
     8   Atom        0.002263     -0.000000     -0.000000
     9   Atom        0.201264      0.000000      0.000000
    10   Atom       -0.017725     -0.000000     -0.000000
    11   Atom       -0.000294     -0.000000      0.000000
    12   Atom        0.000296     -0.000000     -0.000000
 --------------------------------------------------------


 ---------------------------------------------------------------------------------
              Anisotropic Spin Dipole Couplings in Principal Axis System
 ---------------------------------------------------------------------------------

       Atom             a.u.   MegaHertz   Gauss  10(-4) cm-1        Axes

              Baa    -0.0586     4.243     1.514     1.415 -0.5830  0.8125 -0.0000
     1 O(17)  Bbb    -0.0261     1.888     0.674     0.630 -0.0000  0.0000  1.0000
              Bcc     0.0847    -6.130    -2.187    -2.045  0.8125  0.5830  0.0000
 
              Baa    -0.5448   -73.102   -26.085   -24.384 -0.2372  0.9715 -0.0000
     2 C(13)  Bbb    -0.3526   -47.310   -16.881   -15.781  0.0000  0.0000  1.0000
              Bcc     0.8973   120.413    42.966    40.165  0.9715  0.2372 -0.0000
 
              Baa    -0.1440   -19.320    -6.894    -6.444 -0.0000  0.0000  1.0000
     3 C(13)  Bbb    -0.0252    -3.381    -1.207    -1.128  0.3700  0.9290 -0.0000
              Bcc     0.1692    22.701     8.100     7.572  0.9290 -0.3700  0.0000
 
              Baa    -0.0432    -5.794    -2.068    -1.933 -0.5893  0.8079 -0.0000
     4 C(13)  Bbb    -0.0092    -1.229    -0.438    -0.410 -0.0001 -0.0000  1.0000
              Bcc     0.0523     7.023     2.506     2.343  0.8079  0.5893  0.0001
 
              Baa    -0.0537    -7.200    -2.569    -2.402  0.0000 -0.0001  1.0000
     5 C(13)  Bbb     0.0152     2.040     0.728     0.681  0.0144  0.9999  0.0001
              Bcc     0.0385     5.160     1.841     1.721  0.9999 -0.0144 -0.0000
 
              Baa    -0.0064    -0.857    -0.306    -0.286  0.9349 -0.3550  0.0000
     6 C(13)  Bbb     0.0008     0.112     0.040     0.037  0.3550  0.9349  0.0001
              Bcc     0.0056     0.745     0.266     0.248 -0.0001 -0.0001  1.0000
 
              Baa    -0.0597    -2.301    -0.821    -0.768 -0.0000  0.0000  1.0000
     7 N(14)  Bbb     0.0198     0.762     0.272     0.254 -0.0397  0.9992 -0.0000
              Bcc     0.0399     1.539     0.549     0.513  0.9992  0.0397  0.0000
 
              Baa    -0.0073    -0.977    -0.349    -0.326  0.0000  0.0000  1.0000
     8 C(13)  Bbb    -0.0020    -0.274    -0.098    -0.092 -0.2033  0.9791 -0.0000
              Bcc     0.0093     1.251     0.446     0.417  0.9791  0.2033 -0.0000
 
              Baa    -0.1581    -6.098    -2.176    -2.034 -0.0000  0.0000  1.0000
     9 N(14)  Bbb    -0.1277    -4.926    -1.758    -1.643  0.7841 -0.6207  0.0000
              Bcc     0.2858    11.024     3.934     3.677  0.6207  0.7841  0.0000
 
              Baa    -0.0147    -7.853    -2.802    -2.620  0.0000  0.0000  1.0000
    10 H(1)   Bbb    -0.0117    -6.260    -2.234    -2.088  0.8281  0.5606 -0.0000
              Bcc     0.0265    14.113     5.036     4.708 -0.5606  0.8281  0.0000
 
              Baa    -0.0027    -1.416    -0.505    -0.472  0.0385  0.9993 -0.0003
    11 H(1)   Bbb    -0.0023    -1.244    -0.444    -0.415  0.0000  0.0003  1.0000
              Bcc     0.0050     2.661     0.949     0.887  0.9993 -0.0385 -0.0000
 
              Baa    -0.0015    -0.808    -0.288    -0.269 -0.0726  0.9974  0.0001
    12 H(1)   Bbb    -0.0011    -0.567    -0.202    -0.189  0.0000 -0.0001  1.0000
              Bcc     0.0026     1.375     0.491     0.459  0.9974  0.0726 -0.0000
 

 ---------------------------------------------------------------------------------

 No NMR shielding tensors so no spin-rotation constants.
 Leave Link  601 at Thu Nov  3 03:58:14 2022, MaxMem=  8053063680 cpu:               4.4 elap:               0.2
 (Enter /public3/home/scg5914/software-scg5914/g16/l701.exe)
 ... and contract with generalized density number  0.
 Compute integral first derivatives.
 R6Disp: Adding Grimme-D3(BJ) dispersion energy 1st derivatives to the gradient.
 Leave Link  701 at Thu Nov  3 03:58:14 2022, MaxMem=  8053063680 cpu:               2.9 elap:               0.1
 (Enter /public3/home/scg5914/software-scg5914/g16/l702.exe)
 L702 exits ... SP integral derivatives will be done elsewhere.
 Leave Link  702 at Thu Nov  3 03:58:14 2022, MaxMem=  8053063680 cpu:               0.6 elap:               0.0
 (Enter /public3/home/scg5914/software-scg5914/g16/l703.exe)
 Integral derivatives from FoFJK, PRISM(SPDF).
 Compute integral first derivatives, UseDBF=F ICtDFT=           0.
 Calling FoFJK, ICntrl=      2127 FMM=F ISym2X=0 I1Cent= 0 IOpClX= 1 NMat=1 NMatS=1 NMatT=0.
 FoFJK:  IHMeth= 1 ICntrl=    2127 DoSepK=F KAlg= 0 I1Cent=           0 FoldK=F
 IRaf=         0 NMat=       1 IRICut=       1 DoRegI=T DoRafI=F ISym2E= 0 IDoP0=0 IntGTp=1.
 FoFCou: FMM=F IPFlag=           0 FMFlag=      100000 FMFlg1=         800
         NFxFlg=           0 DoJE=F BraDBF=F KetDBF=F FulRan=T
         wScrn=  0.000000 ICntrl=      2127 IOpCl=  1 I1Cent=           0 NGrid=           0
         NMat0=    1 NMatS0=      1 NMatT0=    0 NMatD0=    1 NMtDS0=    0 NMtDT0=    0
 Symmetry not used in FoFCou.
 Leave Link  703 at Thu Nov  3 03:58:16 2022, MaxMem=  8053063680 cpu:              49.3 elap:               1.6
 (Enter /public3/home/scg5914/software-scg5914/g16/l716.exe)
 Dipole        =-1.07328711D-01 1.78656793D+00-3.98778584D-07
 ***** Axes restored to original set *****
 -------------------------------------------------------------------
 Center     Atomic                   Forces (Hartrees/Bohr)
 Number     Number              X              Y              Z
 -------------------------------------------------------------------
      1        8           0.012038951    0.038169706    0.000091408
      2        6          -0.011468646   -0.037580459   -0.000094248
      3        6           0.002579153    0.021991310    0.000095249
      4        6          -0.004024251   -0.003857908    0.000012855
      5        6           0.002669203    0.002283478   -0.000006501
      6        6           0.000868127   -0.004723973   -0.000048739
      7        7           0.001493134    0.000857535   -0.000006893
      8        6          -0.005809443    0.001345233    0.000071761
      9        7           0.001678270   -0.017824464   -0.000116405
     10        1           0.000887450   -0.001218739   -0.000015084
     11        1          -0.000465653   -0.000179530    0.000004889
     12        1          -0.000446296    0.000737810    0.000011707
 -------------------------------------------------------------------
 Cartesian Forces:  Max     0.038169706 RMS     0.010625971
 Leave Link  716 at Thu Nov  3 03:58:16 2022, MaxMem=  8053063680 cpu:               0.3 elap:               0.0
 (Enter /public3/home/scg5914/software-scg5914/g16/l103.exe)

 GradGradGradGradGradGradGradGradGradGradGradGradGradGradGradGradGradGrad
 Berny optimization.
 FormGI is forming the generalized inverse of G from B-inverse, IUseBI=4.
 Internal  Forces:  Max     0.023325347 RMS     0.005146414
 Search for a local minimum.
 Step number   1 out of a maximum of   68
 All quantities printed in internal units (Hartrees-Bohrs-Radians)
 RMS Force = .51464D-02 SwitMx=.10000D-02 MixMth= 1
 Mixed Optimization -- RFO/linear search
 Second derivative matrix not updated -- first step.
 ITU=  0
     Eigenvalues ---    0.01634   0.01804   0.01872   0.01949   0.02129
     Eigenvalues ---    0.02142   0.02231   0.02351   0.02472   0.16000
     Eigenvalues ---    0.16000   0.16000   0.22679   0.23433   0.24739
     Eigenvalues ---    0.25000   0.25000   0.31897   0.35326   0.35635
     Eigenvalues ---    0.36050   0.37773   0.42698   0.46498   0.48248
     Eigenvalues ---    0.49924   0.51567   0.54763   0.58843   0.65652
 RFO step:  Lambda=-4.19299161D-03 EMin= 1.63364937D-02
 Linear search not attempted -- first point.
 Iteration  1 RMS(Cart)=  0.01223458 RMS(Int)=  0.00033150
 Iteration  2 RMS(Cart)=  0.00035204 RMS(Int)=  0.00011560
 Iteration  3 RMS(Cart)=  0.00000007 RMS(Int)=  0.00011560
 ITry= 1 IFail=0 DXMaxC= 7.36D-02 DCOld= 1.00D+10 DXMaxT= 3.00D-01 DXLimC= 3.00D+00 Rises=F
 Variable       Old X    -DE/DX   Delta X   Delta X   Delta X     New X
                                 (Linear)    (Quad)   (Total)
    R1        2.54258  -0.02333   0.00000  -0.04279  -0.04262   2.49996
    R2        2.60484   0.01659   0.00000   0.03279   0.03278   2.63762
    R3        2.56373  -0.00785   0.00000  -0.01571  -0.01552   2.54821
    R4        2.66345   0.00433   0.00000   0.01019   0.01021   2.67366
    R5        2.04656  -0.00007   0.00000  -0.00018  -0.00018   2.04638
    R6        2.58718   0.00136   0.00000   0.00278   0.00277   2.58995
    R7        2.79895   0.00319   0.00000   0.01212   0.01193   2.81087
    R8        2.72541   0.00227   0.00000   0.00528   0.00530   2.73071
    R9        2.04003  -0.00048   0.00000  -0.00132  -0.00132   2.03871
   R10        2.49699   0.00106   0.00000   0.00142   0.00144   2.49843
   R11        2.05149  -0.00086   0.00000  -0.00240  -0.00240   2.04909
   R12        2.60263   0.00116   0.00000   0.00243   0.00242   2.60505
   R13        2.45493  -0.00061   0.00000   0.00002  -0.00018   2.45476
    A1        2.14163  -0.00696   0.00000  -0.03094  -0.03078   2.11086
    A2        2.17588   0.01945   0.00000   0.07078   0.07124   2.24712
    A3        2.02802  -0.01006   0.00000  -0.04506  -0.04485   1.98317
    A4        2.09266   0.00657   0.00000   0.03191   0.03181   2.12447
    A5        2.16250   0.00349   0.00000   0.01314   0.01304   2.17555
    A6        2.43659  -0.00165   0.00000  -0.01042  -0.01030   2.42630
    A7        2.01777   0.00071   0.00000   0.00719   0.00708   2.02484
    A8        1.82882   0.00094   0.00000   0.00322   0.00322   1.83205
    A9        1.83052   0.00002   0.00000   0.00116   0.00112   1.83164
   A10        2.24206   0.00012   0.00000   0.00019   0.00021   2.24227
   A11        2.21061  -0.00014   0.00000  -0.00135  -0.00133   2.20928
   A12        2.01416  -0.00116   0.00000  -0.00507  -0.00508   2.00908
   A13        2.17626   0.00067   0.00000   0.00309   0.00309   2.17935
   A14        2.09277   0.00049   0.00000   0.00198   0.00199   2.09476
   A15        1.80428   0.00229   0.00000   0.01016   0.01011   1.81439
   A16        1.94700  -0.00209   0.00000  -0.00947  -0.00937   1.93762
   A17        2.19906   0.00056   0.00000   0.00791   0.00758   2.20664
   A18        2.13713   0.00153   0.00000   0.00157   0.00179   2.13892
   A19        2.00401  -0.00370   0.00000  -0.00989  -0.01026   1.99374
    D1       -0.00001   0.00000   0.00000   0.00001   0.00001   0.00000
    D2       -0.00000  -0.00000   0.00000  -0.00000  -0.00000  -0.00000
    D3       -0.00000   0.00000   0.00000   0.00001   0.00001   0.00001
    D4        3.14158   0.00000   0.00000   0.00003   0.00003  -3.14158
    D5        3.14156   0.00000   0.00000   0.00006   0.00006  -3.14157
    D6        0.00001  -0.00000   0.00000  -0.00002  -0.00002  -0.00001
    D7       -0.00002   0.00000   0.00000   0.00004   0.00004   0.00001
    D8       -3.14157  -0.00000   0.00000  -0.00004  -0.00004   3.14157
    D9        3.14155   0.00000   0.00000   0.00008   0.00008  -3.14155
   D10        0.00000   0.00000   0.00000  -0.00000  -0.00000   0.00000
   D11       -0.00008   0.00000   0.00000   0.00015   0.00015   0.00007
   D12        3.14156   0.00000   0.00000   0.00007   0.00007  -3.14156
   D13       -3.14157  -0.00000   0.00000  -0.00004  -0.00004   3.14157
   D14       -0.00002   0.00000   0.00000   0.00003   0.00003   0.00000
   D15        0.00005  -0.00000   0.00000  -0.00009  -0.00009  -0.00004
   D16       -3.14159  -0.00000   0.00000  -0.00003  -0.00003   3.14157
   D17        0.00010  -0.00000   0.00000  -0.00018  -0.00018  -0.00009
   D18        3.14157   0.00000   0.00000   0.00003   0.00003  -3.14158
   D19       -3.14154  -0.00000   0.00000  -0.00010  -0.00010   3.14154
   D20       -0.00006   0.00000   0.00000   0.00011   0.00011   0.00005
   D21       -0.00006   0.00000   0.00000   0.00012   0.00012   0.00006
   D22       -3.14154  -0.00000   0.00000  -0.00008  -0.00008   3.14156
   D23        0.00000  -0.00000   0.00000  -0.00001  -0.00001  -0.00001
   D24       -3.14155  -0.00000   0.00000  -0.00008  -0.00008   3.14156
   D25        0.00001  -0.00000   0.00000  -0.00001  -0.00001   0.00000
   D26        3.14156   0.00000   0.00000   0.00006   0.00006  -3.14157
         Item               Value     Threshold  Converged?
 Maximum Force            0.023325     0.000450     NO 
 RMS     Force            0.005146     0.000300     NO 
 Maximum Displacement     0.073597     0.001800     NO 
 RMS     Displacement     0.012175     0.001200     NO 
 Predicted change in Energy=-2.126955D-03
 Lowest energy point so far.  Saving SCF results.
 GradGradGradGradGradGradGradGradGradGradGradGradGradGradGradGradGradGrad

 Leave Link  103 at Thu Nov  3 03:58:16 2022, MaxMem=  8053063680 cpu:               1.1 elap:               0.1
 (Enter /public3/home/scg5914/software-scg5914/g16/l202.exe)
                          Input orientation:                          
 ---------------------------------------------------------------------
 Center     Atomic      Atomic             Coordinates (Angstroms)
 Number     Number       Type             X           Y           Z
 ---------------------------------------------------------------------
      1          8           0       -0.038339    1.254419    0.009605
      2          6           0        1.086654    1.950447    0.002194
      3          6           0        2.357635    1.500222   -0.013023
      4          6           0        2.459259    0.089063   -0.021857
      5          6           0        3.430065   -0.878250   -0.036909
      6          6           0        2.708636   -2.130308   -0.036699
      7          7           0        1.391305   -2.018824   -0.022858
      8          6           0        1.172899   -0.657736   -0.013107
      9          7           0       -0.018892   -0.141191    0.001687
     10          1           0        3.201905    2.178343   -0.017706
     11          1           0        4.501634   -0.753629   -0.046915
     12          1           0        3.169961   -3.111557   -0.046746
 ---------------------------------------------------------------------
                    Distance matrix (angstroms):
                    1          2          3          4          5
     1  O    0.000000
     2  C    1.322921   0.000000
     3  C    2.408656   1.348454   0.000000
     4  C    2.756273   2.312871   1.414841   0.000000
     5  C    4.071888   3.673504   2.609177   1.370542   0.000000
     6  C    4.359403   4.391457   3.647535   2.233386   1.445029
     7  N    3.571982   3.981024   3.649326   2.362988   2.336161
     8  C    2.263615   2.609653   2.461785   1.487450   2.268037
     9  N    1.395768   2.365836   2.888310   2.488936   3.527046
    10  H    3.369505   2.127586   1.082895   2.217348   3.065157
    11  H    4.964556   4.356206   3.110905   2.209537   1.078838
    12  H    5.418313   5.474161   4.682896   3.278671   2.248424
                    6          7          8          9         10
     6  C    0.000000
     7  N    1.322112   0.000000
     8  C    2.127795   1.378534   0.000000
     9  N    3.376014   2.348354   1.299001   0.000000
    10  H    4.336837   4.571052   3.487152   3.969150   0.000000
    11  H    2.260573   3.357893   3.330288   4.562083   3.207275
    12  H    1.084330   2.087643   3.163957   4.358234   5.290076
                   11         12
    11  H    0.000000
    12  H    2.707983   0.000000
 Stoichiometry    C6H3N2O(2)
 Framework group  C1[X(C6H3N2O)]
 Deg. of freedom    30
 Full point group                 C1      NOp   1
 RotChk:  IX=2 Diff= 6.96D-03
 Largest Abelian subgroup         C1      NOp   1
 Largest concise Abelian subgroup C1      NOp   1
                         Standard orientation:                         
 ---------------------------------------------------------------------
 Center     Atomic      Atomic             Coordinates (Angstroms)
 Number     Number       Type             X           Y           Z
 ---------------------------------------------------------------------
      1          8           0        2.055356   -0.678158    0.000002
      2          6           0        2.044883    0.644721    0.000014
      3          6           0        0.986599    1.480403    0.000011
      4          6           0       -0.261748    0.814515    0.000001
      5          6           0       -1.597659    1.120661   -0.000029
      6          6           0       -2.272779   -0.156963    0.000037
      7          7           0       -1.476455   -1.212354    0.000001
      8          6           0       -0.208250   -0.671972   -0.000015
      9          7           0        0.863958   -1.405302   -0.000015
     10          1           0        1.110565    2.556179    0.000005
     11          1           0       -2.063217    2.093876   -0.000058
     12          1           0       -3.348992   -0.289390    0.000024
 ---------------------------------------------------------------------
 Rotational constants (GHZ):           3.9934220           1.7981582           1.2398696
 Leave Link  202 at Thu Nov  3 03:58:16 2022, MaxMem=  8053063680 cpu:               0.1 elap:               0.0
 (Enter /public3/home/scg5914/software-scg5914/g16/l301.exe)
 Standard basis: 6-311+G(d,p) (5D, 7F)
 Ernie: Thresh=  0.10000D-02 Tol=  0.10000D-05 Strict=F.
 There are   225 symmetry adapted cartesian basis functions of A   symmetry.
 There are   216 symmetry adapted basis functions of A   symmetry.
   216 basis functions,   348 primitive gaussians,   225 cartesian basis functions
    31 alpha electrons       30 beta electrons
       nuclear repulsion energy       395.2700213402 Hartrees.
 IExCor=  402 DFT=T Ex+Corr=B3LYP ExCW=0 ScaHFX=  0.200000
 ScaDFX=  0.800000  0.720000  1.000000  0.810000 ScalE2=  1.000000  1.000000
 IRadAn=      5 IRanWt=     -1 IRanGd=            0 ICorTp=0 IEmpDi=141
 NAtoms=   12 NActive=   12 NUniq=   12 SFac= 1.00D+00 NAtFMM=   60 NAOKFM=F Big=F
 Integral buffers will be    131072 words long.
 Raffenetti 2 integral format.
 Two-electron integral symmetry is turned on.
 R6Disp:  Grimme-D3(BJ) Dispersion energy=       -0.0226258747 Hartrees.
 Nuclear repulsion after empirical dispersion term =      395.2473954654 Hartrees.
 Leave Link  301 at Thu Nov  3 03:58:16 2022, MaxMem=  8053063680 cpu:               0.6 elap:               0.0
 (Enter /public3/home/scg5914/software-scg5914/g16/l302.exe)
 NPDir=0 NMtPBC=     1 NCelOv=     1 NCel=       1 NClECP=     1 NCelD=      1
         NCelK=      1 NCelE2=     1 NClLst=     1 CellRange=     0.0.
 One-electron integrals computed using PRISM.
 One-electron integral symmetry used in STVInt
 NBasis=   216 RedAO= T EigKep=  4.15D-06  NBF=   216
 NBsUse=   216 1.00D-06 EigRej= -1.00D+00 NBFU=   216
 Precomputing XC quadrature grid using
 IXCGrd= 4 IRadAn=           5 IRanWt=          -1 IRanGd=           0 AccXCQ= 0.00D+00.
 Generated NRdTot=       0 NPtTot=           0 NUsed=           0 NTot=          32
 NSgBfM=   225   225   225   225   225 MxSgAt=    12 MxSgA2=    12.
 Leave Link  302 at Thu Nov  3 03:58:16 2022, MaxMem=  8053063680 cpu:               3.4 elap:               0.1
 (Enter /public3/home/scg5914/software-scg5914/g16/l303.exe)
 DipDrv:  MaxL=1.
 Leave Link  303 at Thu Nov  3 03:58:16 2022, MaxMem=  8053063680 cpu:               0.4 elap:               0.0
 (Enter /public3/home/scg5914/software-scg5914/g16/l401.exe)
 Initial guess from the checkpoint file:  "dsgdb9nsd_130483-1.chk"
 B after Tr=    -0.000000   -0.000000   -0.000000
         Rot=    0.999997   -0.000000    0.000000   -0.002552 Ang=  -0.29 deg.
 Guess basis will be translated and rotated to current coordinates.
 JPrj=2 DoOrth=T DoCkMO=T.
 Initial guess <Sx>= 0.0000 <Sy>= 0.0000 <Sz>= 0.5000 <S**2>= 0.7627 S= 0.5063
 Generating alternative initial guess.
 ExpMin= 4.38D-02 ExpMax= 8.59D+03 ExpMxC= 1.30D+03 IAcc=3 IRadAn=         5 AccDes= 0.00D+00
 Harris functional with IExCor=  402 and IRadAn=       5 diagonalized for initial guess.
 HarFok:  IExCor=  402 AccDes= 0.00D+00 IRadAn=         5 IDoV= 1 UseB2=F ITyADJ=14
 ICtDFT=  3500011 ScaDFX=  1.000000  1.000000  1.000000  1.000000
 FoFCou: FMM=F IPFlag=           0 FMFlag=      100000 FMFlg1=           0
         NFxFlg=           0 DoJE=T BraDBF=F KetDBF=T FulRan=T
         wScrn=  0.000000 ICntrl=       500 IOpCl=  0 I1Cent=   200000004 NGrid=           0
         NMat0=    1 NMatS0=      1 NMatT0=    0 NMatD0=    1 NMtDS0=    0 NMtDT0=    0
 Petite list used in FoFCou.
 Harris En= -415.077055756997    
 Leave Link  401 at Thu Nov  3 03:58:17 2022, MaxMem=  8053063680 cpu:              12.5 elap:               0.4
[...]
 216. BD*(   2) C   8 - N   9        /154. RY*(   4) C   8                    0.32    1.59    0.085
 216. BD*(   2) C   8 - N   9        /159. RY*(   9) C   8                    0.60    0.71    0.078
 216. BD*(   2) C   8 - N   9        /172. RY*(   5) N   9                    0.67    0.93    0.095
 216. BD*(   2) C   8 - N   9        /203. BD*(   2) C   2 - C   3            1.05    0.03    0.014
 216. BD*(   2) C   8 - N   9        /207. BD*(   2) C   4 - C   5           30.66    0.03    0.068
 216. BD*(   2) C   8 - N   9        /212. BD*(   2) C   6 - N   7           45.31    0.01    0.055


 Natural Bond Orbitals (Summary):

                                                            Principal Delocalizations
           NBO                        Occupancy    Energy   (geminal,vicinal,remote)
 ====================================================================================
 Molecular unit  1  (C6H3N2O)
     1. BD (   1) O   1 - C   2          0.99719    -1.05814  169(v),67(v),205(v),49(g)
     2. BD (   1) O   1 - N   9          0.95929    -0.80891  29(v),214(v),49(v),52(v)
                                                    153(v)
     3. BD (   1) C   2 - C   3          0.99442    -0.78951  206(v),83(v),204(g),205(g)
                                                    32(v),34(v)
     4. BD (   2) C   2 - C   3          0.86545    -0.30875  207(v),203(g),33(v),85(v)
     5. BD (   1) C   3 - C   4          0.96912    -0.73935  29(v),206(g),202(g),205(g)
                                                    214(v),208(g),51(v),49(v)
                                                    100(v),152(v),209(v)
     6. BD (   1) C   3 - H  10          0.98361    -0.57066  200(v),208(v),204(g),84(v)
                                                    202(g),29(v),54(v),49(v)
                                                    83(v)
     7. BD (   1) C   4 - C   5          0.98633    -0.74465  204(g),215(v),213(v),210(g)
                                                    208(g),209(g),117(v),202(v)
                                                    66(v),120(v)
     8. BD (   2) C   4 - C   5          0.89817    -0.29230  212(v),216(v),203(v),68(v)
                                                    121(v),207(g),155(v)
     9. BD (   1) C   4 - C   8          0.98213    -0.67133  210(v),205(v),206(g),66(v)
                                                    215(g),100(v),201(v),204(g)
                                                    134(v),168(v),135(v),169(v)
                                                    213(r),29(r),214(g)
    10. BD (   1) C   5 - C   6          0.98800    -0.68641  204(v),206(g),83(v),135(v)
                                                    215(r),210(g),208(v),211(g)
    11. BD (   1) C   5 - H  11          0.99152    -0.55947  208(v),206(g),211(v),84(v)
                                                    118(v)
    12. BD (   1) C   6 - N   7          0.99166    -0.85024  215(v),153(v),210(v),101(v)
                                                    209(g),214(g),151(v)
    13. BD (   2) C   6 - N   7          0.92176    -0.32327  216(v),207(v),154(v),212(g)
                                                    102(v)
    14. BD (   1) C   6 - H  12          0.99261    -0.56113  214(v),206(v),100(v)
    15. BD (   1) N   7 - C   8          0.98363    -0.79149  201(v),213(v),118(v),215(g)
                                                    204(v),208(g),168(v)
    16. BD (   1) C   8 - N   9          0.99632    -0.95506  208(g),214(g),211(v),84(v)
                                                    151(g),200(v),34(v)
    17. BD (   2) C   8 - N   9          0.93541    -0.37219  207(v),212(v),136(v),216(g)
                                                    36(v)
    18. CR (   1) O   1                  0.99981   -19.06656  49(v),202(v)
    19. CR (   1) C   2                  0.99895   -10.18048  29(g),67(v),66(v),201(v)
                                                    202(g),205(v),200(g)
    20. CR (   1) C   3                  0.99946   -10.08674  29(v),49(v),206(v),200(v)
                                                    86(v),84(v)
    21. CR (   1) C   4                  0.99949   -10.08874  101(v),151(v),67(v),210(v)
                                                    153(v),206(g),215(v),69(v)
    22. CR (   1) C   5                  0.99951   -10.05326  204(v),84(v),118(v),206(g)
    23. CR (   1) C   6                  0.99966   -10.10838  214(v),100(v),137(v),210(v)
                                                    103(v)
    24. CR (   1) N   7                  0.99969   -14.12845  117(v),152(v),157(v),215(v)
                                                    120(v)
    25. CR (   1) C   8                  0.99954   -10.14212  83(v),169(v),211(v),135(v)
                                                    204(v)
    26. CR (   1) N   9                  0.99966   -14.24025  151(v),201(g),208(v),152(v)
                                                    200(v),157(v)
    27. LP (   1) O   1                  0.96116    -0.62707  29(v),202(v),49(v),215(v)
                                                    168(v)
    28. LP (   2) O   1                  0.85920    -0.38679  203(v),216(v),50(v),171(v)
    29. LP*(   1) C   2                  0.10611    -0.09532  201(v),202(g),204(v),205(v)
                                                    52(g),200(g),51(g),54(g)
    30. LP (   1) N   7                  0.96384    -0.38907  209(v),208(v),117(v),152(v)
                                                    213(v),215(v),151(v),132(v)
    31. LP (   1) N   9                  0.96881    -0.49762  208(v),151(v),200(v),152(v)
                                                    29(r),214(v)
    32. RY*(   1) O   1                  0.00163     0.92748   
    33. RY*(   2) O   1                  0.00105     0.59511   
    34. RY*(   3) O   1                  0.00035     1.62989   
    35. RY*(   4) O   1                  0.00032     2.07404   
    36. RY*(   5) O   1                  0.00021     2.53800   
    37. RY*(   6) O   1                  0.00011     1.00377   
    38. RY*(   7) O   1                  0.00007     1.47584   
    39. RY*(   8) O   1                  0.00004     2.50273   
    40. RY*(   9) O   1                  0.00000     4.36533   
    41. RY*(  10) O   1                  0.00000     4.90415   
    42. RY*(  11) O   1                  0.00000     1.42472   
    43. RY*(  12) O   1                  0.00000     4.88269   
    44. RY*(  13) O   1                  0.00000     1.64848   
    45. RY*(  14) O   1                  0.00000    49.53620   
    46. RY*(  15) O   1                  0.00000     2.47237   
    47. RY*(  16) O   1                  0.00001     2.76113   
    48. RY*(  17) O   1                  0.00000     2.55110   
    49. RY*(   1) C   2                  0.00298     0.94976   
    50. RY*(   2) C   2                  0.00153     1.54630   
    51. RY*(   3) C   2                  0.00089     0.74238   
    52. RY*(   4) C   2                  0.00033     1.01936   
    53. RY*(   5) C   2                  0.00024     0.56625   
    54. RY*(   6) C   2                  0.00021     2.05442   
    55. RY*(   7) C   2                  0.00008     0.69199   
    56. RY*(   8) C   2                  0.00004     0.73113   
    57. RY*(   9) C   2                  0.00003     1.23461   
    58. RY*(  10) C   2                  0.00001     1.77155   
    59. RY*(  11) C   2                  0.00000     2.39460   
    60. RY*(  12) C   2                  0.00000     2.67295   
    61. RY*(  13) C   2                  0.00000    21.92721   
    62. RY*(  14) C   2                  0.00000     0.93689   
    63. RY*(  15) C   2                  0.00001     2.54222   
    64. RY*(  16) C   2                  0.00001     1.55556   
    65. RY*(  17) C   2                  0.00001     1.50185   
    66. RY*(   1) C   3                  0.00167     1.05730   
    67. RY*(   2) C   3                  0.00091     0.89371   
    68. RY*(   3) C   3                  0.00081     0.67091   
    69. RY*(   4) C   3                  0.00051     1.04199   
    70. RY*(   5) C   3                  0.00013     1.29664   
    71. RY*(   6) C   3                  0.00009     1.90459   
    72. RY*(   7) C   3                  0.00005     3.15226   
    73. RY*(   8) C   3                  0.00006     0.99414   
    74. RY*(   9) C   3                  0.00002     1.53657   
    75. RY*(  10) C   3                  0.00001     1.70874   
    76. RY*(  11) C   3                  0.00001     0.39408   
    77. RY*(  12) C   3                  0.00001     0.57058   
    78. RY*(  13) C   3                  0.00000     2.26745   
    79. RY*(  14) C   3                  0.00000     2.55522   
    80. RY*(  15) C   3                  0.00000    21.34634   
    81. RY*(  16) C   3                  0.00000     3.21873   
    82. RY*(  17) C   3                  0.00000     2.01917   
    83. RY*(   1) C   4                  0.00290     1.10137   
    84. RY*(   2) C   4                  0.00154     1.63210   
    85. RY*(   3) C   4                  0.00092     1.52991   
    86. RY*(   4) C   4                  0.00044     0.80857   
    87. RY*(   5) C   4                  0.00022     1.82511   
    88. RY*(   6) C   4                  0.00018     1.48607   
    89. RY*(   7) C   4                  0.00017     0.90335   
    90. RY*(   8) C   4                  0.00007     2.63897   
    91. RY*(   9) C   4                  0.00006     1.99804   
    92. RY*(  10) C   4                  0.00005     1.20435   
    93. RY*(  11) C   4                  0.00003     2.78879   
    94. RY*(  12) C   4                  0.00001     2.46427   
    95. RY*(  13) C   4                  0.00000    21.84562   
    96. RY*(  14) C   4                  0.00001     0.95466   
    97. RY*(  15) C   4                  0.00000     2.63676   
    98. RY*(  16) C   4                  0.00001     0.53719   
    99. RY*(  17) C   4                  0.00001     1.93195   
   100. RY*(   1) C   5                  0.00167     1.18439   
   101. RY*(   2) C   5                  0.00090     1.05102   
   102. RY*(   3) C   5                  0.00081     0.43723   
   103. RY*(   4) C   5                  0.00037     0.71026   
   104. RY*(   5) C   5                  0.00015     1.79568   
   105. RY*(   6) C   5                  0.00016     1.58027   
   106. RY*(   7) C   5                  0.00012     2.09268   
   107. RY*(   8) C   5                  0.00007     1.01349   
   108. RY*(   9) C   5                  0.00004     3.00136   
   109. RY*(  10) C   5                  0.00002     2.23493   
   110. RY*(  11) C   5                  0.00000     0.34078   
   111. RY*(  12) C   5                  0.00000     2.70629   
   112. RY*(  13) C   5                  0.00000     2.48862   
   113. RY*(  14) C   5                  0.00000    20.84313   
   114. RY*(  15) C   5                  0.00001     1.61284   
   115. RY*(  16) C   5                  0.00000     1.91798   
   116. RY*(  17) C   5                  0.00000     1.87393   
   117. RY*(   1) C   6                  0.00411     0.91489   
   118. RY*(   2) C   6                  0.00217     1.06459   
   119. RY*(   3) C   6                  0.00089     1.60222   
   120. RY*(   4) C   6                  0.00052     0.99908   
   121. RY*(   5) C   6                  0.00039     0.62517   
   122. RY*(   6) C   6                  0.00019     0.89532   
   123. RY*(   7) C   6                  0.00011     1.80568   
   124. RY*(   8) C   6                  0.00007     2.44802   
   125. RY*(   9) C   6                  0.00003     1.93410   
   126. RY*(  10) C   6                  0.00000     2.76144   
   127. RY*(  11) C   6                  0.00001     0.26170   
   128. RY*(  12) C   6                  0.00000     2.67286   
   129. RY*(  13) C   6                  0.00000    22.05671   
   130. RY*(  14) C   6                  0.00000     1.39033   
   131. RY*(  15) C   6                  0.00000     0.79728   
   132. RY*(  16) C   6                  0.00000     1.93916   
   133. RY*(  17) C   6                  0.00000     2.01228   
   134. RY*(   1) N   7                  0.00201     0.60147   
   135. RY*(   2) N   7                  0.00122     1.11386   
   136. RY*(   3) N   7                  0.00078     0.47194   
   137. RY*(   4) N   7                  0.00039     1.06063   
   138. RY*(   5) N   7                  0.00013     2.02607   
   139. RY*(   6) N   7                  0.00009     1.69091   
   140. RY*(   7) N   7                  0.00004     0.94183   
   141. RY*(   8) N   7                  0.00001     4.27972   
   142. RY*(   9) N   7                  0.00002     2.90541   
   143. RY*(  10) N   7                  0.00000    35.05789   
   144. RY*(  11) N   7                  0.00001     0.98914   
   145. RY*(  12) N   7                  0.00000     3.85074   
   146. RY*(  13) N   7                  0.00000     3.69883   
   147. RY*(  14) N   7                  0.00001     0.95080   
   148. RY*(  15) N   7                  0.00000     2.04816   
   149. RY*(  16) N   7                  0.00000     2.37079   
   150. RY*(  17) N   7                  0.00001     2.31969   
   151. RY*(   1) C   8                  0.00520     0.94044   
   152. RY*(   2) C   8                  0.00309     1.37184   
   153. RY*(   3) C   8                  0.00173     1.30747   
   154. RY*(   4) C   8                  0.00164     1.56763   
   155. RY*(   5) C   8                  0.00059     1.18930   
   156. RY*(   6) C   8                  0.00051     1.13249   
   157. RY*(   7) C   8                  0.00019     1.45679   
   158. RY*(   8) C   8                  0.00014     1.31145   
   159. RY*(   9) C   8                  0.00010     0.68917   
   160. RY*(  10) C   8                  0.00005     1.95827   
   161. RY*(  11) C   8                  0.00003     0.46218   
   162. RY*(  12) C   8                  0.00001     1.34854   
   163. RY*(  13) C   8                  0.00001    21.97216   
   164. RY*(  14) C   8                  0.00001     2.34596   
   165. RY*(  15) C   8                  0.00000     2.50173   
   166. RY*(  16) C   8                  0.00001     1.94007   
   167. RY*(  17) C   8                  0.00000     2.68978   
   168. RY*(   1) N   9                  0.00210     0.84260   
   169. RY*(   2) N   9                  0.00106     1.00441   
   170. RY*(   3) N   9                  0.00074     1.02564   
   171. RY*(   4) N   9                  0.00041     1.48471   
   172. RY*(   5) N   9                  0.00038     0.90789   
   173. RY*(   6) N   9                  0.00023     1.49891   
   174. RY*(   7) N   9                  0.00007     1.55963   
   175. RY*(   8) N   9                  0.00002     0.97787   
   176. RY*(   9) N   9                  0.00003     0.96141   
   177. RY*(  10) N   9                  0.00001     2.45565   
   178. RY*(  11) N   9                  0.00001     3.67896   
   179. RY*(  12) N   9                  0.00001     2.27605   
   180. RY*(  13) N   9                  0.00000    35.12401   
   181. RY*(  14) N   9                  0.00001     3.39101   
   182. RY*(  15) N   9                  0.00001     2.00939   
   183. RY*(  16) N   9                  0.00000     3.69571   
   184. RY*(  17) N   9                  0.00001     2.42726   
   185. RY*(   1) H  10                  0.00044     0.58657   
   186. RY*(   2) H  10                  0.00014     2.20016   
   187. RY*(   3) H  10                  0.00007     1.57272   
   188. RY*(   4) H  10                  0.00004     2.06975   
   189. RY*(   5) H  10                  0.00002     2.36141   
   190. RY*(   1) H  11                  0.00034     0.72135   
   191. RY*(   2) H  11                  0.00014     2.12526   
   192. RY*(   3) H  11                  0.00010     1.57944   
   193. RY*(   4) H  11                  0.00006     1.91060   
   194. RY*(   5) H  11                  0.00002     2.48261   
   195. RY*(   1) H  12                  0.00017     0.54058   
   196. RY*(   2) H  12                  0.00012     2.47097   
   197. RY*(   3) H  12                  0.00005     2.40914   
   198. RY*(   4) H  12                  0.00004     1.56108   
   199. RY*(   5) H  12                  0.00002     1.84217   
   200. BD*(   1) O   1 - C   2          0.01103     0.42489   
   201. BD*(   1) O   1 - N   9          0.01701     0.11225   
   202. BD*(   1) C   2 - C   3          0.00465     0.55179   
   203. BD*(   2) C   2 - C   3          0.10330     0.00437  207(v),53(g),216(r),70(g)
   204. BD*(   1) C   3 - C   4          0.01117     0.50307   
   205. BD*(   1) C   3 - H  10          0.00686     0.38608   
   206. BD*(   1) C   4 - C   5          0.00841     0.58382   
   207. BD*(   2) C   4 - C   5          0.15528     0.00435  203(v),212(v),216(v),102(g)
                                                    89(g),68(v)
   208. BD*(   1) C   4 - C   8          0.02708     0.39247   
   209. BD*(   1) C   5 - C   6          0.01245     0.46352   
   210. BD*(   1) C   5 - H  11          0.00697     0.40717   
   211. BD*(   1) C   6 - N   7          0.00307     0.54374   
   212. BD*(   2) C   6 - N   7          0.13927    -0.01060  216(v),207(v),121(g),136(g)
                                                    119(g)
   213. BD*(   1) C   6 - H  12          0.01079     0.39989   
   214. BD*(   1) N   7 - C   8          0.01084     0.43652   
   215. BD*(   1) C   8 - N   9          0.01112     0.53714   
   216. BD*(   2) C   8 - N   9          0.11041    -0.02101  212(v),207(v),172(g),159(g)
                                                    203(r),154(g)
       -------------------------------
              Total Lewis   29.18539  ( 97.2846%)
        Valence non-Lewis    0.75582  (  2.5194%)
        Rydberg non-Lewis    0.05880  (  0.1960%)
       -------------------------------
            Total unit  1   30.00000  (100.0000%)
           Charge unit  1    0.50000
 Leave Link  607 at Thu Nov  3 04:00:45 2022, MaxMem=  8053063680 cpu:              48.3 elap:               1.5
 (Enter /public3/home/scg5914/software-scg5914/g16/l9999.exe)
 Unable to Open any file for archive entry.
 1\1\GINC-F0508\SP\UB3LYP\Gen\C6H3N2O1(2)\SCG5914\03-Nov-2022\0\\#p b3l
 yp/chkbas pop=nbo geom=allcheck guess=tcheck em=gd3bj\\dsgdb9nsd_13048
 3-1\\0,2\O,0,-0.0250945423,1.292869809,0.0096900555\C,0,1.0849220012,1
 .943490092,0.0021341037\C,0,2.3621174703,1.5063421207,-0.0130891327\C,
 0,2.4579922081,0.0908214361,-0.0218684578\C,0,3.4265980704,-0.87477454
 65,-0.0367828855\C,0,2.7084990389,-2.1309359889,-0.0368990476\N,0,1.39
 31892934,-2.0294069426,-0.022834423\C,0,1.1659462356,-0.6652980102,-0.
 0130483587\N,0,-0.0297342536,-0.1730219376,0.0016903715\H,0,3.20726411
 53,2.1792898175,-0.0177978928\H,0,4.497713394,-0.7477147159,-0.0466714
 931\H,0,3.1733076881,-3.1106615135,-0.0468571889\\Version=ES64L-G16Rev
 C.01\State=2-A\HF=-415.1098072\S2=0.760961\S2-1=0.\S2A=0.750074\RMSD=7
 .284e-09\Dipole=1.5822532,0.7520554,-0.0117635\Quadrupole=-0.045992,0.
 8642482,-0.8182561,-2.3758151,-0.0204313,0.0335606\PG=C01 [X(C6H3N2O1)
 ]\\@
 The archive entry for this job was punched.


 IT IS A PROFOUNDLY ERRONEOUS TRUISM ... THAT WE SHOULD CULTIVATE
 THE HABIT OF THINKING OF WHAT WE ARE DOING.
 THE PRECISE OPPOSITE IS THE CASE.
 CIVILIZATION ADVANCES BY EXTENDING THE NUMBER OF IMPORTANT OPERATIONS
 WHICH WE CAN PERFORM WITHOUT THINKING ABOUT THEM.

                                    -- ALFRED NORTH WHITEHEAD
 Job cpu time:       0 days  0 hours  1 minutes 46.4 seconds.
 Elapsed time:       0 days  0 hours  0 minutes  3.8 seconds.
 File lengths (MBytes):  RWF=     34 Int=      0 D2E=      0 Chk=      6 Scr=      1
 Normal termination of Gaussian 16 at Thu Nov  3 04:00:45 2022.
