 Entering Gaussian System, Link 0=/public3/home/scg5914/software-scg5914/g16/g16
 Input=dsgdb9nsd_004478-6-.gjf
 Output=dsgdb9nsd_004478-6-.log
 Initial command:
 /public3/home/scg5914/software-scg5914/g16/l1.exe "/public3/home/scg5914/software-scg5914/test/tmp/dsgdb9nsd_004478-6-/Gau-125627.inp" -scrdir="/public3/home/scg5914/software-scg5914/test/tmp/dsgdb9nsd_004478-6-/"
 Entering Link 1 = /public3/home/scg5914/software-scg5914/g16/l1.exe PID=    125628.
  
 Copyright (c) 1988-2019, Gaussian, Inc.  All Rights Reserved.
  
 This is part of the Gaussian(R) 16 program.  It is based on
 the Gaussian(R) 09 system (copyright 2009, Gaussian, Inc.),
 the Gaussian(R) 03 system (copyright 2003, Gaussian, Inc.),
 the Gaussian(R) 98 system (copyright 1998, Gaussian, Inc.),
 the Gaussian(R) 94 system (copyright 1995, Gaussian, Inc.),
 the Gaussian 92(TM) system (copyright 1992, Gaussian, Inc.),
 the Gaussian 90(TM) system (copyright 1990, Gaussian, Inc.),
 the Gaussian 88(TM) system (copyright 1988, Gaussian, Inc.),
 the Gaussian 86(TM) system (copyright 1986, Carnegie Mellon
 University), and the Gaussian 82(TM) system (copyright 1983,
 Carnegie Mellon University). Gaussian is a federally registered
 trademark of Gaussian, Inc.
  
 This software contains proprietary and confidential information,
 including trade secrets, belonging to Gaussian, Inc.
  
 This software is provided under written license and may be
 used, copied, transmitted, or stored only in accord with that
 written license.
  
 The following legend is applicable only to US Government
 contracts under FAR:
  
                    RESTRICTED RIGHTS LEGEND
  
 Use, reproduction and disclosure by the US Government is
 subject to restrictions as set forth in subparagraphs (a)
 and (c) of the Commercial Computer Software - Restricted
 Rights clause in FAR 52.227-19.
  
 Gaussian, Inc.
 340 Quinnipiac St., Bldg. 40, Wallingford CT 06492
  
  
 ---------------------------------------------------------------
 Warning -- This program may not be used in any manner that
 competes with the business of Gaussian, Inc. or will provide
 assistance to any competitor of Gaussian, Inc.  The licensee
 of this program is prohibited from giving any competitor of
 Gaussian, Inc. access to this program.  By using this program,
 the user acknowledges that Gaussian, Inc. is engaged in the
 business of creating and licensing software in the field of
 computational chemistry and represents and warrants to the
 licensee that it is not a competitor of Gaussian, Inc. and that
 it will not use this program in any manner prohibited above.
 ---------------------------------------------------------------
  

 Cite this work as:
 Gaussian 16, Revision C.01,
 M. J. Frisch, G. W. Trucks, H. B. Schlegel, G. E. Scuseria, 
 M. A. Robb, J. R. Cheeseman, G. Scalmani, V. Barone, 
 G. A. Petersson, H. Nakatsuji, X. Li, M. Caricato, A. V. Marenich, 
 J. Bloino, B. G. Janesko, R. Gomperts, B. Mennucci, H. P. Hratchian, 
 J. V. Ortiz, A. F. Izmaylov, J. L. Sonnenberg, D. Williams-Young, 
 F. Ding, F. Lipparini, F. Egidi, J. Goings, B. Peng, A. Petrone, 
 T. Henderson, D. Ranasinghe, V. G. Zakrzewski, J. Gao, N. Rega, 
 G. Zheng, W. Liang, M. Hada, M. Ehara, K. Toyota, R. Fukuda, 
 J. Hasegawa, M. Ishida, T. Nakajima, Y. Honda, O. Kitao, H. Nakai, 
 T. Vreven, K. Throssell, J. A. Montgomery, Jr., J. E. Peralta, 
 F. Ogliaro, M. J. Bearpark, J. J. Heyd, E. N. Brothers, K. N. Kudin, 
 V. N. Staroverov, T. A. Keith, R. Kobayashi, J. Normand, 
 K. Raghavachari, A. P. Rendell, J. C. Burant, S. S. Iyengar, 
 J. Tomasi, M. Cossi, J. M. Millam, M. Klene, C. Adamo, R. Cammi, 
 J. W. Ochterski, R. L. Martin, K. Morokuma, O. Farkas, 
 J. B. Foresman, and D. J. Fox, Gaussian, Inc., Wallingford CT, 2019.
 
 ******************************************
 Gaussian 16:  ES64L-G16RevC.01  3-Jul-2019
                28-Oct-2022 
 ******************************************
 %chk=dsgdb9nsd_004478-6.chk
 %mem=60GB
 %nprocshared=32
 Will use up to   32 processors via shared memory.
 ------------------------------------
 #p opt freq b3lyp/6-311+g** em=gd3bj
 ------------------------------------
 1/18=20,19=15,26=3,38=1/1,3;
 2/9=110,12=2,17=6,18=5,40=1/2;
 3/5=4,6=6,7=111,11=2,25=1,30=1,71=1,74=-5,124=41/1,2,3;
 4//1;
 5/5=2,38=5/2;
 6/7=2,8=2,9=2,10=2,28=1/1;
 7//1,2,3,16;
 1/18=20,19=15,26=3/3(2);
 2/9=110/2;
 99//99;
 2/9=110/2;
 3/5=4,6=6,7=111,11=2,25=1,30=1,71=1,74=-5,124=41/1,2,3;
 4/5=5,16=3,69=1/1;
 5/5=2,38=5/2;
 7//1,2,3,16;
 1/18=20,19=15,26=3/3(-5);
 2/9=110/2;
 6/7=2,8=2,9=2,10=2,19=2,28=1/1;
 99/9=1/99;
 Leave Link    1 at Fri Oct 28 23:36:01 2022, MaxMem=  8053063680 cpu:               2.0 elap:               0.1
 (Enter /public3/home/scg5914/software-scg5914/g16/l101.exe)
 ------------------
 dsgdb9nsd_004478-6
 ------------------
 Symbolic Z-matrix:
 Charge = -1 Multiplicity = 1
 C                    -0.08512   1.55005   0.11314 
 C                     0.00797   0.07089  -0.00101 
 C                     0.07729  -0.77608  -1.06957 
 O                     0.07661  -0.42762  -2.37861 
 N                     0.15303  -2.1002   -0.69093 
 C                     0.1295   -2.05671   0.61801 
 O                     0.18097  -3.10619   1.45628 
 N                     0.04426  -0.80254   1.1053 
 H                     0.76572   1.98894   0.6515 
 H                    -0.09596   1.98162  -0.89049 
 H                    -0.99993   1.87995   0.62371 
 H                     0.13533  -1.24955  -2.87806 
 H                     0.23835  -3.89459   0.90302 
 
 ITRead=  0  0  0  0  0  0  0  0  0  0  0  0  0
 MicOpt= -1 -1 -1 -1 -1 -1 -1 -1 -1 -1 -1 -1 -1
 NAtoms=     13 NQM=       13 NQMF=       0 NMMI=      0 NMMIF=      0
                NMic=       0 NMicF=      0.
                    Isotopes and Nuclear Properties:
 (Nuclear quadrupole moments (NQMom) in fm**2, nuclear magnetic moments (NMagM)
  in nuclear magnetons)

  Atom         1           2           3           4           5           6           7           8           9          10
 IAtWgt=          12          12          12          16          14          12          16          14           1           1
 AtmWgt=  12.0000000  12.0000000  12.0000000  15.9949146  14.0030740  12.0000000  15.9949146  14.0030740   1.0078250   1.0078250
 NucSpn=           0           0           0           0           2           0           0           2           1           1
 AtZEff=  -0.0000000  -0.0000000  -0.0000000  -0.0000000  -0.0000000  -0.0000000  -0.0000000  -0.0000000  -0.0000000  -0.0000000
 NQMom=    0.0000000   0.0000000   0.0000000   0.0000000   2.0440000   0.0000000   0.0000000   2.0440000   0.0000000   0.0000000
 NMagM=    0.0000000   0.0000000   0.0000000   0.0000000   0.4037610   0.0000000   0.0000000   0.4037610   2.7928460   2.7928460
 AtZNuc=   6.0000000   6.0000000   6.0000000   8.0000000   7.0000000   6.0000000   8.0000000   7.0000000   1.0000000   1.0000000

  Atom        11          12          13
 IAtWgt=           1           1           1
 AtmWgt=   1.0078250   1.0078250   1.0078250
 NucSpn=           1           1           1
 AtZEff=  -0.0000000  -0.0000000  -0.0000000
 NQMom=    0.0000000   0.0000000   0.0000000
 NMagM=    2.7928460   2.7928460   2.7928460
 AtZNuc=   1.0000000   1.0000000   1.0000000
 Leave Link  101 at Fri Oct 28 23:36:01 2022, MaxMem=  8053063680 cpu:               4.4 elap:               0.2
 (Enter /public3/home/scg5914/software-scg5914/g16/l103.exe)

 GradGradGradGradGradGradGradGradGradGradGradGradGradGradGradGradGradGrad
 Berny optimization.
 Initialization pass.
                           ----------------------------
                           !    Initial Parameters    !
                           ! (Angstroms and Degrees)  !
 --------------------------                            --------------------------
 ! Name  Definition              Value          Derivative Info.                !
 --------------------------------------------------------------------------------
 ! R1    R(1,2)                  1.4865         estimate D2E/DX2                !
 ! R2    R(1,9)                  1.0984         estimate D2E/DX2                !
 ! R3    R(1,10)                 1.0925         estimate D2E/DX2                !
 ! R4    R(1,11)                 1.0984         estimate D2E/DX2                !
 ! R5    R(2,3)                  1.3653         estimate D2E/DX2                !
 ! R6    R(2,8)                  1.41           estimate D2E/DX2                !
 ! R7    R(3,4)                  1.3546         estimate D2E/DX2                !
 ! R8    R(3,5)                  1.3793         estimate D2E/DX2                !
 ! R9    R(4,12)                 0.9636         estimate D2E/DX2                !
 ! R10   R(5,6)                  1.3099         estimate D2E/DX2                !
 ! R11   R(6,7)                  1.3442         estimate D2E/DX2                !
 ! R12   R(6,8)                  1.3482         estimate D2E/DX2                !
 ! R13   R(7,13)                 0.9649         estimate D2E/DX2                !
 ! A1    A(2,1,9)              112.7521         estimate D2E/DX2                !
 ! A2    A(2,1,10)             108.8534         estimate D2E/DX2                !
 ! A3    A(2,1,11)             112.7514         estimate D2E/DX2                !
 ! A4    A(9,1,10)             107.4644         estimate D2E/DX2                !
 ! A5    A(9,1,11)             107.2972         estimate D2E/DX2                !
 ! A6    A(10,1,11)            107.4645         estimate D2E/DX2                !
 ! A7    A(1,2,3)              132.8898         estimate D2E/DX2                !
 ! A8    A(1,2,8)              123.9013         estimate D2E/DX2                !
 ! A9    A(3,2,8)              103.2089         estimate D2E/DX2                !
 ! A10   A(2,3,4)              126.6359         estimate D2E/DX2                !
 ! A11   A(2,3,5)              112.5498         estimate D2E/DX2                !
 ! A12   A(4,3,5)              120.8142         estimate D2E/DX2                !
 ! A13   A(3,4,12)             106.3458         estimate D2E/DX2                !
 ! A14   A(3,5,6)              103.9728         estimate D2E/DX2                !
 ! A15   A(5,6,7)              126.6259         estimate D2E/DX2                !
 ! A16   A(5,6,8)              113.1536         estimate D2E/DX2                !
 ! A17   A(7,6,8)              120.2204         estimate D2E/DX2                !
 ! A18   A(6,7,13)             106.4183         estimate D2E/DX2                !
 ! A19   A(2,8,6)              107.1149         estimate D2E/DX2                !
 ! D1    D(9,1,2,3)           -119.1365         estimate D2E/DX2                !
 ! D2    D(9,1,2,8)             60.8608         estimate D2E/DX2                !
 ! D3    D(10,1,2,3)             0.0129         estimate D2E/DX2                !
 ! D4    D(10,1,2,8)          -179.9897         estimate D2E/DX2                !
 ! D5    D(11,1,2,3)           119.1622         estimate D2E/DX2                !
 ! D6    D(11,1,2,8)           -60.8405         estimate D2E/DX2                !
 ! D7    D(1,2,3,4)             -0.0039         estimate D2E/DX2                !
 ! D8    D(1,2,3,5)            179.9961         estimate D2E/DX2                !
 ! D9    D(8,2,3,4)            179.9984         estimate D2E/DX2                !
 ! D10   D(8,2,3,5)             -0.0016         estimate D2E/DX2                !
 ! D11   D(1,2,8,6)           -179.9959         estimate D2E/DX2                !
 ! D12   D(3,2,8,6)              0.0021         estimate D2E/DX2                !
 ! D13   D(2,3,4,12)           179.9998         estimate D2E/DX2                !
 ! D14   D(5,3,4,12)            -0.0002         estimate D2E/DX2                !
 ! D15   D(2,3,5,6)              0.0005         estimate D2E/DX2                !
 ! D16   D(4,3,5,6)           -179.9995         estimate D2E/DX2                !
 ! D17   D(3,5,6,7)           -179.9997         estimate D2E/DX2                !
 ! D18   D(3,5,6,8)              0.001          estimate D2E/DX2                !
 ! D19   D(5,6,7,13)            -0.0076         estimate D2E/DX2                !
 ! D20   D(8,6,7,13)           179.9917         estimate D2E/DX2                !
 ! D21   D(5,6,8,2)             -0.002          estimate D2E/DX2                !
 ! D22   D(7,6,8,2)            179.9986         estimate D2E/DX2                !
 --------------------------------------------------------------------------------
 Trust Radius=3.00D-01 FncErr=1.00D-07 GrdErr=1.00D-06 EigMax=2.50D+02 EigMin=1.00D-04
 Number of steps in this run=     64 maximum allowed number of steps=    100.
 GradGradGradGradGradGradGradGradGradGradGradGradGradGradGradGradGradGrad

 Leave Link  103 at Fri Oct 28 23:36:01 2022, MaxMem=  8053063680 cpu:               0.3 elap:               0.0
 (Enter /public3/home/scg5914/software-scg5914/g16/l202.exe)
                          Input orientation:                          
 ---------------------------------------------------------------------
 Center     Atomic      Atomic             Coordinates (Angstroms)
 Number     Number       Type             X           Y           Z
 ---------------------------------------------------------------------
      1          6           0       -0.085121    1.550052    0.113140
      2          6           0        0.007971    0.070886   -0.001009
      3          6           0        0.077289   -0.776076   -1.069567
      4          8           0        0.076611   -0.427616   -2.378612
      5          7           0        0.153034   -2.100203   -0.690931
      6          6           0        0.129499   -2.056713    0.618009
      7          8           0        0.180966   -3.106189    1.456282
      8          7           0        0.044259   -0.802544    1.105295
      9          1           0        0.765722    1.988939    0.651505
     10          1           0       -0.095963    1.981619   -0.890488
     11          1           0       -0.999926    1.879950    0.623714
     12          1           0        0.135327   -1.249553   -2.878064
     13          1           0        0.238352   -3.894591    0.903017
 ---------------------------------------------------------------------
                    Distance matrix (angstroms):
                    1          2          3          4          5
     1  C    0.000000
     2  C    1.486483   0.000000
     3  C    2.614583   1.365271   0.000000
     4  O    3.185304   2.430270   1.354631   0.000000
     5  N    3.745345   2.282687   1.379280   2.377321   0.000000
     6  C    3.648247   2.219150   2.119120   3.411231   1.309874
     7  O    4.853392   3.499633   3.438036   4.678895   2.371353
     8  N    2.556525   1.410003   2.175274   3.504174   2.218598
     9  H    1.098358   2.163074   3.328863   3.936524   4.347252
    10  H    1.092537   2.110184   2.768929   2.837024   4.094275
    11  H    1.098357   2.163065   3.328974   3.936719   4.347324
    12  H    4.102888   3.168157   1.870350   0.963576   2.346800
    13  H    5.511141   4.073738   3.693530   4.776522   2.401620
                    6          7          8          9         10
     6  C    0.000000
     7  O    1.344154   0.000000
     8  N    1.348203   2.334236   0.000000
     9  H    4.095510   5.191332   2.918700   0.000000
    10  H    4.316772   5.609796   3.428466   1.766436   0.000000
    11  H    4.095479   5.191267   2.918564   1.769227   1.766436
    12  H    3.588045   4.715478   4.009397   4.831468   3.800582
    13  H    1.863028   0.964869   3.104728   5.912469   6.152907
                   11         12         13
    11  H    0.000000
    12  H    4.831670   0.000000
    13  H    5.912416   4.615562   0.000000
 Stoichiometry    C4H5N2O2(1-)
 Framework group  C1[X(C4H5N2O2)]
 Deg. of freedom    33
 Full point group                 C1      NOp   1
 Largest Abelian subgroup         C1      NOp   1
 Largest concise Abelian subgroup C1      NOp   1
                         Standard orientation:                         
 ---------------------------------------------------------------------
 Center     Atomic      Atomic             Coordinates (Angstroms)
 Number     Number       Type             X           Y           Z
 ---------------------------------------------------------------------
      1          6           0       -2.063701   -1.415364    0.000025
      2          6           0       -0.818481   -0.603541   -0.000022
      3          6           0       -0.586394    0.741859   -0.000005
      4          8           0       -1.520174    1.723225   -0.000009
      5          7           0        0.758811    1.046554    0.000019
      6          6           0        1.348080   -0.123289    0.000005
      7          8           0        2.672257   -0.354174    0.000025
      8          7           0        0.479469   -1.154389   -0.000046
      9          1           0       -2.150157   -2.060499    0.884738
     10          1           0       -2.924113   -0.742067   -0.000150
     11          1           0       -2.150021   -2.060787   -0.884489
     12          1           0       -1.037257    2.557054    0.000011
     13          1           0        3.099899    0.510750   -0.000072
 ---------------------------------------------------------------------
 Rotational constants (GHZ):           3.7292420           1.8160185           1.2306723
 Leave Link  202 at Fri Oct 28 23:36:01 2022, MaxMem=  8053063680 cpu:               0.2 elap:               0.0
 (Enter /public3/home/scg5914/software-scg5914/g16/l301.exe)
 Standard basis: 6-311+G(d,p) (5D, 7F)
 Ernie: Thresh=  0.10000D-02 Tol=  0.10000D-05 Strict=F.
 There are   214 symmetry adapted cartesian basis functions of A   symmetry.
 There are   206 symmetry adapted basis functions of A   symmetry.
   206 basis functions,   328 primitive gaussians,   214 cartesian basis functions
    30 alpha electrons       30 beta electrons
       nuclear repulsion energy       361.6434466128 Hartrees.
 IExCor=  402 DFT=T Ex+Corr=B3LYP ExCW=0 ScaHFX=  0.200000
 ScaDFX=  0.800000  0.720000  1.000000  0.810000 ScalE2=  1.000000  1.000000
 IRadAn=      5 IRanWt=     -1 IRanGd=            0 ICorTp=0 IEmpDi=141
 NAtoms=   13 NActive=   13 NUniq=   13 SFac= 1.00D+00 NAtFMM=   60 NAOKFM=F Big=F
 Integral buffers will be    131072 words long.
 Raffenetti 2 integral format.
 Two-electron integral symmetry is turned on.
 R6Disp:  Grimme-D3(BJ) Dispersion energy=       -0.0184162647 Hartrees.
 Nuclear repulsion after empirical dispersion term =      361.6250303481 Hartrees.
 Leave Link  301 at Fri Oct 28 23:36:01 2022, MaxMem=  8053063680 cpu:               1.3 elap:               0.1
 (Enter /public3/home/scg5914/software-scg5914/g16/l302.exe)
 NPDir=0 NMtPBC=     1 NCelOv=     1 NCel=       1 NClECP=     1 NCelD=      1
         NCelK=      1 NCelE2=     1 NClLst=     1 CellRange=     0.0.
 One-electron integrals computed using PRISM.
 One-electron integral symmetry used in STVInt
 NBasis=   206 RedAO= T EigKep=  8.85D-06  NBF=   206
 NBsUse=   206 1.00D-06 EigRej= -1.00D+00 NBFU=   206
 Precomputing XC quadrature grid using
 IXCGrd= 4 IRadAn=           5 IRanWt=          -1 IRanGd=           0 AccXCQ= 0.00D+00.
 Generated NRdTot=       0 NPtTot=           0 NUsed=           0 NTot=          32
 NSgBfM=   214   214   214   214   214 MxSgAt=    13 MxSgA2=    13.
 Leave Link  302 at Fri Oct 28 23:36:02 2022, MaxMem=  8053063680 cpu:               4.4 elap:               0.2
 (Enter /public3/home/scg5914/software-scg5914/g16/l303.exe)
 DipDrv:  MaxL=1.
 Leave Link  303 at Fri Oct 28 23:36:02 2022, MaxMem=  8053063680 cpu:               0.7 elap:               0.0
 (Enter /public3/home/scg5914/software-scg5914/g16/l401.exe)
 ExpMin= 4.38D-02 ExpMax= 8.59D+03 ExpMxC= 1.30D+03 IAcc=3 IRadAn=         5 AccDes= 0.00D+00
 Harris functional with IExCor=  402 and IRadAn=       5 diagonalized for initial guess.
 HarFok:  IExCor=  402 AccDes= 0.00D+00 IRadAn=         5 IDoV= 1 UseB2=F ITyADJ=14
 ICtDFT=  3500011 ScaDFX=  1.000000  1.000000  1.000000  1.000000
 FoFCou: FMM=F IPFlag=           0 FMFlag=      100000 FMFlg1=           0
         NFxFlg=           0 DoJE=T BraDBF=F KetDBF=T FulRan=T
         wScrn=  0.000000 ICntrl=       500 IOpCl=  0 I1Cent=   200000004 NGrid=           0
         NMat0=    1 NMatS0=      1 NMatT0=    0 NMatD0=    1 NMtDS0=    0 NMtDT0=    0
 Petite list used in FoFCou.
 Harris En= -415.732554902109    
 JPrj=0 DoOrth=F DoCkMO=F.
 Leave Link  401 at Fri Oct 28 23:36:02 2022, MaxMem=  8053063680 cpu:              10.2 elap:               0.3
 (Enter /public3/home/scg5914/software-scg5914/g16/l502.exe)
 Integral symmetry usage will be decided dynamically.
 Closed shell SCF:
 Using DIIS extrapolation, IDIIS=  1040.
 NGot=  8053063680 LenX=  8052962814 LenY=  8052916577
 Requested convergence on RMS density matrix=1.00D-08 within 128 cycles.
 Requested convergence on MAX density matrix=1.00D-06.
 Requested convergence on             energy=1.00D-06.
 No special actions if energy rises.
 Fock matrices will be formed incrementally for  20 cycles.

 Cycle   1  Pass 1  IDiag  1:
 FoFJK:  IHMeth= 1 ICntrl=       0 DoSepK=F KAlg= 0 I1Cent=           0 FoldK=F
 IRaf= 950000000 NMat=       1 IRICut=       1 DoRegI=T DoRafI=F ISym2E= 0 IDoP0=0 IntGTp=1.
 FoFCou: FMM=F IPFlag=           0 FMFlag=      100000 FMFlg1=           0
         NFxFlg=           0 DoJE=F BraDBF=F KetDBF=F FulRan=T
         wScrn=  0.000000 ICntrl=         0 IOpCl=  0 I1Cent=           0 NGrid=           0
         NMat0=    1 NMatS0=      1 NMatT0=    0 NMatD0=    1 NMtDS0=    0 NMtDT0=    0
 Symmetry not used in FoFCou.
 E= -415.249971990215    
 DIIS: error= 4.94D-02 at cycle   1 NSaved=   1.
 NSaved= 1 IEnMin= 1 EnMin= -415.249971990215     IErMin= 1 ErrMin= 4.94D-02
 ErrMax= 4.94D-02  0.00D+00 EMaxC= 1.00D-01 BMatC= 3.64D-01 BMatP= 3.64D-01
 IDIUse=3 WtCom= 5.06D-01 WtEn= 4.94D-01
 Coeff-Com:  0.100D+01
 Coeff-En:   0.100D+01
 Coeff:      0.100D+01
 Gap=     0.239 Goal=   None    Shift=    0.000
 GapD=    0.239 DampG=1.000 DampE=0.500 DampFc=0.5000 IDamp=-1.
 Damping current iteration by 5.00D-01
 RMSDP=1.14D+00 MaxDP=1.22D+02              OVMax= 4.60D-01

 Cycle   2  Pass 1  IDiag  1:
 RMSU=  5.48D-01    CP:  3.00D+00
 E= -415.306645823023     Delta-E=       -0.056673832808 Rises=F Damp=T
 DIIS: error= 1.24D-02 at cycle   2 NSaved=   2.
 NSaved= 2 IEnMin= 2 EnMin= -415.306645823023     IErMin= 2 ErrMin= 1.24D-02
 ErrMax= 1.24D-02  0.00D+00 EMaxC= 1.00D-01 BMatC= 4.06D-02 BMatP= 3.64D-01
 IDIUse=3 WtCom= 8.76D-01 WtEn= 1.24D-01
 Coeff-Com:  0.196D+00 0.804D+00
 Coeff-En:   0.406D+00 0.594D+00
 Coeff:      0.222D+00 0.778D+00
 Gap=     0.126 Goal=   None    Shift=    0.000
 RMSDP=5.66D-01 MaxDP=6.06D+01 DE=-5.67D-02 OVMax= 3.77D-01

 Cycle   3  Pass 1  IDiag  1:
 RMSU=  6.42D-03    CP:  1.04D+00  5.70D-03
 E= -415.524870064601     Delta-E=       -0.218224241579 Rises=F Damp=F
 DIIS: error= 1.91D-02 at cycle   3 NSaved=   3.
 NSaved= 3 IEnMin= 3 EnMin= -415.524870064601     IErMin= 2 ErrMin= 1.24D-02
 ErrMax= 1.91D-02  0.00D+00 EMaxC= 1.00D-01 BMatC= 3.48D-02 BMatP= 4.06D-02
 IDIUse=3 WtCom= 8.09D-01 WtEn= 1.91D-01
 Coeff-Com:  0.744D-01 0.493D+00 0.432D+00
 Coeff-En:   0.000D+00 0.000D+00 0.100D+01
 Coeff:      0.602D-01 0.399D+00 0.541D+00
 Gap=     0.122 Goal=   None    Shift=    0.000
 RMSDP=5.61D-03 MaxDP=5.48D-01 DE=-2.18D-01 OVMax= 9.19D-02

 Cycle   4  Pass 1  IDiag  1:
 RMSU=  3.03D-03    CP:  1.18D+00  1.21D-02  1.23D+00
 E= -415.545318423865     Delta-E=       -0.020448359263 Rises=F Damp=F
 DIIS: error= 1.09D-02 at cycle   4 NSaved=   4.
 NSaved= 4 IEnMin= 4 EnMin= -415.545318423865     IErMin= 4 ErrMin= 1.09D-02
 ErrMax= 1.09D-02  0.00D+00 EMaxC= 1.00D-01 BMatC= 1.24D-02 BMatP= 3.48D-02
 IDIUse=3 WtCom= 8.91D-01 WtEn= 1.09D-01
 Coeff-Com: -0.141D-01 0.976D-01 0.375D+00 0.541D+00
 Coeff-En:   0.000D+00 0.000D+00 0.291D+00 0.709D+00
 Coeff:     -0.126D-01 0.870D-01 0.366D+00 0.560D+00
 Gap=     0.119 Goal=   None    Shift=    0.000
 RMSDP=5.55D-03 MaxDP=5.43D-01 DE=-2.04D-02 OVMax= 3.71D-02

 Cycle   5  Pass 1  IDiag  1:
 RMSU=  1.26D-03    CP:  1.02D+00  5.83D-03  1.05D+00  2.41D-01
 E= -415.554928374169     Delta-E=       -0.009609950304 Rises=F Damp=F
 DIIS: error= 2.48D-03 at cycle   5 NSaved=   5.
 NSaved= 5 IEnMin= 5 EnMin= -415.554928374169     IErMin= 5 ErrMin= 2.48D-03
 ErrMax= 2.48D-03  0.00D+00 EMaxC= 1.00D-01 BMatC= 6.94D-04 BMatP= 1.24D-02
 IDIUse=3 WtCom= 9.75D-01 WtEn= 2.48D-02
 Coeff-Com: -0.109D-01 0.321D-01 0.182D+00 0.330D+00 0.466D+00
 Coeff-En:   0.000D+00 0.000D+00 0.000D+00 0.000D+00 0.100D+01
 Coeff:     -0.106D-01 0.313D-01 0.178D+00 0.322D+00 0.480D+00
 Gap=     0.119 Goal=   None    Shift=    0.000
 RMSDP=5.76D-04 MaxDP=3.82D-02 DE=-9.61D-03 OVMax= 9.91D-03

 Cycle   6  Pass 1  IDiag  1:
 RMSU=  3.12D-04    CP:  1.01D+00  5.25D-03  1.00D+00  2.60D-01  1.07D+00
 E= -415.555509808553     Delta-E=       -0.000581434384 Rises=F Damp=F
 DIIS: error= 7.66D-04 at cycle   6 NSaved=   6.
 NSaved= 6 IEnMin= 6 EnMin= -415.555509808553     IErMin= 6 ErrMin= 7.66D-04
 ErrMax= 7.66D-04  0.00D+00 EMaxC= 1.00D-01 BMatC= 7.05D-05 BMatP= 6.94D-04
 IDIUse=3 WtCom= 9.92D-01 WtEn= 7.66D-03
 Coeff-Com: -0.299D-02 0.163D-02 0.381D-01 0.934D-01 0.284D+00 0.586D+00
 Coeff-En:   0.000D+00 0.000D+00 0.000D+00 0.000D+00 0.705D-01 0.929D+00
 Coeff:     -0.297D-02 0.162D-02 0.378D-01 0.927D-01 0.282D+00 0.589D+00
 Gap=     0.119 Goal=   None    Shift=    0.000
 RMSDP=3.83D-04 MaxDP=3.64D-02 DE=-5.81D-04 OVMax= 3.03D-03

 Cycle   7  Pass 1  IDiag  1:
 RMSU=  6.29D-05    CP:  1.00D+00  4.81D-03  9.86D-01  2.15D-01  1.15D+00
                    CP:  9.65D-01
 E= -415.555565805896     Delta-E=       -0.000055997343 Rises=F Damp=F
 DIIS: error= 1.86D-04 at cycle   7 NSaved=   7.
 NSaved= 7 IEnMin= 7 EnMin= -415.555565805896     IErMin= 7 ErrMin= 1.86D-04
 ErrMax= 1.86D-04  0.00D+00 EMaxC= 1.00D-01 BMatC= 6.81D-06 BMatP= 7.05D-05
 IDIUse=3 WtCom= 9.98D-01 WtEn= 1.86D-03
 Coeff-Com: -0.313D-03-0.195D-02 0.448D-02 0.211D-01 0.114D+00 0.332D+00
 Coeff-Com:  0.531D+00
 Coeff-En:   0.000D+00 0.000D+00 0.000D+00 0.000D+00 0.000D+00 0.000D+00
 Coeff-En:   0.100D+01
 Coeff:     -0.313D-03-0.195D-02 0.448D-02 0.210D-01 0.114D+00 0.331D+00
 Coeff:      0.532D+00
 Gap=     0.119 Goal=   None    Shift=    0.000
 RMSDP=1.40D-04 MaxDP=1.30D-02 DE=-5.60D-05 OVMax= 4.77D-04

 Cycle   8  Pass 1  IDiag  1:
 RMSU=  1.49D-05    CP:  9.98D-01  4.64D-03  9.77D-01  2.03D-01  1.17D+00
                    CP:  1.04D+00  1.08D+00
 E= -415.555571354732     Delta-E=       -0.000005548836 Rises=F Damp=F
 DIIS: error= 3.27D-05 at cycle   8 NSaved=   8.
 NSaved= 8 IEnMin= 8 EnMin= -415.555571354732     IErMin= 8 ErrMin= 3.27D-05
 ErrMax= 3.27D-05  0.00D+00 EMaxC= 1.00D-01 BMatC= 2.67D-07 BMatP= 6.81D-06
 IDIUse=1 WtCom= 1.00D+00 WtEn= 0.00D+00
 Coeff-Com:  0.307D-03-0.970D-03-0.813D-03 0.732D-03 0.196D-01 0.765D-01
 Coeff-Com:  0.203D+00 0.702D+00
 Coeff:      0.307D-03-0.970D-03-0.813D-03 0.732D-03 0.196D-01 0.765D-01
 Coeff:      0.203D+00 0.702D+00
 Gap=     0.119 Goal=   None    Shift=    0.000
 RMSDP=4.18D-05 MaxDP=3.87D-03 DE=-5.55D-06 OVMax= 1.60D-04

 Cycle   9  Pass 1  IDiag  1:
 RMSU=  4.29D-06    CP:  9.97D-01  4.59D-03  9.75D-01  1.99D-01  1.18D+00
                    CP:  1.06D+00  1.10D+00  9.15D-01
 E= -415.555571524643     Delta-E=       -0.000000169911 Rises=F Damp=F
 DIIS: error= 1.44D-05 at cycle   9 NSaved=   9.
 NSaved= 9 IEnMin= 9 EnMin= -415.555571524643     IErMin= 9 ErrMin= 1.44D-05
 ErrMax= 1.44D-05  0.00D+00 EMaxC= 1.00D-01 BMatC= 6.18D-08 BMatP= 2.67D-07
 IDIUse=1 WtCom= 1.00D+00 WtEn= 0.00D+00
 Coeff-Com:  0.213D-03-0.504D-03-0.722D-03-0.922D-03 0.484D-02 0.255D-01
 Coeff-Com:  0.869D-01 0.417D+00 0.468D+00
 Coeff:      0.213D-03-0.504D-03-0.722D-03-0.922D-03 0.484D-02 0.255D-01
 Coeff:      0.869D-01 0.417D+00 0.468D+00
 Gap=     0.119 Goal=   None    Shift=    0.000
 RMSDP=8.46D-06 MaxDP=7.97D-04 DE=-1.70D-07 OVMax= 8.77D-05

 Cycle  10  Pass 1  IDiag  1:
 RMSU=  1.30D-06    CP:  9.97D-01  4.58D-03  9.74D-01  1.98D-01  1.18D+00
                    CP:  1.07D+00  1.12D+00  9.55D-01  9.43D-01
 E= -415.555571578307     Delta-E=       -0.000000053664 Rises=F Damp=F
 DIIS: error= 3.17D-06 at cycle  10 NSaved=  10.
 NSaved=10 IEnMin=10 EnMin= -415.555571578307     IErMin=10 ErrMin= 3.17D-06
 ErrMax= 3.17D-06  0.00D+00 EMaxC= 1.00D-01 BMatC= 1.71D-09 BMatP= 6.18D-08
 IDIUse=1 WtCom= 1.00D+00 WtEn= 0.00D+00
 Coeff-Com:  0.251D-04-0.503D-04-0.170D-04-0.266D-03-0.612D-03-0.123D-02
 Coeff-Com:  0.178D-03 0.338D-01 0.141D+00 0.827D+00
 Coeff:      0.251D-04-0.503D-04-0.170D-04-0.266D-03-0.612D-03-0.123D-02
 Coeff:      0.178D-03 0.338D-01 0.141D+00 0.827D+00
 Gap=     0.119 Goal=   None    Shift=    0.000
 RMSDP=5.21D-06 MaxDP=5.04D-04 DE=-5.37D-08 OVMax= 1.96D-05

 Cycle  11  Pass 1  IDiag  1:
 RMSU=  3.87D-07    CP:  9.97D-01  4.58D-03  9.74D-01  1.98D-01  1.18D+00
                    CP:  1.07D+00  1.12D+00  9.69D-01  9.87D-01  1.09D+00
 E= -415.555571579827     Delta-E=       -0.000000001520 Rises=F Damp=F
 DIIS: error= 9.42D-07 at cycle  11 NSaved=  11.
 NSaved=11 IEnMin=11 EnMin= -415.555571579827     IErMin=11 ErrMin= 9.42D-07
 ErrMax= 9.42D-07  0.00D+00 EMaxC= 1.00D-01 BMatC= 2.32D-10 BMatP= 1.71D-09
 IDIUse=1 WtCom= 1.00D+00 WtEn= 0.00D+00
 Coeff-Com:  0.248D-05-0.951D-05 0.205D-04-0.999D-04-0.490D-03-0.168D-02
 Coeff-Com: -0.370D-02-0.181D-02 0.479D-01 0.412D+00 0.548D+00
 Coeff:      0.248D-05-0.951D-05 0.205D-04-0.999D-04-0.490D-03-0.168D-02
 Coeff:     -0.370D-02-0.181D-02 0.479D-01 0.412D+00 0.548D+00
 Gap=     0.119 Goal=   None    Shift=    0.000
 RMSDP=3.65D-07 MaxDP=3.19D-05 DE=-1.52D-09 OVMax= 2.65D-06

 Cycle  12  Pass 1  IDiag  1:
 RMSU=  9.37D-08    CP:  9.97D-01  4.58D-03  9.74D-01  1.98D-01  1.18D+00
                    CP:  1.07D+00  1.12D+00  9.69D-01  9.98D-01  1.11D+00
                    CP:  9.83D-01
 E= -415.555571579975     Delta-E=       -0.000000000148 Rises=F Damp=F
 DIIS: error= 3.15D-07 at cycle  12 NSaved=  12.
 NSaved=12 IEnMin=12 EnMin= -415.555571579975     IErMin=12 ErrMin= 3.15D-07
 ErrMax= 3.15D-07  0.00D+00 EMaxC= 1.00D-01 BMatC= 2.50D-11 BMatP= 2.32D-10
 IDIUse=1 WtCom= 1.00D+00 WtEn= 0.00D+00
 Coeff-Com: -0.223D-05 0.118D-05 0.871D-05-0.257D-04-0.178D-03-0.713D-03
 Coeff-Com: -0.195D-02-0.606D-02 0.205D-02 0.867D-01 0.269D+00 0.651D+00
 Coeff:     -0.223D-05 0.118D-05 0.871D-05-0.257D-04-0.178D-03-0.713D-03
 Coeff:     -0.195D-02-0.606D-02 0.205D-02 0.867D-01 0.269D+00 0.651D+00
 Gap=     0.119 Goal=   None    Shift=    0.000
 RMSDP=7.35D-08 MaxDP=4.13D-06 DE=-1.48D-10 OVMax= 1.23D-06

 Cycle  13  Pass 1  IDiag  1:
 RMSU=  3.58D-08    CP:  9.97D-01  4.58D-03  9.74D-01  1.98D-01  1.18D+00
                    CP:  1.07D+00  1.12D+00  9.70D-01  1.00D+00  1.13D+00
                    CP:  9.97D-01  9.14D-01
 E= -415.555571579994     Delta-E=       -0.000000000019 Rises=F Damp=F
 DIIS: error= 6.16D-08 at cycle  13 NSaved=  13.
 NSaved=13 IEnMin=13 EnMin= -415.555571579994     IErMin=13 ErrMin= 6.16D-08
 ErrMax= 6.16D-08  0.00D+00 EMaxC= 1.00D-01 BMatC= 1.03D-12 BMatP= 2.50D-11
 IDIUse=1 WtCom= 1.00D+00 WtEn= 0.00D+00
 Coeff-Com: -0.526D-06 0.130D-05 0.337D-05-0.351D-05-0.345D-04-0.133D-03
 Coeff-Com: -0.393D-03-0.146D-02-0.161D-02 0.620D-02 0.472D-01 0.211D+00
 Coeff-Com:  0.739D+00
 Coeff:     -0.526D-06 0.130D-05 0.337D-05-0.351D-05-0.345D-04-0.133D-03
 Coeff:     -0.393D-03-0.146D-02-0.161D-02 0.620D-02 0.472D-01 0.211D+00
 Coeff:      0.739D+00
 Gap=     0.119 Goal=   None    Shift=    0.000
 RMSDP=1.80D-08 MaxDP=1.07D-06 DE=-1.85D-11 OVMax= 6.22D-07

 Cycle  14  Pass 1  IDiag  1:
 RMSU=  9.97D-09    CP:  9.97D-01  4.58D-03  9.74D-01  1.98D-01  1.18D+00
                    CP:  1.07D+00  1.12D+00  9.70D-01  1.00D+00  1.13D+00
                    CP:  1.01D+00  9.38D-01  1.01D+00
 E= -415.555571579995     Delta-E=       -0.000000000001 Rises=F Damp=F
 DIIS: error= 5.56D-08 at cycle  14 NSaved=  14.
 NSaved=14 IEnMin=14 EnMin= -415.555571579995     IErMin=14 ErrMin= 5.56D-08
 ErrMax= 5.56D-08  0.00D+00 EMaxC= 1.00D-01 BMatC= 4.89D-13 BMatP= 1.03D-12
 IDIUse=1 WtCom= 1.00D+00 WtEn= 0.00D+00
 Coeff-Com: -0.110D-06 0.501D-06 0.878D-06 0.313D-06-0.294D-05-0.571D-05
 Coeff-Com: -0.422D-04-0.336D-03-0.148D-02-0.667D-02 0.337D-04 0.661D-01
 Coeff-Com:  0.478D+00 0.464D+00
 Coeff:     -0.110D-06 0.501D-06 0.878D-06 0.313D-06-0.294D-05-0.571D-05
 Coeff:     -0.422D-04-0.336D-03-0.148D-02-0.667D-02 0.337D-04 0.661D-01
 Coeff:      0.478D+00 0.464D+00
 Gap=     0.119 Goal=   None    Shift=    0.000
 RMSDP=1.16D-08 MaxDP=9.89D-07 DE=-1.25D-12 OVMax= 2.18D-07

 Cycle  15  Pass 1  IDiag  1:
 RMSU=  2.70D-09    CP:  9.97D-01  4.58D-03  9.74D-01  1.98D-01  1.18D+00
                    CP:  1.07D+00  1.12D+00  9.70D-01  1.00D+00  1.13D+00
                    CP:  1.01D+00  9.41D-01  1.02D+00  6.61D-01
 E= -415.555571579996     Delta-E=       -0.000000000001 Rises=F Damp=F
 DIIS: error= 6.61D-09 at cycle  15 NSaved=  15.
 NSaved=15 IEnMin=15 EnMin= -415.555571579996     IErMin=15 ErrMin= 6.61D-09
 ErrMax= 6.61D-09  0.00D+00 EMaxC= 1.00D-01 BMatC= 8.93D-15 BMatP= 4.89D-13
 IDIUse=1 WtCom= 1.00D+00 WtEn= 0.00D+00
 Coeff-Com:  0.341D-08 0.117D-06 0.207D-06 0.318D-06 0.548D-06 0.617D-05
 Coeff-Com:  0.432D-05-0.494D-04-0.500D-03-0.306D-02-0.298D-02 0.161D-01
 Coeff-Com:  0.160D+00 0.177D+00 0.654D+00
 Coeff:      0.341D-08 0.117D-06 0.207D-06 0.318D-06 0.548D-06 0.617D-05
 Coeff:      0.432D-05-0.494D-04-0.500D-03-0.306D-02-0.298D-02 0.161D-01
 Coeff:      0.160D+00 0.177D+00 0.654D+00
 Gap=     0.119 Goal=   None    Shift=    0.000
 RMSDP=4.33D-09 MaxDP=3.97D-07 DE=-1.14D-12 OVMax= 4.38D-08

 SCF Done:  E(RB3LYP) =  -415.555571580     A.U. after   15 cycles
            NFock= 15  Conv=0.43D-08     -V/T= 2.0033
 KE= 4.141841789652D+02 PE=-1.708450841873D+03 EE= 5.170860609797D+02
 Leave Link  502 at Fri Oct 28 23:36:08 2022, MaxMem=  8053063680 cpu:             196.5 elap:               6.2
 (Enter /public3/home/scg5914/software-scg5914/g16/l601.exe)
 Copying SCF densities to generalized density rwf, IOpCl= 0 IROHF=0.

 **********************************************************************

            Population analysis using the SCF Density.

 **********************************************************************

 Orbital symmetries:
       Occupied  (A) (A) (A) (A) (A) (A) (A) (A) (A) (A) (A) (A)
                 (A) (A) (A) (A) (A) (A) (A) (A) (A) (A) (A) (A)
                 (A) (A) (A) (A) (A) (A)
       Virtual   (A) (A) (A) (A) (A) (A) (A) (A) (A) (A) (A) (A)
                 (A) (A) (A) (A) (A) (A) (A) (A) (A) (A) (A) (A)
                 (A) (A) (A) (A) (A) (A) (A) (A) (A) (A) (A) (A)
                 (A) (A) (A) (A) (A) (A) (A) (A) (A) (A) (A) (A)
                 (A) (A) (A) (A) (A) (A) (A) (A) (A) (A) (A) (A)
                 (A) (A) (A) (A) (A) (A) (A) (A) (A) (A) (A) (A)
                 (A) (A) (A) (A) (A) (A) (A) (A) (A) (A) (A) (A)
                 (A) (A) (A) (A) (A) (A) (A) (A) (A) (A) (A) (A)
                 (A) (A) (A) (A) (A) (A) (A) (A) (A) (A) (A) (A)
                 (A) (A) (A) (A) (A) (A) (A) (A) (A) (A) (A) (A)
                 (A) (A) (A) (A) (A) (A) (A) (A) (A) (A) (A) (A)
                 (A) (A) (A) (A) (A) (A) (A) (A) (A) (A) (A) (A)
                 (A) (A) (A) (A) (A) (A) (A) (A) (A) (A) (A) (A)
                 (A) (A) (A) (A) (A) (A) (A) (A) (A) (A) (A) (A)
                 (A) (A) (A) (A) (A) (A) (A) (A)
 The electronic state is 1-A.
 Alpha  occ. eigenvalues --  -18.98870 -18.98242 -14.09853 -14.07745 -10.06157
 Alpha  occ. eigenvalues --  -10.04064 -10.01218  -9.98612  -0.91093  -0.89820
 Alpha  occ. eigenvalues --   -0.77733  -0.63555  -0.57542  -0.50528  -0.43920
 Alpha  occ. eigenvalues --   -0.37925  -0.36121  -0.31406  -0.27462  -0.25401
 Alpha  occ. eigenvalues --   -0.25151  -0.24836  -0.22066  -0.21928  -0.19847
 Alpha  occ. eigenvalues --   -0.14323  -0.12629  -0.05314  -0.05284   0.00601
 Alpha virt. eigenvalues --    0.12522   0.13125   0.13656   0.16913   0.17417
 Alpha virt. eigenvalues --    0.17953   0.19843   0.20221   0.20538   0.22069
 Alpha virt. eigenvalues --    0.23108   0.24947   0.24971   0.26586   0.27000
 Alpha virt. eigenvalues --    0.27571   0.27945   0.28993   0.29752   0.31715
 Alpha virt. eigenvalues --    0.32561   0.34252   0.35248   0.35484   0.35971
 Alpha virt. eigenvalues --    0.36544   0.37963   0.38033   0.38903   0.40329
 Alpha virt. eigenvalues --    0.40495   0.42254   0.42753   0.43531   0.44212
 Alpha virt. eigenvalues --    0.44767   0.46518   0.46893   0.47437   0.49013
 Alpha virt. eigenvalues --    0.51708   0.52192   0.54478   0.55085   0.58673
 Alpha virt. eigenvalues --    0.62090   0.65274   0.66964   0.68324   0.69859
 Alpha virt. eigenvalues --    0.72074   0.73479   0.77034   0.77989   0.78162
 Alpha virt. eigenvalues --    0.80970   0.81401   0.83134   0.84722   0.91705
 Alpha virt. eigenvalues --    0.92340   0.99074   1.01228   1.01578   1.05120
 Alpha virt. eigenvalues --    1.06009   1.06585   1.08859   1.09655   1.12359
 Alpha virt. eigenvalues --    1.14601   1.17456   1.18205   1.21768   1.24232
 Alpha virt. eigenvalues --    1.26635   1.27296   1.27685   1.30355   1.34208
 Alpha virt. eigenvalues --    1.36080   1.36352   1.42082   1.42260   1.43627
 Alpha virt. eigenvalues --    1.53212   1.53910   1.54844   1.60121   1.61133
 Alpha virt. eigenvalues --    1.62927   1.65495   1.67074   1.70622   1.73306
 Alpha virt. eigenvalues --    1.75387   1.80184   1.82498   1.84609   1.88152
 Alpha virt. eigenvalues --    1.92714   1.95486   1.98096   2.00018   2.07949
 Alpha virt. eigenvalues --    2.08715   2.08852   2.17079   2.19031   2.25741
 Alpha virt. eigenvalues --    2.28269   2.30409   2.33145   2.37065   2.42362
 Alpha virt. eigenvalues --    2.44251   2.50754   2.55738   2.58098   2.61927
 Alpha virt. eigenvalues --    2.66913   2.70706   2.71514   2.73825   2.74178
 Alpha virt. eigenvalues --    2.79485   2.82218   2.85418   2.87361   2.97834
 Alpha virt. eigenvalues --    2.99772   3.05810   3.06302   3.08206   3.11753
 Alpha virt. eigenvalues --    3.15450   3.18371   3.26436   3.27850   3.33102
 Alpha virt. eigenvalues --    3.34932   3.36415   3.39895   3.49614   3.57970
 Alpha virt. eigenvalues --    3.60869   3.63260   3.82963   3.87528   3.94063
 Alpha virt. eigenvalues --    3.96990   4.00931   4.05087   4.11477   4.12153
 Alpha virt. eigenvalues --    4.14751   4.16111   4.45632   4.70376   4.70849
 Alpha virt. eigenvalues --    4.95827   5.14055   5.17224   5.46064   5.62752
 Alpha virt. eigenvalues --    5.65419   5.89737   5.96126  23.88173  24.07157
 Alpha virt. eigenvalues --   24.12350  24.32528  35.72438  35.92782  50.08400
 Alpha virt. eigenvalues --   50.14487
          Condensed to atoms (all electrons):
               1          2          3          4          5          6
     1  C    7.396760   0.047397  -1.594759  -0.037760  -0.137913   0.007418
     2  C    0.047397   7.945814  -1.820084  -0.157342  -0.450846  -0.065443
     3  C   -1.594759  -1.820084   9.042534   0.133654   0.824483  -0.452685
     4  O   -0.037760  -0.157342   0.133654   8.248586  -0.132092   0.076229
     5  N   -0.137913  -0.450846   0.824483  -0.132092   7.097152   0.338801
     6  C    0.007418  -0.065443  -0.452685   0.076229   0.338801   5.311285
     7  O    0.016757   0.036867   0.001635   0.002169  -0.183426   0.206217
     8  N   -0.482877   0.161304   0.319328   0.009001  -0.006930   0.504559
     9  H    0.396775  -0.015699  -0.037735   0.001382   0.000619   0.005855
    10  H    0.458374  -0.195349   0.091432   0.000584  -0.000908  -0.002146
    11  H    0.397017  -0.015857  -0.037768   0.001381   0.000618   0.005831
    12  H    0.009555   0.078819  -0.052479   0.230455   0.009059  -0.022778
    13  H    0.003185   0.027215  -0.025381  -0.000617   0.011686  -0.002567
               7          8          9         10         11         12
     1  C    0.016757  -0.482877   0.396775   0.458374   0.397017   0.009555
     2  C    0.036867   0.161304  -0.015699  -0.195349  -0.015857   0.078819
     3  C    0.001635   0.319328  -0.037735   0.091432  -0.037768  -0.052479
     4  O    0.002169   0.009001   0.001382   0.000584   0.001381   0.230455
     5  N   -0.183426  -0.006930   0.000619  -0.000908   0.000618   0.009059
     6  C    0.206217   0.504559   0.005855  -0.002146   0.005831  -0.022778
     7  O    8.236300  -0.189673  -0.000291   0.000158  -0.000291  -0.000776
     8  N   -0.189673   7.048845  -0.003854   0.018004  -0.003862   0.000706
     9  H   -0.000291  -0.003854   0.630845  -0.032744  -0.057087   0.000015
    10  H    0.000158   0.018004  -0.032744   0.578971  -0.032741  -0.000714
    11  H   -0.000291  -0.003862  -0.057087  -0.032741   0.630818   0.000015
    12  H   -0.000776   0.000706   0.000015  -0.000714   0.000015   0.504305
    13  H    0.197253   0.016719   0.000001  -0.000002   0.000001   0.000216
              13
     1  C    0.003185
     2  C    0.027215
     3  C   -0.025381
     4  O   -0.000617
     5  N    0.011686
     6  C   -0.002567
     7  O    0.197253
     8  N    0.016719
     9  H    0.000001
    10  H   -0.000002
    11  H    0.000001
    12  H    0.000216
    13  H    0.537229
 Mulliken charges:
               1
     1  C   -0.479930
     2  C    0.423204
     3  C   -0.392177
     4  O   -0.375631
     5  N   -0.370304
     6  C    0.089426
     7  O   -0.322899
     8  N   -0.391270
     9  H    0.111918
    10  H    0.117080
    11  H    0.111923
    12  H    0.243601
    13  H    0.235060
 Sum of Mulliken charges =  -1.00000
 Mulliken charges with hydrogens summed into heavy atoms:
               1
     1  C   -0.139010
     2  C    0.423204
     3  C   -0.392177
     4  O   -0.132030
     5  N   -0.370304
     6  C    0.089426
     7  O   -0.087839
     8  N   -0.391270
 Electronic spatial extent (au):  <R**2>=            944.0242
 Charge=             -1.0000 electrons
 Dipole moment (field-independent basis, Debye):
    X=             -0.8645    Y=              2.6313    Z=             -0.0001  Tot=              2.7697
 Quadrupole moment (field-independent basis, Debye-Ang):
   XX=            -58.8920   YY=            -58.7596   ZZ=            -51.9824
   XY=              5.8024   XZ=             -0.0006   YZ=             -0.0002
 Traceless Quadrupole moment (field-independent basis, Debye-Ang):
   XX=             -2.3473   YY=             -2.2149   ZZ=              4.5623
   XY=              5.8024   XZ=             -0.0006   YZ=             -0.0002
 Octapole moment (field-independent basis, Debye-Ang**2):
  XXX=             21.0715  YYY=             29.2897  ZZZ=              0.0004  XYY=             -4.3244
  XXY=             13.4624  XXZ=             -0.0022  XZZ=              1.8381  YZZ=              2.3149
  YYZ=              0.0001  XYZ=             -0.0007
 Hexadecapole moment (field-independent basis, Debye-Ang**3):
 XXXX=           -796.7929 YYYY=           -427.1990 ZZZZ=            -68.4508 XXXY=             39.5608
 XXXZ=             -0.0050 YYYX=            -28.8205 YYYZ=              0.0008 ZZZX=             -0.0006
 ZZZY=             -0.0008 XXYY=           -230.0217 XXZZ=           -147.3659 YYZZ=            -88.1382
 XXYZ=             -0.0006 YYXZ=              0.0004 ZZXY=             -3.2692
 N-N= 3.616250303481D+02 E-N=-1.708450841149D+03  KE= 4.141841789652D+02
 No NMR shielding tensors so no spin-rotation constants.
 Leave Link  601 at Fri Oct 28 23:36:09 2022, MaxMem=  8053063680 cpu:               2.5 elap:               0.1
 (Enter /public3/home/scg5914/software-scg5914/g16/l701.exe)
 ... and contract with generalized density number  0.
 Compute integral first derivatives.
 R6Disp: Adding Grimme-D3(BJ) dispersion energy 1st derivatives to the gradient.
 Leave Link  701 at Fri Oct 28 23:36:09 2022, MaxMem=  8053063680 cpu:               3.1 elap:               0.1
 (Enter /public3/home/scg5914/software-scg5914/g16/l702.exe)
 L702 exits ... SP integral derivatives will be done elsewhere.
 Leave Link  702 at Fri Oct 28 23:36:09 2022, MaxMem=  8053063680 cpu:               0.2 elap:               0.0
 (Enter /public3/home/scg5914/software-scg5914/g16/l703.exe)
 Integral derivatives from FoFJK, PRISM(SPDF).
 Compute integral first derivatives, UseDBF=F ICtDFT=           0.
 Calling FoFJK, ICntrl=      2127 FMM=F ISym2X=0 I1Cent= 0 IOpClX= 0 NMat=1 NMatS=1 NMatT=0.
 FoFJK:  IHMeth= 1 ICntrl=    2127 DoSepK=F KAlg= 0 I1Cent=           0 FoldK=F
 IRaf=         0 NMat=       1 IRICut=       1 DoRegI=T DoRafI=F ISym2E= 0 IDoP0=0 IntGTp=1.
 FoFCou: FMM=F IPFlag=           0 FMFlag=      100000 FMFlg1=         800
         NFxFlg=           0 DoJE=F BraDBF=F KetDBF=F FulRan=T
         wScrn=  0.000000 ICntrl=      2127 IOpCl=  0 I1Cent=           0 NGrid=           0
         NMat0=    1 NMatS0=      1 NMatT0=    0 NMatD0=    1 NMtDS0=    0 NMtDT0=    0
 Symmetry not used in FoFCou.
 Leave Link  703 at Fri Oct 28 23:36:10 2022, MaxMem=  8053063680 cpu:              34.5 elap:               1.1
 (Enter /public3/home/scg5914/software-scg5914/g16/l716.exe)
 Dipole        =-3.40136605D-01 1.03524056D+00-2.11863984D-05
 ***** Axes restored to original set *****
 -------------------------------------------------------------------
 Center     Atomic                   Forces (Hartrees/Bohr)
 Number     Number              X              Y              Z
 -------------------------------------------------------------------
      1        6           0.000086368   -0.000469857   -0.003743684
      2        6           0.001964860   -0.036468070    0.017883316
      3        6           0.000320680   -0.007986040    0.010905394
      4        8           0.000323146    0.003081375   -0.032204202
      5        7           0.001457106   -0.012384351   -0.043450695
      6        6          -0.005153865    0.079846356    0.013780298
      7        8           0.001576542   -0.027765269    0.008619431
      8        7          -0.000369065   -0.000598315    0.025829110
      9        1           0.000123964   -0.000693172    0.001184473
     10        1          -0.000104916    0.002069053   -0.001416105
     11        1          -0.000074549   -0.000706187    0.001181099
     12        1          -0.000035703    0.000180744    0.001544884
     13        1          -0.000114569    0.001893733   -0.000113318
 -------------------------------------------------------------------
 Cartesian Forces:  Max     0.079846356 RMS     0.018302422
 Leave Link  716 at Fri Oct 28 23:36:10 2022, MaxMem=  8053063680 cpu:               0.8 elap:               0.0
 (Enter /public3/home/scg5914/software-scg5914/g16/l103.exe)

 GradGradGradGradGradGradGradGradGradGradGradGradGradGradGradGradGradGrad
 Berny optimization.
 FormGI is forming the generalized inverse of G from B-inverse, IUseBI=4.
 Internal  Forces:  Max     0.037278226 RMS     0.012087827
 Search for a local minimum.
 Step number   1 out of a maximum of   64
 All quantities printed in internal units (Hartrees-Bohrs-Radians)
 RMS Force = .12088D-01 SwitMx=.10000D-02 MixMth= 1
 Mixed Optimization -- RFO/linear search
 Second derivative matrix not updated -- first step.
 ITU=  0
     Eigenvalues ---    0.00945   0.01531   0.02101   0.02292   0.02349
     Eigenvalues ---    0.02431   0.02441   0.02612   0.07007   0.07478
     Eigenvalues ---    0.16000   0.16000   0.16000   0.16000   0.16000
     Eigenvalues ---    0.25000   0.25000   0.25000   0.25000   0.25000
     Eigenvalues ---    0.33838   0.33864   0.33865   0.34521   0.42057
     Eigenvalues ---    0.45941   0.49182   0.54048   0.54094   0.54439
     Eigenvalues ---    0.54711   0.56284   0.61893
 RFO step:  Lambda=-2.13818348D-02 EMin= 9.44757111D-03
 Linear search not attempted -- first point.
 Iteration  1 RMS(Cart)=  0.04649730 RMS(Int)=  0.00124477
 Iteration  2 RMS(Cart)=  0.00172109 RMS(Int)=  0.00005418
 Iteration  3 RMS(Cart)=  0.00000075 RMS(Int)=  0.00005418
 ITry= 1 IFail=0 DXMaxC= 1.56D-01 DCOld= 1.00D+10 DXMaxT= 3.00D-01 DXLimC= 3.00D+00 Rises=F
 Variable       Old X    -DE/DX   Delta X   Delta X   Delta X     New X
                                 (Linear)    (Quad)   (Total)
    R1        2.80904  -0.00002   0.00000  -0.00005  -0.00005   2.80900
    R2        2.07560   0.00040   0.00000   0.00111   0.00111   2.07671
    R3        2.06460   0.00212   0.00000   0.00578   0.00578   2.07038
    R4        2.07559   0.00040   0.00000   0.00111   0.00111   2.07670
    R5        2.57999   0.01378   0.00000   0.02430   0.02420   2.60419
    R6        2.66452  -0.00599   0.00000  -0.01547  -0.01551   2.64901
    R7        2.55988   0.03047   0.00000   0.05422   0.05422   2.61411
    R8        2.60646  -0.01778   0.00000  -0.03326  -0.03328   2.57318
    R9        1.82090  -0.00096   0.00000  -0.00168  -0.00168   1.81921
   R10        2.47530   0.03728   0.00000   0.05762   0.05770   2.53300
   R11        2.54008   0.02556   0.00000   0.04375   0.04375   2.58383
   R12        2.54774  -0.01843   0.00000  -0.03194  -0.03187   2.51587
   R13        1.82334  -0.00149   0.00000  -0.00263  -0.00263   1.82071
    A1        1.96789  -0.00156   0.00000  -0.01048  -0.01056   1.95733
    A2        1.89985   0.00285   0.00000   0.01943   0.01945   1.91930
    A3        1.96788  -0.00156   0.00000  -0.01048  -0.01057   1.95732
    A4        1.87561   0.00007   0.00000   0.00385   0.00387   1.87948
    A5        1.87269   0.00021   0.00000  -0.00519  -0.00536   1.86733
    A6        1.87561   0.00007   0.00000   0.00386   0.00388   1.87948
    A7        2.31936  -0.01518   0.00000  -0.05260  -0.05254   2.26682
    A8        2.16249  -0.01319   0.00000  -0.04529  -0.04523   2.11726
    A9        1.80133   0.02837   0.00000   0.09789   0.09777   1.89910
   A10        2.21021   0.01255   0.00000   0.04633   0.04638   2.25659
   A11        1.96437  -0.01072   0.00000  -0.03967  -0.03978   1.92459
   A12        2.10861  -0.00183   0.00000  -0.00666  -0.00660   2.10200
   A13        1.85608  -0.00223   0.00000  -0.01232  -0.01232   1.84377
   A14        1.81467  -0.01503   0.00000  -0.04609  -0.04603   1.76864
   A15        2.21004  -0.02657   0.00000  -0.09967  -0.09973   2.11031
   A16        1.97490   0.02682   0.00000   0.10238   0.10250   2.07740
   A17        2.09824  -0.00025   0.00000  -0.00271  -0.00277   2.09547
   A18        1.85735  -0.00215   0.00000  -0.01187  -0.01187   1.84548
   A19        1.86951  -0.02943   0.00000  -0.11452  -0.11447   1.75504
    D1       -2.07932  -0.00103   0.00000  -0.01130  -0.01123  -2.09055
    D2        1.06222  -0.00103   0.00000  -0.01131  -0.01123   1.05099
    D3        0.00023  -0.00000   0.00000  -0.00000  -0.00000   0.00022
    D4       -3.14141  -0.00000   0.00000  -0.00001  -0.00001  -3.14142
    D5        2.07977   0.00103   0.00000   0.01130   0.01122   2.09100
    D6       -1.06187   0.00103   0.00000   0.01129   0.01122  -1.05065
    D7       -0.00007   0.00000   0.00000   0.00002   0.00002  -0.00005
    D8        3.14153   0.00000   0.00000   0.00003   0.00003   3.14155
    D9        3.14156   0.00000   0.00000   0.00002   0.00002   3.14159
   D10       -0.00003   0.00000   0.00000   0.00003   0.00003   0.00001
   D11       -3.14152  -0.00000   0.00000  -0.00004  -0.00004  -3.14156
   D12        0.00004  -0.00000   0.00000  -0.00004  -0.00004  -0.00001
   D13        3.14159   0.00000   0.00000   0.00000   0.00000  -3.14159
   D14       -0.00000  -0.00000   0.00000  -0.00001  -0.00001  -0.00001
   D15        0.00001  -0.00000   0.00000  -0.00001  -0.00001  -0.00000
   D16       -3.14158  -0.00000   0.00000  -0.00000  -0.00000  -3.14159
   D17       -3.14159   0.00000   0.00000  -0.00000  -0.00000  -3.14159
   D18        0.00002  -0.00000   0.00000  -0.00002  -0.00002  -0.00000
   D19       -0.00013  -0.00000   0.00000   0.00000   0.00000  -0.00013
   D20        3.14145   0.00000   0.00000   0.00002   0.00002   3.14146
   D21       -0.00004   0.00000   0.00000   0.00004   0.00004   0.00001
   D22        3.14157   0.00000   0.00000   0.00003   0.00003  -3.14159
         Item               Value     Threshold  Converged?
 Maximum Force            0.037278     0.000450     NO 
 RMS     Force            0.012088     0.000300     NO 
 Maximum Displacement     0.156240     0.001800     NO 
 RMS     Displacement     0.047203     0.001200     NO 
 Predicted change in Energy=-1.140015D-02
 Lowest energy point so far.  Saving SCF results.
 GradGradGradGradGradGradGradGradGradGradGradGradGradGradGradGradGradGrad

 Leave Link  103 at Fri Oct 28 23:36:10 2022, MaxMem=  8053063680 cpu:               0.8 elap:               0.0
 (Enter /public3/home/scg5914/software-scg5914/g16/l202.exe)
                          Input orientation:                          
 ---------------------------------------------------------------------
 Center     Atomic      Atomic             Coordinates (Angstroms)
 Number     Number       Type             X           Y           Z
 ---------------------------------------------------------------------
      1          6           0       -0.083087    1.516140    0.116430
      2          6           0        0.009698    0.035114    0.029802
      3          6           0        0.077829   -0.782687   -1.077294
      4          8           0        0.078226   -0.443407   -2.418367
      5          7           0        0.152340   -2.087731   -0.695920
      6          6           0        0.124056   -1.974034    0.639358
      7          8           0        0.179668   -3.081082    1.439907
      8          7           0        0.040535   -0.761537    1.182811
      9          1           0        0.766507    1.953417    0.659257
     10          1           0       -0.094033    1.949808   -0.889624
     11          1           0       -0.996591    1.844566    0.631524
     12          1           0        0.137304   -1.276661   -2.896868
     13          1           0        0.235567   -3.833943    0.841274
 ---------------------------------------------------------------------
                    Distance matrix (angstroms):
                    1          2          3          4          5
     1  C    0.000000
     2  C    1.486457   0.000000
     3  C    2.595280   1.378079   0.000000
     4  O    3.207966   2.495438   1.383325   0.000000
     5  N    3.701787   2.247996   1.361667   2.382461   0.000000
     6  C    3.535206   2.102691   2.090057   3.419737   1.340408
     7  O    4.791147   3.424611   3.410175   4.674816   2.355684
     8  N    2.517988   1.401796   2.260512   3.615399   2.302373
     9  H    1.098945   2.156122   3.313028   3.961094   4.306342
    10  H    1.095596   2.126536   2.744319   2.845032   4.049684
    11  H    1.098943   2.156109   3.313140   3.961300   4.306404
    12  H    4.114398   3.209740   1.886371   0.962686   2.345684
    13  H    5.408358   3.959685   3.607762   4.705927   2.327906
                    6          7          8          9         10
     6  C    0.000000
     7  O    1.367307   0.000000
     8  N    1.331340   2.337894   0.000000
     9  H    3.979700   5.128351   2.858692   0.000000
    10  H    4.216857   5.550809   3.415331   1.771884   0.000000
    11  H    3.979651   5.128263   2.858553   1.766672   1.771885
    12  H    3.604358   4.697377   4.113210   4.845134   3.806920
    13  H    1.874158   0.963476   3.097477   5.814514   6.046190
                   11         12         13
    11  H    0.000000
    12  H    4.845341   0.000000
    13  H    5.814437   4.530238   0.000000
 Stoichiometry    C4H5N2O2(1-)
 Framework group  C1[X(C4H5N2O2)]
 Deg. of freedom    33
 Full point group                 C1      NOp   1
 RotChk:  IX=0 Diff= 4.17D-02
 Largest Abelian subgroup         C1      NOp   1
 Largest concise Abelian subgroup C1      NOp   1
                         Standard orientation:                         
 ---------------------------------------------------------------------
 Center     Atomic      Atomic             Coordinates (Angstroms)
 Number     Number       Type             X           Y           Z
 ---------------------------------------------------------------------
      1          6           0       -1.986406   -1.453518    0.000008
      2          6           0       -0.750142   -0.628167   -0.000019
      3          6           0       -0.602470    0.741977   -0.000000
      4          8           0       -1.573006    1.727700   -0.000005
      5          7           0        0.718061    1.074146    0.000013
      6          6           0        1.294172   -0.136139    0.000004
      7          8           0        2.655282   -0.266161    0.000014
      8          7           0        0.520707   -1.219753   -0.000011
      9          1           0       -2.050228   -2.104016    0.883445
     10          1           0       -2.869327   -0.804841   -0.000179
     11          1           0       -2.050056   -2.104302   -0.883227
     12          1           0       -1.094509    2.563046    0.000013
     13          1           0        3.003620    0.632141   -0.000096
 ---------------------------------------------------------------------
 Rotational constants (GHZ):           3.6057737           1.8640962           1.2382952
 Leave Link  202 at Fri Oct 28 23:36:10 2022, MaxMem=  8053063680 cpu:               0.6 elap:               0.0
 (Enter /public3/home/scg5914/software-scg5914/g16/l301.exe)
 Standard basis: 6-311+G(d,p) (5D, 7F)
 Ernie: Thresh=  0.10000D-02 Tol=  0.10000D-05 Strict=F.
 There are   214 symmetry adapted cartesian basis functions of A   symmetry.
 There are   206 symmetry adapted basis functions of A   symmetry.
   206 basis functions,   328 primitive gaussians,   214 cartesian basis functions
    30 alpha electrons       30 beta electrons
       nuclear repulsion energy       361.2479205886 Hartrees.
 IExCor=  402 DFT=T Ex+Corr=B3LYP ExCW=0 ScaHFX=  0.200000
 ScaDFX=  0.800000  0.720000  1.000000  0.810000 ScalE2=  1.000000  1.000000
 IRadAn=      5 IRanWt=     -1 IRanGd=            0 ICorTp=0 IEmpDi=141
 NAtoms=   13 NActive=   13 NUniq=   13 SFac= 1.00D+00 NAtFMM=   60 NAOKFM=F Big=F
 Integral buffers will be    131072 words long.
 Raffenetti 2 integral format.
 Two-electron integral symmetry is turned on.
 R6Disp:  Grimme-D3(BJ) Dispersion energy=       -0.0181711072 Hartrees.
 Nuclear repulsion after empirical dispersion term =      361.2297494815 Hartrees.
 Leave Link  301 at Fri Oct 28 23:36:10 2022, MaxMem=  8053063680 cpu:               0.7 elap:               0.0
 (Enter /public3/home/scg5914/software-scg5914/g16/l302.exe)
 NPDir=0 NMtPBC=     1 NCelOv=     1 NCel=       1 NClECP=     1 NCelD=      1
         NCelK=      1 NCelE2=     1 NClLst=     1 CellRange=     0.0.
 One-electron integrals computed using PRISM.
 One-electron integral symmetry used in STVInt
 NBasis=   206 RedAO= T EigKep=  9.35D-06  NBF=   206
 NBsUse=   206 1.00D-06 EigRej= -1.00D+00 NBFU=   206
 Precomputing XC quadrature grid using
 IXCGrd= 4 IRadAn=           5 IRanWt=          -1 IRanGd=           0 AccXCQ= 0.00D+00.
 Generated NRdTot=       0 NPtTot=           0 NUsed=           0 NTot=          32
 NSgBfM=   214   214   214   214   214 MxSgAt=    13 MxSgA2=    13.
 Leave Link  302 at Fri Oct 28 23:36:10 2022, MaxMem=  8053063680 cpu:               4.3 elap:               0.1
 (Enter /public3/home/scg5914/software-scg5914/g16/l303.exe)
 DipDrv:  MaxL=1.
 Leave Link  303 at Fri Oct 28 23:36:10 2022, MaxMem=  8053063680 cpu:               0.4 elap:               0.0
 (Enter /public3/home/scg5914/software-scg5914/g16/l401.exe)
 Initial guess from the checkpoint file:  "dsgdb9nsd_004478-6.chk"
 B after Tr=    -0.000000   -0.000000   -0.000000
         Rot=    0.999916    0.000000    0.000000   -0.012980 Ang=   1.49 deg.
 Guess basis will be translated and rotated to current coordinates.
 JPrj=2 DoOrth=T DoCkMO=T.
 Generating alternative initial guess.
 ExpMin= 4.38D-02 ExpMax= 8.59D+03 ExpMxC= 1.30D+03 IAcc=3 IRadAn=         5 AccDes= 0.00D+00
 Harris functional with IExCor=  402 and IRadAn=       5 diagonalized for initial guess.
 HarFok:  IExCor=  402 AccDes= 0.00D+00 IRadAn=         5 IDoV= 1 UseB2=F ITyADJ=14
 ICtDFT=  3500011 ScaDFX=  1.000000  1.000000  1.000000  1.000000
 FoFCou: FMM=F IPFlag=           0 FMFlag=      100000 FMFlg1=           0
         NFxFlg=           0 DoJE=T BraDBF=F KetDBF=T FulRan=T
         wScrn=  0.000000 ICntrl=       500 IOpCl=  0 I1Cent=   200000004 NGrid=           0
         NMat0=    1 NMatS0=      1 NMatT0=    0 NMatD0=    1 NMtDS0=    0 NMtDT0=    0
 Petite list used in FoFCou.
 Harris En= -415.733174615720    
 Leave Link  401 at Fri Oct 28 23:36:11 2022, MaxMem=  8053063680 cpu:              11.8 elap:               0.4
 (Enter /public3/home/scg5914/software-scg5914/g16/l502.exe)
 Integral symmetry usage will be decided dynamically.
 Closed shell SCF:
 Using DIIS extrapolation, IDIIS=  1040.
 NGot=  8053063680 LenX=  8052962814 LenY=  8052916577
 Requested convergence on RMS density matrix=1.00D-08 within 128 cycles.
 Requested convergence on MAX density matrix=1.00D-06.
 Requested convergence on             energy=1.00D-06.
 No special actions if energy rises.
 Fock matrices will be formed incrementally for  20 cycles.

 Cycle   1  Pass 1  IDiag  1:
 FoFJK:  IHMeth= 1 ICntrl=       0 DoSepK=F KAlg= 0 I1Cent=           0 FoldK=F
 IRaf= 950000000 NMat=       1 IRICut=       1 DoRegI=T DoRafI=F ISym2E= 0 IDoP0=0 IntGTp=1.
 FoFCou: FMM=F IPFlag=           0 FMFlag=      100000 FMFlg1=           0
         NFxFlg=           0 DoJE=F BraDBF=F KetDBF=F FulRan=T
         wScrn=  0.000000 ICntrl=         0 IOpCl=  0 I1Cent=           0 NGrid=           0
         NMat0=    1 NMatS0=      1 NMatT0=    0 NMatD0=    1 NMtDS0=    0 NMtDT0=    0
 Symmetry not used in FoFCou.
 E= -415.557477142777    
 DIIS: error= 3.44D-03 at cycle   1 NSaved=   1.
 NSaved= 1 IEnMin= 1 EnMin= -415.557477142777     IErMin= 1 ErrMin= 3.44D-03
 ErrMax= 3.44D-03  0.00D+00 EMaxC= 1.00D-01 BMatC= 5.88D-03 BMatP= 5.88D-03
 IDIUse=3 WtCom= 9.66D-01 WtEn= 3.44D-02
 Coeff-Com:  0.100D+01
 Coeff-En:   0.100D+01
 Coeff:      0.100D+01
 Gap=     0.382 Goal=   None    Shift=    0.000
 GapD=    0.382 DampG=1.000 DampE=1.000 DampFc=1.0000 IDamp=-1.
 RMSDP=4.26D-03 MaxDP=3.94D-01              OVMax= 3.26D-02

 Cycle   2  Pass 1  IDiag  1:
 RMSU=  3.23D-03    CP:  8.72D-01
 E= -415.563587894459     Delta-E=       -0.006110751682 Rises=F Damp=F
 DIIS: error= 3.52D-03 at cycle   2 NSaved=   2.
 NSaved= 2 IEnMin= 2 EnMin= -415.563587894459     IErMin= 1 ErrMin= 3.44D-03
 ErrMax= 3.52D-03  0.00D+00 EMaxC= 1.00D-01 BMatC= 1.24D-03 BMatP= 5.88D-03
 IDIUse=3 WtCom= 9.65D-01 WtEn= 3.52D-02
 Coeff-Com:  0.205D+00 0.795D+00
 Coeff-En:   0.000D+00 0.100D+01
 Coeff:      0.198D+00 0.802D+00
 Gap=     0.121 Goal=   None    Shift=    0.000
 RMSDP=1.02D-03 MaxDP=8.40D-02 DE=-6.11D-03 OVMax= 2.63D-02

 Cycle   3  Pass 1  IDiag  1:
 RMSU=  5.76D-04    CP:  9.02D-01  8.30D-01
 E= -415.562399315196     Delta-E=        0.001188579263 Rises=F Damp=F
 DIIS: error= 5.47D-03 at cycle   3 NSaved=   3.
 NSaved= 3 IEnMin= 2 EnMin= -415.563587894459     IErMin= 1 ErrMin= 3.44D-03
 ErrMax= 5.47D-03  0.00D+00 EMaxC= 1.00D-01 BMatC= 2.54D-03 BMatP= 1.24D-03
 IDIUse=3 WtCom= 1.19D-01 WtEn= 8.81D-01
 Coeff-Com: -0.184D-01 0.598D+00 0.420D+00
 Coeff-En:   0.000D+00 0.647D+00 0.353D+00
 Coeff:     -0.220D-02 0.641D+00 0.361D+00
 Gap=     0.121 Goal=   None    Shift=    0.000
 RMSDP=7.21D-04 MaxDP=6.08D-02 DE= 1.19D-03 OVMax= 1.43D-02

 Cycle   4  Pass 1  IDiag  1:
 RMSU=  1.05D-04    CP:  8.80D-01  9.64D-01  4.45D-01
 E= -415.564534025618     Delta-E=       -0.002134710421 Rises=F Damp=F
 DIIS: error= 7.04D-04 at cycle   4 NSaved=   4.
 NSaved= 4 IEnMin= 4 EnMin= -415.564534025618     IErMin= 4 ErrMin= 7.04D-04
 ErrMax= 7.04D-04  0.00D+00 EMaxC= 1.00D-01 BMatC= 5.85D-05 BMatP= 1.24D-03
 IDIUse=3 WtCom= 9.93D-01 WtEn= 7.04D-03
 Coeff-Com: -0.136D-01 0.310D+00 0.152D+00 0.552D+00
 Coeff-En:   0.000D+00 0.000D+00 0.000D+00 0.100D+01
 Coeff:     -0.135D-01 0.308D+00 0.151D+00 0.555D+00
 Gap=     0.121 Goal=   None    Shift=    0.000
 RMSDP=1.24D-04 MaxDP=8.70D-03 DE=-2.13D-03 OVMax= 2.04D-03

 Cycle   5  Pass 1  IDiag  1:
 RMSU=  5.97D-05    CP:  8.77D-01  9.82D-01  3.71D-01  1.04D+00
 E= -415.564575554780     Delta-E=       -0.000041529163 Rises=F Damp=F
 DIIS: error= 1.52D-04 at cycle   5 NSaved=   5.
 NSaved= 5 IEnMin= 5 EnMin= -415.564575554780     IErMin= 5 ErrMin= 1.52D-04
 ErrMax= 1.52D-04  0.00D+00 EMaxC= 1.00D-01 BMatC= 5.53D-06 BMatP= 5.85D-05
 IDIUse=3 WtCom= 9.98D-01 WtEn= 1.52D-03
 Coeff-Com: -0.433D-02 0.672D-01 0.137D-01 0.336D+00 0.587D+00
 Coeff-En:   0.000D+00 0.000D+00 0.000D+00 0.469D-01 0.953D+00
 Coeff:     -0.432D-02 0.671D-01 0.137D-01 0.336D+00 0.588D+00
 Gap=     0.121 Goal=   None    Shift=    0.000
 RMSDP=2.04D-05 MaxDP=1.07D-03 DE=-4.15D-05 OVMax= 6.33D-04

 Cycle   6  Pass 1  IDiag  1:
 RMSU=  1.22D-05    CP:  8.77D-01  9.80D-01  3.83D-01  1.03D+00  8.29D-01
 E= -415.564580195993     Delta-E=       -0.000004641212 Rises=F Damp=F
 DIIS: error= 1.80D-05 at cycle   6 NSaved=   6.
 NSaved= 6 IEnMin= 6 EnMin= -415.564580195993     IErMin= 6 ErrMin= 1.80D-05
 ErrMax= 1.80D-05  0.00D+00 EMaxC= 1.00D-01 BMatC= 1.12D-07 BMatP= 5.53D-06
 IDIUse=1 WtCom= 1.00D+00 WtEn= 0.00D+00
 Coeff-Com: -0.126D-02 0.143D-01-0.129D-02 0.117D+00 0.234D+00 0.637D+00
 Coeff:     -0.126D-02 0.143D-01-0.129D-02 0.117D+00 0.234D+00 0.637D+00
 Gap=     0.121 Goal=   None    Shift=    0.000
 RMSDP=8.32D-06 MaxDP=6.12D-04 DE=-4.64D-06 OVMax= 1.03D-04

 Cycle   7  Pass 1  IDiag  1:
 RMSU=  4.38D-06    CP:  8.77D-01  9.81D-01  3.81D-01  1.06D+00  8.45D-01
                    CP:  6.56D-01
 E= -415.564580255802     Delta-E=       -0.000000059810 Rises=F Damp=F
 DIIS: error= 1.18D-05 at cycle   7 NSaved=   7.
 NSaved= 7 IEnMin= 7 EnMin= -415.564580255802     IErMin= 7 ErrMin= 1.18D-05
 ErrMax= 1.18D-05  0.00D+00 EMaxC= 1.00D-01 BMatC= 4.31D-08 BMatP= 1.12D-07
 IDIUse=1 WtCom= 1.00D+00 WtEn= 0.00D+00
 Coeff-Com: -0.966D-04-0.210D-02-0.370D-02 0.242D-01 0.623D-01 0.400D+00
 Coeff-Com:  0.520D+00
 Coeff:     -0.966D-04-0.210D-02-0.370D-02 0.242D-01 0.623D-01 0.400D+00
 Coeff:      0.520D+00
 Gap=     0.121 Goal=   None    Shift=    0.000
 RMSDP=2.73D-06 MaxDP=1.68D-04 DE=-5.98D-08 OVMax= 4.34D-05

 Cycle   8  Pass 1  IDiag  1:
 RMSU=  1.20D-06    CP:  8.77D-01  9.82D-01  3.80D-01  1.07D+00  8.52D-01
                    CP:  7.15D-01  9.01D-01
 E= -415.564580287798     Delta-E=       -0.000000031996 Rises=F Damp=F
 DIIS: error= 3.34D-06 at cycle   8 NSaved=   8.
 NSaved= 8 IEnMin= 8 EnMin= -415.564580287798     IErMin= 8 ErrMin= 3.34D-06
 ErrMax= 3.34D-06  0.00D+00 EMaxC= 1.00D-01 BMatC= 1.28D-09 BMatP= 4.31D-08
 IDIUse=1 WtCom= 1.00D+00 WtEn= 0.00D+00
 Coeff-Com:  0.121D-04-0.143D-02-0.142D-02 0.392D-02 0.143D-01 0.133D+00
 Coeff-Com:  0.229D+00 0.623D+00
 Coeff:      0.121D-04-0.143D-02-0.142D-02 0.392D-02 0.143D-01 0.133D+00
 Coeff:      0.229D+00 0.623D+00
 Gap=     0.121 Goal=   None    Shift=    0.000
 RMSDP=3.78D-07 MaxDP=1.68D-05 DE=-3.20D-08 OVMax= 1.34D-05

 Cycle   9  Pass 1  IDiag  1:
 RMSU=  2.39D-07    CP:  8.77D-01  9.82D-01  3.80D-01  1.07D+00  8.54D-01
                    CP:  7.29D-01  8.84D-01  9.47D-01
 E= -415.564580288689     Delta-E=       -0.000000000891 Rises=F Damp=F
 DIIS: error= 1.09D-06 at cycle   9 NSaved=   9.
 NSaved= 9 IEnMin= 9 EnMin= -415.564580288689     IErMin= 9 ErrMin= 1.09D-06
 ErrMax= 1.09D-06  0.00D+00 EMaxC= 1.00D-01 BMatC= 2.08D-10 BMatP= 1.28D-09
 IDIUse=1 WtCom= 1.00D+00 WtEn= 0.00D+00
 Coeff-Com:  0.217D-04-0.605D-03-0.395D-03-0.809D-03 0.810D-03 0.265D-01
 Coeff-Com:  0.652D-01 0.335D+00 0.574D+00
 Coeff:      0.217D-04-0.605D-03-0.395D-03-0.809D-03 0.810D-03 0.265D-01
 Coeff:      0.652D-01 0.335D+00 0.574D+00
 Gap=     0.121 Goal=   None    Shift=    0.000
 RMSDP=2.19D-07 MaxDP=1.51D-05 DE=-8.91D-10 OVMax= 3.30D-06

 Cycle  10  Pass 1  IDiag  1:
 RMSU=  7.18D-08    CP:  8.77D-01  9.82D-01  3.80D-01  1.07D+00  8.55D-01
                    CP:  7.26D-01  9.07D-01  9.53D-01  7.69D-01
 E= -415.564580288855     Delta-E=       -0.000000000166 Rises=F Damp=F
 DIIS: error= 1.61D-07 at cycle  10 NSaved=  10.
 NSaved=10 IEnMin=10 EnMin= -415.564580288855     IErMin=10 ErrMin= 1.61D-07
 ErrMax= 1.61D-07  0.00D+00 EMaxC= 1.00D-01 BMatC= 7.90D-12 BMatP= 2.08D-10
 IDIUse=1 WtCom= 1.00D+00 WtEn= 0.00D+00
 Coeff-Com:  0.862D-05-0.173D-03-0.937D-04-0.512D-03-0.270D-03 0.450D-02
 Coeff-Com:  0.143D-01 0.107D+00 0.241D+00 0.634D+00
 Coeff:      0.862D-05-0.173D-03-0.937D-04-0.512D-03-0.270D-03 0.450D-02
 Coeff:      0.143D-01 0.107D+00 0.241D+00 0.634D+00
 Gap=     0.121 Goal=   None    Shift=    0.000
 RMSDP=9.18D-08 MaxDP=7.41D-06 DE=-1.66D-10 OVMax= 8.07D-07

 Cycle  11  Pass 1  IDiag  1:
 RMSU=  2.01D-08    CP:  8.77D-01  9.82D-01  3.80D-01  1.07D+00  8.55D-01
                    CP:  7.24D-01  9.16D-01  9.64D-01  7.75D-01  1.00D+00
 E= -415.564580288859     Delta-E=       -0.000000000004 Rises=F Damp=F
 DIIS: error= 7.82D-08 at cycle  11 NSaved=  11.
 NSaved=11 IEnMin=11 EnMin= -415.564580288859     IErMin=11 ErrMin= 7.82D-08
 ErrMax= 7.82D-08  0.00D+00 EMaxC= 1.00D-01 BMatC= 1.62D-12 BMatP= 7.90D-12
 IDIUse=1 WtCom= 1.00D+00 WtEn= 0.00D+00
 Coeff-Com:  0.126D-05-0.343D-06 0.123D-04-0.180D-03-0.320D-03-0.171D-02
 Coeff-Com: -0.297D-02 0.883D-02 0.440D-01 0.338D+00 0.614D+00
 Coeff:      0.126D-05-0.343D-06 0.123D-04-0.180D-03-0.320D-03-0.171D-02
 Coeff:     -0.297D-02 0.883D-02 0.440D-01 0.338D+00 0.614D+00
 Gap=     0.121 Goal=   None    Shift=    0.000
 RMSDP=3.23D-08 MaxDP=2.49D-06 DE=-3.98D-12 OVMax= 3.43D-07

 Cycle  12  Pass 1  IDiag  1:
 RMSU=  7.14D-09    CP:  8.77D-01  9.82D-01  3.80D-01  1.07D+00  8.55D-01
                    CP:  7.24D-01  9.16D-01  9.69D-01  7.88D-01  1.01D+00
                    CP:  7.92D-01
 E= -415.564580288858     Delta-E=        0.000000000000 Rises=F Damp=F
 DIIS: error= 1.09D-08 at cycle  12 NSaved=  12.
 NSaved=12 IEnMin=11 EnMin= -415.564580288859     IErMin=12 ErrMin= 1.09D-08
 ErrMax= 1.09D-08  0.00D+00 EMaxC= 1.00D-01 BMatC= 2.68D-14 BMatP= 1.62D-12
 IDIUse=1 WtCom= 1.00D+00 WtEn= 0.00D+00
 Coeff-Com: -0.521D-07 0.678D-05 0.726D-05-0.197D-04-0.619D-04-0.557D-03
 Coeff-Com: -0.161D-02-0.318D-02-0.250D-02 0.459D-01 0.152D+00 0.810D+00
 Coeff:     -0.521D-07 0.678D-05 0.726D-05-0.197D-04-0.619D-04-0.557D-03
 Coeff:     -0.161D-02-0.318D-02-0.250D-02 0.459D-01 0.152D+00 0.810D+00
 Gap=     0.121 Goal=   None    Shift=    0.000
 RMSDP=4.23D-09 MaxDP=2.77D-07 DE= 3.41D-13 OVMax= 5.82D-08

 SCF Done:  E(RB3LYP) =  -415.564580289     A.U. after   12 cycles
            NFock= 12  Conv=0.42D-08     -V/T= 2.0035
 KE= 4.141183721913D+02 PE=-1.707582151740D+03 EE= 5.166694497784D+02
 Leave Link  502 at Fri Oct 28 23:36:16 2022, MaxMem=  8053063680 cpu:             175.6 elap:               5.5
 (Enter /public3/home/scg5914/software-scg5914/g16/l701.exe)
 ... and contract with generalized density number  0.
 Compute integral first derivatives.
 R6Disp: Adding Grimme-D3(BJ) dispersion energy 1st derivatives to the gradient.
 Leave Link  701 at Fri Oct 28 23:36:17 2022, MaxMem=  8053063680 cpu:               3.1 elap:               0.1
 (Enter /public3/home/scg5914/software-scg5914/g16/l702.exe)
 L702 exits ... SP integral derivatives will be done elsewhere.
 Leave Link  702 at Fri Oct 28 23:36:17 2022, MaxMem=  8053063680 cpu:               0.6 elap:               0.0
 (Enter /public3/home/scg5914/software-scg5914/g16/l703.exe)
 Integral derivatives from FoFJK, PRISM(SPDF).
 Compute integral first derivatives, UseDBF=F ICtDFT=           0.
 Calling FoFJK, ICntrl=      2127 FMM=F ISym2X=0 I1Cent= 0 IOpClX= 0 NMat=1 NMatS=1 NMatT=0.
 FoFJK:  IHMeth= 1 ICntrl=    2127 DoSepK=F KAlg= 0 I1Cent=           0 FoldK=F
 IRaf=         0 NMat=       1 IRICut=       1 DoRegI=T DoRafI=F ISym2E= 0 IDoP0=0 IntGTp=1.
 FoFCou: FMM=F IPFlag=           0 FMFlag=      100000 FMFlg1=         800
         NFxFlg=           0 DoJE=F BraDBF=F KetDBF=F FulRan=T
         wScrn=  0.000000 ICntrl=      2127 IOpCl=  0 I1Cent=           0 NGrid=           0
         NMat0=    1 NMatS0=      1 NMatT0=    0 NMatD0=    1 NMtDS0=    0 NMtDT0=    0
 Symmetry not used in FoFCou.
 Leave Link  703 at Fri Oct 28 23:36:18 2022, MaxMem=  8053063680 cpu:              34.3 elap:               1.1
 (Enter /public3/home/scg5914/software-scg5914/g16/l716.exe)
 Dipole        =-3.94547352D-01 9.97731260D-01-5.32624766D-05
 ***** Axes restored to original set *****
 -------------------------------------------------------------------
 Center     Atomic                   Forces (Hartrees/Bohr)
 Number     Number              X              Y              Z
 -------------------------------------------------------------------
      1        6          -0.000154242    0.003432625   -0.003677078
      2        6          -0.000459980    0.007893242   -0.001636079
      3        6          -0.000417245    0.004471312    0.008789993
      4        8          -0.000170302    0.004424594   -0.006441114
      5        7           0.000396362   -0.005983619   -0.001722707
      6        6          -0.000704376    0.008355215    0.011888545
      7        8           0.000827278   -0.015234706    0.007065941
      8        7           0.000894910   -0.009979437   -0.017529972
      9        1           0.000155915    0.000507557    0.000647900
     10        1          -0.000052587    0.000759535    0.000383822
     11        1          -0.000237360    0.000482736    0.000641371
     12        1           0.000019469   -0.000903616    0.002272280
     13        1          -0.000097841    0.001774563   -0.000682901
 -------------------------------------------------------------------
 Cartesian Forces:  Max     0.017529972 RMS     0.005551041
 Leave Link  716 at Fri Oct 28 23:36:18 2022, MaxMem=  8053063680 cpu:               0.3 elap:               0.0
 (Enter /public3/home/scg5914/software-scg5914/g16/l103.exe)

 GradGradGradGradGradGradGradGradGradGradGradGradGradGradGradGradGradGrad
 Berny optimization.
 Using GEDIIS/GDIIS optimizer.
 FormGI is forming the generalized inverse of G from B-inverse, IUseBI=4.
 Internal  Forces:  Max     0.014665128 RMS     0.004293195
 Search for a local minimum.
 Step number   2 out of a maximum of   64
 All quantities printed in internal units (Hartrees-Bohrs-Radians)
 RMS Force = .42932D-02 SwitMx=.10000D-02 MixMth= 1
 Mixed Optimization -- RFO/linear search
 Update second derivatives using D2CorX and points    1    2
 DE= -9.01D-03 DEPred=-1.14D-02 R= 7.90D-01
 TightC=F SS=  1.41D+00  RLast= 2.58D-01 DXNew= 5.0454D-01 7.7339D-01
 Trust test= 7.90D-01 RLast= 2.58D-01 DXMaxT set to 5.05D-01
 ITU=  1  0
 Use linear search instead of GDIIS.
     Eigenvalues ---    0.00945   0.01562   0.02116   0.02292   0.02363
     Eigenvalues ---    0.02431   0.02459   0.02609   0.07129   0.07369
     Eigenvalues ---    0.15756   0.16000   0.16000   0.16000   0.16011
     Eigenvalues ---    0.23559   0.25000   0.25000   0.25000   0.32765
     Eigenvalues ---    0.33863   0.33864   0.34506   0.35583   0.42022
     Eigenvalues ---    0.46060   0.49316   0.51875   0.54193   0.54448
     Eigenvalues ---    0.54711   0.55971   0.61940
 RFO step:  Lambda=-1.93452809D-03 EMin= 9.44757111D-03
 Quartic linear search produced a step of -0.13273.
 Iteration  1 RMS(Cart)=  0.01795905 RMS(Int)=  0.00018640
 Iteration  2 RMS(Cart)=  0.00019023 RMS(Int)=  0.00002310
 Iteration  3 RMS(Cart)=  0.00000001 RMS(Int)=  0.00002310
 ITry= 1 IFail=0 DXMaxC= 6.86D-02 DCOld= 1.00D+10 DXMaxT= 5.05D-01 DXLimC= 3.00D+00 Rises=F
 Variable       Old X    -DE/DX   Delta X   Delta X   Delta X     New X
                                 (Linear)    (Quad)   (Total)
    R1        2.80900   0.00506   0.00001   0.01289   0.01290   2.82189
    R2        2.07671   0.00064  -0.00015   0.00189   0.00174   2.07845
    R3        2.07038  -0.00005  -0.00077   0.00121   0.00044   2.07082
    R4        2.07670   0.00064  -0.00015   0.00189   0.00174   2.07844
    R5        2.60419  -0.00428  -0.00321  -0.00152  -0.00473   2.59946
    R6        2.64901   0.00342   0.00206   0.00230   0.00440   2.65341
    R7        2.61411   0.00490  -0.00720   0.02028   0.01309   2.62719
    R8        2.57318   0.01050   0.00442   0.01156   0.01594   2.58912
    R9        1.81921  -0.00035   0.00022  -0.00093  -0.00071   1.81850
   R10        2.53300   0.00371  -0.00766   0.01846   0.01078   2.54378
   R11        2.58383   0.01467  -0.00581   0.03255   0.02674   2.61058
   R12        2.51587  -0.00502   0.00423  -0.01553  -0.01128   2.50459
   R13        1.82071  -0.00097   0.00035  -0.00214  -0.00179   1.81891
    A1        1.95733   0.00008   0.00140  -0.00288  -0.00148   1.95585
    A2        1.91930   0.00128  -0.00258   0.01302   0.01042   1.92972
    A3        1.95732   0.00008   0.00140  -0.00289  -0.00149   1.95583
    A4        1.87948  -0.00045  -0.00051  -0.00003  -0.00056   1.87892
    A5        1.86733  -0.00063   0.00071  -0.00749  -0.00677   1.86055
    A6        1.87948  -0.00045  -0.00051  -0.00003  -0.00056   1.87893
    A7        2.26682   0.00184   0.00697  -0.00528   0.00167   2.26849
    A8        2.11726   0.00661   0.00600   0.01283   0.01882   2.13608
    A9        1.89910  -0.00846  -0.01298  -0.00755  -0.02049   1.87862
   A10        2.25659  -0.00236  -0.00616   0.00191  -0.00422   2.25237
   A11        1.92459   0.00286   0.00528   0.00212   0.00736   1.93195
   A12        2.10200  -0.00050   0.00088  -0.00404  -0.00314   2.09886
   A13        1.84377  -0.00440   0.00163  -0.02649  -0.02486   1.81891
   A14        1.76864   0.00182   0.00611  -0.00101   0.00501   1.77365
   A15        2.11031  -0.00007   0.01324  -0.02338  -0.01014   2.10016
   A16        2.07740  -0.00987  -0.01360  -0.01026  -0.02386   2.05354
   A17        2.09547   0.00994   0.00037   0.03364   0.03400   2.12948
   A18        1.84548  -0.00298   0.00158  -0.01879  -0.01721   1.82827
   A19        1.75504   0.01364   0.01519   0.01669   0.03198   1.78702
    D1       -2.09055  -0.00035   0.00149  -0.00692  -0.00543  -2.09599
    D2        1.05099  -0.00035   0.00149  -0.00690  -0.00542   1.04556
    D3        0.00022  -0.00000   0.00000  -0.00002  -0.00002   0.00020
    D4       -3.14142  -0.00000   0.00000  -0.00001  -0.00001  -3.14143
    D5        2.09100   0.00035  -0.00149   0.00687   0.00539   2.09639
    D6       -1.05065   0.00035  -0.00149   0.00688   0.00540  -1.04525
    D7       -0.00005   0.00000  -0.00000   0.00002   0.00001  -0.00004
    D8        3.14155   0.00000  -0.00000   0.00001   0.00001   3.14156
    D9        3.14159  -0.00000  -0.00000   0.00000   0.00000   3.14159
   D10        0.00001  -0.00000  -0.00000   0.00000  -0.00000   0.00000
   D11       -3.14156   0.00000   0.00000  -0.00001  -0.00000  -3.14156
   D12       -0.00001   0.00000   0.00001   0.00000   0.00001  -0.00000
   D13       -3.14159   0.00000  -0.00000   0.00000   0.00000  -3.14159
   D14       -0.00001   0.00000   0.00000   0.00001   0.00001  -0.00000
   D15       -0.00000   0.00000   0.00000  -0.00000  -0.00000  -0.00000
   D16       -3.14159  -0.00000   0.00000  -0.00000  -0.00000  -3.14159
   D17       -3.14159  -0.00000   0.00000  -0.00000  -0.00000   3.14159
   D18       -0.00000   0.00000   0.00000   0.00000   0.00000   0.00000
   D19       -0.00013   0.00000  -0.00000   0.00003   0.00003  -0.00010
   D20        3.14146   0.00000  -0.00000   0.00002   0.00002   3.14149
   D21        0.00001  -0.00000  -0.00001  -0.00000  -0.00001  -0.00000
   D22       -3.14159  -0.00000  -0.00000   0.00000   0.00000  -3.14159
         Item               Value     Threshold  Converged?
 Maximum Force            0.014665     0.000450     NO 
 RMS     Force            0.004293     0.000300     NO 
 Maximum Displacement     0.068599     0.001800     NO 
[...]
  30. LP (   1) N   8                /202. BD*(   1) N   5 - C   6            9.22    0.88    0.081
  30. LP (   1) N   8                /203. BD*(   1) C   6 - O   7            2.22    0.68    0.035
 197. BD*(   2) C   2 - C   3        / 50. RY*(   3) C   2                    0.51    0.50    0.032
 197. BD*(   2) C   2 - C   3        / 55. RY*(   8) C   2                    0.72    1.65    0.068
 197. BD*(   2) C   2 - C   3        / 70. RY*(   6) C   3                    0.57    1.47    0.057
 197. BD*(   2) C   2 - C   3        / 71. RY*(   7) C   3                    1.98    0.67    0.072
 197. BD*(   2) C   2 - C   3        / 83. RY*(   2) O   4                    0.57    0.77    0.041
 197. BD*(   2) C   2 - C   3        /101. RY*(   3) N   5                    0.86    0.43    0.038
 197. BD*(   2) C   2 - C   3        /151. RY*(   2) N   8                    0.78    0.57    0.042
 197. BD*(   2) C   2 - C   3        /193. BD*(   1) C   1 - H   9            1.88    0.32    0.047
 197. BD*(   2) C   2 - C   3        /195. BD*(   1) C   1 - H  11            1.88    0.32    0.047
 205. BD*(   2) C   6 - N   8        /101. RY*(   3) N   5                    0.60    0.46    0.030
 205. BD*(   2) C   6 - N   8        /118. RY*(   3) C   6                    2.22    1.58    0.107
 205. BD*(   2) C   6 - N   8        /122. RY*(   7) C   6                    0.76    0.52    0.036
 205. BD*(   2) C   6 - N   8        /134. RY*(   2) O   7                    0.72    0.69    0.041
 205. BD*(   2) C   6 - N   8        /151. RY*(   2) N   8                    1.79    0.59    0.059
 205. BD*(   2) C   6 - N   8        /154. RY*(   5) N   8                    0.54    1.95    0.059
 205. BD*(   2) C   6 - N   8        /164. RY*(  15) N   8                    0.77    1.75    0.067
 205. BD*(   2) C   6 - N   8        /197. BD*(   2) C   2 - C   3           71.54    0.02    0.056


 Natural Bond Orbitals (Summary):

                                                            Principal Delocalizations
           NBO                        Occupancy    Energy   (geminal,vicinal,remote)
 ====================================================================================
 Molecular unit  1  (C4H5N2O2)
     1. BD (   1) C   1 - C   2          1.98707    -0.46567  196(g),200(v),198(g),204(v)
                                                    67(v),193(g),195(g),150(v)
                                                    194(g),66(v)
     2. BD (   1) C   1 - H   9          1.98518    -0.34027  197(v),196(v),50(v),51(v)
     3. BD (   1) C   1 - H  10          1.98641    -0.34342  198(v),49(v)
     4. BD (   1) C   1 - H  11          1.98518    -0.34027  197(v),196(v),50(v),51(v)
     5. BD (   1) C   2 - C   3          1.97827    -0.51804  192(g),200(g),203(r),199(g)
                                                    201(v),99(v),31(v),150(v)
                                                    198(g)
     6. BD (   2) C   2 - C   3          1.87977    -0.07391  27(v),205(v),193(v),195(v)
                                                    151(v),101(v),197(g),83(v)
                                                    32(v)
     7. BD (   1) C   2 - N   8          1.96383    -0.53541  203(v),199(v),116(v),196(g)
                                                    192(g),194(v),204(g),117(v)
                                                    31(v)
     8. BD (   1) C   3 - O   4          1.99526    -0.71431  196(g),198(v),202(v)
     9. BD (   1) C   3 - N   5          1.97423    -0.58635  203(v),192(v),196(g),116(v)
                                                    202(g),198(v)
    10. BD (   1) O   4 - H  12          1.98781    -0.57049  196(v),66(v),200(v),100(r)
    11. BD (   1) N   5 - C   6          1.98012    -0.61248  199(v),67(v),204(g),66(v)
                                                    192(r),200(g)
    12. BD (   1) C   6 - O   7          1.99459    -0.71359  198(v),200(v)
    13. BD (   1) C   6 - N   8          1.98371    -0.63006  192(v),49(v),202(g),206(v)
                                                    199(r),198(g),203(g)
    14. BD (   2) C   6 - N   8          1.90293    -0.10903  27(v),197(v),50(v),205(g)
                                                    134(v),52(v),101(v)
    15. BD (   1) O   7 - H  13          1.98645    -0.56586  204(v),119(v),116(v),100(r)
                                                    202(v)
    16. CR (   1) C   1                  1.99932    -9.86797  53(v),196(v)
    17. CR (   1) C   2                  1.99897    -9.85817  199(v),67(v),196(g),33(v)
                                                    204(v)
    18. CR (   1) C   3                  1.99865    -9.92141  49(v),196(g),192(v),199(g)
                                                    202(v)
    19. CR (   1) O   4                  1.99976   -18.77151  66(v),67(v),182(v)
    20. CR (   1) N   5                  1.99933   -13.91085  116(v),66(v),65(v),73(v)
                                                    203(v),199(v),204(v)
    21. CR (   1) C   6                  1.99912    -9.94951  203(g),198(v),200(v),100(v)
    22. CR (   1) O   7                  1.99976   -18.76559  119(v),190(v)
    23. CR (   1) N   8                  1.99935   -13.89696  116(v),48(v),203(v),119(v)
                                                    192(v),202(v),49(v)
    24. LP (   1) O   4                  1.98000    -0.46124  200(v),66(v),67(v),182(v)
    25. LP (   2) O   4                  1.92323    -0.15881  197(v),183(v),70(v),68(v)
                                                    27(r)
    26. LP (   1) N   5                  1.92895    -0.20726  204(v),65(v),116(v),196(v)
                                                    203(v),199(v),117(v),66(v)
                                                    77(v),103(g),129(v),206(r)
    27. LP (   2) N   5                  1.44239     0.00089  205(v),197(v),101(g),120(v)
                                                    68(v),113(g),118(v),70(v)
                                                    122(v)
    28. LP (   1) O   7                  1.98041    -0.45929  202(v),119(v),116(v),188(v)
    29. LP (   2) O   7                  1.91430    -0.15446  205(v),187(v),120(v),118(v)
                                                    122(v),27(r)
    30. LP (   1) N   8                  1.93206    -0.17885  202(v),116(v),48(v),196(v)
                                                    203(v),117(v),199(r),129(v)
    31. RY*(   1) C   1                  0.00352     0.76481   
    32. RY*(   2) C   1                  0.00106     1.25281   
    33. RY*(   3) C   1                  0.00060     0.85061   
    34. RY*(   4) C   1                  0.00032     2.35860   
    35. RY*(   5) C   1                  0.00020     1.17014   
    36. RY*(   6) C   1                  0.00016     1.41038   
    37. RY*(   7) C   1                  0.00006     0.34996   
    38. RY*(   8) C   1                  0.00005     1.19326   
    39. RY*(   9) C   1                  0.00004     1.86236   
    40. RY*(  10) C   1                  0.00001     2.10432   
    41. RY*(  11) C   1                  0.00000     0.96362   
    42. RY*(  12) C   1                  0.00001     2.23213   
    43. RY*(  13) C   1                  0.00000    22.27646   
    44. RY*(  14) C   1                  0.00000     2.37027   
    45. RY*(  15) C   1                  0.00000     3.27820   
    46. RY*(  16) C   1                  0.00000     2.86497   
    47. RY*(  17) C   1                  0.00000     2.00622   
    48. RY*(   1) C   2                  0.00751     1.23175   
    49. RY*(   2) C   2                  0.00433     1.30380   
    50. RY*(   3) C   2                  0.00354     0.72943   
    51. RY*(   4) C   2                  0.00195     1.63883   
    52. RY*(   5) C   2                  0.00135     1.75955   
    53. RY*(   6) C   2                  0.00071     1.13702   
    54. RY*(   7) C   2                  0.00041     2.19451   
    55. RY*(   8) C   2                  0.00037     1.87198   
    56. RY*(   9) C   2                  0.00020     2.63433   
    57. RY*(  10) C   2                  0.00010     2.06865   
    58. RY*(  11) C   2                  0.00007     3.95982   
    59. RY*(  12) C   2                  0.00005     0.52443   
    60. RY*(  13) C   2                  0.00002     2.34948   
    61. RY*(  14) C   2                  0.00002     0.99762   
    62. RY*(  15) C   2                  0.00002     3.43809   
    63. RY*(  16) C   2                  0.00000     2.96139   
    64. RY*(  17) C   2                  0.00000    20.02209   
    65. RY*(   1) C   3                  0.00968     1.21446   
    66. RY*(   2) C   3                  0.00643     1.10219   
    67. RY*(   3) C   3                  0.00345     1.63663   
    68. RY*(   4) C   3                  0.00239     1.70463   
    69. RY*(   5) C   3                  0.00221     1.51691   
    70. RY*(   6) C   3                  0.00206     1.69267   
    71. RY*(   7) C   3                  0.00055     0.90007   
    72. RY*(   8) C   3                  0.00054     1.81798   
    73. RY*(   9) C   3                  0.00024     2.21043   
    74. RY*(  10) C   3                  0.00006     2.69987   
    75. RY*(  11) C   3                  0.00007     7.28945   
    76. RY*(  12) C   3                  0.00004     3.99967   
    77. RY*(  13) C   3                  0.00001     3.31899   
    78. RY*(  14) C   3                  0.00001     2.27499   
    79. RY*(  15) C   3                  0.00000    12.77227   
    80. RY*(  16) C   3                  0.00001     0.40139   
    81. RY*(  17) C   3                  0.00000     2.90514   
    82. RY*(   1) O   4                  0.00191     0.85515   
    83. RY*(   2) O   4                  0.00167     0.99248   
    84. RY*(   3) O   4                  0.00049     0.74360   
    85. RY*(   4) O   4                  0.00028     2.07729   
    86. RY*(   5) O   4                  0.00008     1.70597   
    87. RY*(   6) O   4                  0.00004     1.31315   
    88. RY*(   7) O   4                  0.00004     1.50843   
    89. RY*(   8) O   4                  0.00002     2.02463   
    90. RY*(   9) O   4                  0.00001     3.16176   
    91. RY*(  10) O   4                  0.00000    49.85254   
    92. RY*(  11) O   4                  0.00000     4.29801   
    93. RY*(  12) O   4                  0.00000     4.78426   
    94. RY*(  13) O   4                  0.00000     3.35643   
    95. RY*(  14) O   4                  0.00001     3.05674   
    96. RY*(  15) O   4                  0.00000     5.36893   
    97. RY*(  16) O   4                  0.00000     2.73919   
    98. RY*(  17) O   4                  0.00000     3.08532   
    99. RY*(   1) N   5                  0.00408     0.82255   
   100. RY*(   2) N   5                  0.00198     1.04275   
   101. RY*(   3) N   5                  0.00187     0.65948   
   102. RY*(   4) N   5                  0.00051     1.22530   
   103. RY*(   5) N   5                  0.00037     1.59356   
   104. RY*(   6) N   5                  0.00036     2.22406   
   105. RY*(   7) N   5                  0.00020     2.58274   
   106. RY*(   8) N   5                  0.00013     1.12414   
   107. RY*(   9) N   5                  0.00009     1.86279   
   108. RY*(  10) N   5                  0.00004     3.40024   
   109. RY*(  11) N   5                  0.00003     3.09017   
   110. RY*(  12) N   5                  0.00000     4.04957   
   111. RY*(  13) N   5                  0.00000     1.76374   
   112. RY*(  14) N   5                  0.00000    35.04074   
   113. RY*(  15) N   5                  0.00000     2.27925   
   114. RY*(  16) N   5                  0.00000     3.76933   
   115. RY*(  17) N   5                  0.00001     2.69380   
   116. RY*(   1) C   6                  0.01342     1.27249   
   117. RY*(   2) C   6                  0.00660     1.90182   
   118. RY*(   3) C   6                  0.00396     1.78476   
   119. RY*(   4) C   6                  0.00360     1.44765   
   120. RY*(   5) C   6                  0.00263     1.71174   
   121. RY*(   6) C   6                  0.00259     1.71669   
   122. RY*(   7) C   6                  0.00096     0.72337   
   123. RY*(   8) C   6                  0.00074     1.72343   
   124. RY*(   9) C   6                  0.00013     3.97254   
   125. RY*(  10) C   6                  0.00006     3.37591   
   126. RY*(  11) C   6                  0.00004     6.97652   
   127. RY*(  12) C   6                  0.00002     0.46025   
   128. RY*(  13) C   6                  0.00001     1.69458   
   129. RY*(  14) C   6                  0.00001     2.72822   
   130. RY*(  15) C   6                  0.00000     2.84332   
   131. RY*(  16) C   6                  0.00000    10.97728   
   132. RY*(  17) C   6                  0.00001     3.79172   
   133. RY*(   1) O   7                  0.00224     0.81471   
   134. RY*(   2) O   7                  0.00183     0.89491   
   135. RY*(   3) O   7                  0.00064     1.51779   
   136. RY*(   4) O   7                  0.00034     0.94727   
   137. RY*(   5) O   7                  0.00008     2.74628   
   138. RY*(   6) O   7                  0.00004     1.82446   
   139. RY*(   7) O   7                  0.00002     2.60532   
   140. RY*(   8) O   7                  0.00002     3.05613   
   141. RY*(   9) O   7                  0.00000     5.37107   
   142. RY*(  10) O   7                  0.00000    49.90205   
   143. RY*(  11) O   7                  0.00000     1.31699   
   144. RY*(  12) O   7                  0.00000     5.10363   
   145. RY*(  13) O   7                  0.00000     5.12732   
   146. RY*(  14) O   7                  0.00001     1.49475   
   147. RY*(  15) O   7                  0.00001     1.17755   
   148. RY*(  16) O   7                  0.00000     3.59779   
   149. RY*(  17) O   7                  0.00000     3.32860   
   150. RY*(   1) N   8                  0.00357     0.75364   
   151. RY*(   2) N   8                  0.00189     0.79389   
   152. RY*(   3) N   8                  0.00119     1.17398   
   153. RY*(   4) N   8                  0.00067     0.99819   
   154. RY*(   5) N   8                  0.00037     2.15509   
   155. RY*(   6) N   8                  0.00034     1.81155   
   156. RY*(   7) N   8                  0.00015     1.56308   
   157. RY*(   8) N   8                  0.00008     2.01435   
   158. RY*(   9) N   8                  0.00005     1.81848   
   159. RY*(  10) N   8                  0.00004     2.56253   
   160. RY*(  11) N   8                  0.00002     4.24610   
   161. RY*(  12) N   8                  0.00001     3.87216   
   162. RY*(  13) N   8                  0.00002     2.64718   
   163. RY*(  14) N   8                  0.00000     3.71874   
   164. RY*(  15) N   8                  0.00001     1.94684   
   165. RY*(  16) N   8                  0.00001     2.65055   
   166. RY*(  17) N   8                  0.00000    35.10687   
   167. RY*(   1) H   9                  0.00239     0.69681   
   168. RY*(   2) H   9                  0.00028     2.21863   
   169. RY*(   3) H   9                  0.00013     1.88083   
   170. RY*(   4) H   9                  0.00010     2.01164   
   171. RY*(   5) H   9                  0.00005     2.81248   
   172. RY*(   1) H  10                  0.00084     0.77509   
   173. RY*(   2) H  10                  0.00015     2.30760   
   174. RY*(   3) H  10                  0.00015     1.88415   
   175. RY*(   4) H  10                  0.00014     1.88275   
   176. RY*(   5) H  10                  0.00002     2.77945   
   177. RY*(   1) H  11                  0.00239     0.69679   
   178. RY*(   2) H  11                  0.00028     2.21869   
   179. RY*(   3) H  11                  0.00013     1.88086   
   180. RY*(   4) H  11                  0.00010     2.01161   
   181. RY*(   5) H  11                  0.00005     2.81244   
   182. RY*(   1) H  12                  0.00186     1.80216   
   183. RY*(   2) H  12                  0.00173     1.65905   
   184. RY*(   3) H  12                  0.00083     1.60882   
   185. RY*(   4) H  12                  0.00041     1.55996   
   186. RY*(   5) H  12                  0.00000     2.69568   
   187. RY*(   1) H  13                  0.00169     1.66294   
   188. RY*(   2) H  13                  0.00126     1.90488   
   189. RY*(   3) H  13                  0.00095     0.98847   
   190. RY*(   4) H  13                  0.00036     2.11567   
   191. RY*(   5) H  13                  0.00000     2.71712   
   192. BD*(   1) C   1 - C   2          0.02052     0.61339   
   193. BD*(   1) C   1 - H   9          0.01945     0.54148   
   194. BD*(   1) C   1 - H  10          0.00417     0.54985   
   195. BD*(   1) C   1 - H  11          0.01944     0.54149   
   196. BD*(   1) C   2 - C   3          0.03297     0.79632   
   197. BD*(   2) C   2 - C   3          0.40888     0.22596  205(v),27(v),71(g),193(v)
                                                    195(v),101(v),151(v),55(g)
                                                    83(v),70(g),50(g)
   198. BD*(   1) C   2 - N   8          0.01657     0.66244   
   199. BD*(   1) C   3 - O   4          0.03977     0.49233   
   200. BD*(   1) C   3 - N   5          0.02292     0.67886   
   201. BD*(   1) O   4 - H  12          0.00851     0.57349   
   202. BD*(   1) N   5 - C   6          0.03817     0.70279   
   203. BD*(   1) C   6 - O   7          0.05274     0.50547   
   204. BD*(   1) C   6 - N   8          0.02857     0.75871   
   205. BD*(   2) C   6 - N   8          0.48081     0.20149  197(v),27(v),118(g),151(g)
                                                    164(g),122(g),134(v),101(v)
                                                    154(g)
   206. BD*(   1) O   7 - H  13          0.00675     0.57183   
       -------------------------------
              Total Lewis   58.66640  ( 97.7773%)
        Valence non-Lewis    1.20023  (  2.0004%)
        Rydberg non-Lewis    0.13337  (  0.2223%)
       -------------------------------
            Total unit  1   60.00000  (100.0000%)
           Charge unit  1   -1.00000
 Leave Link  607 at Fri Oct 28 23:37:21 2022, MaxMem=  8053063680 cpu:              54.0 elap:               1.7
 (Enter /public3/home/scg5914/software-scg5914/g16/l9999.exe)
 Unable to Open any file for archive entry.
 1\1\GINC-J1002\SP\RB3LYP\Gen\C4H5N2O2(1-)\SCG5914\28-Oct-2022\0\\#p b3
 lyp/chkbas pop=nbo geom=allcheck guess=tcheck em=gd3bj\\dsgdb9nsd_0044
 78-6\\-1,1\C,0,-0.0840067069,1.5332032048,0.1083413206\C,0,0.009030312
 5,0.0458863675,0.0308619169\C,0,0.0774606516,-0.7798693848,-1.06538100
 8\O,0,0.0781105885,-0.4420266654,-2.4167496271\N,0,0.1525712436,-2.093
 7457518,-0.6881770968\C,0,0.1243518175,-1.9832435785,0.6562506512\O,0,
 0.1820752873,-3.1218397591,1.4458541065\N,0,0.0413371318,-0.7712341792
 ,1.1707381333\H,0,0.7639518152,1.9734898523,0.6531279728\H,0,-0.094762
 5488,1.9644753011,-0.8976321406\H,0,-0.9963687288,1.8648033101,0.62536
 17387\H,0,0.1376947906,-1.2909914289,-2.8678260488\H,0,0.2365735753,-3
 .8409452977,0.807521321\\Version=ES64L-G16RevC.01\State=1-A\HF=-415.56
 59922\RMSD=1.800e-09\Dipole=0.0208004,-0.0698739,-1.0381742\Quadrupole
 =3.9343225,1.192417,-5.1267395,0.1158634,-0.0650893,3.3912819\PG=C01 [
 X(C4H5N2O2)]\\@
 The archive entry for this job was punched.


 WHEN YOU'VE SEEN ONE NUCLEAR WAR YOU'VE SEEN THEM ALL.
 Job cpu time:       0 days  0 hours  1 minutes 27.4 seconds.
 Elapsed time:       0 days  0 hours  0 minutes  2.9 seconds.
 File lengths (MBytes):  RWF=     28 Int=      0 D2E=      0 Chk=      4 Scr=      1
 Normal termination of Gaussian 16 at Fri Oct 28 23:37:21 2022.
