 Entering Gaussian System, Link 0=/public3/home/scg5914/software-scg5914/g16/g16
 Input=dsgdb9nsd_000955-3.gjf
 Output=dsgdb9nsd_000955-3.log
 Initial command:
 /public3/home/scg5914/software-scg5914/g16/l1.exe "/public3/home/scg5914/software-scg5914/test/tmp/dsgdb9nsd_000955-3/Gau-102199.inp" -scrdir="/public3/home/scg5914/software-scg5914/test/tmp/dsgdb9nsd_000955-3/"
 Entering Link 1 = /public3/home/scg5914/software-scg5914/g16/l1.exe PID=    102200.
  
 Copyright (c) 1988-2019, Gaussian, Inc.  All Rights Reserved.
  
 This is part of the Gaussian(R) 16 program.  It is based on
 the Gaussian(R) 09 system (copyright 2009, Gaussian, Inc.),
 the Gaussian(R) 03 system (copyright 2003, Gaussian, Inc.),
 the Gaussian(R) 98 system (copyright 1998, Gaussian, Inc.),
 the Gaussian(R) 94 system (copyright 1995, Gaussian, Inc.),
 the Gaussian 92(TM) system (copyright 1992, Gaussian, Inc.),
 the Gaussian 90(TM) system (copyright 1990, Gaussian, Inc.),
 the Gaussian 88(TM) system (copyright 1988, Gaussian, Inc.),
 the Gaussian 86(TM) system (copyright 1986, Carnegie Mellon
 University), and the Gaussian 82(TM) system (copyright 1983,
 Carnegie Mellon University). Gaussian is a federally registered
 trademark of Gaussian, Inc.
  
 This software contains proprietary and confidential information,
 including trade secrets, belonging to Gaussian, Inc.
  
 This software is provided under written license and may be
 used, copied, transmitted, or stored only in accord with that
 written license.
  
 The following legend is applicable only to US Government
 contracts under FAR:
  
                    RESTRICTED RIGHTS LEGEND
  
 Use, reproduction and disclosure by the US Government is
 subject to restrictions as set forth in subparagraphs (a)
 and (c) of the Commercial Computer Software - Restricted
 Rights clause in FAR 52.227-19.
  
 Gaussian, Inc.
 340 Quinnipiac St., Bldg. 40, Wallingford CT 06492
  
  
 ---------------------------------------------------------------
 Warning -- This program may not be used in any manner that
 competes with the business of Gaussian, Inc. or will provide
 assistance to any competitor of Gaussian, Inc.  The licensee
 of this program is prohibited from giving any competitor of
 Gaussian, Inc. access to this program.  By using this program,
 the user acknowledges that Gaussian, Inc. is engaged in the
 business of creating and licensing software in the field of
 computational chemistry and represents and warrants to the
 licensee that it is not a competitor of Gaussian, Inc. and that
 it will not use this program in any manner prohibited above.
 ---------------------------------------------------------------
  

 Cite this work as:
 Gaussian 16, Revision C.01,
 M. J. Frisch, G. W. Trucks, H. B. Schlegel, G. E. Scuseria, 
 M. A. Robb, J. R. Cheeseman, G. Scalmani, V. Barone, 
 G. A. Petersson, H. Nakatsuji, X. Li, M. Caricato, A. V. Marenich, 
 J. Bloino, B. G. Janesko, R. Gomperts, B. Mennucci, H. P. Hratchian, 
 J. V. Ortiz, A. F. Izmaylov, J. L. Sonnenberg, D. Williams-Young, 
 F. Ding, F. Lipparini, F. Egidi, J. Goings, B. Peng, A. Petrone, 
 T. Henderson, D. Ranasinghe, V. G. Zakrzewski, J. Gao, N. Rega, 
 G. Zheng, W. Liang, M. Hada, M. Ehara, K. Toyota, R. Fukuda, 
 J. Hasegawa, M. Ishida, T. Nakajima, Y. Honda, O. Kitao, H. Nakai, 
 T. Vreven, K. Throssell, J. A. Montgomery, Jr., J. E. Peralta, 
 F. Ogliaro, M. J. Bearpark, J. J. Heyd, E. N. Brothers, K. N. Kudin, 
 V. N. Staroverov, T. A. Keith, R. Kobayashi, J. Normand, 
 K. Raghavachari, A. P. Rendell, J. C. Burant, S. S. Iyengar, 
 J. Tomasi, M. Cossi, J. M. Millam, M. Klene, C. Adamo, R. Cammi, 
 J. W. Ochterski, R. L. Martin, K. Morokuma, O. Farkas, 
 J. B. Foresman, and D. J. Fox, Gaussian, Inc., Wallingford CT, 2019.
 
 ******************************************
 Gaussian 16:  ES64L-G16RevC.01  3-Jul-2019
                25-Aug-2022 
 ******************************************
 %chk=dsgdb9nsd_000955-3.chk
 %mem=60GB
 %nprocshared=32
 Will use up to   32 processors via shared memory.
 ------------------------------------
 #p opt freq b3lyp/6-311+g** em=gd3bj
 ------------------------------------
 1/18=20,19=15,26=3,38=1/1,3;
 2/9=110,12=2,17=6,18=5,40=1/2;
 3/5=4,6=6,7=111,11=2,25=1,30=1,71=1,74=-5,124=41/1,2,3;
 4//1;
 5/5=2,38=5/2;
 6/7=2,8=2,9=2,10=2,28=1/1;
 7//1,2,3,16;
 1/18=20,19=15,26=3/3(2);
 2/9=110/2;
 99//99;
 2/9=110/2;
 3/5=4,6=6,7=111,11=2,25=1,30=1,71=1,74=-5,124=41/1,2,3;
 4/5=5,16=3,69=1/1;
 5/5=2,38=5/2;
 7//1,2,3,16;
 1/18=20,19=15,26=3/3(-5);
 2/9=110/2;
 6/7=2,8=2,9=2,10=2,19=2,28=1/1;
 99/9=1/99;
 Leave Link    1 at Thu Aug 25 08:23:09 2022, MaxMem=  8053063680 cpu:               0.9 elap:               0.0
 (Enter /public3/home/scg5914/software-scg5914/g16/l101.exe)
 ------------------
 dsgdb9nsd_000955-3
 ------------------
 Symbolic Z-matrix:
 Charge =  0 Multiplicity = 2
 O                     0.10157   1.3098    0.1182 
 C                     0.0695   -0.02787   0.06108 
 N                     0.0867   -0.58049  -1.15639 
 C                     0.05389  -1.91317  -1.18682 
 C                     0.0049   -2.68416  -0.03227 
 C                    -0.00823  -1.98289   1.1699 
 N                     0.0236   -0.65275   1.23629 
 H                     0.13275   1.61794  -0.79774 
 H                     0.06759  -2.37158  -2.17309 
 H                    -0.04583  -2.50637   2.12289 
 
 ITRead=  0  0  0  0  0  0  0  0  0  0
 MicOpt= -1 -1 -1 -1 -1 -1 -1 -1 -1 -1
 NAtoms=     10 NQM=       10 NQMF=       0 NMMI=      0 NMMIF=      0
                NMic=       0 NMicF=      0.
                    Isotopes and Nuclear Properties:
 (Nuclear quadrupole moments (NQMom) in fm**2, nuclear magnetic moments (NMagM)
  in nuclear magnetons)

  Atom         1           2           3           4           5           6           7           8           9          10
 IAtWgt=          16          12          14          12          12          12          14           1           1           1
 AtmWgt=  15.9949146  12.0000000  14.0030740  12.0000000  12.0000000  12.0000000  14.0030740   1.0078250   1.0078250   1.0078250
 NucSpn=           0           0           2           0           0           0           2           1           1           1
 AtZEff=  -0.0000000  -0.0000000  -0.0000000  -0.0000000  -0.0000000  -0.0000000  -0.0000000  -0.0000000  -0.0000000  -0.0000000
 NQMom=    0.0000000   0.0000000   2.0440000   0.0000000   0.0000000   0.0000000   2.0440000   0.0000000   0.0000000   0.0000000
 NMagM=    0.0000000   0.0000000   0.4037610   0.0000000   0.0000000   0.0000000   0.4037610   2.7928460   2.7928460   2.7928460
 AtZNuc=   8.0000000   6.0000000   7.0000000   6.0000000   6.0000000   6.0000000   7.0000000   1.0000000   1.0000000   1.0000000
 Leave Link  101 at Thu Aug 25 08:23:09 2022, MaxMem=  8053063680 cpu:               4.9 elap:               0.2
 (Enter /public3/home/scg5914/software-scg5914/g16/l103.exe)

 GradGradGradGradGradGradGradGradGradGradGradGradGradGradGradGradGradGrad
 Berny optimization.
 Initialization pass.
                           ----------------------------
                           !    Initial Parameters    !
                           ! (Angstroms and Degrees)  !
 --------------------------                            --------------------------
 ! Name  Definition              Value          Derivative Info.                !
 --------------------------------------------------------------------------------
 ! R1    R(1,2)                  1.3393         estimate D2E/DX2                !
 ! R2    R(1,8)                  0.9669         estimate D2E/DX2                !
 ! R3    R(2,3)                  1.3371         estimate D2E/DX2                !
 ! R4    R(2,7)                  1.3318         estimate D2E/DX2                !
 ! R5    R(3,4)                  1.3334         estimate D2E/DX2                !
 ! R6    R(4,5)                  1.3892         estimate D2E/DX2                !
 ! R7    R(4,9)                  1.0877         estimate D2E/DX2                !
 ! R8    R(5,6)                  1.3918         estimate D2E/DX2                !
 ! R9    R(6,7)                  1.3322         estimate D2E/DX2                !
 ! R10   R(6,10)                 1.088          estimate D2E/DX2                !
 ! A1    A(2,1,8)              106.1816         estimate D2E/DX2                !
 ! A2    A(1,2,3)              116.8281         estimate D2E/DX2                !
 ! A3    A(1,2,7)              115.5833         estimate D2E/DX2                !
 ! A4    A(3,2,7)              127.5886         estimate D2E/DX2                !
 ! A5    A(2,3,4)              115.6906         estimate D2E/DX2                !
 ! A6    A(3,4,5)              122.4516         estimate D2E/DX2                !
 ! A7    A(3,4,9)              116.2058         estimate D2E/DX2                !
 ! A8    A(5,4,9)              121.3426         estimate D2E/DX2                !
 ! A9    A(4,5,6)              116.0117         estimate D2E/DX2                !
 ! A10   A(5,6,7)              123.0858         estimate D2E/DX2                !
 ! A11   A(5,6,10)             120.9627         estimate D2E/DX2                !
 ! A12   A(7,6,10)             115.9515         estimate D2E/DX2                !
 ! A13   A(2,7,6)              115.1717         estimate D2E/DX2                !
 ! D1    D(8,1,2,3)             -0.0058         estimate D2E/DX2                !
 ! D2    D(8,1,2,7)           -179.9933         estimate D2E/DX2                !
 ! D3    D(1,2,3,4)           -179.9909         estimate D2E/DX2                !
 ! D4    D(7,2,3,4)             -0.0051         estimate D2E/DX2                !
 ! D5    D(1,2,7,6)            179.9911         estimate D2E/DX2                !
 ! D6    D(3,2,7,6)              0.0051         estimate D2E/DX2                !
 ! D7    D(2,3,4,5)              0.0011         estimate D2E/DX2                !
 ! D8    D(2,3,4,9)           -179.9976         estimate D2E/DX2                !
 ! D9    D(3,4,5,6)              0.0021         estimate D2E/DX2                !
 ! D10   D(9,4,5,6)           -179.9993         estimate D2E/DX2                !
 ! D11   D(4,5,6,7)             -0.0021         estimate D2E/DX2                !
 ! D12   D(4,5,6,10)           179.9995         estimate D2E/DX2                !
 ! D13   D(5,6,7,2)             -0.0012         estimate D2E/DX2                !
 ! D14   D(10,6,7,2)           179.9973         estimate D2E/DX2                !
 --------------------------------------------------------------------------------
 Trust Radius=3.00D-01 FncErr=1.00D-07 GrdErr=1.00D-06 EigMax=2.50D+02 EigMin=1.00D-04
 Number of steps in this run=     47 maximum allowed number of steps=    100.
 GradGradGradGradGradGradGradGradGradGradGradGradGradGradGradGradGradGrad

 Leave Link  103 at Thu Aug 25 08:23:09 2022, MaxMem=  8053063680 cpu:               0.2 elap:               0.0
 (Enter /public3/home/scg5914/software-scg5914/g16/l202.exe)
                          Input orientation:                          
 ---------------------------------------------------------------------
 Center     Atomic      Atomic             Coordinates (Angstroms)
 Number     Number       Type             X           Y           Z
 ---------------------------------------------------------------------
      1          8           0        0.101569    1.309795    0.118204
      2          6           0        0.069499   -0.027875    0.061082
      3          7           0        0.086703   -0.580485   -1.156386
      4          6           0        0.053886   -1.913173   -1.186815
      5          6           0        0.004902   -2.684159   -0.032269
      6          6           0       -0.008232   -1.982887    1.169905
      7          7           0        0.023599   -0.652748    1.236286
      8          1           0        0.132750    1.617942   -0.797743
      9          1           0        0.067593   -2.371578   -2.173085
     10          1           0       -0.045830   -2.506374    2.122895
 ---------------------------------------------------------------------
                    Distance matrix (angstroms):
                    1          2          3          4          5
     1  O    0.000000
     2  C    1.339273   0.000000
     3  N    2.279904   1.337124   0.000000
     4  C    3.477481   2.260938   1.333439   0.000000
     5  C    3.997957   2.658709   2.386582   1.389171   0.000000
     6  C    3.458307   2.248912   2.717972   2.358569   1.391825
     7  N    2.260035   1.331795   2.394594   2.731485   2.395040
     8  H    0.966896   1.857497   2.227965   3.553360   4.371541
     9  H    4.336321   3.237971   2.059626   1.087682   2.164424
    10  H    4.313196   3.226040   3.805299   3.363928   2.163080
                    6          7          8          9         10
     6  C    0.000000
     7  N    1.332175   0.000000
     8  H    4.105787   3.050446   0.000000
     9  H    3.366365   3.818393   4.220436   0.000000
    10  H    1.087953   2.055925   5.056877   4.299591   0.000000
 Stoichiometry    C4H3N2O(2)
 Framework group  C1[X(C4H3N2O)]
 Deg. of freedom    24
 Full point group                 C1      NOp   1
 Largest Abelian subgroup         C1      NOp   1
 Largest concise Abelian subgroup C1      NOp   1
                         Standard orientation:                         
 ---------------------------------------------------------------------
 Center     Atomic      Atomic             Coordinates (Angstroms)
 Number     Number       Type             X           Y           Z
 ---------------------------------------------------------------------
      1          8           0        2.147397   -0.122885    0.000052
      2          6           0        0.809918   -0.053588   -0.000092
      3          7           0        0.269001    1.169241   -0.000028
      4          6           0       -1.063759    1.211787    0.000017
      5          6           0       -1.846193    0.063922    0.000021
      6          6           0       -1.156426   -1.144961    0.000021
      7          7           0        0.173435   -1.223446   -0.000023
      8          1           0        2.464541    0.790519    0.000088
      9          1           0       -1.512693    2.202499    0.000028
     10          1           0       -1.689331   -2.093462    0.000032
 ---------------------------------------------------------------------
 Rotational constants (GHZ):           6.0413770           3.0639106           2.0329110
 Leave Link  202 at Thu Aug 25 08:23:09 2022, MaxMem=  8053063680 cpu:               0.4 elap:               0.0
 (Enter /public3/home/scg5914/software-scg5914/g16/l301.exe)
 Standard basis: 6-311+G(d,p) (5D, 7F)
 Ernie: Thresh=  0.10000D-02 Tol=  0.10000D-05 Strict=F.
 There are   179 symmetry adapted cartesian basis functions of A   symmetry.
 There are   172 symmetry adapted basis functions of A   symmetry.
   172 basis functions,   276 primitive gaussians,   179 cartesian basis functions
    25 alpha electrons       24 beta electrons
       nuclear repulsion energy       269.8512072728 Hartrees.
 IExCor=  402 DFT=T Ex+Corr=B3LYP ExCW=0 ScaHFX=  0.200000
 ScaDFX=  0.800000  0.720000  1.000000  0.810000 ScalE2=  1.000000  1.000000
 IRadAn=      5 IRanWt=     -1 IRanGd=            0 ICorTp=0 IEmpDi=141
 NAtoms=   10 NActive=   10 NUniq=   10 SFac= 1.00D+00 NAtFMM=   60 NAOKFM=F Big=F
 Integral buffers will be    131072 words long.
 Raffenetti 2 integral format.
 Two-electron integral symmetry is turned on.
 R6Disp:  Grimme-D3(BJ) Dispersion energy=       -0.0160552877 Hartrees.
 Nuclear repulsion after empirical dispersion term =      269.8351519852 Hartrees.
 Leave Link  301 at Thu Aug 25 08:23:09 2022, MaxMem=  8053063680 cpu:               1.0 elap:               0.0
 (Enter /public3/home/scg5914/software-scg5914/g16/l302.exe)
 NPDir=0 NMtPBC=     1 NCelOv=     1 NCel=       1 NClECP=     1 NCelD=      1
         NCelK=      1 NCelE2=     1 NClLst=     1 CellRange=     0.0.
 One-electron integrals computed using PRISM.
 One-electron integral symmetry used in STVInt
 NBasis=   172 RedAO= T EigKep=  2.86D-05  NBF=   172
 NBsUse=   172 1.00D-06 EigRej= -1.00D+00 NBFU=   172
 Precomputing XC quadrature grid using
 IXCGrd= 4 IRadAn=           5 IRanWt=          -1 IRanGd=           0 AccXCQ= 0.00D+00.
 Generated NRdTot=       0 NPtTot=           0 NUsed=           0 NTot=          32
 NSgBfM=   179   179   179   179   179 MxSgAt=    10 MxSgA2=    10.
 Leave Link  302 at Thu Aug 25 08:23:10 2022, MaxMem=  8053063680 cpu:               3.4 elap:               0.1
 (Enter /public3/home/scg5914/software-scg5914/g16/l303.exe)
 DipDrv:  MaxL=1.
 Leave Link  303 at Thu Aug 25 08:23:10 2022, MaxMem=  8053063680 cpu:               1.0 elap:               0.1
 (Enter /public3/home/scg5914/software-scg5914/g16/l401.exe)
 ExpMin= 4.38D-02 ExpMax= 8.59D+03 ExpMxC= 1.30D+03 IAcc=3 IRadAn=         5 AccDes= 0.00D+00
 Harris functional with IExCor=  402 and IRadAn=       5 diagonalized for initial guess.
 HarFok:  IExCor=  402 AccDes= 0.00D+00 IRadAn=         5 IDoV= 1 UseB2=F ITyADJ=14
 ICtDFT=  3500011 ScaDFX=  1.000000  1.000000  1.000000  1.000000
 FoFCou: FMM=F IPFlag=           0 FMFlag=      100000 FMFlg1=           0
         NFxFlg=           0 DoJE=T BraDBF=F KetDBF=T FulRan=T
         wScrn=  0.000000 ICntrl=       500 IOpCl=  0 I1Cent=   200000004 NGrid=           0
         NMat0=    1 NMatS0=      1 NMatT0=    0 NMatD0=    1 NMtDS0=    0 NMtDT0=    0
 Petite list used in FoFCou.
 Harris En= -338.930304823822    
 JPrj=0 DoOrth=F DoCkMO=F.
 Initial guess <Sx>= 0.0000 <Sy>= 0.0000 <Sz>= 0.5000 <S**2>= 0.7500 S= 0.5000
 Leave Link  401 at Thu Aug 25 08:23:10 2022, MaxMem=  8053063680 cpu:               7.7 elap:               0.3
 (Enter /public3/home/scg5914/software-scg5914/g16/l502.exe)
 Keep R1 and R2 ints in memory in canonical form, NReq=253544810.
 FoFCou: FMM=F IPFlag=           0 FMFlag=           0 FMFlg1=           0
         NFxFlg=           0 DoJE=F BraDBF=F KetDBF=F FulRan=T
         wScrn=  0.000000 ICntrl=       600 IOpCl=  0 I1Cent=           0 NGrid=           0
         NMat0=    1 NMatS0=  14878 NMatT0=    0 NMatD0=    1 NMtDS0=    0 NMtDT0=    0
 Symmetry not used in FoFCou.
 Two-electron integral symmetry not used.
 UHF open shell SCF:
 Using DIIS extrapolation, IDIIS=  1040.
 NGot=  8053063680 LenX=  7831622122 LenY=  7831589640
 Requested convergence on RMS density matrix=1.00D-08 within 128 cycles.
 Requested convergence on MAX density matrix=1.00D-06.
 Requested convergence on             energy=1.00D-06.
 No special actions if energy rises.

 Cycle   1  Pass 1  IDiag  1:
 E= -338.856549159354    
 DIIS: error= 3.83D-02 at cycle   1 NSaved=   1.
 NSaved= 1 IEnMin= 1 EnMin= -338.856549159354     IErMin= 1 ErrMin= 3.83D-02
 ErrMax= 3.83D-02  0.00D+00 EMaxC= 1.00D-01 BMatC= 6.81D-01 BMatP= 6.81D-01
 IDIUse=3 WtCom= 6.17D-01 WtEn= 3.83D-01
 Coeff-Com:  0.100D+01
 Coeff-En:   0.100D+01
 Coeff:      0.100D+01
 Gap=     0.237 Goal=   None    Shift=    0.000
 Gap=     0.129 Goal=   None    Shift=    0.000
 GapD=    0.129 DampG=1.000 DampE=0.500 DampFc=0.5000 IDamp=-1.
 Damping current iteration by 5.00D-01
 RMSDP=6.23D-03 MaxDP=2.05D-01              OVMax= 1.57D-01

 Cycle   2  Pass 1  IDiag  1:
 E= -338.904660797039     Delta-E=       -0.048111637685 Rises=F Damp=T
 DIIS: error= 6.72D-03 at cycle   2 NSaved=   2.
 NSaved= 2 IEnMin= 2 EnMin= -338.904660797039     IErMin= 2 ErrMin= 6.72D-03
 ErrMax= 6.72D-03  0.00D+00 EMaxC= 1.00D-01 BMatC= 5.35D-02 BMatP= 6.81D-01
 IDIUse=3 WtCom= 9.33D-01 WtEn= 6.72D-02
 Coeff-Com:  0.910D-01 0.909D+00
 Coeff-En:   0.187D+00 0.813D+00
 Coeff:      0.974D-01 0.903D+00
 Gap=     0.225 Goal=   None    Shift=    0.000
 Gap=     0.139 Goal=   None    Shift=    0.000
 RMSDP=1.15D-03 MaxDP=3.04D-02 DE=-4.81D-02 OVMax= 1.10D-01

 Cycle   3  Pass 1  IDiag  1:
 E= -338.972158594541     Delta-E=       -0.067497797502 Rises=F Damp=F
 DIIS: error= 7.31D-03 at cycle   3 NSaved=   3.
 NSaved= 3 IEnMin= 3 EnMin= -338.972158594541     IErMin= 2 ErrMin= 6.72D-03
 ErrMax= 7.31D-03  0.00D+00 EMaxC= 1.00D-01 BMatC= 2.55D-02 BMatP= 5.35D-02
 IDIUse=3 WtCom= 9.27D-01 WtEn= 7.31D-02
 Coeff-Com: -0.427D-01 0.383D+00 0.660D+00
 Coeff-En:   0.000D+00 0.000D+00 0.100D+01
 Coeff:     -0.395D-01 0.355D+00 0.685D+00
 Gap=     0.214 Goal=   None    Shift=    0.000
 Gap=     0.129 Goal=   None    Shift=    0.000
 RMSDP=7.92D-04 MaxDP=2.91D-02 DE=-6.75D-02 OVMax= 3.33D-02

 Cycle   4  Pass 1  IDiag  1:
 E= -338.975214384379     Delta-E=       -0.003055789838 Rises=F Damp=F
 DIIS: error= 3.97D-03 at cycle   4 NSaved=   4.
 NSaved= 4 IEnMin= 4 EnMin= -338.975214384379     IErMin= 4 ErrMin= 3.97D-03
 ErrMax= 3.97D-03  0.00D+00 EMaxC= 1.00D-01 BMatC= 8.63D-03 BMatP= 2.55D-02
 IDIUse=3 WtCom= 9.60D-01 WtEn= 3.97D-02
 Coeff-Com: -0.313D-01 0.142D+00 0.427D+00 0.462D+00
 Coeff-En:   0.000D+00 0.000D+00 0.295D+00 0.705D+00
 Coeff:     -0.300D-01 0.136D+00 0.422D+00 0.471D+00
 Gap=     0.218 Goal=   None    Shift=    0.000
 Gap=     0.134 Goal=   None    Shift=    0.000
 RMSDP=4.21D-04 MaxDP=1.36D-02 DE=-3.06D-03 OVMax= 2.49D-02

 Cycle   5  Pass 1  IDiag  1:
 E= -338.977065969986     Delta-E=       -0.001851585607 Rises=F Damp=F
 DIIS: error= 1.62D-03 at cycle   5 NSaved=   5.
 NSaved= 5 IEnMin= 5 EnMin= -338.977065969986     IErMin= 5 ErrMin= 1.62D-03
 ErrMax= 1.62D-03  0.00D+00 EMaxC= 1.00D-01 BMatC= 1.19D-03 BMatP= 8.63D-03
 IDIUse=3 WtCom= 9.84D-01 WtEn= 1.62D-02
 Coeff-Com: -0.146D-01 0.355D-01 0.184D+00 0.312D+00 0.483D+00
 Coeff-En:   0.000D+00 0.000D+00 0.000D+00 0.102D+00 0.898D+00
 Coeff:     -0.143D-01 0.349D-01 0.181D+00 0.309D+00 0.490D+00
 Gap=     0.214 Goal=   None    Shift=    0.000
 Gap=     0.133 Goal=   None    Shift=    0.000
 RMSDP=1.30D-04 MaxDP=3.43D-03 DE=-1.85D-03 OVMax= 8.30D-03

 Cycle   6  Pass 1  IDiag  1:
 E= -338.977355765778     Delta-E=       -0.000289795792 Rises=F Damp=F
 DIIS: error= 3.32D-04 at cycle   6 NSaved=   6.
 NSaved= 6 IEnMin= 6 EnMin= -338.977355765778     IErMin= 6 ErrMin= 3.32D-04
 ErrMax= 3.32D-04  0.00D+00 EMaxC= 1.00D-01 BMatC= 6.15D-05 BMatP= 1.19D-03
 IDIUse=3 WtCom= 9.97D-01 WtEn= 3.32D-03
 Coeff-Com: -0.295D-02-0.143D-02 0.282D-01 0.813D-01 0.226D+00 0.668D+00
 Coeff-En:   0.000D+00 0.000D+00 0.000D+00 0.000D+00 0.000D+00 0.100D+01
 Coeff:     -0.294D-02-0.143D-02 0.281D-01 0.810D-01 0.226D+00 0.670D+00
 Gap=     0.215 Goal=   None    Shift=    0.000
 Gap=     0.134 Goal=   None    Shift=    0.000
 RMSDP=4.85D-05 MaxDP=2.68D-03 DE=-2.90D-04 OVMax= 3.06D-03

 Cycle   7  Pass 1  IDiag  1:
 E= -338.977376807621     Delta-E=       -0.000021041843 Rises=F Damp=F
 DIIS: error= 2.64D-04 at cycle   7 NSaved=   7.
 NSaved= 7 IEnMin= 7 EnMin= -338.977376807621     IErMin= 7 ErrMin= 2.64D-04
 ErrMax= 2.64D-04  0.00D+00 EMaxC= 1.00D-01 BMatC= 1.23D-05 BMatP= 6.15D-05
 IDIUse=3 WtCom= 9.97D-01 WtEn= 2.64D-03
 Coeff-Com:  0.521D-03-0.516D-02-0.913D-02 0.149D-02 0.464D-01 0.313D+00
 Coeff-Com:  0.653D+00
 Coeff-En:   0.000D+00 0.000D+00 0.000D+00 0.000D+00 0.000D+00 0.000D+00
 Coeff-En:   0.100D+01
 Coeff:      0.520D-03-0.515D-02-0.911D-02 0.149D-02 0.463D-01 0.312D+00
 Coeff:      0.654D+00
 Gap=     0.215 Goal=   None    Shift=    0.000
 Gap=     0.134 Goal=   None    Shift=    0.000
 RMSDP=1.93D-05 MaxDP=6.86D-04 DE=-2.10D-05 OVMax= 2.17D-03

 Cycle   8  Pass 1  IDiag  1:
 E= -338.977382390527     Delta-E=       -0.000005582907 Rises=F Damp=F
 DIIS: error= 1.98D-04 at cycle   8 NSaved=   8.
 NSaved= 8 IEnMin= 8 EnMin= -338.977382390527     IErMin= 8 ErrMin= 1.98D-04
 ErrMax= 1.98D-04  0.00D+00 EMaxC= 1.00D-01 BMatC= 5.66D-06 BMatP= 1.23D-05
 IDIUse=3 WtCom= 9.98D-01 WtEn= 1.98D-03
 Coeff-Com:  0.174D-02-0.298D-02-0.203D-01-0.395D-01-0.807D-01-0.109D+00
 Coeff-Com:  0.449D+00 0.801D+00
 Coeff-En:   0.000D+00 0.000D+00 0.000D+00 0.000D+00 0.000D+00 0.000D+00
 Coeff-En:   0.000D+00 0.100D+01
 Coeff:      0.173D-02-0.297D-02-0.203D-01-0.394D-01-0.805D-01-0.109D+00
 Coeff:      0.449D+00 0.802D+00
 Gap=     0.215 Goal=   None    Shift=    0.000
 Gap=     0.134 Goal=   None    Shift=    0.000
 RMSDP=2.22D-05 MaxDP=8.29D-04 DE=-5.58D-06 OVMax= 2.07D-03

 Cycle   9  Pass 1  IDiag  1:
 E= -338.977386324615     Delta-E=       -0.000003934088 Rises=F Damp=F
 DIIS: error= 1.09D-04 at cycle   9 NSaved=   9.
 NSaved= 9 IEnMin= 9 EnMin= -338.977386324615     IErMin= 9 ErrMin= 1.09D-04
 ErrMax= 1.09D-04  0.00D+00 EMaxC= 1.00D-01 BMatC= 7.76D-07 BMatP= 5.66D-06
 IDIUse=3 WtCom= 9.99D-01 WtEn= 1.09D-03
 Coeff-Com:  0.469D-03-0.174D-04-0.510D-02-0.135D-01-0.332D-01-0.770D-01
 Coeff-Com:  0.413D-01 0.271D+00 0.816D+00
 Coeff-En:   0.000D+00 0.000D+00 0.000D+00 0.000D+00 0.000D+00 0.000D+00
 Coeff-En:   0.000D+00 0.000D+00 0.100D+01
 Coeff:      0.468D-03-0.174D-04-0.509D-02-0.134D-01-0.332D-01-0.769D-01
 Coeff:      0.412D-01 0.271D+00 0.816D+00
 Gap=     0.215 Goal=   None    Shift=    0.000
 Gap=     0.134 Goal=   None    Shift=    0.000
 RMSDP=8.22D-06 MaxDP=2.78D-04 DE=-3.93D-06 OVMax= 7.73D-04

 Cycle  10  Pass 1  IDiag  1:
 E= -338.977386981501     Delta-E=       -0.000000656886 Rises=F Damp=F
 DIIS: error= 9.00D-05 at cycle  10 NSaved=  10.
 NSaved=10 IEnMin=10 EnMin= -338.977386981501     IErMin=10 ErrMin= 9.00D-05
 ErrMax= 9.00D-05  0.00D+00 EMaxC= 1.00D-01 BMatC= 7.12D-07 BMatP= 7.76D-07
 IDIUse=1 WtCom= 1.00D+00 WtEn= 0.00D+00
 Coeff-Com: -0.335D-03 0.119D-02 0.402D-02 0.465D-02 0.462D-02-0.215D-01
 Coeff-Com: -0.156D+00-0.109D+00 0.659D+00 0.613D+00
 Coeff:     -0.335D-03 0.119D-02 0.402D-02 0.465D-02 0.462D-02-0.215D-01
 Coeff:     -0.156D+00-0.109D+00 0.659D+00 0.613D+00
 Gap=     0.215 Goal=   None    Shift=    0.000
 Gap=     0.134 Goal=   None    Shift=    0.000
 RMSDP=4.67D-06 MaxDP=1.29D-04 DE=-6.57D-07 OVMax= 5.71D-04

 Cycle  11  Pass 1  IDiag  1:
 E= -338.977387378175     Delta-E=       -0.000000396674 Rises=F Damp=F
 DIIS: error= 2.88D-05 at cycle  11 NSaved=  11.
 NSaved=11 IEnMin=11 EnMin= -338.977387378175     IErMin=11 ErrMin= 2.88D-05
 ErrMax= 2.88D-05  0.00D+00 EMaxC= 1.00D-01 BMatC= 6.19D-08 BMatP= 7.12D-07
 IDIUse=1 WtCom= 1.00D+00 WtEn= 0.00D+00
 Coeff-Com: -0.198D-03 0.268D-03 0.253D-02 0.545D-02 0.116D-01 0.169D-01
 Coeff-Com: -0.470D-01-0.115D+00-0.108D+00 0.172D+00 0.106D+01
 Coeff:     -0.198D-03 0.268D-03 0.253D-02 0.545D-02 0.116D-01 0.169D-01
 Coeff:     -0.470D-01-0.115D+00-0.108D+00 0.172D+00 0.106D+01
 Gap=     0.215 Goal=   None    Shift=    0.000
 Gap=     0.134 Goal=   None    Shift=    0.000
 RMSDP=3.15D-06 MaxDP=1.37D-04 DE=-3.97D-07 OVMax= 3.26D-04

 Cycle  12  Pass 1  IDiag  1:
 E= -338.977387453619     Delta-E=       -0.000000075444 Rises=F Damp=F
 DIIS: error= 5.06D-06 at cycle  12 NSaved=  12.
 NSaved=12 IEnMin=12 EnMin= -338.977387453619     IErMin=12 ErrMin= 5.06D-06
 ErrMax= 5.06D-06  0.00D+00 EMaxC= 1.00D-01 BMatC= 6.18D-09 BMatP= 6.19D-08
 IDIUse=1 WtCom= 1.00D+00 WtEn= 0.00D+00
 Coeff-Com:  0.118D-04-0.998D-04 0.137D-04 0.468D-03 0.157D-02 0.372D-02
 Coeff-Com:  0.945D-02-0.258D-02-0.988D-01-0.385D-01 0.180D+00 0.945D+00
 Coeff:      0.118D-04-0.998D-04 0.137D-04 0.468D-03 0.157D-02 0.372D-02
 Coeff:      0.945D-02-0.258D-02-0.988D-01-0.385D-01 0.180D+00 0.945D+00
 Gap=     0.215 Goal=   None    Shift=    0.000
 Gap=     0.134 Goal=   None    Shift=    0.000
 RMSDP=8.03D-07 MaxDP=2.90D-05 DE=-7.54D-08 OVMax= 7.55D-05

 Cycle  13  Pass 1  IDiag  1:
 E= -338.977387457958     Delta-E=       -0.000000004338 Rises=F Damp=F
 DIIS: error= 2.99D-06 at cycle  13 NSaved=  13.
 NSaved=13 IEnMin=13 EnMin= -338.977387457958     IErMin=13 ErrMin= 2.99D-06
 ErrMax= 2.99D-06  0.00D+00 EMaxC= 1.00D-01 BMatC= 4.52D-09 BMatP= 6.18D-09
 IDIUse=1 WtCom= 1.00D+00 WtEn= 0.00D+00
 Coeff-Com:  0.512D-04-0.124D-03-0.546D-03-0.886D-03-0.154D-02-0.130D-02
 Coeff-Com:  0.164D-01 0.231D-01-0.412D-01-0.611D-01-0.106D+00 0.604D+00
 Coeff-Com:  0.568D+00
 Coeff:      0.512D-04-0.124D-03-0.546D-03-0.886D-03-0.154D-02-0.130D-02
 Coeff:      0.164D-01 0.231D-01-0.412D-01-0.611D-01-0.106D+00 0.604D+00
 Coeff:      0.568D+00
 Gap=     0.215 Goal=   None    Shift=    0.000
 Gap=     0.134 Goal=   None    Shift=    0.000
 RMSDP=2.26D-07 MaxDP=6.71D-06 DE=-4.34D-09 OVMax= 2.68D-05

 Cycle  14  Pass 1  IDiag  1:
 E= -338.977387459325     Delta-E=       -0.000000001367 Rises=F Damp=F
 DIIS: error= 6.59D-07 at cycle  14 NSaved=  14.
 NSaved=14 IEnMin=14 EnMin= -338.977387459325     IErMin=14 ErrMin= 6.59D-07
 ErrMax= 6.59D-07  0.00D+00 EMaxC= 1.00D-01 BMatC= 1.33D-10 BMatP= 4.52D-09
 IDIUse=1 WtCom= 1.00D+00 WtEn= 0.00D+00
 Coeff-Com:  0.736D-05-0.108D-04-0.119D-03-0.272D-03-0.571D-03-0.671D-03
 Coeff-Com:  0.245D-02 0.432D-02 0.607D-02-0.781D-02-0.462D-01 0.228D-03
 Coeff-Com:  0.121D+00 0.922D+00
 Coeff:      0.736D-05-0.108D-04-0.119D-03-0.272D-03-0.571D-03-0.671D-03
 Coeff:      0.245D-02 0.432D-02 0.607D-02-0.781D-02-0.462D-01 0.228D-03
 Coeff:      0.121D+00 0.922D+00
 Gap=     0.215 Goal=   None    Shift=    0.000
 Gap=     0.134 Goal=   None    Shift=    0.000
 RMSDP=8.49D-08 MaxDP=4.03D-06 DE=-1.37D-09 OVMax= 5.79D-06

 Cycle  15  Pass 1  IDiag  1:
 E= -338.977387459384     Delta-E=       -0.000000000059 Rises=F Damp=F
 DIIS: error= 1.93D-07 at cycle  15 NSaved=  15.
 NSaved=15 IEnMin=15 EnMin= -338.977387459384     IErMin=15 ErrMin= 1.93D-07
 ErrMax= 1.93D-07  0.00D+00 EMaxC= 1.00D-01 BMatC= 1.92D-11 BMatP= 1.33D-10
 IDIUse=1 WtCom= 1.00D+00 WtEn= 0.00D+00
 Coeff-Com: -0.164D-05 0.576D-05-0.396D-06-0.296D-04-0.812D-04-0.933D-04
 Coeff-Com: -0.373D-03-0.259D-03 0.548D-02 0.179D-02-0.960D-02-0.431D-01
 Coeff-Com:  0.665D-03 0.342D+00 0.704D+00
 Coeff:     -0.164D-05 0.576D-05-0.396D-06-0.296D-04-0.812D-04-0.933D-04
 Coeff:     -0.373D-03-0.259D-03 0.548D-02 0.179D-02-0.960D-02-0.431D-01
 Coeff:      0.665D-03 0.342D+00 0.704D+00
 Gap=     0.215 Goal=   None    Shift=    0.000
 Gap=     0.134 Goal=   None    Shift=    0.000
 RMSDP=1.83D-08 MaxDP=6.74D-07 DE=-5.90D-11 OVMax= 1.68D-06

 Cycle  16  Pass 1  IDiag  1:
 E= -338.977387459389     Delta-E=       -0.000000000005 Rises=F Damp=F
 DIIS: error= 1.23D-07 at cycle  16 NSaved=  16.
 NSaved=16 IEnMin=16 EnMin= -338.977387459389     IErMin=16 ErrMin= 1.23D-07
 ErrMax= 1.23D-07  0.00D+00 EMaxC= 1.00D-01 BMatC= 6.17D-12 BMatP= 1.92D-11
 IDIUse=1 WtCom= 1.00D+00 WtEn= 0.00D+00
 Coeff-Com: -0.186D-05 0.433D-05 0.183D-04 0.296D-04 0.587D-04 0.733D-04
 Coeff-Com: -0.641D-03-0.919D-03 0.171D-02 0.239D-02 0.391D-02-0.218D-01
 Coeff-Com: -0.240D-01-0.343D-02 0.388D+00 0.655D+00
 Coeff:     -0.186D-05 0.433D-05 0.183D-04 0.296D-04 0.587D-04 0.733D-04
 Coeff:     -0.641D-03-0.919D-03 0.171D-02 0.239D-02 0.391D-02-0.218D-01
 Coeff:     -0.240D-01-0.343D-02 0.388D+00 0.655D+00
 Gap=     0.215 Goal=   None    Shift=    0.000
 Gap=     0.134 Goal=   None    Shift=    0.000
 RMSDP=1.96D-08 MaxDP=1.05D-06 DE=-5.23D-12 OVMax= 8.03D-07

 Cycle  17  Pass 1  IDiag  1:
 E= -338.977387459391     Delta-E=       -0.000000000002 Rises=F Damp=F
 DIIS: error= 2.00D-08 at cycle  17 NSaved=  17.
 NSaved=17 IEnMin=17 EnMin= -338.977387459391     IErMin=17 ErrMin= 2.00D-08
 ErrMax= 2.00D-08  0.00D+00 EMaxC= 1.00D-01 BMatC= 1.58D-13 BMatP= 6.17D-12
 IDIUse=1 WtCom= 1.00D+00 WtEn= 0.00D+00
 Coeff-Com: -0.115D-06 0.122D-06 0.365D-05 0.893D-05 0.215D-04 0.226D-04
 Coeff-Com: -0.727D-04-0.110D-03-0.286D-03 0.164D-03 0.145D-02 0.123D-02
 Coeff-Com: -0.310D-02-0.359D-01-0.273D-01 0.101D+00 0.962D+00
 Coeff:     -0.115D-06 0.122D-06 0.365D-05 0.893D-05 0.215D-04 0.226D-04
 Coeff:     -0.727D-04-0.110D-03-0.286D-03 0.164D-03 0.145D-02 0.123D-02
 Coeff:     -0.310D-02-0.359D-01-0.273D-01 0.101D+00 0.962D+00
 Gap=     0.215 Goal=   None    Shift=    0.000
 Gap=     0.134 Goal=   None    Shift=    0.000
 RMSDP=3.01D-09 MaxDP=9.25D-08 DE=-1.82D-12 OVMax= 1.40D-07

 SCF Done:  E(UB3LYP) =  -338.977387459     A.U. after   17 cycles
            NFock= 17  Conv=0.30D-08     -V/T= 2.0037
 <Sx>= 0.0000 <Sy>= 0.0000 <Sz>= 0.5000 <S**2>= 0.7575 S= 0.5038
 <L.S>=  0.00000000000    
 KE= 3.377267511577D+02 PE=-1.331220073003D+03 EE= 3.846807824009D+02
 Annihilation of the first spin contaminant:
 S**2 before annihilation     0.7575,   after     0.7500
 Leave Link  502 at Thu Aug 25 08:23:19 2022, MaxMem=  8053063680 cpu:             198.6 elap:               8.8
 (Enter /public3/home/scg5914/software-scg5914/g16/l601.exe)
 Copying SCF densities to generalized density rwf, IOpCl= 1 IROHF=0.

 **********************************************************************

            Population analysis using the SCF Density.

 **********************************************************************

 Orbital symmetries:
 Alpha Orbitals:
       Occupied  (A) (A) (A) (A) (A) (A) (A) (A) (A) (A) (A) (A)
                 (A) (A) (A) (A) (A) (A) (A) (A) (A) (A) (A) (A)
                 (A)
       Virtual   (A) (A) (A) (A) (A) (A) (A) (A) (A) (A) (A) (A)
                 (A) (A) (A) (A) (A) (A) (A) (A) (A) (A) (A) (A)
                 (A) (A) (A) (A) (A) (A) (A) (A) (A) (A) (A) (A)
                 (A) (A) (A) (A) (A) (A) (A) (A) (A) (A) (A) (A)
                 (A) (A) (A) (A) (A) (A) (A) (A) (A) (A) (A) (A)
                 (A) (A) (A) (A) (A) (A) (A) (A) (A) (A) (A) (A)
                 (A) (A) (A) (A) (A) (A) (A) (A) (A) (A) (A) (A)
                 (A) (A) (A) (A) (A) (A) (A) (A) (A) (A) (A) (A)
                 (A) (A) (A) (A) (A) (A) (A) (A) (A) (A) (A) (A)
                 (A) (A) (A) (A) (A) (A) (A) (A) (A) (A) (A) (A)
                 (A) (A) (A) (A) (A) (A) (A) (A) (A) (A) (A) (A)
                 (A) (A) (A) (A) (A) (A) (A) (A) (A) (A) (A) (A)
                 (A) (A) (A)
 Beta  Orbitals:
       Occupied  (A) (A) (A) (A) (A) (A) (A) (A) (A) (A) (A) (A)
                 (A) (A) (A) (A) (A) (A) (A) (A) (A) (A) (A) (A)
       Virtual   (A) (A) (A) (A) (A) (A) (A) (A) (A) (A) (A) (A)
                 (A) (A) (A) (A) (A) (A) (A) (A) (A) (A) (A) (A)
                 (A) (A) (A) (A) (A) (A) (A) (A) (A) (A) (A) (A)
                 (A) (A) (A) (A) (A) (A) (A) (A) (A) (A) (A) (A)
                 (A) (A) (A) (A) (A) (A) (A) (A) (A) (A) (A) (A)
                 (A) (A) (A) (A) (A) (A) (A) (A) (A) (A) (A) (A)
                 (A) (A) (A) (A) (A) (A) (A) (A) (A) (A) (A) (A)
                 (A) (A) (A) (A) (A) (A) (A) (A) (A) (A) (A) (A)
                 (A) (A) (A) (A) (A) (A) (A) (A) (A) (A) (A) (A)
                 (A) (A) (A) (A) (A) (A) (A) (A) (A) (A) (A) (A)
                 (A) (A) (A) (A) (A) (A) (A) (A) (A) (A) (A) (A)
                 (A) (A) (A) (A) (A) (A) (A) (A) (A) (A) (A) (A)
                 (A) (A) (A) (A)
 The electronic state is 2-A.
 Alpha  occ. eigenvalues --  -19.18013 -14.34659 -14.34207 -10.31765 -10.25200
 Alpha  occ. eigenvalues --  -10.25038 -10.23188  -1.11620  -1.00442  -0.92641
 Alpha  occ. eigenvalues --   -0.80819  -0.69772  -0.67168  -0.59337  -0.55374
 Alpha  occ. eigenvalues --   -0.49506  -0.48118  -0.45048  -0.41502  -0.38821
 Alpha  occ. eigenvalues --   -0.38788  -0.34588  -0.29461  -0.28487  -0.28384
 Alpha virt. eigenvalues --   -0.06853  -0.03589  -0.00167   0.01377   0.02438
 Alpha virt. eigenvalues --    0.04523   0.05153   0.05475   0.06848   0.08447
 Alpha virt. eigenvalues --    0.08826   0.09614   0.10385   0.11416   0.12908
 Alpha virt. eigenvalues --    0.13413   0.14593   0.14899   0.16655   0.17577
 Alpha virt. eigenvalues --    0.18472   0.18654   0.19270   0.20373   0.22929
 Alpha virt. eigenvalues --    0.23292   0.24223   0.24521   0.25683   0.26942
 Alpha virt. eigenvalues --    0.27466   0.28189   0.29132   0.30839   0.31633
 Alpha virt. eigenvalues --    0.32796   0.33201   0.37074   0.37903   0.44458
 Alpha virt. eigenvalues --    0.47791   0.52942   0.53273   0.54645   0.54649
 Alpha virt. eigenvalues --    0.55529   0.57044   0.57979   0.60521   0.61611
 Alpha virt. eigenvalues --    0.62010   0.70383   0.73078   0.76369   0.77257
 Alpha virt. eigenvalues --    0.80270   0.82368   0.83635   0.86297   0.87994
 Alpha virt. eigenvalues --    0.89178   0.89260   0.92254   0.93689   1.00978
 Alpha virt. eigenvalues --    1.01262   1.02475   1.04211   1.05897   1.09991
 Alpha virt. eigenvalues --    1.11739   1.17666   1.22952   1.29865   1.29888
 Alpha virt. eigenvalues --    1.33307   1.34555   1.36453   1.42339   1.49315
 Alpha virt. eigenvalues --    1.53126   1.56502   1.62261   1.63070   1.65083
 Alpha virt. eigenvalues --    1.67389   1.70669   1.76832   1.81000   1.86390
 Alpha virt. eigenvalues --    1.87526   1.89279   1.93628   1.94995   1.97139
 Alpha virt. eigenvalues --    2.06599   2.15358   2.22799   2.24326   2.30589
 Alpha virt. eigenvalues --    2.34583   2.36594   2.40533   2.53122   2.57233
 Alpha virt. eigenvalues --    2.63948   2.66784   2.67674   2.70215   2.70794
 Alpha virt. eigenvalues --    2.71820   2.75482   2.77427   2.80612   2.83215
 Alpha virt. eigenvalues --    2.90156   2.93744   3.06159   3.08395   3.12710
 Alpha virt. eigenvalues --    3.16495   3.19102   3.34901   3.43513   3.54923
 Alpha virt. eigenvalues --    3.62514   3.65562   3.68603   3.81793   3.87272
 Alpha virt. eigenvalues --    3.89280   3.94050   4.13816   4.32282   4.48911
 Alpha virt. eigenvalues --    4.87017   4.95615   5.20348   5.42950   5.73956
 Alpha virt. eigenvalues --   23.65244  23.82559  23.95090  24.04278  35.55830
 Alpha virt. eigenvalues --   35.64015  49.90499
  Beta  occ. eigenvalues --  -19.18019 -14.34505 -14.34038 -10.31811 -10.25200
  Beta  occ. eigenvalues --  -10.25034 -10.21597  -1.11593  -1.00043  -0.92294
  Beta  occ. eigenvalues --   -0.79300  -0.69473  -0.66196  -0.59120  -0.54786
  Beta  occ. eigenvalues --   -0.48739  -0.48114  -0.44578  -0.41331  -0.38539
  Beta  occ. eigenvalues --   -0.36503  -0.34529  -0.27930  -0.27472
  Beta virt. eigenvalues --   -0.14081  -0.06986  -0.02727  -0.00129   0.01576
  Beta virt. eigenvalues --    0.02425   0.04542   0.05250   0.06173   0.06893
  Beta virt. eigenvalues --    0.08549   0.08768   0.09652   0.10828   0.11603
  Beta virt. eigenvalues --    0.12990   0.13449   0.14977   0.15039   0.16799
  Beta virt. eigenvalues --    0.17664   0.18635   0.18669   0.19302   0.21008
  Beta virt. eigenvalues --    0.22961   0.23406   0.24515   0.24637   0.25876
  Beta virt. eigenvalues --    0.27123   0.27557   0.28390   0.29381   0.31085
  Beta virt. eigenvalues --    0.32144   0.32935   0.33297   0.37814   0.38428
  Beta virt. eigenvalues --    0.45980   0.48066   0.53198   0.53535   0.54484
  Beta virt. eigenvalues --    0.54867   0.57017   0.58383   0.58685   0.61408
  Beta virt. eigenvalues --    0.62180   0.63522   0.70619   0.73190   0.77259
  Beta virt. eigenvalues --    0.77523   0.80363   0.82713   0.83783   0.86396
  Beta virt. eigenvalues --    0.88719   0.89415   0.90392   0.92881   0.93962
  Beta virt. eigenvalues --    1.01597   1.02537   1.02834   1.04393   1.05898
  Beta virt. eigenvalues --    1.10095   1.11738   1.17701   1.23211   1.30155
  Beta virt. eigenvalues --    1.31486   1.33454   1.34810   1.38218   1.42339
  Beta virt. eigenvalues --    1.50299   1.53730   1.57005   1.63629   1.63694
  Beta virt. eigenvalues --    1.66850   1.67645   1.71002   1.77045   1.81318
  Beta virt. eigenvalues --    1.86883   1.88341   1.91158   1.93676   1.96166
  Beta virt. eigenvalues --    1.98347   2.06791   2.15826   2.23004   2.25290
  Beta virt. eigenvalues --    2.30825   2.34885   2.37297   2.42370   2.53471
  Beta virt. eigenvalues --    2.57373   2.64239   2.67203   2.70356   2.70583
  Beta virt. eigenvalues --    2.71098   2.72754   2.75931   2.77428   2.80516
  Beta virt. eigenvalues --    2.83770   2.90410   2.94290   3.08356   3.09097
  Beta virt. eigenvalues --    3.12730   3.16429   3.19888   3.35865   3.43668
  Beta virt. eigenvalues --    3.54990   3.63438   3.65749   3.69084   3.81807
  Beta virt. eigenvalues --    3.87485   3.89502   3.94153   4.14534   4.32583
  Beta virt. eigenvalues --    4.49278   4.87285   4.95537   5.20647   5.42963
  Beta virt. eigenvalues --    5.73968  23.66067  23.82623  23.95102  24.05172
  Beta virt. eigenvalues --   35.55996  35.64183  49.90495
          Condensed to atoms (all electrons):
               1          2          3          4          5          6
     1  O    8.046170   0.262214  -0.187733   0.052604  -0.063895   0.086869
     2  C    0.262214   5.376212   0.171712  -0.006156  -0.239332  -0.020579
     3  N   -0.187733   0.171712   6.916224   0.242409   0.150526  -0.130470
     4  C    0.052604  -0.006156   0.242409   5.386148   0.131120   0.121147
     5  C   -0.063895  -0.239332   0.150526   0.131120   5.795028  -0.097041
     6  C    0.086869  -0.020579  -0.130470   0.121147  -0.097041   5.694478
     7  N   -0.183928   0.284516   0.059601  -0.136598   0.257424   0.065564
     8  H    0.214026   0.010182   0.010922   0.001075   0.006488  -0.013531
     9  H    0.000338   0.025222  -0.066012   0.417561  -0.055073   0.001489
    10  H    0.000480   0.016273  -0.003428   0.006906  -0.090387   0.472433
               7          8          9         10
     1  O   -0.183928   0.214026   0.000338   0.000480
     2  C    0.284516   0.010182   0.025222   0.016273
     3  N    0.059601   0.010922  -0.066012  -0.003428
     4  C   -0.136598   0.001075   0.417561   0.006906
     5  C    0.257424   0.006488  -0.055073  -0.090387
     6  C    0.065564  -0.013531   0.001489   0.472433
     7  N    6.847671   0.025111  -0.003419  -0.091756
     8  H    0.025111   0.466486  -0.000185  -0.000014
     9  H   -0.003419  -0.000185   0.527639  -0.000330
    10  H   -0.091756  -0.000014  -0.000330   0.535253
          Atomic-Atomic Spin Densities.
               1          2          3          4          5          6
     1  O   -0.004867   0.005337   0.003556  -0.008003   0.002872  -0.006083
     2  C    0.005337  -0.015306  -0.006472  -0.022595   0.029672  -0.026555
     3  N    0.003556  -0.006472   0.054003   0.048337  -0.066056   0.033158
     4  C   -0.008003  -0.022595   0.048337  -0.087639   0.076305  -0.018253
     5  C    0.002872   0.029672  -0.066056   0.076305   0.804323   0.076863
     6  C   -0.006083  -0.026555   0.033158  -0.018253   0.076863  -0.091994
     7  N    0.004186  -0.004521  -0.007351   0.025971  -0.065108   0.060048
     8  H   -0.000813   0.000479   0.000398   0.000623   0.000021   0.000247
     9  H   -0.000376   0.001896  -0.000774   0.000005   0.005802  -0.006911
    10  H   -0.000306   0.002636   0.000046  -0.006320   0.009103  -0.006448
               7          8          9         10
     1  O    0.004186  -0.000813  -0.000376  -0.000306
     2  C   -0.004521   0.000479   0.001896   0.002636
     3  N   -0.007351   0.000398  -0.000774   0.000046
     4  C    0.025971   0.000623   0.000005  -0.006320
     5  C   -0.065108   0.000021   0.005802   0.009103
     6  C    0.060048   0.000247  -0.006911  -0.006448
     7  N    0.048131  -0.000343   0.000080   0.003455
     8  H   -0.000343   0.000605   0.000054   0.000011
     9  H    0.000080   0.000054   0.010297   0.000041
    10  H    0.003455   0.000011   0.000041   0.006621
 Mulliken charges and spin densities:
               1          2
     1  O   -0.227145  -0.004497
     2  C    0.119735  -0.035429
     3  N   -0.163750   0.058845
     4  C   -0.216214   0.008431
     5  C    0.205142   0.873796
     6  C   -0.180359   0.014073
     7  N   -0.124187   0.064545
     8  H    0.279439   0.001282
     9  H    0.152769   0.010113
    10  H    0.154570   0.008841
 Sum of Mulliken charges =  -0.00000   1.00000
 Mulliken charges and spin densities with hydrogens summed into heavy atoms:
               1          2
     1  O    0.052295  -0.003215
     2  C    0.119735  -0.035429
     3  N   -0.163750   0.058845
     4  C   -0.063445   0.018544
     5  C    0.205142   0.873796
     6  C   -0.025789   0.022914
     7  N   -0.124187   0.064545
 Electronic spatial extent (au):  <R**2>=            569.3659
 Charge=             -0.0000 electrons
 Dipole moment (field-independent basis, Debye):
    X=             -1.2804    Y=              1.5335    Z=              0.0000  Tot=              1.9978
 Quadrupole moment (field-independent basis, Debye-Ang):
   XX=            -37.5970   YY=            -40.1825   ZZ=            -40.7175
   XY=              4.3119   XZ=             -0.0000   YZ=              0.0002
 Traceless Quadrupole moment (field-independent basis, Debye-Ang):
   XX=              1.9020   YY=             -0.6835   ZZ=             -1.2185
   XY=              4.3119   XZ=             -0.0000   YZ=              0.0002
 Octapole moment (field-independent basis, Debye-Ang**2):
  XXX=             20.4400  YYY=              2.3594  ZZZ=              0.0001  XYY=             -6.8547
  XXY=             10.4997  XXZ=              0.0008  XZZ=              5.5084  YZZ=             -0.0627
  YYZ=              0.0007  XYZ=              0.0005
 Hexadecapole moment (field-independent basis, Debye-Ang**3):
 XXXX=           -441.5617 YYYY=           -263.2287 ZZZZ=            -42.5216 XXXY=             33.8054
 XXXZ=              0.0024 YYYX=              3.0959 YYYZ=              0.0002 ZZZX=              0.0007
 ZZZY=              0.0001 XXYY=           -100.5100 XXZZ=            -87.0881 YYZZ=            -54.1689
 XXYZ=              0.0012 YYXZ=              0.0004 ZZXY=              0.7832
 N-N= 2.698351519852D+02 E-N=-1.331220073451D+03  KE= 3.377267511577D+02
                          Isotropic Fermi Contact Couplings
        Atom                 a.u.       MegaHertz       Gauss      10(-4) cm-1
     1  O(17)              0.00842      -5.10585      -1.82189      -1.70313
     2  C(13)             -0.00237      -2.66457      -0.95078      -0.88880
     3  N(14)             -0.00092      -0.29768      -0.10622      -0.09930
     4  C(13)              0.02730      30.69079      10.95124      10.23735
     5  C(13)              0.42770     480.81685     171.56741     160.38324
     6  C(13)              0.02545      28.60715      10.20774       9.54232
     7  N(14)             -0.00330      -1.06558      -0.38023      -0.35544
     8  H(1)               0.00011       0.48770       0.17402       0.16268
     9  H(1)               0.00484      21.65538       7.72718       7.22346
    10  H(1)               0.00414      18.52726       6.61099       6.18003
 --------------------------------------------------------
       Center         ----  Spin Dipole Couplings  ----
                      3XX-RR        3YY-RR        3ZZ-RR
 --------------------------------------------------------
     1   Atom        0.036120      0.012066     -0.048186
     2   Atom        0.030271      0.015956     -0.046227
     3   Atom        0.134395     -0.079854     -0.054541
     4   Atom        0.045032      0.048863     -0.093895
     5   Atom        0.922131     -0.521147     -0.400984
     6   Atom        0.035802      0.057589     -0.093391
     7   Atom        0.120361     -0.059184     -0.061177
     8   Atom        0.004724     -0.002177     -0.002546
     9   Atom       -0.006642      0.018936     -0.012294
    10   Atom       -0.007854      0.020296     -0.012442
 --------------------------------------------------------
                        XY            XZ            YZ
 --------------------------------------------------------
     1   Atom       -0.011695      0.000005     -0.000000
     2   Atom       -0.000006      0.000001     -0.000000
     3   Atom        0.070203      0.000006      0.000001
     4   Atom        0.062258      0.000000      0.000003
     5   Atom       -0.064567     -0.000068      0.000003
     6   Atom       -0.063154      0.000000     -0.000003
     7   Atom       -0.110598      0.000008     -0.000003
     8   Atom       -0.000169      0.000000     -0.000000
     9   Atom        0.009131     -0.000000      0.000000
    10   Atom       -0.006775     -0.000000     -0.000000
 --------------------------------------------------------


 ---------------------------------------------------------------------------------
              Anisotropic Spin Dipole Couplings in Principal Axis System
 ---------------------------------------------------------------------------------

       Atom             a.u.   MegaHertz   Gauss  10(-4) cm-1        Axes

              Baa    -0.0482     3.487     1.244     1.163 -0.0001 -0.0000  1.0000
     1 O(17)  Bbb     0.0073    -0.529    -0.189    -0.177  0.3762  0.9265  0.0000
              Bcc     0.0409    -2.957    -1.055    -0.986  0.9265 -0.3762  0.0001
 
              Baa    -0.0462    -6.203    -2.213    -2.069 -0.0000  0.0000  1.0000
     2 C(13)  Bbb     0.0160     2.141     0.764     0.714  0.0004  1.0000 -0.0000
              Bcc     0.0303     4.062     1.449     1.355  1.0000 -0.0004  0.0000
 
              Baa    -0.1008    -3.888    -1.387    -1.297 -0.2860  0.9582  0.0000
     3 N(14)  Bbb    -0.0545    -2.104    -0.751    -0.702 -0.0000 -0.0000  1.0000
              Bcc     0.1553     5.991     2.138     1.999  0.9582  0.2860  0.0000
 
              Baa    -0.0939   -12.600    -4.496    -4.203  0.0000 -0.0000  1.0000
     4 C(13)  Bbb    -0.0153    -2.058    -0.734    -0.687  0.7179 -0.6962 -0.0000
              Bcc     0.1092    14.658     5.230     4.889  0.6962  0.7179  0.0000
 
              Baa    -0.5240   -70.320   -25.092   -23.456  0.0446  0.9990 -0.0000
     5 C(13)  Bbb    -0.4010   -53.808   -19.200   -17.948  0.0001 -0.0000  1.0000
              Bcc     0.9250   124.128    44.292    41.405  0.9990 -0.0446 -0.0001
 
              Baa    -0.0934   -12.532    -4.472    -4.180  0.0000  0.0000  1.0000
     6 C(13)  Bbb    -0.0174    -2.334    -0.833    -0.778  0.7648  0.6442 -0.0000
              Bcc     0.1108    14.866     5.305     4.959 -0.6442  0.7648 -0.0000
 
              Baa    -0.1119    -4.314    -1.539    -1.439  0.4300  0.9028 -0.0000
     7 N(14)  Bbb    -0.0612    -2.359    -0.842    -0.787 -0.0000  0.0000  1.0000
              Bcc     0.1730     6.674     2.381     2.226  0.9028 -0.4300  0.0000
 
              Baa    -0.0025    -1.359    -0.485    -0.453 -0.0000  0.0002  1.0000
     8 H(1)   Bbb    -0.0022    -1.164    -0.415    -0.388  0.0245  0.9997 -0.0002
              Bcc     0.0047     2.523     0.900     0.841  0.9997 -0.0245  0.0000
 
              Baa    -0.0123    -6.559    -2.341    -2.188  0.0001 -0.0000  1.0000
     9 H(1)   Bbb    -0.0096    -5.105    -1.821    -1.703  0.9523 -0.3051 -0.0001
              Bcc     0.0219    11.664     4.162     3.891  0.3051  0.9523  0.0000
 
              Baa    -0.0124    -6.639    -2.369    -2.214  0.0001  0.0000  1.0000
    10 H(1)   Bbb    -0.0094    -5.015    -1.790    -1.673  0.9749  0.2224 -0.0001
              Bcc     0.0218    11.654     4.158     3.887 -0.2224  0.9749 -0.0000
 

 ---------------------------------------------------------------------------------

 No NMR shielding tensors so no spin-rotation constants.
 Leave Link  601 at Thu Aug 25 08:23:19 2022, MaxMem=  8053063680 cpu:               4.4 elap:               0.2
 (Enter /public3/home/scg5914/software-scg5914/g16/l701.exe)
 ... and contract with generalized density number  0.
 Compute integral first derivatives.
 R6Disp: Adding Grimme-D3(BJ) dispersion energy 1st derivatives to the gradient.
 Leave Link  701 at Thu Aug 25 08:23:19 2022, MaxMem=  8053063680 cpu:               2.9 elap:               0.1
 (Enter /public3/home/scg5914/software-scg5914/g16/l702.exe)
 L702 exits ... SP integral derivatives will be done elsewhere.
 Leave Link  702 at Thu Aug 25 08:23:19 2022, MaxMem=  8053063680 cpu:               0.3 elap:               0.0
 (Enter /public3/home/scg5914/software-scg5914/g16/l703.exe)
 Integral derivatives from FoFJK, PRISM(SPDF).
 Compute integral first derivatives, UseDBF=F ICtDFT=           0.
 Calling FoFJK, ICntrl=      2127 FMM=F ISym2X=0 I1Cent= 0 IOpClX= 1 NMat=1 NMatS=1 NMatT=0.
 FoFJK:  IHMeth= 1 ICntrl=    2127 DoSepK=F KAlg= 0 I1Cent=           0 FoldK=F
 IRaf=         0 NMat=       1 IRICut=       1 DoRegI=T DoRafI=F ISym2E= 0 IDoP0=0 IntGTp=1.
 FoFCou: FMM=F IPFlag=           0 FMFlag=      100000 FMFlg1=         800
         NFxFlg=           0 DoJE=F BraDBF=F KetDBF=F FulRan=T
         wScrn=  0.000000 ICntrl=      2127 IOpCl=  1 I1Cent=           0 NGrid=           0
         NMat0=    1 NMatS0=      1 NMatT0=    0 NMatD0=    1 NMtDS0=    0 NMtDT0=    0
 Symmetry not used in FoFCou.
 Leave Link  703 at Thu Aug 25 08:23:20 2022, MaxMem=  8053063680 cpu:              29.7 elap:               0.9
 (Enter /public3/home/scg5914/software-scg5914/g16/l716.exe)
 Dipole        =-5.03741570D-01 6.03325667D-01 8.82060834D-06
 ***** Axes restored to original set *****
 -------------------------------------------------------------------
 Center     Atomic                   Forces (Hartrees/Bohr)
 Number     Number              X              Y              Z
 -------------------------------------------------------------------
      1        8           0.000090662    0.001483418   -0.001680480
      2        6          -0.000018216    0.001401098    0.000828247
      3        7          -0.000076808    0.002698457    0.006001321
      4        6          -0.000331698   -0.022808871   -0.009332740
      5        6           0.000860802    0.034799976    0.000558898
      6        6          -0.000822509   -0.023379736    0.009292815
      7        7           0.000207576    0.001800043   -0.005973412
      8        1           0.000038984    0.001796195    0.000264808
      9        1           0.000018541    0.001105043    0.000301246
     10        1           0.000032667    0.001104377   -0.000260701
 -------------------------------------------------------------------
 Cartesian Forces:  Max     0.034799976 RMS     0.009217810
 Leave Link  716 at Thu Aug 25 08:23:21 2022, MaxMem=  8053063680 cpu:               0.4 elap:               0.0
 (Enter /public3/home/scg5914/software-scg5914/g16/l103.exe)

 GradGradGradGradGradGradGradGradGradGradGradGradGradGradGradGradGradGrad
 Berny optimization.
 FormGI is forming the generalized inverse of G from B-inverse, IUseBI=4.
 Internal  Forces:  Max     0.020751087 RMS     0.005521067
 Search for a local minimum.
 Step number   1 out of a maximum of   47
 All quantities printed in internal units (Hartrees-Bohrs-Radians)
 RMS Force = .55211D-02 SwitMx=.10000D-02 MixMth= 1
 Mixed Optimization -- RFO/linear search
 Second derivative matrix not updated -- first step.
 ITU=  0
     Eigenvalues ---    0.02268   0.02372   0.02404   0.02495   0.02518
     Eigenvalues ---    0.02544   0.02570   0.16000   0.16000   0.16000
     Eigenvalues ---    0.23162   0.23167   0.25000   0.25000   0.35050
     Eigenvalues ---    0.35082   0.45033   0.46280   0.54016   0.54842
     Eigenvalues ---    0.56034   0.57368   0.58628   0.58865
 RFO step:  Lambda=-4.29268070D-03 EMin= 2.26828294D-02
 Linear search not attempted -- first point.
 Iteration  1 RMS(Cart)=  0.02077823 RMS(Int)=  0.00052333
 Iteration  2 RMS(Cart)=  0.00066571 RMS(Int)=  0.00017695
 Iteration  3 RMS(Cart)=  0.00000009 RMS(Int)=  0.00017695
 ITry= 1 IFail=0 DXMaxC= 8.50D-02 DCOld= 1.00D+10 DXMaxT= 3.00D-01 DXLimC= 3.00D+00 Rises=F
 Variable       Old X    -DE/DX   Delta X   Delta X   Delta X     New X
                                 (Linear)    (Quad)   (Total)
    R1        2.53086   0.00322   0.00000   0.00557   0.00557   2.53643
    R2        1.82717   0.00032   0.00000   0.00059   0.00059   1.82776
    R3        2.52680   0.00224   0.00000   0.00429   0.00406   2.53086
    R4        2.51673   0.00335   0.00000   0.00610   0.00588   2.52261
    R5        2.51984   0.00464   0.00000   0.00780   0.00780   2.52763
    R6        2.62515  -0.00843   0.00000  -0.01818  -0.01797   2.60719
    R7        2.05542  -0.00074   0.00000  -0.00208  -0.00208   2.05334
    R8        2.63017  -0.00814   0.00000  -0.01768  -0.01746   2.61271
    R9        2.51745   0.00430   0.00000   0.00727   0.00727   2.52472
   R10        2.05593  -0.00076   0.00000  -0.00214  -0.00214   2.05379
    A1        1.85322   0.00326   0.00000   0.01987   0.01987   1.87309
    A2        2.03904  -0.00009   0.00000  -0.00218  -0.00198   2.03705
    A3        2.01731   0.00059   0.00000   0.00048   0.00068   2.01799
    A4        2.22684  -0.00050   0.00000   0.00170   0.00130   2.22814
    A5        2.01918   0.00194   0.00000   0.01159   0.01125   2.03043
    A6        2.13718  -0.01199   0.00000  -0.05276  -0.05257   2.08461
    A7        2.02817   0.00510   0.00000   0.02091   0.02081   2.04899
    A8        2.11783   0.00689   0.00000   0.03185   0.03176   2.14958
    A9        2.02479   0.02075   0.00000   0.08105   0.08168   2.10647
   A10        2.14825  -0.01293   0.00000  -0.05665  -0.05643   2.09182
   A11        2.11120   0.00733   0.00000   0.03360   0.03349   2.14469
   A12        2.02374   0.00560   0.00000   0.02305   0.02294   2.04667
   A13        2.01013   0.00273   0.00000   0.01508   0.01478   2.02490
    D1       -0.00010   0.00001   0.00000   0.00021   0.00021   0.00011
    D2       -3.14148  -0.00001   0.00000  -0.00025  -0.00025   3.14146
    D3       -3.14143  -0.00001   0.00000  -0.00033  -0.00033   3.14142
    D4       -0.00009   0.00001   0.00000   0.00020   0.00019   0.00011
    D5        3.14144   0.00001   0.00000   0.00033   0.00033  -3.14142
    D6        0.00009  -0.00001   0.00000  -0.00019  -0.00019  -0.00010
    D7        0.00002  -0.00000   0.00000  -0.00005  -0.00006  -0.00004
    D8       -3.14155  -0.00000   0.00000  -0.00010  -0.00010   3.14153
    D9        0.00004  -0.00000   0.00000  -0.00006  -0.00006  -0.00003
   D10       -3.14158  -0.00000   0.00000  -0.00001  -0.00001  -3.14159
   D11       -0.00004   0.00000   0.00000   0.00006   0.00006   0.00003
   D12        3.14158  -0.00000   0.00000   0.00000   0.00000   3.14159
   D13       -0.00002   0.00000   0.00000   0.00005   0.00005   0.00003
   D14        3.14155   0.00000   0.00000   0.00011   0.00011  -3.14153
         Item               Value     Threshold  Converged?
 Maximum Force            0.020751     0.000450     NO 
 RMS     Force            0.005521     0.000300     NO 
 Maximum Displacement     0.085038     0.001800     NO 
 RMS     Displacement     0.020634     0.001200     NO 
 Predicted change in Energy=-2.184708D-03
 Lowest energy point so far.  Saving SCF results.
 GradGradGradGradGradGradGradGradGradGradGradGradGradGradGradGradGradGrad

 Leave Link  103 at Thu Aug 25 08:23:21 2022, MaxMem=  8053063680 cpu:               0.6 elap:               0.0
 (Enter /public3/home/scg5914/software-scg5914/g16/l202.exe)
                          Input orientation:                          
 ---------------------------------------------------------------------
 Center     Atomic      Atomic             Coordinates (Angstroms)
 Number     Number       Type             X           Y           Z
 ---------------------------------------------------------------------
      1          8           0        0.101703    1.309026    0.114791
      2          6           0        0.069222   -0.031653    0.059309
      3          7           0        0.086621   -0.584355   -1.160476
      4          6           0        0.054223   -1.920720   -1.206907
      5          6           0        0.006020   -2.639159   -0.030050
      6          6           0       -0.008984   -1.992074    1.191669
      7          7           0        0.023382   -0.657234    1.237666
      8          1           0        0.133246    1.634212   -0.795569
      9          1           0        0.067602   -2.387421   -2.188064
     10          1           0       -0.046598   -2.522163    2.139702
 ---------------------------------------------------------------------
                    Distance matrix (angstroms):
                    1          2          3          4          5
     1  O    0.000000
     2  C    1.342219   0.000000
     3  N    2.282854   1.339275   0.000000
     4  C    3.490043   2.274226   1.337564   0.000000
     5  C    3.951999   2.609802   2.346611   1.379663   0.000000
     6  C    3.474073   2.265305   2.742882   2.400470   1.382585
     7  N    2.265648   1.334908   2.400083   2.751961   2.352750
     8  H    0.967210   1.873505   2.248859   3.579523   4.343260
     9  H    4.355229   3.255815   2.075415   1.086581   2.173520
    10  H    4.335927   3.247166   3.829363   3.401719   2.173541
                    6          7          8          9         10
     6  C    0.000000
     7  N    1.336025   0.000000
     8  H    4.137547   3.065427   0.000000
     9  H    3.403640   3.838116   4.256393   0.000000
    10  H    1.086818   2.072806   5.091523   4.331369   0.000000
 Stoichiometry    C4H3N2O(2)
 Framework group  C1[X(C4H3N2O)]
 Deg. of freedom    24
 Full point group                 C1      NOp   1
 RotChk:  IX=2 Diff= 6.14D-03
 Largest Abelian subgroup         C1      NOp   1
 Largest concise Abelian subgroup C1      NOp   1
                         Standard orientation:                         
 ---------------------------------------------------------------------
 Center     Atomic      Atomic             Coordinates (Angstroms)
 Number     Number       Type             X           Y           Z
 ---------------------------------------------------------------------
      1          8           0        2.144750   -0.129361   -0.000057
      2          6           0        0.804544   -0.055869    0.000104
      3          7           0        0.268884    1.171619    0.000029
      4          6           0       -1.067130    1.236006   -0.000017
      5          6           0       -1.802292    0.068526   -0.000029
      6          6           0       -1.172252   -1.162162   -0.000024
      7          7           0        0.162242   -1.226094    0.000027
      8          1           0        2.482821    0.776842   -0.000105
      9          1           0       -1.520130    2.223654   -0.000017
     10          1           0       -1.715801   -2.103293   -0.000026
 ---------------------------------------------------------------------
 Rotational constants (GHZ):           5.9346202           3.0925236           2.0330853
 Leave Link  202 at Thu Aug 25 08:23:21 2022, MaxMem=  8053063680 cpu:               0.1 elap:               0.0
 (Enter /public3/home/scg5914/software-scg5914/g16/l301.exe)
 Standard basis: 6-311+G(d,p) (5D, 7F)
 Ernie: Thresh=  0.10000D-02 Tol=  0.10000D-05 Strict=F.
 There are   179 symmetry adapted cartesian basis functions of A   symmetry.
 There are   172 symmetry adapted basis functions of A   symmetry.
   172 basis functions,   276 primitive gaussians,   179 cartesian basis functions
    25 alpha electrons       24 beta electrons
       nuclear repulsion energy       269.7076092987 Hartrees.
 IExCor=  402 DFT=T Ex+Corr=B3LYP ExCW=0 ScaHFX=  0.200000
 ScaDFX=  0.800000  0.720000  1.000000  0.810000 ScalE2=  1.000000  1.000000
 IRadAn=      5 IRanWt=     -1 IRanGd=            0 ICorTp=0 IEmpDi=141
 NAtoms=   10 NActive=   10 NUniq=   10 SFac= 1.00D+00 NAtFMM=   60 NAOKFM=F Big=F
 Integral buffers will be    131072 words long.
 Raffenetti 2 integral format.
 Two-electron integral symmetry is turned on.
 R6Disp:  Grimme-D3(BJ) Dispersion energy=       -0.0160578896 Hartrees.
 Nuclear repulsion after empirical dispersion term =      269.6915514091 Hartrees.
 Leave Link  301 at Thu Aug 25 08:23:21 2022, MaxMem=  8053063680 cpu:               0.7 elap:               0.0
 (Enter /public3/home/scg5914/software-scg5914/g16/l302.exe)
 NPDir=0 NMtPBC=     1 NCelOv=     1 NCel=       1 NClECP=     1 NCelD=      1
         NCelK=      1 NCelE2=     1 NClLst=     1 CellRange=     0.0.
 One-electron integrals computed using PRISM.
 One-electron integral symmetry used in STVInt
 NBasis=   172 RedAO= T EigKep=  2.87D-05  NBF=   172
 NBsUse=   172 1.00D-06 EigRej= -1.00D+00 NBFU=   172
 Precomputing XC quadrature grid using
 IXCGrd= 4 IRadAn=           5 IRanWt=          -1 IRanGd=           0 AccXCQ= 0.00D+00.
 Generated NRdTot=       0 NPtTot=           0 NUsed=           0 NTot=          32
 NSgBfM=   179   179   179   179   179 MxSgAt=    10 MxSgA2=    10.
 Leave Link  302 at Thu Aug 25 08:23:21 2022, MaxMem=  8053063680 cpu:               3.0 elap:               0.1
 (Enter /public3/home/scg5914/software-scg5914/g16/l303.exe)
 DipDrv:  MaxL=1.
 Leave Link  303 at Thu Aug 25 08:23:21 2022, MaxMem=  8053063680 cpu:               0.4 elap:               0.0
 (Enter /public3/home/scg5914/software-scg5914/g16/l401.exe)
 Initial guess from the checkpoint file:  "dsgdb9nsd_000955-3.chk"
 B after Tr=     0.000000   -0.000000    0.000000
         Rot=    0.999998    0.000000    0.000000    0.001892 Ang=   0.22 deg.
 Guess basis will be translated and rotated to current coordinates.
 JPrj=2 DoOrth=T DoCkMO=T.
 Initial guess <Sx>= 0.0000 <Sy>= 0.0000 <Sz>= 0.5000 <S**2>= 0.7574 S= 0.5037
 Generating alternative initial guess.
 ExpMin= 4.38D-02 ExpMax= 8.59D+03 ExpMxC= 1.30D+03 IAcc=3 IRadAn=         5 AccDes= 0.00D+00
 Harris functional with IExCor=  402 and IRadAn=       5 diagonalized for initial guess.
 HarFok:  IExCor=  402 AccDes= 0.00D+00 IRadAn=         5 IDoV= 1 UseB2=F ITyADJ=14
 ICtDFT=  3500011 ScaDFX=  1.000000  1.000000  1.000000  1.000000
 FoFCou: FMM=F IPFlag=           0 FMFlag=      100000 FMFlg1=           0
         NFxFlg=           0 DoJE=T BraDBF=F KetDBF=T FulRan=T
         wScrn=  0.000000 ICntrl=       500 IOpCl=  0 I1Cent=   200000004 NGrid=           0
         NMat0=    1 NMatS0=      1 NMatT0=    0 NMatD0=    1 NMtDS0=    0 NMtDT0=    0
 Petite list used in FoFCou.
 Harris En= -338.933996427111    
 Leave Link  401 at Thu Aug 25 08:23:21 2022, MaxMem=  8053063680 cpu:               8.9 elap:               0.3
 (Enter /public3/home/scg5914/software-scg5914/g16/l502.exe)
 Keep R1 and R2 ints in memory in canonical form, NReq=253544810.
 FoFCou: FMM=F IPFlag=           0 FMFlag=           0 FMFlg1=           0
         NFxFlg=           0 DoJE=F BraDBF=F KetDBF=F FulRan=T
         wScrn=  0.000000 ICntrl=       600 IOpCl=  0 I1Cent=           0 NGrid=           0
         NMat0=    1 NMatS0=  14878 NMatT0=    0 NMatD0=    1 NMtDS0=    0 NMtDT0=    0
 Symmetry not used in FoFCou.
 Two-electron integral symmetry not used.
 UHF open shell SCF:
 Using DIIS extrapolation, IDIIS=  1040.
 NGot=  8053063680 LenX=  7831622122 LenY=  7831589640
 Requested convergence on RMS density matrix=1.00D-08 within 128 cycles.
 Requested convergence on MAX density matrix=1.00D-06.
 Requested convergence on             energy=1.00D-06.
 No special actions if energy rises.

 Cycle   1  Pass 1  IDiag  1:
 E= -338.978510568277    
 DIIS: error= 1.87D-03 at cycle   1 NSaved=   1.
 NSaved= 1 IEnMin= 1 EnMin= -338.978510568277     IErMin= 1 ErrMin= 1.87D-03
 ErrMax= 1.87D-03  0.00D+00 EMaxC= 1.00D-01 BMatC= 3.62D-03 BMatP= 3.62D-03
 IDIUse=3 WtCom= 9.81D-01 WtEn= 1.87D-02
 Coeff-Com:  0.100D+01
 Coeff-En:   0.100D+01
 Coeff:      0.100D+01
 Gap=     0.476 Goal=   None    Shift=    0.000
 Gap=     0.466 Goal=   None    Shift=    0.000
 GapD=    0.466 DampG=2.000 DampE=1.000 DampFc=2.0000 IDamp=-1.
 RMSDP=6.31D-04 MaxDP=2.29D-02              OVMax= 1.54D-02

 Cycle   2  Pass 1  IDiag  1:
 E= -338.979566916850     Delta-E=       -0.001056348573 Rises=F Damp=F
 DIIS: error= 1.37D-03 at cycle   2 NSaved=   2.
 NSaved= 2 IEnMin= 2 EnMin= -338.979566916850     IErMin= 2 ErrMin= 1.37D-03
 ErrMax= 1.37D-03  0.00D+00 EMaxC= 1.00D-01 BMatC= 3.94D-04 BMatP= 3.62D-03
 IDIUse=3 WtCom= 9.86D-01 WtEn= 1.37D-02
 Coeff-Com:  0.105D+00 0.895D+00
 Coeff-En:   0.000D+00 0.100D+01
 Coeff:      0.103D+00 0.897D+00
 Gap=     0.210 Goal=   None    Shift=    0.000
 Gap=     0.146 Goal=   None    Shift=    0.000
 RMSDP=2.10D-04 MaxDP=7.72D-03 DE=-1.06D-03 OVMax= 9.86D-03

 Cycle   3  Pass 1  IDiag  1:
 E= -338.979384782103     Delta-E=        0.000182134748 Rises=F Damp=F
 DIIS: error= 2.80D-03 at cycle   3 NSaved=   3.
 NSaved= 3 IEnMin= 2 EnMin= -338.979566916850     IErMin= 2 ErrMin= 1.37D-03
 ErrMax= 2.80D-03  0.00D+00 EMaxC= 1.00D-01 BMatC= 1.12D-03 BMatP= 3.94D-04
 IDIUse=3 WtCom= 1.59D-01 WtEn= 8.41D-01
 Coeff-Com: -0.268D-01 0.644D+00 0.383D+00
 Coeff-En:   0.000D+00 0.692D+00 0.308D+00
 Coeff:     -0.426D-02 0.684D+00 0.320D+00
 Gap=     0.210 Goal=   None    Shift=    0.000
 Gap=     0.144 Goal=   None    Shift=    0.000
 RMSDP=1.07D-04 MaxDP=3.83D-03 DE= 1.82D-04 OVMax= 6.05D-03

 Cycle   4  Pass 1  IDiag  1:
 E= -338.979670493280     Delta-E=       -0.000285711178 Rises=F Damp=F
 DIIS: error= 3.05D-04 at cycle   4 NSaved=   4.
 NSaved= 4 IEnMin= 4 EnMin= -338.979670493280     IErMin= 4 ErrMin= 3.05D-04
 ErrMax= 3.05D-04  0.00D+00 EMaxC= 1.00D-01 BMatC= 2.05D-05 BMatP= 3.94D-04
 IDIUse=3 WtCom= 9.97D-01 WtEn= 3.05D-03
 Coeff-Com: -0.119D-01 0.191D+00 0.151D-01 0.805D+00
 Coeff-En:   0.000D+00 0.000D+00 0.000D+00 0.100D+01
 Coeff:     -0.118D-01 0.191D+00 0.151D-01 0.806D+00
 Gap=     0.210 Goal=   None    Shift=    0.000
 Gap=     0.143 Goal=   None    Shift=    0.000
 RMSDP=1.92D-05 MaxDP=7.22D-04 DE=-2.86D-04 OVMax= 1.29D-03

 Cycle   5  Pass 1  IDiag  1:
 E= -338.979675914718     Delta-E=       -0.000005421438 Rises=F Damp=F
 DIIS: error= 5.37D-05 at cycle   5 NSaved=   5.
 NSaved= 5 IEnMin= 5 EnMin= -338.979675914718     IErMin= 5 ErrMin= 5.37D-05
 ErrMax= 5.37D-05  0.00D+00 EMaxC= 1.00D-01 BMatC= 1.64D-06 BMatP= 2.05D-05
 IDIUse=1 WtCom= 1.00D+00 WtEn= 0.00D+00
 Coeff-Com: -0.889D-03-0.274D-01-0.576D-01 0.391D+00 0.694D+00
 Coeff:     -0.889D-03-0.274D-01-0.576D-01 0.391D+00 0.694D+00
 Gap=     0.210 Goal=   None    Shift=    0.000
 Gap=     0.143 Goal=   None    Shift=    0.000
 RMSDP=8.26D-06 MaxDP=3.31D-04 DE=-5.42D-06 OVMax= 5.19D-04

 Cycle   6  Pass 1  IDiag  1:
 E= -338.979676320650     Delta-E=       -0.000000405932 Rises=F Damp=F
 DIIS: error= 3.59D-05 at cycle   6 NSaved=   6.
 NSaved= 6 IEnMin= 6 EnMin= -338.979676320650     IErMin= 6 ErrMin= 3.59D-05
 ErrMax= 3.59D-05  0.00D+00 EMaxC= 1.00D-01 BMatC= 5.21D-07 BMatP= 1.64D-06
 IDIUse=1 WtCom= 1.00D+00 WtEn= 0.00D+00
 Coeff-Com:  0.893D-03-0.407D-01-0.353D-01 0.122D+00 0.421D+00 0.532D+00
 Coeff:      0.893D-03-0.407D-01-0.353D-01 0.122D+00 0.421D+00 0.532D+00
 Gap=     0.210 Goal=   None    Shift=    0.000
 Gap=     0.143 Goal=   None    Shift=    0.000
 RMSDP=2.97D-06 MaxDP=5.76D-05 DE=-4.06D-07 OVMax= 2.23D-04

 Cycle   7  Pass 1  IDiag  1:
 E= -338.979676437279     Delta-E=       -0.000000116628 Rises=F Damp=F
 DIIS: error= 1.75D-05 at cycle   7 NSaved=   7.
 NSaved= 7 IEnMin= 7 EnMin= -338.979676437279     IErMin= 7 ErrMin= 1.75D-05
 ErrMax= 1.75D-05  0.00D+00 EMaxC= 1.00D-01 BMatC= 1.10D-07 BMatP= 5.21D-07
 IDIUse=1 WtCom= 1.00D+00 WtEn= 0.00D+00
 Coeff-Com:  0.803D-03-0.205D-01-0.103D-01-0.112D-01 0.112D+00 0.344D+00
 Coeff-Com:  0.585D+00
 Coeff:      0.803D-03-0.205D-01-0.103D-01-0.112D-01 0.112D+00 0.344D+00
 Coeff:      0.585D+00
 Gap=     0.210 Goal=   None    Shift=    0.000
 Gap=     0.143 Goal=   None    Shift=    0.000
 RMSDP=1.57D-06 MaxDP=4.43D-05 DE=-1.17D-07 OVMax= 9.38D-05

 Cycle   8  Pass 1  IDiag  1:
 E= -338.979676465205     Delta-E=       -0.000000027926 Rises=F Damp=F
 DIIS: error= 5.64D-06 at cycle   8 NSaved=   8.
 NSaved= 8 IEnMin= 8 EnMin= -338.979676465205     IErMin= 8 ErrMin= 5.64D-06
 ErrMax= 5.64D-06  0.00D+00 EMaxC= 1.00D-01 BMatC= 1.81D-08 BMatP= 1.10D-07
 IDIUse=1 WtCom= 1.00D+00 WtEn= 0.00D+00
 Coeff-Com:  0.361D-03-0.606D-02-0.745D-03-0.250D-01 0.533D-02 0.135D+00
 Coeff-Com:  0.360D+00 0.532D+00
 Coeff:      0.361D-03-0.606D-02-0.745D-03-0.250D-01 0.533D-02 0.135D+00
 Coeff:      0.360D+00 0.532D+00
 Gap=     0.210 Goal=   None    Shift=    0.000
 Gap=     0.143 Goal=   None    Shift=    0.000
 RMSDP=6.78D-07 MaxDP=2.53D-05 DE=-2.79D-08 OVMax= 3.77D-05

 Cycle   9  Pass 1  IDiag  1:
 E= -338.979676469711     Delta-E=       -0.000000004507 Rises=F Damp=F
 DIIS: error= 2.12D-06 at cycle   9 NSaved=   9.
 NSaved= 9 IEnMin= 9 EnMin= -338.979676469711     IErMin= 9 ErrMin= 2.12D-06
 ErrMax= 2.12D-06  0.00D+00 EMaxC= 1.00D-01 BMatC= 1.28D-09 BMatP= 1.81D-08
 IDIUse=1 WtCom= 1.00D+00 WtEn= 0.00D+00
 Coeff-Com: -0.297D-04 0.204D-02 0.232D-02-0.958D-02-0.242D-01-0.159D-01
 Coeff-Com:  0.274D-01 0.191D+00 0.827D+00
 Coeff:     -0.297D-04 0.204D-02 0.232D-02-0.958D-02-0.242D-01-0.159D-01
 Coeff:      0.274D-01 0.191D+00 0.827D+00
 Gap=     0.210 Goal=   None    Shift=    0.000
 Gap=     0.143 Goal=   None    Shift=    0.000
 RMSDP=3.28D-07 MaxDP=1.68D-05 DE=-4.51D-09 OVMax= 2.06D-05

 Cycle  10  Pass 1  IDiag  1:
 E= -338.979676470291     Delta-E=       -0.000000000579 Rises=F Damp=F
 DIIS: error= 1.57D-06 at cycle  10 NSaved=  10.
 NSaved=10 IEnMin=10 EnMin= -338.979676470291     IErMin=10 ErrMin= 1.57D-06
 ErrMax= 1.57D-06  0.00D+00 EMaxC= 1.00D-01 BMatC= 5.70D-10 BMatP= 1.28D-09
 IDIUse=1 WtCom= 1.00D+00 WtEn= 0.00D+00
 Coeff-Com: -0.668D-04 0.194D-02 0.130D-02-0.880D-03-0.126D-01-0.285D-01
 Coeff-Com: -0.411D-01 0.185D-01 0.485D+00 0.576D+00
 Coeff:     -0.668D-04 0.194D-02 0.130D-02-0.880D-03-0.126D-01-0.285D-01
 Coeff:     -0.411D-01 0.185D-01 0.485D+00 0.576D+00
 Gap=     0.210 Goal=   None    Shift=    0.000
 Gap=     0.143 Goal=   None    Shift=    0.000
 RMSDP=9.72D-08 MaxDP=2.37D-06 DE=-5.79D-10 OVMax= 1.01D-05

 Cycle  11  Pass 1  IDiag  1:
 E= -338.979676470491     Delta-E=       -0.000000000200 Rises=F Damp=F
 DIIS: error= 6.74D-07 at cycle  11 NSaved=  11.
 NSaved=11 IEnMin=11 EnMin= -338.979676470491     IErMin=11 ErrMin= 6.74D-07
 ErrMax= 6.74D-07  0.00D+00 EMaxC= 1.00D-01 BMatC= 6.62D-11 BMatP= 5.70D-10
 IDIUse=1 WtCom= 1.00D+00 WtEn= 0.00D+00
 Coeff-Com: -0.103D-04-0.134D-03-0.388D-03 0.266D-02 0.426D-02-0.253D-02
 Coeff-Com: -0.163D-01-0.498D-01-0.127D+00 0.171D+00 0.102D+01
 Coeff:     -0.103D-04-0.134D-03-0.388D-03 0.266D-02 0.426D-02-0.253D-02
 Coeff:     -0.163D-01-0.498D-01-0.127D+00 0.171D+00 0.102D+01
 Gap=     0.210 Goal=   None    Shift=    0.000
 Gap=     0.143 Goal=   None    Shift=    0.000
 RMSDP=6.88D-08 MaxDP=1.89D-06 DE=-2.00D-10 OVMax= 8.52D-06

 Cycle  12  Pass 1  IDiag  1:
 E= -338.979676470561     Delta-E=       -0.000000000070 Rises=F Damp=F
 DIIS: error= 2.97D-07 at cycle  12 NSaved=  12.
 NSaved=12 IEnMin=12 EnMin= -338.979676470561     IErMin=12 ErrMin= 2.97D-07
 ErrMax= 2.97D-07  0.00D+00 EMaxC= 1.00D-01 BMatC= 1.01D-11 BMatP= 6.62D-11
 IDIUse=1 WtCom= 1.00D+00 WtEn= 0.00D+00
 Coeff-Com:  0.836D-05-0.278D-03-0.237D-03 0.514D-03 0.220D-02 0.381D-02
 Coeff-Com:  0.425D-02-0.658D-02-0.852D-01-0.824D-01 0.688D-01 0.110D+01
 Coeff:      0.836D-05-0.278D-03-0.237D-03 0.514D-03 0.220D-02 0.381D-02
 Coeff:      0.425D-02-0.658D-02-0.852D-01-0.824D-01 0.688D-01 0.110D+01
 Gap=     0.210 Goal=   None    Shift=    0.000
 Gap=     0.143 Goal=   None    Shift=    0.000
 RMSDP=3.42D-08 MaxDP=9.61D-07 DE=-7.00D-11 OVMax= 4.08D-06

 Cycle  13  Pass 1  IDiag  1:
 E= -338.979676470579     Delta-E=       -0.000000000018 Rises=F Damp=F
 DIIS: error= 1.50D-07 at cycle  13 NSaved=  13.
 NSaved=13 IEnMin=13 EnMin= -338.979676470579     IErMin=13 ErrMin= 1.50D-07
 ErrMax= 1.50D-07  0.00D+00 EMaxC= 1.00D-01 BMatC= 5.42D-12 BMatP= 1.01D-11
 IDIUse=1 WtCom= 1.00D+00 WtEn= 0.00D+00
 Coeff-Com:  0.720D-05-0.136D-03-0.347D-04-0.460D-03 0.143D-03 0.284D-02
 Coeff-Com:  0.674D-02 0.999D-02-0.126D-01-0.841D-01-0.213D+00 0.565D+00
 Coeff-Com:  0.726D+00
 Coeff:      0.720D-05-0.136D-03-0.347D-04-0.460D-03 0.143D-03 0.284D-02
 Coeff:      0.674D-02 0.999D-02-0.126D-01-0.841D-01-0.213D+00 0.565D+00
 Coeff:      0.726D+00
 Gap=     0.210 Goal=   None    Shift=    0.000
 Gap=     0.143 Goal=   None    Shift=    0.000
 RMSDP=1.80D-08 MaxDP=5.96D-07 DE=-1.82D-11 OVMax= 1.86D-06

 Cycle  14  Pass 1  IDiag  1:
 E= -338.979676470582     Delta-E=       -0.000000000003 Rises=F Damp=F
 DIIS: error= 7.80D-08 at cycle  14 NSaved=  14.
 NSaved=14 IEnMin=14 EnMin= -338.979676470582     IErMin=14 ErrMin= 7.80D-08
 ErrMax= 7.80D-08  0.00D+00 EMaxC= 1.00D-01 BMatC= 1.23D-12 BMatP= 5.42D-12
 IDIUse=1 WtCom= 1.00D+00 WtEn= 0.00D+00
 Coeff-Com:  0.114D-06 0.575D-04 0.868D-04-0.421D-03-0.736D-03-0.133D-03
 Coeff-Com:  0.143D-02 0.719D-02 0.267D-01-0.775D-02-0.126D+00-0.185D+00
 Coeff-Com:  0.343D+00 0.942D+00
 Coeff:      0.114D-06 0.575D-04 0.868D-04-0.421D-03-0.736D-03-0.133D-03
 Coeff:      0.143D-02 0.719D-02 0.267D-01-0.775D-02-0.126D+00-0.185D+00
 Coeff:      0.343D+00 0.942D+00
 Gap=     0.210 Goal=   None    Shift=    0.000
 Gap=     0.143 Goal=   None    Shift=    0.000
 RMSDP=1.01D-08 MaxDP=2.89D-07 DE=-3.41D-12 OVMax= 1.30D-06

 Cycle  15  Pass 1  IDiag  1:
 E= -338.979676470584     Delta-E=       -0.000000000001 Rises=F Damp=F
 DIIS: error= 2.23D-08 at cycle  15 NSaved=  15.
 NSaved=15 IEnMin=15 EnMin= -338.979676470584     IErMin=15 ErrMin= 2.23D-08
 ErrMax= 2.23D-08  0.00D+00 EMaxC= 1.00D-01 BMatC= 5.32D-14 BMatP= 1.23D-12
 IDIUse=1 WtCom= 1.00D+00 WtEn= 0.00D+00
 Coeff-Com: -0.647D-06 0.207D-04 0.182D-04-0.297D-04-0.130D-03-0.241D-03
 Coeff-Com: -0.498D-03 0.329D-04 0.617D-02 0.867D-02 0.349D-02-0.106D+00
 Coeff-Com: -0.101D-01 0.142D+00 0.956D+00
 Coeff:     -0.647D-06 0.207D-04 0.182D-04-0.297D-04-0.130D-03-0.241D-03
 Coeff:     -0.498D-03 0.329D-04 0.617D-02 0.867D-02 0.349D-02-0.106D+00
 Coeff:     -0.101D-01 0.142D+00 0.956D+00
 Gap=     0.210 Goal=   None    Shift=    0.000
 Gap=     0.143 Goal=   None    Shift=    0.000
 RMSDP=2.77D-09 MaxDP=8.21D-08 DE=-1.36D-12 OVMax= 3.13D-07

 SCF Done:  E(UB3LYP) =  -338.979676471     A.U. after   15 cycles
            NFock= 15  Conv=0.28D-08     -V/T= 2.0038
 <Sx>= 0.0000 <Sy>= 0.0000 <Sz>= 0.5000 <S**2>= 0.7572 S= 0.5036
 <L.S>=  0.00000000000    
 KE= 3.377093680938D+02 PE=-1.330956273481D+03 EE= 3.845756775075D+02
 Annihilation of the first spin contaminant:
 S**2 before annihilation     0.7572,   after     0.7500
 Leave Link  502 at Thu Aug 25 08:23:29 2022, MaxMem=  8053063680 cpu:             167.6 elap:               7.4
 (Enter /public3/home/scg5914/software-scg5914/g16/l701.exe)
 ... and contract with generalized density number  0.
 Compute integral first derivatives.
 R6Disp: Adding Grimme-D3(BJ) dispersion energy 1st derivatives to the gradient.
 Leave Link  701 at Thu Aug 25 08:23:29 2022, MaxMem=  8053063680 cpu:               2.7 elap:               0.1
 (Enter /public3/home/scg5914/software-scg5914/g16/l702.exe)
 L702 exits ... SP integral derivatives will be done elsewhere.
 Leave Link  702 at Thu Aug 25 08:23:29 2022, MaxMem=  8053063680 cpu:               0.3 elap:               0.0
 (Enter /public3/home/scg5914/software-scg5914/g16/l703.exe)
 Integral derivatives from FoFJK, PRISM(SPDF).
 Compute integral first derivatives, UseDBF=F ICtDFT=           0.
 Calling FoFJK, ICntrl=      2127 FMM=F ISym2X=0 I1Cent= 0 IOpClX= 1 NMat=1 NMatS=1 NMatT=0.
 FoFJK:  IHMeth= 1 ICntrl=    2127 DoSepK=F KAlg= 0 I1Cent=           0 FoldK=F
 IRaf=         0 NMat=       1 IRICut=       1 DoRegI=T DoRafI=F ISym2E= 0 IDoP0=0 IntGTp=1.
 FoFCou: FMM=F IPFlag=           0 FMFlag=      100000 FMFlg1=         800
         NFxFlg=           0 DoJE=F BraDBF=F KetDBF=F FulRan=T
         wScrn=  0.000000 ICntrl=      2127 IOpCl=  1 I1Cent=           0 NGrid=           0
         NMat0=    1 NMatS0=      1 NMatT0=    0 NMatD0=    1 NMtDS0=    0 NMtDT0=    0
 Symmetry not used in FoFCou.
 Leave Link  703 at Thu Aug 25 08:23:30 2022, MaxMem=  8053063680 cpu:              37.8 elap:               1.2
 (Enter /public3/home/scg5914/software-scg5914/g16/l716.exe)
 Dipole        =-5.18221015D-01 6.03188889D-01-6.52082893D-06
 ***** Axes restored to original set *****
 -------------------------------------------------------------------
 Center     Atomic                   Forces (Hartrees/Bohr)
 Number     Number              X              Y              Z
 -------------------------------------------------------------------
      1        8          -0.000008810    0.000624920    0.000520407
      2        6           0.000006697   -0.001900526   -0.000670470
      3        7           0.000057247    0.004341306    0.001613197
[...]
  23. LP (   1) N   3                / 43. RY*(   1) C   2                    2.22    1.51    0.075
  23. LP (   1) N   3                / 44. RY*(   2) C   2                    0.31    1.90    0.032
  23. LP (   1) N   3                / 45. RY*(   3) C   2                    0.43    1.80    0.036
  23. LP (   1) N   3                / 51. RY*(   9) C   2                    0.27    1.49    0.026
  23. LP (   1) N   3                / 61. RY*(   2) N   3                    0.25    1.53    0.026
  23. LP (   1) N   3                / 77. RY*(   1) C   4                    1.76    1.32    0.063
  23. LP (   1) N   3                /160. BD*(   1) O   1 - C   2            2.31    0.74    0.053
  23. LP (   1) N   3                /161. BD*(   1) O   1 - H   8            0.26    0.77    0.018
  23. LP (   1) N   3                /164. BD*(   1) C   2 - N   7            5.50    0.89    0.090
  23. LP (   1) N   3                /166. BD*(   1) C   4 - C   5            4.03    0.96    0.080
  23. LP (   1) N   3                /168. BD*(   1) C   4 - H   9            1.65    0.78    0.046
  24. LP*(   1) C   5                / 95. RY*(   2) C   5                    0.49    1.06    0.105
  24. LP*(   1) C   5                /165. BD*(   1) N   3 - C   4            0.73    0.57    0.092
  24. LP*(   1) C   5                /166. BD*(   1) C   4 - C   5            0.83    0.63    0.099
  24. LP*(   1) C   5                /168. BD*(   1) C   4 - H   9            0.60    0.45    0.071
  24. LP*(   1) C   5                /169. BD*(   1) C   5 - C   6            0.91    0.63    0.103
  24. LP*(   1) C   5                /170. BD*(   1) C   6 - N   7            0.70    0.57    0.091
  24. LP*(   1) C   5                /172. BD*(   1) C   6 - H  10            0.59    0.46    0.071
  25. LP (   1) N   7                / 24. LP*(   1) C   5                    0.93    0.31    0.022
  25. LP (   1) N   7                / 43. RY*(   1) C   2                    2.01    1.50    0.071
  25. LP (   1) N   7                / 44. RY*(   2) C   2                    0.69    1.89    0.047
  25. LP (   1) N   7                / 52. RY*(  10) C   2                    0.30    2.43    0.035
  25. LP (   1) N   7                /111. RY*(   1) C   6                    1.73    1.30    0.062
  25. LP (   1) N   7                /160. BD*(   1) O   1 - C   2            2.07    0.73    0.050
  25. LP (   1) N   7                /162. BD*(   1) C   2 - N   3            5.53    0.87    0.089
  25. LP (   1) N   7                /169. BD*(   1) C   5 - C   6            4.37    0.94    0.083
  25. LP (   1) N   7                /172. BD*(   1) C   6 - H  10            1.80    0.77    0.048
 163. BD*(   2) C   2 - N   3        / 27. RY*(   2) O   1                    0.37    0.62    0.042
 163. BD*(   2) C   2 - N   3        / 46. RY*(   4) C   2                    0.48    1.53    0.073
 163. BD*(   2) C   2 - N   3        / 48. RY*(   6) C   2                    0.31    1.63    0.061
 163. BD*(   2) C   2 - N   3        / 50. RY*(   8) C   2                    0.41    0.53    0.040
 163. BD*(   2) C   2 - N   3        / 66. RY*(   7) N   3                    0.57    1.66    0.084
 163. BD*(   2) C   2 - N   3        /167. BD*(   2) C   4 - C   5           22.86    0.05    0.073
 167. BD*(   2) C   4 - C   5        / 82. RY*(   6) C   4                    1.07    0.73    0.097
 167. BD*(   2) C   4 - C   5        / 97. RY*(   4) C   5                    1.04    0.49    0.079
 171. BD*(   2) C   6 - N   7        /113. RY*(   3) C   6                    0.67    1.59    0.092
 171. BD*(   2) C   6 - N   7        /116. RY*(   6) C   6                    0.72    0.81    0.068
 171. BD*(   2) C   6 - N   7        /130. RY*(   3) N   7                    1.16    0.70    0.080
 171. BD*(   2) C   6 - N   7        /167. BD*(   2) C   4 - C   5           36.14    0.05    0.089


 Natural Bond Orbitals (Summary):

                                                            Principal Delocalizations
           NBO                        Occupancy    Energy   (geminal,vicinal,remote)
 ====================================================================================
 Molecular unit  1  (C4H3N2O)
     1. BD (   1) O   1 - C   2          0.99553    -0.95695  170(v),165(v),148(v)
     2. BD (   1) O   1 - H   8          0.99259    -0.75984  164(v),45(v),43(v),162(v)
                                                    44(v)
     3. BD (   1) C   2 - N   3          0.99436    -0.87215  78(v),168(v),164(g),165(g)
     4. BD (   2) C   2 - N   3          0.85159    -0.34146  167(v),171(v),79(v),27(v)
                                                    82(v),63(g),163(g)
     5. BD (   1) C   2 - N   7          0.99309    -0.86985  112(v),172(v),162(g),161(v)
                                                    170(g)
     6. BD (   1) N   3 - C   4          0.97958    -0.84743  24(v),160(v),166(g),43(v)
                                                    47(v),162(g),44(v),94(v)
     7. BD (   1) C   4 - C   5          0.99505    -0.75772  172(v),111(v),168(g),114(v)
                                                    165(g),61(v),169(g),60(v)
     8. BD (   2) C   4 - C   5          0.80153    -0.28310  171(v),163(v),167(g),116(v)
                                                    63(v)
     9. BD (   1) C   4 - H   9          0.98861    -0.56209  162(v),169(v),60(v),24(v)
                                                    95(v)
    10. BD (   1) C   5 - C   6          0.99516    -0.75508  168(v),77(v),172(g),129(v)
                                                    80(v),166(g),170(g),128(v)
    11. BD (   1) C   6 - N   7          0.97827    -0.84058  24(v),160(v),43(v),169(g)
                                                    44(v),164(g),47(v),94(v)
    12. BD (   2) C   6 - N   7          0.86822    -0.33067  163(v),167(v),48(v),97(v)
                                                    50(v)
    13. BD (   1) C   6 - H  10          0.98906    -0.55930  164(v),166(v),128(v),24(v)
                                                    95(v)
    14. CR (   1) O   1                  0.99987   -18.95803  45(v),44(v),148(v)
    15. CR (   1) C   2                  0.99960   -10.19742  165(v),170(v),61(v),129(v)
    16. CR (   1) N   3                  0.99967   -14.15802  43(v),77(v),164(v),166(v)
                                                    78(v)
    17. CR (   1) C   4                  0.99956   -10.11729  24(v),94(v),162(v),169(v)
    18. CR (   1) C   5                  0.99884   -10.08821  24(g),78(v),112(v),168(v)
                                                    172(v)
    19. CR (   1) C   6                  0.99955   -10.11652  24(v),94(v),164(v),166(v)
                                                    129(v)
    20. CR (   1) N   7                  0.99967   -14.15245  43(v),111(v),162(v),169(v)
                                                    49(v)
    21. LP (   1) O   1                  0.98827    -0.63277  162(v),45(v),43(v),44(v)
                                                    146(v),164(v),55(v),47(v)
                                                    147(v)
    22. LP (   2) O   1                  0.92327    -0.34509  163(v),46(v),145(v)
    23. LP (   1) N   3                  0.94043    -0.39251  164(v),166(v),160(v),43(v)
                                                    77(v),168(v),24(r),45(v)
                                                    44(v),51(v),161(r),61(g)
    24. LP*(   1) C   5                  0.07366    -0.06849   
    25. LP (   1) N   7                  0.93434    -0.38059  162(v),169(v),160(v),43(v)
                                                    172(v),111(v),24(r),44(v)
                                                    52(v)
    26. RY*(   1) O   1                  0.00122     0.50503   
    27. RY*(   2) O   1                  0.00100     0.58844   
    28. RY*(   3) O   1                  0.00025     0.48781   
    29. RY*(   4) O   1                  0.00014     2.52537   
    30. RY*(   5) O   1                  0.00010     2.14696   
    31. RY*(   6) O   1                  0.00002     1.94503   
    32. RY*(   7) O   1                  0.00002     1.63419   
    33. RY*(   8) O   1                  0.00000     3.16726   
    34. RY*(   9) O   1                  0.00000     5.04611   
    35. RY*(  10) O   1                  0.00000    49.65917   
    36. RY*(  11) O   1                  0.00000     0.77541   
    37. RY*(  12) O   1                  0.00000     4.91537   
    38. RY*(  13) O   1                  0.00000     2.74650   
    39. RY*(  14) O   1                  0.00000     2.88404   
    40. RY*(  15) O   1                  0.00001     2.91097   
    41. RY*(  16) O   1                  0.00000     2.77381   
    42. RY*(  17) O   1                  0.00000     2.95983   
    43. RY*(   1) C   2                  0.00696     1.11915   
    44. RY*(   2) C   2                  0.00294     1.50707   
    45. RY*(   3) C   2                  0.00234     1.41056   
    46. RY*(   4) C   2                  0.00202     1.49850   
    47. RY*(   5) C   2                  0.00156     1.51127   
    48. RY*(   6) C   2                  0.00118     1.59558   
    49. RY*(   7) C   2                  0.00043     1.48341   
    50. RY*(   8) C   2                  0.00017     0.49404   
    51. RY*(   9) C   2                  0.00010     1.09859   
    52. RY*(  10) C   2                  0.00007     2.04557   
    53. RY*(  11) C   2                  0.00003     1.53968   
    54. RY*(  12) C   2                  0.00000     2.57531   
    55. RY*(  13) C   2                  0.00000     1.97953   
    56. RY*(  14) C   2                  0.00001     2.50844   
    57. RY*(  15) C   2                  0.00000    20.88037   
    58. RY*(  16) C   2                  0.00000     0.32700   
    59. RY*(  17) C   2                  0.00000     1.86158   
    60. RY*(   1) N   3                  0.00225     0.58757   
    61. RY*(   2) N   3                  0.00098     1.14074   
    62. RY*(   3) N   3                  0.00055     1.19754   
    63. RY*(   4) N   3                  0.00031     0.95625   
    64. RY*(   5) N   3                  0.00015     1.12050   
    65. RY*(   6) N   3                  0.00010     1.68077   
    66. RY*(   7) N   3                  0.00009     1.62686   
    67. RY*(   8) N   3                  0.00007     2.33071   
    68. RY*(   9) N   3                  0.00006     0.97155   
    69. RY*(  10) N   3                  0.00001     2.48883   
    70. RY*(  11) N   3                  0.00000     3.64266   
    71. RY*(  12) N   3                  0.00000     3.80781   
    72. RY*(  13) N   3                  0.00000    35.09532   
    73. RY*(  14) N   3                  0.00001     3.32709   
    74. RY*(  15) N   3                  0.00000     1.94002   
    75. RY*(  16) N   3                  0.00001     2.09605   
    76. RY*(  17) N   3                  0.00001     2.42050   
    77. RY*(   1) C   4                  0.00397     0.92951   
    78. RY*(   2) C   4                  0.00206     0.96486   
    79. RY*(   3) C   4                  0.00079     1.52313   
    80. RY*(   4) C   4                  0.00066     1.53284   
    81. RY*(   5) C   4                  0.00020     0.61134   
    82. RY*(   6) C   4                  0.00018     0.74778   
    83. RY*(   7) C   4                  0.00006     1.08891   
    84. RY*(   8) C   4                  0.00005     1.11832   
    85. RY*(   9) C   4                  0.00003     1.13228   
    86. RY*(  10) C   4                  0.00001     2.71798   
    87. RY*(  11) C   4                  0.00001     2.68431   
    88. RY*(  12) C   4                  0.00000     2.54208   
    89. RY*(  13) C   4                  0.00001     0.59995   
    90. RY*(  14) C   4                  0.00000    22.18066   
    91. RY*(  15) C   4                  0.00000     2.91394   
    92. RY*(  16) C   4                  0.00000     0.58775   
    93. RY*(  17) C   4                  0.00000     1.97931   
    94. RY*(   1) C   5                  0.00077     1.25247   
    95. RY*(   2) C   5                  0.00054     0.98898   
    96. RY*(   3) C   5                  0.00022     0.74138   
    97. RY*(   4) C   5                  0.00022     0.50747   
    98. RY*(   5) C   5                  0.00014     1.65707   
    99. RY*(   6) C   5                  0.00011     0.84704   
   100. RY*(   7) C   5                  0.00007     1.31367   
   101. RY*(   8) C   5                  0.00002     2.49323   
   102. RY*(   9) C   5                  0.00001     2.38667   
   103. RY*(  10) C   5                  0.00000     2.69223   
   104. RY*(  11) C   5                  0.00001     1.82304   
   105. RY*(  12) C   5                  0.00000     2.67095   
   106. RY*(  13) C   5                  0.00000    22.47507   
   107. RY*(  14) C   5                  0.00000     1.37911   
   108. RY*(  15) C   5                  0.00001     0.52185   
   109. RY*(  16) C   5                  0.00000     0.45428   
   110. RY*(  17) C   5                  0.00000     1.88553   
   111. RY*(   1) C   6                  0.00396     0.92174   
   112. RY*(   2) C   6                  0.00205     0.98502   
   113. RY*(   3) C   6                  0.00091     1.55826   
   114. RY*(   4) C   6                  0.00067     1.61984   
   115. RY*(   5) C   6                  0.00021     0.55668   
   116. RY*(   6) C   6                  0.00016     0.77584   
   117. RY*(   7) C   6                  0.00005     1.26592   
   118. RY*(   8) C   6                  0.00006     1.08534   
   119. RY*(   9) C   6                  0.00003     0.67872   
   120. RY*(  10) C   6                  0.00001     2.56984   
   121. RY*(  11) C   6                  0.00001     2.78506   
   122. RY*(  12) C   6                  0.00000     2.61841   
   123. RY*(  13) C   6                  0.00001     0.60763   
   124. RY*(  14) C   6                  0.00000    22.17951   
   125. RY*(  15) C   6                  0.00000     2.83768   
   126. RY*(  16) C   6                  0.00000     0.91316   
   127. RY*(  17) C   6                  0.00000     1.94101   
   128. RY*(   1) N   7                  0.00226     0.66565   
   129. RY*(   2) N   7                  0.00097     1.16255   
   130. RY*(   3) N   7                  0.00034     0.67154   
   131. RY*(   4) N   7                  0.00028     1.15495   
   132. RY*(   5) N   7                  0.00016     1.32114   
   133. RY*(   6) N   7                  0.00012     1.16918   
   134. RY*(   7) N   7                  0.00012     2.04170   
   135. RY*(   8) N   7                  0.00004     2.52427   
   136. RY*(   9) N   7                  0.00001     2.81353   
   137. RY*(  10) N   7                  0.00002     3.97313   
   138. RY*(  11) N   7                  0.00001     0.74424   
   139. RY*(  12) N   7                  0.00001     2.17201   
   140. RY*(  13) N   7                  0.00001     2.29785   
   141. RY*(  14) N   7                  0.00001     2.65097   
   142. RY*(  15) N   7                  0.00000     3.71840   
   143. RY*(  16) N   7                  0.00000    35.07543   
   144. RY*(  17) N   7                  0.00001     2.50162   
   145. RY*(   1) H   8                  0.00068     1.49106   
   146. RY*(   2) H   8                  0.00063     1.57495   
   147. RY*(   3) H   8                  0.00047     0.83579   
   148. RY*(   4) H   8                  0.00019     2.12251   
   149. RY*(   5) H   8                  0.00001     2.50751   
   150. RY*(   1) H   9                  0.00028     0.47685   
   151. RY*(   2) H   9                  0.00008     2.55849   
   152. RY*(   3) H   9                  0.00006     2.29968   
   153. RY*(   4) H   9                  0.00006     1.56234   
   154. RY*(   5) H   9                  0.00003     1.89903   
   155. RY*(   1) H  10                  0.00029     0.48528   
   156. RY*(   2) H  10                  0.00009     2.59752   
   157. RY*(   3) H  10                  0.00006     2.27701   
   158. RY*(   4) H  10                  0.00006     1.56533   
   159. RY*(   5) H  10                  0.00003     1.88324   
   160. BD*(   1) O   1 - C   2          0.02355     0.35157   
   161. BD*(   1) O   1 - H   8          0.00365     0.38185   
   162. BD*(   1) C   2 - N   3          0.02126     0.48809   
   163. BD*(   2) C   2 - N   3          0.21511    -0.03553  171(v),167(v),66(g),46(g)
                                                    50(g),27(v),48(g)
   164. BD*(   1) C   2 - N   7          0.01968     0.49846   
   165. BD*(   1) N   3 - C   4          0.00463     0.49741   
   166. BD*(   1) C   4 - C   5          0.01086     0.56324   
   167. BD*(   2) C   4 - C   5          0.13176     0.01577  171(v),163(v),82(g),97(g)
   168. BD*(   1) C   4 - H   9          0.01155     0.38389   
   169. BD*(   1) C   5 - C   6          0.01202     0.55858   
   170. BD*(   1) C   6 - N   7          0.00338     0.50367   
   171. BD*(   2) C   6 - N   7          0.19995    -0.03034  163(v),167(v),130(g),116(g)
                                                    113(g)
   172. BD*(   1) C   6 - H  10          0.01242     0.38710   
       -------------------------------
              Total Lewis   23.20571  ( 96.6905%)
        Valence non-Lewis    0.74345  (  3.0977%)
        Rydberg non-Lewis    0.05083  (  0.2118%)
       -------------------------------
            Total unit  1   24.00000  (100.0000%)
           Charge unit  1    0.50000
 Leave Link  607 at Thu Aug 25 08:24:21 2022, MaxMem=  8053063680 cpu:              44.0 elap:               1.4
 (Enter /public3/home/scg5914/software-scg5914/g16/l9999.exe)
 Unable to Open any file for archive entry.
 1\1\GINC-J0907\SP\UB3LYP\Gen\C4H3N2O1(2)\SCG5914\25-Aug-2022\0\\#p b3l
 yp/chkbas pop=nbo geom=allcheck guess=tcheck em=gd3bj\\dsgdb9nsd_00095
 5-3\\0,2\O,0,0.1017048514,1.308850933,0.1163758031\C,0,0.0690447069,-0
 .0324480862,0.0586906004\N,0,0.0865733705,-0.5829928056,-1.1598028368\
 C,0,0.0540948217,-1.924426891,-1.2049928489\C,0,0.0061660362,-2.634508
 8394,-0.0301088356\C,0,-0.0089570286,-1.9951952498,1.1890219415\N,0,0.
 0234086798,-0.656074672,1.2357186416\H,0,0.1332449375,1.630909597,-0.7
 945556288\H,0,0.0675966765,-2.3862656281,-2.1860896946\H,0,-0.04643951
 59,-2.5193905619,2.1378139718\\Version=ES64L-G16RevC.01\State=2-A\HF=-
 338.9797883\S2=0.756983\S2-1=0.\S2A=0.750029\RMSD=6.908e-09\Dipole=0.0
 015204,-0.5456704,-0.5948873\Quadrupole=-0.9850848,1.209127,-0.2240422
 ,0.1389171,-0.1020463,-3.2593201\PG=C01 [X(C4H3N2O1)]\\@
 The archive entry for this job was punched.


          EVOLUTION
 IN THE BEGINNING GOD MADE MAN.
 HE WORKED THE DIRT WITH HIS HANDS.
 THEN GOD DECIDED TO GIVE MAN SCIENCE,
 MAN SHOULD BE USEFUL (LIKE AN APPLIANCE.)
 BUT SOON MAN'S KNOWLEDGE GREW TOO GREAT,
 TO THE HEADING SCIENCE HE COULDN'T RELATE
 SO GOD SAID "LETS HAVE DIFFERENT FIELDS,
 WE'LL DIVIDE THEM UP, SEE WHAT IT YIELDS."
 ENTER PHYSICS, CHEMISTRY, BIO
 THEY SPRANG UP AROUND THE NILE.
 BUT CHEMISTRY SURPASSED THE REST
 FAR AND AWAY IT WAS THE BEST.
 EXPERIMENT WAS GOD'S DECREE
 EXPERIMENT DID CHEMISTS WITH LOTS OF GLEE
 BUT SOON THEIR TESTS BEGAN TO BOG,
 THEY FOUND THEMSELVES DEEP IN A FOG.
 "GIVE US SOME HELP" THEY CRIED TO GOD.
 GOD LOOKED AROUND, THEN GAVE THE NOD.
 ENTER EINSTEIN, HEISENBERG, BOHR,
 REACTION PATHS WERE CLEAR ONCE MORE.
 WITH THEORISTS GOD SEND DIRECTION
 AND THEN HE STOPPED, HE'D MADE PERFECTION.
          -- THOMAS A. HOLME, 1981
 Job cpu time:       0 days  0 hours  1 minutes 23.0 seconds.
 Elapsed time:       0 days  0 hours  0 minutes  2.9 seconds.
 File lengths (MBytes):  RWF=     24 Int=      0 D2E=      0 Chk=      4 Scr=      1
 Normal termination of Gaussian 16 at Thu Aug 25 08:24:21 2022.
