 Entering Gaussian System, Link 0=/public3/home/scg5914/software-scg5914/g16/g16
 Input=dsgdb9nsd_126081-4.gjf
 Output=dsgdb9nsd_126081-4.log
 Initial command:
 /public3/home/scg5914/software-scg5914/g16/l1.exe "/public3/home/scg5914/software-scg5914/test/tmp/dsgdb9nsd_126081-4/Gau-249985.inp" -scrdir="/public3/home/scg5914/software-scg5914/test/tmp/dsgdb9nsd_126081-4/"
 Entering Link 1 = /public3/home/scg5914/software-scg5914/g16/l1.exe PID=    249986.
  
 Copyright (c) 1988-2019, Gaussian, Inc.  All Rights Reserved.
  
 This is part of the Gaussian(R) 16 program.  It is based on
 the Gaussian(R) 09 system (copyright 2009, Gaussian, Inc.),
 the Gaussian(R) 03 system (copyright 2003, Gaussian, Inc.),
 the Gaussian(R) 98 system (copyright 1998, Gaussian, Inc.),
 the Gaussian(R) 94 system (copyright 1995, Gaussian, Inc.),
 the Gaussian 92(TM) system (copyright 1992, Gaussian, Inc.),
 the Gaussian 90(TM) system (copyright 1990, Gaussian, Inc.),
 the Gaussian 88(TM) system (copyright 1988, Gaussian, Inc.),
 the Gaussian 86(TM) system (copyright 1986, Carnegie Mellon
 University), and the Gaussian 82(TM) system (copyright 1983,
 Carnegie Mellon University). Gaussian is a federally registered
 trademark of Gaussian, Inc.
  
 This software contains proprietary and confidential information,
 including trade secrets, belonging to Gaussian, Inc.
  
 This software is provided under written license and may be
 used, copied, transmitted, or stored only in accord with that
 written license.
  
 The following legend is applicable only to US Government
 contracts under FAR:
  
                    RESTRICTED RIGHTS LEGEND
  
 Use, reproduction and disclosure by the US Government is
 subject to restrictions as set forth in subparagraphs (a)
 and (c) of the Commercial Computer Software - Restricted
 Rights clause in FAR 52.227-19.
  
 Gaussian, Inc.
 340 Quinnipiac St., Bldg. 40, Wallingford CT 06492
  
  
 ---------------------------------------------------------------
 Warning -- This program may not be used in any manner that
 competes with the business of Gaussian, Inc. or will provide
 assistance to any competitor of Gaussian, Inc.  The licensee
 of this program is prohibited from giving any competitor of
 Gaussian, Inc. access to this program.  By using this program,
 the user acknowledges that Gaussian, Inc. is engaged in the
 business of creating and licensing software in the field of
 computational chemistry and represents and warrants to the
 licensee that it is not a competitor of Gaussian, Inc. and that
 it will not use this program in any manner prohibited above.
 ---------------------------------------------------------------
  

 Cite this work as:
 Gaussian 16, Revision C.01,
 M. J. Frisch, G. W. Trucks, H. B. Schlegel, G. E. Scuseria, 
 M. A. Robb, J. R. Cheeseman, G. Scalmani, V. Barone, 
 G. A. Petersson, H. Nakatsuji, X. Li, M. Caricato, A. V. Marenich, 
 J. Bloino, B. G. Janesko, R. Gomperts, B. Mennucci, H. P. Hratchian, 
 J. V. Ortiz, A. F. Izmaylov, J. L. Sonnenberg, D. Williams-Young, 
 F. Ding, F. Lipparini, F. Egidi, J. Goings, B. Peng, A. Petrone, 
 T. Henderson, D. Ranasinghe, V. G. Zakrzewski, J. Gao, N. Rega, 
 G. Zheng, W. Liang, M. Hada, M. Ehara, K. Toyota, R. Fukuda, 
 J. Hasegawa, M. Ishida, T. Nakajima, Y. Honda, O. Kitao, H. Nakai, 
 T. Vreven, K. Throssell, J. A. Montgomery, Jr., J. E. Peralta, 
 F. Ogliaro, M. J. Bearpark, J. J. Heyd, E. N. Brothers, K. N. Kudin, 
 V. N. Staroverov, T. A. Keith, R. Kobayashi, J. Normand, 
 K. Raghavachari, A. P. Rendell, J. C. Burant, S. S. Iyengar, 
 J. Tomasi, M. Cossi, J. M. Millam, M. Klene, C. Adamo, R. Cammi, 
 J. W. Ochterski, R. L. Martin, K. Morokuma, O. Farkas, 
 J. B. Foresman, and D. J. Fox, Gaussian, Inc., Wallingford CT, 2019.
 
 ******************************************
 Gaussian 16:  ES64L-G16RevC.01  3-Jul-2019
                29-Oct-2022 
 ******************************************
 %chk=dsgdb9nsd_126081-4.chk
 %mem=60GB
 %nprocshared=32
 Will use up to   32 processors via shared memory.
 ------------------------------------
 #p opt freq b3lyp/6-311+g** em=gd3bj
 ------------------------------------
 1/18=20,19=15,26=3,38=1/1,3;
 2/9=110,12=2,17=6,18=5,40=1/2;
 3/5=4,6=6,7=111,11=2,25=1,30=1,71=1,74=-5,124=41/1,2,3;
 4//1;
 5/5=2,38=5/2;
 6/7=2,8=2,9=2,10=2,28=1/1;
 7//1,2,3,16;
 1/18=20,19=15,26=3/3(2);
 2/9=110/2;
 99//99;
 2/9=110/2;
 3/5=4,6=6,7=111,11=2,25=1,30=1,71=1,74=-5,124=41/1,2,3;
 4/5=5,16=3,69=1/1;
 5/5=2,38=5/2;
 7//1,2,3,16;
 1/18=20,19=15,26=3/3(-5);
 2/9=110/2;
 6/7=2,8=2,9=2,10=2,19=2,28=1/1;
 99/9=1/99;
 Leave Link    1 at Sat Oct 29 20:07:39 2022, MaxMem=  8053063680 cpu:               0.8 elap:               0.0
 (Enter /public3/home/scg5914/software-scg5914/g16/l101.exe)
 ------------------
 dsgdb9nsd_126081-4
 ------------------
 Symbolic Z-matrix:
 Charge =  0 Multiplicity = 2
 C                    -0.43339   1.50033   0.08026 
 C                     0.24162   0.15808  -0.03972 
 O                     0.98768   0.06094  -1.25297 
 C                     2.19717  -0.55353  -1.00869 
 C                     2.25533  -0.63939   0.44259 
 O                     1.17932  -0.01862   1.03591 
 N                     3.20065  -1.16889   1.1391 
 N                     4.0513   -1.64508   1.73555 
 O                     2.96676  -0.89031  -1.85921 
 H                     0.31154   2.2977    0.03137 
 H                    -1.15187   1.62584  -0.73327 
 H                    -0.96432   1.559     1.03376 
 
 ITRead=  0  0  0  0  0  0  0  0  0  0  0  0
 MicOpt= -1 -1 -1 -1 -1 -1 -1 -1 -1 -1 -1 -1
 NAtoms=     12 NQM=       12 NQMF=       0 NMMI=      0 NMMIF=      0
                NMic=       0 NMicF=      0.
                    Isotopes and Nuclear Properties:
 (Nuclear quadrupole moments (NQMom) in fm**2, nuclear magnetic moments (NMagM)
  in nuclear magnetons)

  Atom         1           2           3           4           5           6           7           8           9          10
 IAtWgt=          12          12          16          12          12          16          14          14          16           1
 AtmWgt=  12.0000000  12.0000000  15.9949146  12.0000000  12.0000000  15.9949146  14.0030740  14.0030740  15.9949146   1.0078250
 NucSpn=           0           0           0           0           0           0           2           2           0           1
 AtZEff=  -0.0000000  -0.0000000  -0.0000000  -0.0000000  -0.0000000  -0.0000000  -0.0000000  -0.0000000  -0.0000000  -0.0000000
 NQMom=    0.0000000   0.0000000   0.0000000   0.0000000   0.0000000   0.0000000   2.0440000   2.0440000   0.0000000   0.0000000
 NMagM=    0.0000000   0.0000000   0.0000000   0.0000000   0.0000000   0.0000000   0.4037610   0.4037610   0.0000000   2.7928460
 AtZNuc=   6.0000000   6.0000000   8.0000000   6.0000000   6.0000000   8.0000000   7.0000000   7.0000000   8.0000000   1.0000000

  Atom        11          12
 IAtWgt=           1           1
 AtmWgt=   1.0078250   1.0078250
 NucSpn=           1           1
 AtZEff=  -0.0000000  -0.0000000
 NQMom=    0.0000000   0.0000000
 NMagM=    2.7928460   2.7928460
 AtZNuc=   1.0000000   1.0000000
 Leave Link  101 at Sat Oct 29 20:07:39 2022, MaxMem=  8053063680 cpu:               4.2 elap:               0.1
 (Enter /public3/home/scg5914/software-scg5914/g16/l103.exe)

 GradGradGradGradGradGradGradGradGradGradGradGradGradGradGradGradGradGrad
 Berny optimization.
 Initialization pass.
                           ----------------------------
                           !    Initial Parameters    !
                           ! (Angstroms and Degrees)  !
 --------------------------                            --------------------------
 ! Name  Definition              Value          Derivative Info.                !
 --------------------------------------------------------------------------------
 ! R1    R(1,2)                  1.5072         estimate D2E/DX2                !
 ! R2    R(1,10)                 1.0923         estimate D2E/DX2                !
 ! R3    R(1,11)                 1.0926         estimate D2E/DX2                !
 ! R4    R(1,12)                 1.0929         estimate D2E/DX2                !
 ! R5    R(2,3)                  1.4276         estimate D2E/DX2                !
 ! R6    R(2,6)                  1.4379         estimate D2E/DX2                !
 ! R7    R(3,4)                  1.3785         estimate D2E/DX2                !
 ! R8    R(4,5)                  1.455          estimate D2E/DX2                !
 ! R9    R(4,9)                  1.1954         estimate D2E/DX2                !
 ! R10   R(5,6)                  1.3767         estimate D2E/DX2                !
 ! R11   R(5,7)                  1.2881         estimate D2E/DX2                !
 ! R12   R(7,8)                  1.1429         estimate D2E/DX2                !
 ! A1    A(2,1,10)             109.9444         estimate D2E/DX2                !
 ! A2    A(2,1,11)             109.7259         estimate D2E/DX2                !
 ! A3    A(2,1,12)             109.5617         estimate D2E/DX2                !
 ! A4    A(10,1,11)            109.3461         estimate D2E/DX2                !
 ! A5    A(10,1,12)            109.3391         estimate D2E/DX2                !
 ! A6    A(11,1,12)            108.9042         estimate D2E/DX2                !
 ! A7    A(1,2,3)              111.2417         estimate D2E/DX2                !
 ! A8    A(1,2,6)              109.996          estimate D2E/DX2                !
 ! A9    A(3,2,6)              106.6533         estimate D2E/DX2                !
 ! A10   A(2,3,4)              109.7716         estimate D2E/DX2                !
 ! A11   A(3,4,5)              103.7771         estimate D2E/DX2                !
 ! A12   A(3,4,9)              124.3579         estimate D2E/DX2                !
 ! A13   A(5,4,9)              131.8595         estimate D2E/DX2                !
 ! A14   A(4,5,6)              111.8411         estimate D2E/DX2                !
 ! A15   A(4,5,7)              126.3672         estimate D2E/DX2                !
 ! A16   A(6,5,7)              121.7319         estimate D2E/DX2                !
 ! A17   A(2,6,5)              104.0478         estimate D2E/DX2                !
 ! A18   L(5,7,8,9,-1)         178.7267         estimate D2E/DX2                !
 ! A19   L(5,7,8,9,-2)         180.0736         estimate D2E/DX2                !
 ! D1    D(10,1,2,3)           -57.686          estimate D2E/DX2                !
 ! D2    D(10,1,2,6)            60.2602         estimate D2E/DX2                !
 ! D3    D(11,1,2,3)            62.6116         estimate D2E/DX2                !
 ! D4    D(11,1,2,6)          -179.4422         estimate D2E/DX2                !
 ! D5    D(12,1,2,3)          -177.8718         estimate D2E/DX2                !
 ! D6    D(12,1,2,6)           -59.9256         estimate D2E/DX2                !
 ! D7    D(1,2,3,4)            138.1423         estimate D2E/DX2                !
 ! D8    D(6,2,3,4)             18.1942         estimate D2E/DX2                !
 ! D9    D(1,2,6,5)           -140.4512         estimate D2E/DX2                !
 ! D10   D(3,2,6,5)            -19.7025         estimate D2E/DX2                !
 ! D11   D(2,3,4,5)             -8.7457         estimate D2E/DX2                !
 ! D12   D(2,3,4,9)            172.0242         estimate D2E/DX2                !
 ! D13   D(3,4,5,6)             -4.245          estimate D2E/DX2                !
 ! D14   D(3,4,5,7)            178.5454         estimate D2E/DX2                !
 ! D15   D(9,4,5,6)            174.9016         estimate D2E/DX2                !
 ! D16   D(9,4,5,7)             -2.308          estimate D2E/DX2                !
 ! D17   D(4,5,6,2)             14.9962         estimate D2E/DX2                !
 ! D18   D(7,5,6,2)           -167.6455         estimate D2E/DX2                !
 --------------------------------------------------------------------------------
 Trust Radius=3.00D-01 FncErr=1.00D-07 GrdErr=1.00D-06 EigMax=2.50D+02 EigMin=1.00D-04
 Number of steps in this run=     59 maximum allowed number of steps=    100.
 GradGradGradGradGradGradGradGradGradGradGradGradGradGradGradGradGradGrad

 Leave Link  103 at Sat Oct 29 20:07:39 2022, MaxMem=  8053063680 cpu:               0.6 elap:               0.0
 (Enter /public3/home/scg5914/software-scg5914/g16/l202.exe)
                          Input orientation:                          
 ---------------------------------------------------------------------
 Center     Atomic      Atomic             Coordinates (Angstroms)
 Number     Number       Type             X           Y           Z
 ---------------------------------------------------------------------
      1          6           0       -0.433394    1.500330    0.080264
      2          6           0        0.241616    0.158081   -0.039724
      3          8           0        0.987679    0.060943   -1.252971
      4          6           0        2.197173   -0.553527   -1.008687
      5          6           0        2.255332   -0.639391    0.442592
      6          8           0        1.179315   -0.018625    1.035910
      7          7           0        3.200654   -1.168887    1.139102
      8          7           0        4.051304   -1.645082    1.735553
      9          8           0        2.966757   -0.890314   -1.859212
     10          1           0        0.311536    2.297703    0.031374
     11          1           0       -1.151867    1.625840   -0.733274
     12          1           0       -0.964316    1.559001    1.033755
 ---------------------------------------------------------------------
                    Distance matrix (angstroms):
                    1          2          3          4          5
     1  C    0.000000
     2  C    1.507206   0.000000
     3  O    2.422560   1.427590   0.000000
     4  C    3.510560   2.295535   1.378451   0.000000
     5  C    3.455276   2.218928   2.229876   1.454980   0.000000
     6  O    2.412740   1.437878   2.298267   2.345748   1.376658
     7  N    4.631648   3.450562   3.483067   2.449212   1.288071
     8  N    5.722422   4.573481   4.607342   3.487140   2.430778
     9  O    4.586695   3.440357   2.277975   1.195439   2.422269
    10  H    1.092297   2.141945   2.666422   3.573076   3.545979
    11  H    1.092612   2.139421   2.701230   4.005192   4.257104
    12  H    1.092917   2.137570   3.359104   4.316174   3.943163
                    6          7          8          9         10
     6  O    0.000000
     7  N    2.327995   0.000000
     8  N    3.373898   1.142857   0.000000
     9  O    3.512338   3.020297   3.829915   0.000000
    10  H    2.669739   4.646645   5.695230   4.559382   0.000000
    11  H    3.356886   5.500976   6.623219   4.955989   1.782592
    12  H    2.661590   4.979904   5.992922   5.460928   1.782763
                   11         12
    11  H    0.000000
    12  H    1.778211   0.000000
 Stoichiometry    C4H3N2O3(2)
 Framework group  C1[X(C4H3N2O3)]
 Deg. of freedom    30
 Full point group                 C1      NOp   1
 Largest Abelian subgroup         C1      NOp   1
 Largest concise Abelian subgroup C1      NOp   1
                         Standard orientation:                         
 ---------------------------------------------------------------------
 Center     Atomic      Atomic             Coordinates (Angstroms)
 Number     Number       Type             X           Y           Z
 ---------------------------------------------------------------------
      1          6           0       -2.728400   -0.731112    0.296538
      2          6           0       -1.497970   -0.309656   -0.465097
      3          8           0       -1.122302    1.028945   -0.141008
      4          6           0        0.246792    1.108272   -0.001671
      5          6           0        0.680365   -0.279971   -0.043654
      6          8           0       -0.386311   -1.148009   -0.106115
      7          7           0        1.895103   -0.703104    0.023402
      8          7           0        2.980927   -1.054439    0.084000
      9          8           0        0.853129    2.129628    0.133472
     10          1           0       -2.551534   -0.639132    1.370489
     11          1           0       -3.572461   -0.097817    0.013168
     12          1           0       -2.969068   -1.769950    0.057035
 ---------------------------------------------------------------------
 Rotational constants (GHZ):           3.0452816           1.3815295           0.9738027
 Leave Link  202 at Sat Oct 29 20:07:39 2022, MaxMem=  8053063680 cpu:               0.2 elap:               0.0
 (Enter /public3/home/scg5914/software-scg5914/g16/l301.exe)
 Standard basis: 6-311+G(d,p) (5D, 7F)
 Ernie: Thresh=  0.10000D-02 Tol=  0.10000D-05 Strict=F.
 There are   225 symmetry adapted cartesian basis functions of A   symmetry.
 There are   216 symmetry adapted basis functions of A   symmetry.
   216 basis functions,   348 primitive gaussians,   225 cartesian basis functions
    33 alpha electrons       32 beta electrons
       nuclear repulsion energy       425.9219433363 Hartrees.
 IExCor=  402 DFT=T Ex+Corr=B3LYP ExCW=0 ScaHFX=  0.200000
 ScaDFX=  0.800000  0.720000  1.000000  0.810000 ScalE2=  1.000000  1.000000
 IRadAn=      5 IRanWt=     -1 IRanGd=            0 ICorTp=0 IEmpDi=141
 NAtoms=   12 NActive=   12 NUniq=   12 SFac= 1.00D+00 NAtFMM=   60 NAOKFM=F Big=F
 Integral buffers will be    131072 words long.
 Raffenetti 2 integral format.
 Two-electron integral symmetry is turned on.
 R6Disp:  Grimme-D3(BJ) Dispersion energy=       -0.0178357677 Hartrees.
 Nuclear repulsion after empirical dispersion term =      425.9041075687 Hartrees.
 Leave Link  301 at Sat Oct 29 20:07:39 2022, MaxMem=  8053063680 cpu:               1.1 elap:               0.0
 (Enter /public3/home/scg5914/software-scg5914/g16/l302.exe)
 NPDir=0 NMtPBC=     1 NCelOv=     1 NCel=       1 NClECP=     1 NCelD=      1
         NCelK=      1 NCelE2=     1 NClLst=     1 CellRange=     0.0.
 One-electron integrals computed using PRISM.
 One-electron integral symmetry used in STVInt
 NBasis=   216 RedAO= T EigKep=  2.56D-05  NBF=   216
 NBsUse=   216 1.00D-06 EigRej= -1.00D+00 NBFU=   216
 Precomputing XC quadrature grid using
 IXCGrd= 4 IRadAn=           5 IRanWt=          -1 IRanGd=           0 AccXCQ= 0.00D+00.
 Generated NRdTot=       0 NPtTot=           0 NUsed=           0 NTot=          32
 NSgBfM=   225   225   225   225   225 MxSgAt=    12 MxSgA2=    12.
 Leave Link  302 at Sat Oct 29 20:07:40 2022, MaxMem=  8053063680 cpu:               4.1 elap:               0.1
 (Enter /public3/home/scg5914/software-scg5914/g16/l303.exe)
 DipDrv:  MaxL=1.
 Leave Link  303 at Sat Oct 29 20:07:40 2022, MaxMem=  8053063680 cpu:               0.5 elap:               0.0
 (Enter /public3/home/scg5914/software-scg5914/g16/l401.exe)
 ExpMin= 4.38D-02 ExpMax= 8.59D+03 ExpMxC= 1.30D+03 IAcc=3 IRadAn=         5 AccDes= 0.00D+00
 Harris functional with IExCor=  402 and IRadAn=       5 diagonalized for initial guess.
 HarFok:  IExCor=  402 AccDes= 0.00D+00 IRadAn=         5 IDoV= 1 UseB2=F ITyADJ=14
 ICtDFT=  3500011 ScaDFX=  1.000000  1.000000  1.000000  1.000000
 FoFCou: FMM=F IPFlag=           0 FMFlag=      100000 FMFlg1=           0
         NFxFlg=           0 DoJE=T BraDBF=F KetDBF=T FulRan=T
         wScrn=  0.000000 ICntrl=       500 IOpCl=  0 I1Cent=   200000004 NGrid=           0
         NMat0=    1 NMatS0=      1 NMatT0=    0 NMatD0=    1 NMtDS0=    0 NMtDT0=    0
 Petite list used in FoFCou.
 Harris En= -489.421605329465    
 JPrj=0 DoOrth=F DoCkMO=F.
 Initial guess <Sx>= 0.0000 <Sy>= 0.0000 <Sz>= 0.5000 <S**2>= 0.7500 S= 0.5000
 Leave Link  401 at Sat Oct 29 20:07:40 2022, MaxMem=  8053063680 cpu:              11.5 elap:               0.4
 (Enter /public3/home/scg5914/software-scg5914/g16/l502.exe)
 Keep R1 and R2 ints in memory in canonical form, NReq=583032936.
 FoFCou: FMM=F IPFlag=           0 FMFlag=           0 FMFlg1=           0
         NFxFlg=           0 DoJE=F BraDBF=F KetDBF=F FulRan=T
         wScrn=  0.000000 ICntrl=       600 IOpCl=  0 I1Cent=           0 NGrid=           0
         NMat0=    1 NMatS0=  23436 NMatT0=    0 NMatD0=    1 NMtDS0=    0 NMtDT0=    0
 Symmetry not used in FoFCou.
 Two-electron integral symmetry not used.
 UHF open shell SCF:
 Using DIIS extrapolation, IDIIS=  1040.
 NGot=  8053063680 LenX=  7503683252 LenY=  7503632186
 Requested convergence on RMS density matrix=1.00D-08 within 128 cycles.
 Requested convergence on MAX density matrix=1.00D-06.
 Requested convergence on             energy=1.00D-06.
 No special actions if energy rises.

 Cycle   1  Pass 1  IDiag  1:
 E= -489.202974471607    
 DIIS: error= 2.68D-02 at cycle   1 NSaved=   1.
 NSaved= 1 IEnMin= 1 EnMin= -489.202974471607     IErMin= 1 ErrMin= 2.68D-02
 ErrMax= 2.68D-02  0.00D+00 EMaxC= 1.00D-01 BMatC= 1.15D+00 BMatP= 1.15D+00
 IDIUse=3 WtCom= 7.32D-01 WtEn= 2.68D-01
 Coeff-Com:  0.100D+01
 Coeff-En:   0.100D+01
 Coeff:      0.100D+01
 Gap=    -0.010 Goal=   None    Shift=    0.000
 Gap=     0.168 Goal=   None    Shift=    0.000
 GapD=   -0.010 DampG=0.250 DampE=0.500 DampFc=0.2500 IDamp=-1.
 Damping current iteration by 2.50D-01
 RMSDP=9.76D-03 MaxDP=3.58D-01              OVMax= 9.69D-01

 Cycle   2  Pass 1  IDiag  1:
 E= -489.141782592133     Delta-E=        0.061191879474 Rises=F Damp=T
 DIIS: error= 1.47D-02 at cycle   2 NSaved=   2.
 NSaved= 2 IEnMin= 1 EnMin= -489.202974471607     IErMin= 2 ErrMin= 1.47D-02
 ErrMax= 1.47D-02  0.00D+00 EMaxC= 1.00D-01 BMatC= 2.97D-01 BMatP= 1.15D+00
 IDIUse=3 WtCom= 8.53D-01 WtEn= 1.47D-01
 Coeff-Com:  0.603D-01 0.940D+00
 Coeff-En:   0.630D+00 0.370D+00
 Coeff:      0.144D+00 0.856D+00
 Gap=    -0.101 Goal=   None    Shift=    0.000
 Gap=    -0.306 Goal=   None    Shift=    0.000
 RMSDP=3.87D-03 MaxDP=1.19D-01 DE= 6.12D-02 OVMax= 5.43D-01

 Cycle   3  Pass 1  IDiag  1:
 E= -489.143352959430     Delta-E=       -0.001570367297 Rises=F Damp=F
 DIIS: error= 3.88D-02 at cycle   3 NSaved=   3.
 NSaved= 3 IEnMin= 1 EnMin= -489.202974471607     IErMin= 2 ErrMin= 1.47D-02
 ErrMax= 3.88D-02  0.00D+00 EMaxC= 1.00D-01 BMatC= 9.95D-01 BMatP= 2.97D-01
 IDIUse=2 WtCom= 0.00D+00 WtEn= 1.00D+00
 EnCoef did     2 forward-backward iterations
 Coeff-En:   0.265D+00 0.361D+00 0.374D+00
 Coeff:      0.265D+00 0.361D+00 0.374D+00
 Gap=     0.151 Goal=   None    Shift=    0.000
 Gap=     0.141 Goal=   None    Shift=    0.000
 RMSDP=5.75D-03 MaxDP=1.65D-01 DE=-1.57D-03 OVMax= 5.06D-01

 Cycle   4  Pass 1  IDiag  1:
 E= -489.239140456098     Delta-E=       -0.095787496668 Rises=F Damp=F
 DIIS: error= 2.83D-02 at cycle   4 NSaved=   4.
 NSaved= 4 IEnMin= 4 EnMin= -489.239140456098     IErMin= 2 ErrMin= 1.47D-02
 ErrMax= 2.83D-02  0.00D+00 EMaxC= 1.00D-01 BMatC= 7.96D-01 BMatP= 2.97D-01
 IDIUse=2 WtCom= 0.00D+00 WtEn= 1.00D+00
 EnCoef did     4 forward-backward iterations
 Coeff-En:   0.169D+00 0.000D+00 0.313D+00 0.518D+00
 Coeff:      0.169D+00 0.000D+00 0.313D+00 0.518D+00
 Gap=     0.119 Goal=   None    Shift=    0.000
 Gap=     0.206 Goal=   None    Shift=    0.000
 RMSDP=3.36D-03 MaxDP=1.51D-01 DE=-9.58D-02 OVMax= 2.75D-01

 Cycle   5  Pass 1  IDiag  1:
 E= -489.408482398023     Delta-E=       -0.169341941924 Rises=F Damp=F
 DIIS: error= 7.30D-03 at cycle   5 NSaved=   5.
 NSaved= 5 IEnMin= 5 EnMin= -489.408482398023     IErMin= 5 ErrMin= 7.30D-03
 ErrMax= 7.30D-03  0.00D+00 EMaxC= 1.00D-01 BMatC= 9.16D-02 BMatP= 2.97D-01
 IDIUse=3 WtCom= 9.27D-01 WtEn= 7.30D-02
 Coeff-Com:  0.923D-01-0.388D-01 0.126D+00 0.313D+00 0.508D+00
 Coeff-En:   0.000D+00 0.000D+00 0.000D+00 0.119D+00 0.881D+00
 Coeff:      0.856D-01-0.360D-01 0.117D+00 0.298D+00 0.535D+00
 Gap=     0.094 Goal=   None    Shift=    0.000
 Gap=     0.147 Goal=   None    Shift=    0.000
 RMSDP=9.46D-04 MaxDP=2.40D-02 DE=-1.69D-01 OVMax= 8.86D-02

 Cycle   6  Pass 1  IDiag  1:
 E= -489.423792747314     Delta-E=       -0.015310349291 Rises=F Damp=F
 DIIS: error= 5.12D-03 at cycle   6 NSaved=   6.
 NSaved= 6 IEnMin= 6 EnMin= -489.423792747314     IErMin= 6 ErrMin= 5.12D-03
 ErrMax= 5.12D-03  0.00D+00 EMaxC= 1.00D-01 BMatC= 2.65D-02 BMatP= 9.16D-02
 IDIUse=3 WtCom= 9.49D-01 WtEn= 5.12D-02
 Coeff-Com: -0.586D-01 0.637D-01 0.191D-01-0.411D-02 0.360D+00 0.620D+00
 Coeff-En:   0.000D+00 0.000D+00 0.000D+00 0.000D+00 0.265D+00 0.735D+00
 Coeff:     -0.556D-01 0.604D-01 0.182D-01-0.390D-02 0.355D+00 0.626D+00
 Gap=     0.108 Goal=   None    Shift=    0.000
 Gap=     0.144 Goal=   None    Shift=    0.000
 RMSDP=4.31D-04 MaxDP=1.07D-02 DE=-1.53D-02 OVMax= 4.24D-02

 Cycle   7  Pass 1  IDiag  1:
 E= -489.428960393089     Delta-E=       -0.005167645776 Rises=F Damp=F
 DIIS: error= 2.06D-03 at cycle   7 NSaved=   7.
 NSaved= 7 IEnMin= 7 EnMin= -489.428960393089     IErMin= 7 ErrMin= 2.06D-03
 ErrMax= 2.06D-03  0.00D+00 EMaxC= 1.00D-01 BMatC= 2.63D-03 BMatP= 2.65D-02
 IDIUse=3 WtCom= 9.79D-01 WtEn= 2.06D-02
 Coeff-Com: -0.488D-01 0.546D-01 0.207D-03-0.155D-01 0.189D+00 0.378D+00
 Coeff-Com:  0.443D+00
 Coeff-En:   0.000D+00 0.000D+00 0.000D+00 0.000D+00 0.000D+00 0.662D-01
 Coeff-En:   0.934D+00
 Coeff:     -0.478D-01 0.534D-01 0.203D-03-0.152D-01 0.185D+00 0.371D+00
 Coeff:      0.453D+00
 Gap=     0.108 Goal=   None    Shift=    0.000
 Gap=     0.143 Goal=   None    Shift=    0.000
 RMSDP=1.17D-04 MaxDP=3.18D-03 DE=-5.17D-03 OVMax= 6.42D-03

 Cycle   8  Pass 1  IDiag  1:
 E= -489.429390765131     Delta-E=       -0.000430372041 Rises=F Damp=F
 DIIS: error= 1.27D-03 at cycle   8 NSaved=   8.
 NSaved= 8 IEnMin= 8 EnMin= -489.429390765131     IErMin= 8 ErrMin= 1.27D-03
 ErrMax= 1.27D-03  0.00D+00 EMaxC= 1.00D-01 BMatC= 8.81D-04 BMatP= 2.63D-03
 IDIUse=3 WtCom= 9.87D-01 WtEn= 1.27D-02
 Coeff-Com: -0.243D-01 0.308D-01-0.886D-02-0.213D-03 0.396D-01 0.788D-01
 Coeff-Com:  0.177D+00 0.707D+00
 Coeff-En:   0.000D+00 0.000D+00 0.000D+00 0.000D+00 0.000D+00 0.000D+00
 Coeff-En:   0.000D+00 0.100D+01
 Coeff:     -0.240D-01 0.304D-01-0.875D-02-0.210D-03 0.391D-01 0.778D-01
 Coeff:      0.175D+00 0.711D+00
 Gap=     0.108 Goal=   None    Shift=    0.000
 Gap=     0.143 Goal=   None    Shift=    0.000
 RMSDP=8.79D-05 MaxDP=3.35D-03 DE=-4.30D-04 OVMax= 7.83D-03

 Cycle   9  Pass 1  IDiag  1:
 E= -489.429605242650     Delta-E=       -0.000214477519 Rises=F Damp=F
 DIIS: error= 7.52D-04 at cycle   9 NSaved=   9.
 NSaved= 9 IEnMin= 9 EnMin= -489.429605242650     IErMin= 9 ErrMin= 7.52D-04
 ErrMax= 7.52D-04  0.00D+00 EMaxC= 1.00D-01 BMatC= 2.08D-04 BMatP= 8.81D-04
 IDIUse=3 WtCom= 9.92D-01 WtEn= 7.52D-03
 Coeff-Com: -0.698D-02 0.110D-01-0.594D-02 0.337D-02-0.136D-01-0.297D-01
 Coeff-Com: -0.656D-01 0.189D+00 0.919D+00
 Coeff-En:   0.000D+00 0.000D+00 0.000D+00 0.000D+00 0.000D+00 0.000D+00
 Coeff-En:   0.000D+00 0.000D+00 0.100D+01
 Coeff:     -0.693D-02 0.109D-01-0.589D-02 0.334D-02-0.135D-01-0.295D-01
 Coeff:     -0.651D-01 0.187D+00 0.919D+00
 Gap=     0.108 Goal=   None    Shift=    0.000
 Gap=     0.143 Goal=   None    Shift=    0.000
 RMSDP=5.23D-05 MaxDP=1.38D-03 DE=-2.14D-04 OVMax= 4.81D-03

 Cycle  10  Pass 1  IDiag  1:
 E= -489.429668441477     Delta-E=       -0.000063198827 Rises=F Damp=F
 DIIS: error= 1.43D-04 at cycle  10 NSaved=  10.
 NSaved=10 IEnMin=10 EnMin= -489.429668441477     IErMin=10 ErrMin= 1.43D-04
 ErrMax= 1.43D-04  0.00D+00 EMaxC= 1.00D-01 BMatC= 2.94D-05 BMatP= 2.08D-04
 IDIUse=3 WtCom= 9.99D-01 WtEn= 1.43D-03
 Coeff-Com:  0.953D-03-0.940D-03-0.909D-03 0.200D-02-0.126D-01-0.291D-01
 Coeff-Com: -0.110D+00-0.180D+00 0.649D+00 0.682D+00
 Coeff-En:   0.000D+00 0.000D+00 0.000D+00 0.000D+00 0.000D+00 0.000D+00
 Coeff-En:   0.000D+00 0.000D+00 0.000D+00 0.100D+01
 Coeff:      0.952D-03-0.938D-03-0.907D-03 0.199D-02-0.126D-01-0.291D-01
 Coeff:     -0.109D+00-0.180D+00 0.648D+00 0.682D+00
 Gap=     0.108 Goal=   None    Shift=    0.000
 Gap=     0.143 Goal=   None    Shift=    0.000
 RMSDP=2.87D-05 MaxDP=8.19D-04 DE=-6.32D-05 OVMax= 2.27D-03

 Cycle  11  Pass 1  IDiag  1:
 E= -489.429676950055     Delta-E=       -0.000008508578 Rises=F Damp=F
 DIIS: error= 5.23D-05 at cycle  11 NSaved=  11.
 NSaved=11 IEnMin=11 EnMin= -489.429676950055     IErMin=11 ErrMin= 5.23D-05
 ErrMax= 5.23D-05  0.00D+00 EMaxC= 1.00D-01 BMatC= 2.37D-06 BMatP= 2.94D-05
 IDIUse=1 WtCom= 1.00D+00 WtEn= 0.00D+00
 Coeff-Com:  0.639D-03-0.636D-03 0.557D-03-0.605D-04-0.185D-02-0.459D-02
 Coeff-Com: -0.350D-01-0.928D-01 0.189D+00 0.287D+00 0.658D+00
 Coeff:      0.639D-03-0.636D-03 0.557D-03-0.605D-04-0.185D-02-0.459D-02
 Coeff:     -0.350D-01-0.928D-01 0.189D+00 0.287D+00 0.658D+00
 Gap=     0.108 Goal=   None    Shift=    0.000
 Gap=     0.143 Goal=   None    Shift=    0.000
 RMSDP=6.09D-06 MaxDP=1.18D-04 DE=-8.51D-06 OVMax= 5.20D-04

 Cycle  12  Pass 1  IDiag  1:
 E= -489.429677625643     Delta-E=       -0.000000675588 Rises=F Damp=F
 DIIS: error= 3.32D-05 at cycle  12 NSaved=  12.
 NSaved=12 IEnMin=12 EnMin= -489.429677625643     IErMin=12 ErrMin= 3.32D-05
 ErrMax= 3.32D-05  0.00D+00 EMaxC= 1.00D-01 BMatC= 4.45D-07 BMatP= 2.37D-06
 IDIUse=1 WtCom= 1.00D+00 WtEn= 0.00D+00
 Coeff-Com:  0.439D-03-0.481D-03 0.313D-03-0.289D-03-0.764D-03-0.150D-02
 Coeff-Com: -0.192D-02-0.589D-02 0.345D-03-0.145D-02 0.225D+00 0.787D+00
 Coeff:      0.439D-03-0.481D-03 0.313D-03-0.289D-03-0.764D-03-0.150D-02
 Coeff:     -0.192D-02-0.589D-02 0.345D-03-0.145D-02 0.225D+00 0.787D+00
 Gap=     0.108 Goal=   None    Shift=    0.000
 Gap=     0.143 Goal=   None    Shift=    0.000
 RMSDP=4.16D-06 MaxDP=9.77D-05 DE=-6.76D-07 OVMax= 4.96D-04

 Cycle  13  Pass 1  IDiag  1:
 E= -489.429677886208     Delta-E=       -0.000000260565 Rises=F Damp=F
 DIIS: error= 2.05D-05 at cycle  13 NSaved=  13.
 NSaved=13 IEnMin=13 EnMin= -489.429677886208     IErMin=13 ErrMin= 2.05D-05
 ErrMax= 2.05D-05  0.00D+00 EMaxC= 1.00D-01 BMatC= 1.63D-07 BMatP= 4.45D-07
 IDIUse=1 WtCom= 1.00D+00 WtEn= 0.00D+00
 Coeff-Com:  0.183D-04-0.115D-03-0.810D-04-0.524D-04 0.494D-03 0.111D-02
 Coeff-Com:  0.145D-01 0.401D-01-0.741D-01-0.129D+00-0.178D+00 0.361D+00
 Coeff-Com:  0.964D+00
 Coeff:      0.183D-04-0.115D-03-0.810D-04-0.524D-04 0.494D-03 0.111D-02
 Coeff:      0.145D-01 0.401D-01-0.741D-01-0.129D+00-0.178D+00 0.361D+00
 Coeff:      0.964D+00
 Gap=     0.108 Goal=   None    Shift=    0.000
 Gap=     0.143 Goal=   None    Shift=    0.000
 RMSDP=3.63D-06 MaxDP=9.97D-05 DE=-2.61D-07 OVMax= 5.58D-04

 Cycle  14  Pass 1  IDiag  1:
 E= -489.429678034450     Delta-E=       -0.000000148241 Rises=F Damp=F
 DIIS: error= 5.06D-06 at cycle  14 NSaved=  14.
 NSaved=14 IEnMin=14 EnMin= -489.429678034450     IErMin=14 ErrMin= 5.06D-06
 ErrMax= 5.06D-06  0.00D+00 EMaxC= 1.00D-01 BMatC= 1.63D-08 BMatP= 1.63D-07
 IDIUse=1 WtCom= 1.00D+00 WtEn= 0.00D+00
 Coeff-Com: -0.259D-04 0.169D-04-0.892D-04 0.518D-04 0.971D-04 0.339D-03
 Coeff-Com:  0.303D-02 0.749D-02-0.134D-01-0.203D-01-0.903D-01-0.868D-01
 Coeff-Com:  0.181D+00 0.102D+01
 Coeff:     -0.259D-04 0.169D-04-0.892D-04 0.518D-04 0.971D-04 0.339D-03
 Coeff:      0.303D-02 0.749D-02-0.134D-01-0.203D-01-0.903D-01-0.868D-01
 Coeff:      0.181D+00 0.102D+01
 Gap=     0.108 Goal=   None    Shift=    0.000
 Gap=     0.143 Goal=   None    Shift=    0.000
 RMSDP=1.97D-06 MaxDP=4.98D-05 DE=-1.48D-07 OVMax= 2.81D-04

 Cycle  15  Pass 1  IDiag  1:
 E= -489.429678067056     Delta-E=       -0.000000032606 Rises=F Damp=F
 DIIS: error= 3.56D-06 at cycle  15 NSaved=  15.
 NSaved=15 IEnMin=15 EnMin= -489.429678067056     IErMin=15 ErrMin= 3.56D-06
 ErrMax= 3.56D-06  0.00D+00 EMaxC= 1.00D-01 BMatC= 1.19D-08 BMatP= 1.63D-08
 IDIUse=1 WtCom= 1.00D+00 WtEn= 0.00D+00
 Coeff-Com: -0.346D-04 0.593D-04-0.452D-04 0.406D-04-0.615D-04-0.629D-04
 Coeff-Com: -0.145D-02-0.567D-02 0.921D-02 0.194D-01-0.184D-01-0.141D+00
 Coeff-Com: -0.128D+00 0.637D+00 0.629D+00
 Coeff:     -0.346D-04 0.593D-04-0.452D-04 0.406D-04-0.615D-04-0.629D-04
 Coeff:     -0.145D-02-0.567D-02 0.921D-02 0.194D-01-0.184D-01-0.141D+00
 Coeff:     -0.128D+00 0.637D+00 0.629D+00
 Gap=     0.108 Goal=   None    Shift=    0.000
 Gap=     0.143 Goal=   None    Shift=    0.000
 RMSDP=9.15D-07 MaxDP=2.39D-05 DE=-3.26D-08 OVMax= 1.44D-04

 Cycle  16  Pass 1  IDiag  1:
 E= -489.429678074740     Delta-E=       -0.000000007684 Rises=F Damp=F
 DIIS: error= 3.10D-06 at cycle  16 NSaved=  16.
 NSaved=16 IEnMin=16 EnMin= -489.429678074740     IErMin=16 ErrMin= 3.10D-06
 ErrMax= 3.10D-06  0.00D+00 EMaxC= 1.00D-01 BMatC= 4.99D-09 BMatP= 1.19D-08
 IDIUse=1 WtCom= 1.00D+00 WtEn= 0.00D+00
 Coeff-Com: -0.288D-04 0.442D-04-0.133D-05 0.457D-05 0.527D-04 0.854D-04
 Coeff-Com: -0.134D-02-0.637D-02 0.842D-02 0.176D-01 0.242D-01-0.439D-01
 Coeff-Com: -0.142D+00-0.500D-02 0.390D+00 0.758D+00
 Coeff:     -0.288D-04 0.442D-04-0.133D-05 0.457D-05 0.527D-04 0.854D-04
 Coeff:     -0.134D-02-0.637D-02 0.842D-02 0.176D-01 0.242D-01-0.439D-01
 Coeff:     -0.142D+00-0.500D-02 0.390D+00 0.758D+00
 Gap=     0.108 Goal=   None    Shift=    0.000
 Gap=     0.143 Goal=   None    Shift=    0.000
 RMSDP=5.70D-07 MaxDP=1.41D-05 DE=-7.68D-09 OVMax= 6.90D-05

 Cycle  17  Pass 1  IDiag  1:
 E= -489.429678077596     Delta-E=       -0.000000002856 Rises=F Damp=F
 DIIS: error= 1.63D-06 at cycle  17 NSaved=  17.
 NSaved=17 IEnMin=17 EnMin= -489.429678077596     IErMin=17 ErrMin= 1.63D-06
 ErrMax= 1.63D-06  0.00D+00 EMaxC= 1.00D-01 BMatC= 1.55D-09 BMatP= 4.99D-09
 IDIUse=1 WtCom= 1.00D+00 WtEn= 0.00D+00
 Coeff-Com: -0.725D-05 0.194D-06 0.490D-05 0.261D-05 0.702D-04 0.689D-04
 Coeff-Com: -0.174D-03-0.188D-02 0.122D-02 0.278D-02 0.163D-01 0.188D-01
 Coeff-Com: -0.384D-01-0.182D+00 0.253D-01 0.441D+00 0.717D+00
 Coeff:     -0.725D-05 0.194D-06 0.490D-05 0.261D-05 0.702D-04 0.689D-04
 Coeff:     -0.174D-03-0.188D-02 0.122D-02 0.278D-02 0.163D-01 0.188D-01
 Coeff:     -0.384D-01-0.182D+00 0.253D-01 0.441D+00 0.717D+00
 Gap=     0.108 Goal=   None    Shift=    0.000
 Gap=     0.143 Goal=   None    Shift=    0.000
 RMSDP=2.78D-07 MaxDP=7.06D-06 DE=-2.86D-09 OVMax= 3.10D-05

 Cycle  18  Pass 1  IDiag  1:
 E= -489.429678078292     Delta-E=       -0.000000000695 Rises=F Damp=F
 DIIS: error= 3.28D-07 at cycle  18 NSaved=  18.
 NSaved=18 IEnMin=18 EnMin= -489.429678078292     IErMin=18 ErrMin= 3.28D-07
 ErrMax= 3.28D-07  0.00D+00 EMaxC= 1.00D-01 BMatC= 1.22D-10 BMatP= 1.55D-09
 IDIUse=1 WtCom= 1.00D+00 WtEn= 0.00D+00
 Coeff-Com: -0.316D-05 0.338D-05 0.484D-05-0.500D-05 0.220D-04 0.196D-04
 Coeff-Com:  0.228D-03 0.714D-03-0.120D-02-0.290D-02 0.149D-02 0.204D-01
 Coeff-Com:  0.148D-01-0.737D-01-0.901D-01-0.101D-01 0.308D+00 0.833D+00
 Coeff:     -0.316D-05 0.338D-05 0.484D-05-0.500D-05 0.220D-04 0.196D-04
 Coeff:      0.228D-03 0.714D-03-0.120D-02-0.290D-02 0.149D-02 0.204D-01
 Coeff:      0.148D-01-0.737D-01-0.901D-01-0.101D-01 0.308D+00 0.833D+00
 Gap=     0.108 Goal=   None    Shift=    0.000
 Gap=     0.143 Goal=   None    Shift=    0.000
 RMSDP=1.06D-07 MaxDP=2.22D-06 DE=-6.95D-10 OVMax= 1.18D-05

 Cycle  19  Pass 1  IDiag  1:
 E= -489.429678078381     Delta-E=       -0.000000000090 Rises=F Damp=F
 DIIS: error= 6.98D-08 at cycle  19 NSaved=  19.
 NSaved=19 IEnMin=19 EnMin= -489.429678078381     IErMin=19 ErrMin= 6.98D-08
 ErrMax= 6.98D-08  0.00D+00 EMaxC= 1.00D-01 BMatC= 8.90D-12 BMatP= 1.22D-10
 IDIUse=1 WtCom= 1.00D+00 WtEn= 0.00D+00
 Coeff-Com:  0.857D-06-0.358D-06 0.306D-06-0.104D-05-0.613D-05-0.674D-05
 Coeff-Com:  0.183D-04 0.271D-03-0.252D-03-0.623D-03-0.157D-02-0.560D-03
 Coeff-Com:  0.527D-02 0.150D-01-0.104D-01-0.445D-01-0.517D-01 0.581D-01
 Coeff-Com:  0.103D+01
 Coeff:      0.857D-06-0.358D-06 0.306D-06-0.104D-05-0.613D-05-0.674D-05
 Coeff:      0.183D-04 0.271D-03-0.252D-03-0.623D-03-0.157D-02-0.560D-03
 Coeff:      0.527D-02 0.150D-01-0.104D-01-0.445D-01-0.517D-01 0.581D-01
 Coeff:      0.103D+01
 Gap=     0.108 Goal=   None    Shift=    0.000
 Gap=     0.143 Goal=   None    Shift=    0.000
 RMSDP=3.58D-08 MaxDP=9.25D-07 DE=-8.97D-11 OVMax= 4.64D-06

 Cycle  20  Pass 1  IDiag  1:
 E= -489.429678078392     Delta-E=       -0.000000000010 Rises=F Damp=F
 DIIS: error= 4.25D-08 at cycle  20 NSaved=  20.
 NSaved=20 IEnMin=20 EnMin= -489.429678078392     IErMin=20 ErrMin= 4.25D-08
 ErrMax= 4.25D-08  0.00D+00 EMaxC= 1.00D-01 BMatC= 2.42D-12 BMatP= 8.90D-12
 IDIUse=1 WtCom= 1.00D+00 WtEn= 0.00D+00
 Coeff-Com:  0.101D-05-0.119D-05-0.988D-06 0.984D-06-0.607D-05-0.500D-05
 Coeff-Com: -0.547D-04-0.113D-03 0.250D-03 0.618D-03-0.488D-03-0.497D-02
 Coeff-Com: -0.217D-02 0.186D-01 0.196D-01-0.496D-02-0.788D-01-0.184D+00
 Coeff-Com:  0.985D-01 0.114D+01
 Coeff:      0.101D-05-0.119D-05-0.988D-06 0.984D-06-0.607D-05-0.500D-05
 Coeff:     -0.547D-04-0.113D-03 0.250D-03 0.618D-03-0.488D-03-0.497D-02
 Coeff:     -0.217D-02 0.186D-01 0.196D-01-0.496D-02-0.788D-01-0.184D+00
 Coeff:      0.985D-01 0.114D+01
 Gap=     0.108 Goal=   None    Shift=    0.000
 Gap=     0.143 Goal=   None    Shift=    0.000
 RMSDP=2.47D-08 MaxDP=5.04D-07 DE=-1.05D-11 OVMax= 3.34D-06

 Cycle  21  Pass 1  IDiag  1:
 E= -489.429678078397     Delta-E=       -0.000000000005 Rises=F Damp=F
 DIIS: error= 2.11D-08 at cycle  21 NSaved=  20.
 NSaved=20 IEnMin=20 EnMin= -489.429678078397     IErMin=20 ErrMin= 2.11D-08
 ErrMax= 2.11D-08  0.00D+00 EMaxC= 1.00D-01 BMatC= 4.97D-13 BMatP= 2.42D-12
 IDIUse=1 WtCom= 1.00D+00 WtEn= 0.00D+00
 Coeff-Com: -0.925D-07-0.166D-06 0.383D-06 0.327D-07 0.249D-06-0.849D-05
 Coeff-Com: -0.536D-04 0.702D-04 0.199D-03 0.271D-03-0.284D-03-0.915D-03
 Coeff-Com: -0.309D-02 0.380D-02 0.870D-02 0.976D-02-0.201D-01-0.223D+00
 Coeff-Com:  0.630D-01 0.116D+01
 Coeff:     -0.925D-07-0.166D-06 0.383D-06 0.327D-07 0.249D-06-0.849D-05
 Coeff:     -0.536D-04 0.702D-04 0.199D-03 0.271D-03-0.284D-03-0.915D-03
 Coeff:     -0.309D-02 0.380D-02 0.870D-02 0.976D-02-0.201D-01-0.223D+00
 Coeff:      0.630D-01 0.116D+01
 Gap=     0.108 Goal=   None    Shift=    0.000
 Gap=     0.143 Goal=   None    Shift=    0.000
 RMSDP=1.22D-08 MaxDP=3.08D-07 DE=-5.00D-12 OVMax= 1.81D-06

 Cycle  22  Pass 1  IDiag  1:
 E= -489.429678078399     Delta-E=       -0.000000000002 Rises=F Damp=F
 DIIS: error= 8.60D-09 at cycle  22 NSaved=  20.
 NSaved=20 IEnMin=20 EnMin= -489.429678078399     IErMin=20 ErrMin= 8.60D-09
 ErrMax= 8.60D-09  0.00D+00 EMaxC= 1.00D-01 BMatC= 7.67D-14 BMatP= 4.97D-13
 IDIUse=1 WtCom= 1.00D+00 WtEn= 0.00D+00
 Coeff-Com: -0.441D-07 0.201D-07 0.195D-06-0.262D-07 0.346D-05 0.834D-05
 Coeff-Com: -0.223D-04-0.422D-04 0.353D-04 0.457D-03 0.279D-03-0.198D-02
 Coeff-Com: -0.185D-02 0.600D-03 0.938D-02 0.157D-01-0.208D-01-0.124D+00
 Coeff-Com:  0.614D-01 0.106D+01
 Coeff:     -0.441D-07 0.201D-07 0.195D-06-0.262D-07 0.346D-05 0.834D-05
 Coeff:     -0.223D-04-0.422D-04 0.353D-04 0.457D-03 0.279D-03-0.198D-02
 Coeff:     -0.185D-02 0.600D-03 0.938D-02 0.157D-01-0.208D-01-0.124D+00
 Coeff:      0.614D-01 0.106D+01
 Gap=     0.108 Goal=   None    Shift=    0.000
 Gap=     0.143 Goal=   None    Shift=    0.000
 RMSDP=4.22D-09 MaxDP=1.00D-07 DE=-2.39D-12 OVMax= 6.15D-07

 SCF Done:  E(UB3LYP) =  -489.429678078     A.U. after   22 cycles
            NFock= 22  Conv=0.42D-08     -V/T= 2.0036
 <Sx>= 0.0000 <Sy>= 0.0000 <Sz>= 0.5000 <S**2>= 0.7578 S= 0.5039
 <L.S>=  0.00000000000    
 KE= 4.876729684504D+02 PE=-1.997738892482D+03 EE= 5.947321383846D+02
 Annihilation of the first spin contaminant:
 S**2 before annihilation     0.7578,   after     0.7500
 Leave Link  502 at Sat Oct 29 20:07:59 2022, MaxMem=  8053063680 cpu:             375.3 elap:              18.6
 (Enter /public3/home/scg5914/software-scg5914/g16/l601.exe)
 Copying SCF densities to generalized density rwf, IOpCl= 1 IROHF=0.

 **********************************************************************

            Population analysis using the SCF Density.

 **********************************************************************

 Orbital symmetries:
 Alpha Orbitals:
       Occupied  (A) (A) (A) (A) (A) (A) (A) (A) (A) (A) (A) (A)
                 (A) (A) (A) (A) (A) (A) (A) (A) (A) (A) (A) (A)
                 (A) (A) (A) (A) (A) (A) (A) (A) (A)
       Virtual   (A) (A) (A) (A) (A) (A) (A) (A) (A) (A) (A) (A)
                 (A) (A) (A) (A) (A) (A) (A) (A) (A) (A) (A) (A)
                 (A) (A) (A) (A) (A) (A) (A) (A) (A) (A) (A) (A)
                 (A) (A) (A) (A) (A) (A) (A) (A) (A) (A) (A) (A)
                 (A) (A) (A) (A) (A) (A) (A) (A) (A) (A) (A) (A)
                 (A) (A) (A) (A) (A) (A) (A) (A) (A) (A) (A) (A)
                 (A) (A) (A) (A) (A) (A) (A) (A) (A) (A) (A) (A)
                 (A) (A) (A) (A) (A) (A) (A) (A) (A) (A) (A) (A)
                 (A) (A) (A) (A) (A) (A) (A) (A) (A) (A) (A) (A)
                 (A) (A) (A) (A) (A) (A) (A) (A) (A) (A) (A) (A)
                 (A) (A) (A) (A) (A) (A) (A) (A) (A) (A) (A) (A)
                 (A) (A) (A) (A) (A) (A) (A) (A) (A) (A) (A) (A)
                 (A) (A) (A) (A) (A) (A) (A) (A) (A) (A) (A) (A)
                 (A) (A) (A) (A) (A) (A) (A) (A) (A) (A) (A) (A)
                 (A) (A) (A) (A) (A) (A) (A) (A) (A) (A) (A) (A)
                 (A) (A) (A)
 Beta  Orbitals:
       Occupied  (A) (A) (A) (A) (A) (A) (A) (A) (A) (A) (A) (A)
                 (A) (A) (A) (A) (A) (A) (A) (A) (A) (A) (A) (A)
                 (A) (A) (A) (A) (A) (A) (A) (A)
       Virtual   (A) (A) (A) (A) (A) (A) (A) (A) (A) (A) (A) (A)
                 (A) (A) (A) (A) (A) (A) (A) (A) (A) (A) (A) (A)
                 (A) (A) (A) (A) (A) (A) (A) (A) (A) (A) (A) (A)
                 (A) (A) (A) (A) (A) (A) (A) (A) (A) (A) (A) (A)
                 (A) (A) (A) (A) (A) (A) (A) (A) (A) (A) (A) (A)
                 (A) (A) (A) (A) (A) (A) (A) (A) (A) (A) (A) (A)
                 (A) (A) (A) (A) (A) (A) (A) (A) (A) (A) (A) (A)
                 (A) (A) (A) (A) (A) (A) (A) (A) (A) (A) (A) (A)
                 (A) (A) (A) (A) (A) (A) (A) (A) (A) (A) (A) (A)
                 (A) (A) (A) (A) (A) (A) (A) (A) (A) (A) (A) (A)
                 (A) (A) (A) (A) (A) (A) (A) (A) (A) (A) (A) (A)
                 (A) (A) (A) (A) (A) (A) (A) (A) (A) (A) (A) (A)
                 (A) (A) (A) (A) (A) (A) (A) (A) (A) (A) (A) (A)
                 (A) (A) (A) (A) (A) (A) (A) (A) (A) (A) (A) (A)
                 (A) (A) (A) (A) (A) (A) (A) (A) (A) (A) (A) (A)
                 (A) (A) (A) (A)
 The electronic state is 2-A.
 Alpha  occ. eigenvalues --  -19.22466 -19.21409 -19.13983 -14.50094 -14.44761
 Alpha  occ. eigenvalues --  -10.34101 -10.32383 -10.31549 -10.20216  -1.18664
 Alpha  occ. eigenvalues --   -1.15961  -1.10503  -1.06032  -0.90891  -0.80086
 Alpha  occ. eigenvalues --   -0.70675  -0.66746  -0.62655  -0.55838  -0.52618
 Alpha  occ. eigenvalues --   -0.51269  -0.50595  -0.49578  -0.46761  -0.45834
 Alpha  occ. eigenvalues --   -0.44911  -0.43254  -0.42565  -0.41069  -0.37874
 Alpha  occ. eigenvalues --   -0.31829  -0.28082  -0.22496
 Alpha virt. eigenvalues --   -0.11663  -0.07216  -0.00255   0.01284   0.03078
 Alpha virt. eigenvalues --    0.03298   0.04532   0.05036   0.05315   0.06256
 Alpha virt. eigenvalues --    0.07300   0.07412   0.07579   0.09132   0.09677
 Alpha virt. eigenvalues --    0.10550   0.11187   0.12213   0.12578   0.14303
 Alpha virt. eigenvalues --    0.15357   0.15850   0.16516   0.17165   0.17433
 Alpha virt. eigenvalues --    0.18641   0.20166   0.20412   0.21498   0.22248
 Alpha virt. eigenvalues --    0.22815   0.23561   0.24446   0.25617   0.25989
 Alpha virt. eigenvalues --    0.26760   0.28564   0.29595   0.29879   0.30298
 Alpha virt. eigenvalues --    0.30545   0.31638   0.32103   0.33264   0.36955
 Alpha virt. eigenvalues --    0.37482   0.37805   0.38701   0.40181   0.45341
 Alpha virt. eigenvalues --    0.46596   0.47551   0.50481   0.54054   0.57372
 Alpha virt. eigenvalues --    0.58094   0.59797   0.61584   0.62071   0.66226
 Alpha virt. eigenvalues --    0.68112   0.68667   0.70925   0.72610   0.74235
 Alpha virt. eigenvalues --    0.78993   0.80162   0.82536   0.83407   0.84710
 Alpha virt. eigenvalues --    0.87053   0.90057   0.91703   0.92332   0.95197
 Alpha virt. eigenvalues --    0.97710   1.02409   1.03562   1.06784   1.10668
 Alpha virt. eigenvalues --    1.13634   1.14497   1.16636   1.18322   1.18660
 Alpha virt. eigenvalues --    1.18781   1.21248   1.24527   1.24949   1.31586
 Alpha virt. eigenvalues --    1.38122   1.39329   1.43327   1.47086   1.48396
 Alpha virt. eigenvalues --    1.49695   1.53712   1.55014   1.57860   1.58322
 Alpha virt. eigenvalues --    1.59672   1.60370   1.63394   1.67785   1.68724
 Alpha virt. eigenvalues --    1.73517   1.76140   1.76749   1.80134   1.85465
 Alpha virt. eigenvalues --    1.87031   1.89565   1.93659   1.97033   2.00288
 Alpha virt. eigenvalues --    2.07731   2.11916   2.12333   2.16579   2.23846
 Alpha virt. eigenvalues --    2.28322   2.29191   2.43254   2.48916   2.50876
 Alpha virt. eigenvalues --    2.51715   2.55153   2.61543   2.63411   2.65790
 Alpha virt. eigenvalues --    2.67038   2.77473   2.82013   2.84780   2.85791
 Alpha virt. eigenvalues --    2.89116   2.92390   2.94730   2.99236   3.02114
 Alpha virt. eigenvalues --    3.03545   3.09668   3.11308   3.14594   3.18985
 Alpha virt. eigenvalues --    3.32504   3.35732   3.37770   3.48487   3.54888
 Alpha virt. eigenvalues --    3.56737   3.69430   3.74430   3.77747   3.78567
 Alpha virt. eigenvalues --    3.82815   3.92817   3.93571   3.95852   3.99710
 Alpha virt. eigenvalues --    4.07506   4.15256   4.15831   4.35974   4.95365
 Alpha virt. eigenvalues --    4.97809   4.99993   5.04052   5.14195   5.27982
 Alpha virt. eigenvalues --    5.39141   5.48117   5.73035   5.84749  23.57765
 Alpha virt. eigenvalues --   23.76761  23.91287  23.91589  35.26295  36.05533
 Alpha virt. eigenvalues --   49.84689  49.86146  50.03371
  Beta  occ. eigenvalues --  -19.22073 -19.21139 -19.13995 -14.50043 -14.44578
  Beta  occ. eigenvalues --  -10.34113 -10.31606 -10.31052 -10.20136  -1.18136
  Beta  occ. eigenvalues --   -1.15654  -1.10096  -1.05707  -0.90616  -0.79168
  Beta  occ. eigenvalues --   -0.70573  -0.65958  -0.62245  -0.55035  -0.52292
  Beta  occ. eigenvalues --   -0.50223  -0.49777  -0.49312  -0.45702  -0.45532
  Beta  occ. eigenvalues --   -0.44023  -0.43112  -0.41946  -0.40374  -0.36570
  Beta  occ. eigenvalues --   -0.31769  -0.25906
  Beta virt. eigenvalues --   -0.11589  -0.10642  -0.06097   0.00050   0.01355
  Beta virt. eigenvalues --    0.03103   0.03498   0.04701   0.05181   0.05370
  Beta virt. eigenvalues --    0.06397   0.07440   0.07578   0.07840   0.09308
  Beta virt. eigenvalues --    0.09904   0.10822   0.11312   0.12341   0.12584
  Beta virt. eigenvalues --    0.14741   0.15672   0.16076   0.16783   0.17474
  Beta virt. eigenvalues --    0.17586   0.18886   0.20358   0.20903   0.21818
  Beta virt. eigenvalues --    0.22461   0.22967   0.23814   0.24584   0.25774
  Beta virt. eigenvalues --    0.26418   0.27024   0.28683   0.29673   0.29919
  Beta virt. eigenvalues --    0.30441   0.30551   0.31706   0.32179   0.33362
  Beta virt. eigenvalues --    0.37078   0.37582   0.37932   0.38963   0.40306
  Beta virt. eigenvalues --    0.45552   0.46913   0.47777   0.51203   0.54607
  Beta virt. eigenvalues --    0.57915   0.59528   0.60178   0.62245   0.62671
  Beta virt. eigenvalues --    0.66469   0.68202   0.68941   0.71251   0.72729
  Beta virt. eigenvalues --    0.74369   0.79403   0.80301   0.82865   0.83791
  Beta virt. eigenvalues --    0.84815   0.87315   0.90422   0.91813   0.92391
  Beta virt. eigenvalues --    0.95944   0.98884   1.02959   1.03922   1.06916
  Beta virt. eigenvalues --    1.10911   1.13930   1.14646   1.16831   1.18392
  Beta virt. eigenvalues --    1.18856   1.18904   1.21471   1.24733   1.25476
  Beta virt. eigenvalues --    1.31811   1.38434   1.39633   1.43516   1.48423
  Beta virt. eigenvalues --    1.49759   1.50297   1.54282   1.55394   1.58185
  Beta virt. eigenvalues --    1.59762   1.59993   1.61648   1.63615   1.68021
  Beta virt. eigenvalues --    1.69053   1.74480   1.76943   1.77165   1.80382
  Beta virt. eigenvalues --    1.85888   1.88158   1.89976   1.94259   1.97264
  Beta virt. eigenvalues --    2.00395   2.07880   2.12353   2.13041   2.16879
  Beta virt. eigenvalues --    2.24011   2.28671   2.30613   2.43554   2.49148
  Beta virt. eigenvalues --    2.51304   2.51898   2.55383   2.61705   2.64193
  Beta virt. eigenvalues --    2.67105   2.67871   2.78632   2.82288   2.85280
  Beta virt. eigenvalues --    2.85947   2.89461   2.93114   2.95182   3.00169
  Beta virt. eigenvalues --    3.02828   3.03756   3.10410   3.12579   3.15229
  Beta virt. eigenvalues --    3.19205   3.32681   3.35973   3.37818   3.49350
  Beta virt. eigenvalues --    3.55017   3.57250   3.69561   3.74926   3.77854
  Beta virt. eigenvalues --    3.78955   3.82955   3.93161   3.94097   3.95952
  Beta virt. eigenvalues --    4.00111   4.07754   4.15601   4.16349   4.36095
  Beta virt. eigenvalues --    4.96561   4.98921   5.00159   5.04084   5.14218
  Beta virt. eigenvalues --    5.28386   5.39538   5.48319   5.73266   5.84941
  Beta virt. eigenvalues --   23.59251  23.76722  23.91267  23.91673  35.26425
  Beta virt. eigenvalues --   36.05644  49.84979  49.86479  50.03398
          Condensed to atoms (all electrons):
               1          2          3          4          5          6
     1  C    5.640150  -0.242992  -0.104217   0.042257  -0.055480  -0.143769
     2  C   -0.242992   6.324022   0.241209  -0.292108  -0.067973   0.194261
     3  O   -0.104217   0.241209   8.080782   0.284580  -0.375752  -0.034595
     4  C    0.042257  -0.292108   0.284580   5.555687  -0.188101  -0.011688
     5  C   -0.055480  -0.067973  -0.375752  -0.188101   6.704600   0.148707
     6  O   -0.143769   0.194261  -0.034595  -0.011688   0.148707   8.027607
     7  N    0.013858   0.002772   0.026160  -0.003108   0.275407  -0.047970
     8  N    0.010715   0.028657   0.001538  -0.109162  -0.217442  -0.035512
     9  O   -0.000384   0.012742  -0.077082   0.400334  -0.099021   0.004403
    10  H    0.355416   0.006347  -0.007470   0.001537   0.010878  -0.009558
    11  H    0.437103  -0.071894  -0.008261   0.006271  -0.006295   0.014261
    12  H    0.430243  -0.061982   0.012554  -0.003251   0.000990  -0.007609
               7          8          9         10         11         12
     1  C    0.013858   0.010715  -0.000384   0.355416   0.437103   0.430243
     2  C    0.002772   0.028657   0.012742   0.006347  -0.071894  -0.061982
     3  O    0.026160   0.001538  -0.077082  -0.007470  -0.008261   0.012554
     4  C   -0.003108  -0.109162   0.400334   0.001537   0.006271  -0.003251
     5  C    0.275407  -0.217442  -0.099021   0.010878  -0.006295   0.000990
     6  O   -0.047970  -0.035512   0.004403  -0.009558   0.014261  -0.007609
     7  N    6.550527  -0.264077   0.034719  -0.000195   0.000205   0.000274
     8  N   -0.264077   7.791704  -0.005825   0.000328  -0.000014   0.000038
     9  O    0.034719  -0.005825   8.042912  -0.000288   0.000058   0.000028
    10  H   -0.000195   0.000328  -0.000288   0.523826  -0.024099  -0.024853
    11  H    0.000205  -0.000014   0.000058  -0.024099   0.499290  -0.019937
    12  H    0.000274   0.000038   0.000028  -0.024853  -0.019937   0.505108
          Atomic-Atomic Spin Densities.
               1          2          3          4          5          6
     1  C    0.093659  -0.099008   0.007013  -0.018069  -0.017374   0.009159
     2  C   -0.099008   1.064615  -0.121105   0.028127   0.041144  -0.150205
     3  O    0.007013  -0.121105   0.152045   0.004522  -0.002726   0.016139
     4  C   -0.018069   0.028127   0.004522  -0.015415  -0.009418   0.009724
     5  C   -0.017374   0.041144  -0.002726  -0.009418  -0.058586  -0.006697
     6  O    0.009159  -0.150205   0.016139   0.009724  -0.006697   0.215909
     7  N    0.001268  -0.002341  -0.002572   0.002456   0.032805  -0.011938
     8  N   -0.002126   0.009539   0.000392  -0.004526  -0.010032   0.005489
     9  O    0.001150  -0.001794  -0.002010   0.005758   0.002453  -0.001250
    10  H   -0.022943   0.001350   0.005550   0.003163   0.000854   0.008342
    11  H    0.009775  -0.008515   0.000257  -0.000157  -0.000078  -0.000232
    12  H    0.009818  -0.008530  -0.000156  -0.000439  -0.000033  -0.000086
               7          8          9         10         11         12
     1  C    0.001268  -0.002126   0.001150  -0.022943   0.009775   0.009818
     2  C   -0.002341   0.009539  -0.001794   0.001350  -0.008515  -0.008530
     3  O   -0.002572   0.000392  -0.002010   0.005550   0.000257  -0.000156
     4  C    0.002456  -0.004526   0.005758   0.003163  -0.000157  -0.000439
     5  C    0.032805  -0.010032   0.002453   0.000854  -0.000078  -0.000033
     6  O   -0.011938   0.005489  -0.001250   0.008342  -0.000232  -0.000086
     7  N   -0.011195   0.008253  -0.000477  -0.000332   0.000024   0.000018
     8  N    0.008253   0.083518   0.000969  -0.000027   0.000007   0.000009
     9  O   -0.000477   0.000969  -0.007793  -0.000125  -0.000001   0.000007
    10  H   -0.000332  -0.000027  -0.000125   0.051791  -0.002811  -0.003328
    11  H    0.000024   0.000007  -0.000001  -0.002811   0.000531   0.000719
    12  H    0.000018   0.000009   0.000007  -0.003328   0.000719   0.001344
 Mulliken charges and spin densities:
               1          2
     1  C   -0.382900  -0.027678
     2  C   -0.073062   0.753276
     3  O   -0.039447   0.057348
     4  C    0.316752   0.005725
     5  C   -0.130520  -0.027688
     6  O   -0.098540   0.094353
     7  N    0.411428   0.015969
     8  N   -0.200948   0.091464
     9  O   -0.312598  -0.003113
    10  H    0.168129   0.041483
    11  H    0.173310  -0.000482
    12  H    0.168395  -0.000657
 Sum of Mulliken charges =  -0.00000   1.00000
 Mulliken charges and spin densities with hydrogens summed into heavy atoms:
               1          2
     1  C    0.126935   0.012666
     2  C   -0.073062   0.753276
     3  O   -0.039447   0.057348
     4  C    0.316752   0.005725
     5  C   -0.130520  -0.027688
     6  O   -0.098540   0.094353
     7  N    0.411428   0.015969
     8  N   -0.200948   0.091464
     9  O   -0.312598  -0.003113
 Electronic spatial extent (au):  <R**2>=           1115.9677
 Charge=             -0.0000 electrons
 Dipole moment (field-independent basis, Debye):
    X=             -1.8079    Y=             -2.8324    Z=              0.3020  Tot=              3.3738
 Quadrupole moment (field-independent basis, Debye-Ang):
   XX=            -48.6221   YY=            -58.8379   ZZ=            -50.2445
   XY=              0.1066   XZ=             -1.5093   YZ=             -0.7395
 Traceless Quadrupole moment (field-independent basis, Debye-Ang):
   XX=              3.9461   YY=             -6.2698   ZZ=              2.3237
   XY=              0.1066   XZ=             -1.5093   YZ=             -0.7395
 Octapole moment (field-independent basis, Debye-Ang**2):
  XXX=            -29.0882  YYY=            -15.8810  ZZZ=              3.0242  XYY=             -5.9373
  XXY=             -1.7053  XXZ=              1.1571  XZZ=              1.5562  YZZ=              2.2863
  YYZ=             -1.0578  XYZ=              0.0543
 Hexadecapole moment (field-independent basis, Debye-Ang**3):
 XXXX=           -976.7420 YYYY=           -446.3513 ZZZZ=            -70.1780 XXXY=             30.3164
 XXXZ=             -3.8479 YYYX=            -12.6880 YYYZ=             -1.6870 ZZZX=             -5.3827
 ZZZY=             -0.8303 XXYY=           -236.5431 XXZZ=           -177.2710 YYZZ=            -79.8076
 XXYZ=             -0.4125 YYXZ=             -1.3660 ZZXY=             -0.4004
 N-N= 4.259041075687D+02 E-N=-1.997738892105D+03  KE= 4.876729684504D+02
                          Isotropic Fermi Contact Couplings
        Atom                 a.u.       MegaHertz       Gauss      10(-4) cm-1
     1  C(13)              0.04141      46.55034      16.61032      15.52752
     2  C(13)              0.36315     408.25535     145.67566     136.17933
     3  O(17)              0.04297     -26.05103      -9.29565      -8.68969
     4  C(13)             -0.00149      -1.67040      -0.59604      -0.55718
     5  C(13)             -0.00697      -7.84110      -2.79790      -2.61551
     6  O(17)              0.04228     -25.63085      -9.14572      -8.54953
     7  N(14)             -0.00174      -0.56085      -0.20012      -0.18708
     8  N(14)              0.00451       1.45868       0.52049       0.48656
     9  O(17)             -0.00051       0.31093       0.11095       0.10372
    10  H(1)               0.01371      61.26072      21.85935      20.43438
    11  H(1)               0.00074       3.30986       1.18104       1.10405
    12  H(1)               0.00074       3.32712       1.18720       1.10981
 --------------------------------------------------------
       Center         ----  Spin Dipole Couplings  ----
                      3XX-RR        3YY-RR        3ZZ-RR
 --------------------------------------------------------
     1   Atom        0.021042     -0.031323      0.010280
     2   Atom       -0.447609     -0.453977      0.901586
     3   Atom       -0.213660     -0.218067      0.431728
     4   Atom        0.014747      0.000036     -0.014784
     5   Atom        0.036799      0.010397     -0.047196
     6   Atom       -0.306452     -0.326161      0.632613
     7   Atom       -0.023231     -0.049371      0.072602
     8   Atom       -0.112344     -0.111220      0.223564
     9   Atom        0.019218      0.008191     -0.027410
    10   Atom       -0.001064     -0.008394      0.009458
    11   Atom        0.017198     -0.010557     -0.006641
    12   Atom        0.001806      0.004670     -0.006476
 --------------------------------------------------------
                        XY            XZ            YZ
 --------------------------------------------------------
     1   Atom        0.019412     -0.056441     -0.019185
     2   Atom        0.002215      0.040127      0.025815
     3   Atom        0.003291      0.004055      0.128780
     4   Atom        0.008114      0.002623      0.008400
     5   Atom        0.002463      0.017085      0.012426
     6   Atom        0.009786      0.038793     -0.083653
     7   Atom       -0.005830     -0.007143      0.004392
     8   Atom       -0.002011      0.004202      0.075770
     9   Atom        0.001274     -0.030910      0.020434
    10   Atom        0.002505     -0.006351     -0.001632
    11   Atom       -0.004755     -0.007590      0.000768
    12   Atom        0.014250     -0.005746     -0.005768
 --------------------------------------------------------


 ---------------------------------------------------------------------------------
              Anisotropic Spin Dipole Couplings in Principal Axis System
 ---------------------------------------------------------------------------------

       Atom             a.u.   MegaHertz   Gauss  10(-4) cm-1        Axes

              Baa    -0.0414    -5.556    -1.982    -1.853  0.5848  0.3048  0.7518
     1 C(13)  Bbb    -0.0377    -5.058    -1.805    -1.687 -0.3798  0.9217 -0.0783
              Bcc     0.0791    10.614     3.787     3.540  0.7168  0.2398 -0.6548
 
              Baa    -0.4548   -61.032   -21.778   -20.358 -0.2342  0.9721 -0.0116
     2 C(13)  Bbb    -0.4485   -60.178   -21.473   -20.073  0.9717  0.2337 -0.0334
              Bcc     0.9033   121.210    43.251    40.431  0.0297  0.0191  0.9994
 
              Baa    -0.2429    17.574     6.271     5.862 -0.0844  0.9788 -0.1864
     3 O(17)  Bbb    -0.2135    15.447     5.512     5.153  0.9964  0.0816 -0.0226
              Bcc     0.4564   -33.021   -11.783   -11.015  0.0069  0.1876  0.9822
 
              Baa    -0.0186    -2.497    -0.891    -0.833  0.0314 -0.4219  0.9061
     4 C(13)  Bbb    -0.0008    -0.105    -0.037    -0.035 -0.4777  0.7900  0.3844
              Bcc     0.0194     2.602     0.928     0.868  0.8780  0.4449  0.1768
 
              Baa    -0.0527    -7.075    -2.525    -2.360 -0.1794 -0.1833  0.9665
     5 C(13)  Bbb     0.0118     1.582     0.564     0.528 -0.1962  0.9694  0.1474
              Bcc     0.0409     5.493     1.960     1.832  0.9640  0.1632  0.2099
 
              Baa    -0.3389    24.525     8.751     8.181 -0.3889  0.9164  0.0944
     6 O(17)  Bbb    -0.3024    21.884     7.809     7.300  0.9204  0.3909 -0.0032
              Bcc     0.6414   -46.409   -16.560   -15.480  0.0399 -0.0857  0.9955
 
              Baa    -0.0507    -1.955    -0.697    -0.652  0.2019  0.9791 -0.0232
     7 N(14)  Bbb    -0.0226    -0.873    -0.312    -0.291  0.9764 -0.1994  0.0824
              Bcc     0.0733     2.828     1.009     0.943 -0.0761  0.0393  0.9963
 
              Baa    -0.1281    -4.940    -1.763    -1.648  0.1786  0.9614 -0.2093
     8 N(14)  Bbb    -0.1119    -4.314    -1.539    -1.439  0.9839 -0.1768  0.0276
              Bcc     0.2400     9.254     3.302     3.087  0.0105  0.2108  0.9775
 
              Baa    -0.0491     3.553     1.268     1.185  0.3959 -0.3163  0.8621
     9 O(17)  Bbb     0.0119    -0.861    -0.307    -0.287  0.4197  0.8973  0.1364
              Bcc     0.0372    -2.692    -0.961    -0.898  0.8167 -0.3078 -0.4880
 
              Baa    -0.0092    -4.896    -1.747    -1.633 -0.3113  0.9500 -0.0229
    10 H(1)   Bbb    -0.0036    -1.908    -0.681    -0.636  0.8461  0.2881  0.4484
              Bcc     0.0128     6.804     2.428     2.270 -0.4326 -0.1202  0.8935
 
              Baa    -0.0114    -6.101    -2.177    -2.035  0.2052  0.9638  0.1705
    11 H(1)   Bbb    -0.0087    -4.652    -1.660    -1.552  0.2372 -0.2180  0.9467
              Bcc     0.0202    10.753     3.837     3.587  0.9495 -0.1539 -0.2734
 
              Baa    -0.0111    -5.948    -2.123    -1.984  0.7619 -0.6269  0.1629
    12 H(1)   Bbb    -0.0089    -4.751    -1.695    -1.585  0.0686  0.3283  0.9421
              Bcc     0.0201    10.699     3.818     3.569  0.6441  0.7066 -0.2931
 

 ---------------------------------------------------------------------------------

 No NMR shielding tensors so no spin-rotation constants.
 Leave Link  601 at Sat Oct 29 20:07:59 2022, MaxMem=  8053063680 cpu:               4.7 elap:               0.2
 (Enter /public3/home/scg5914/software-scg5914/g16/l701.exe)
 ... and contract with generalized density number  0.
 Compute integral first derivatives.
 R6Disp: Adding Grimme-D3(BJ) dispersion energy 1st derivatives to the gradient.
 Leave Link  701 at Sat Oct 29 20:07:59 2022, MaxMem=  8053063680 cpu:               3.0 elap:               0.1
 (Enter /public3/home/scg5914/software-scg5914/g16/l702.exe)
 L702 exits ... SP integral derivatives will be done elsewhere.
 Leave Link  702 at Sat Oct 29 20:08:00 2022, MaxMem=  8053063680 cpu:               0.2 elap:               0.0
 (Enter /public3/home/scg5914/software-scg5914/g16/l703.exe)
 Integral derivatives from FoFJK, PRISM(SPDF).
 Compute integral first derivatives, UseDBF=F ICtDFT=           0.
 Calling FoFJK, ICntrl=      2127 FMM=F ISym2X=0 I1Cent= 0 IOpClX= 1 NMat=1 NMatS=1 NMatT=0.
 FoFJK:  IHMeth= 1 ICntrl=    2127 DoSepK=F KAlg= 0 I1Cent=           0 FoldK=F
 IRaf=         0 NMat=       1 IRICut=       1 DoRegI=T DoRafI=F ISym2E= 0 IDoP0=0 IntGTp=1.
 FoFCou: FMM=F IPFlag=           0 FMFlag=      100000 FMFlg1=         800
         NFxFlg=           0 DoJE=F BraDBF=F KetDBF=F FulRan=T
         wScrn=  0.000000 ICntrl=      2127 IOpCl=  1 I1Cent=           0 NGrid=           0
         NMat0=    1 NMatS0=      1 NMatT0=    0 NMatD0=    1 NMtDS0=    0 NMtDT0=    0
 Symmetry not used in FoFCou.
 Leave Link  703 at Sat Oct 29 20:08:01 2022, MaxMem=  8053063680 cpu:              38.9 elap:               1.2
 (Enter /public3/home/scg5914/software-scg5914/g16/l716.exe)
 Dipole        =-7.11294057D-01-1.11434775D+00 1.18809665D-01
 ***** Axes restored to original set *****
 -------------------------------------------------------------------
 Center     Atomic                   Forces (Hartrees/Bohr)
 Number     Number              X              Y              Z
 -------------------------------------------------------------------
      1        6          -0.010492133   -0.011606623    0.000487631
      2        6           0.028152936    0.028588074   -0.000895946
      3        8          -0.013650457   -0.007415776    0.015454444
      4        6           0.001931114   -0.001538464    0.001159736
      5        6          -0.001643607    0.005179670   -0.002722241
      6        8          -0.011278719   -0.011421377   -0.015323193
      7        7           0.008725531   -0.006386242    0.007718977
      8        7          -0.006403944    0.004254779   -0.004906293
      9        8           0.001569904   -0.000902692   -0.000408028
     10        1           0.001676010    0.000626682   -0.000375770
     11        1           0.000881609    0.000253377    0.001109860
     12        1           0.000531757    0.000368592   -0.001299177
 -------------------------------------------------------------------
 Cartesian Forces:  Max     0.028588074 RMS     0.009344292
 Leave Link  716 at Sat Oct 29 20:08:01 2022, MaxMem=  8053063680 cpu:               0.7 elap:               0.0
 (Enter /public3/home/scg5914/software-scg5914/g16/l103.exe)

 GradGradGradGradGradGradGradGradGradGradGradGradGradGradGradGradGradGrad
 Berny optimization.
 FormGI is forming the generalized inverse of G from B-inverse, IUseBI=4.
 Internal  Forces:  Max     0.013849007 RMS     0.004828357
 Search for a local minimum.
 Step number   1 out of a maximum of   59
 All quantities printed in internal units (Hartrees-Bohrs-Radians)
 RMS Force = .48284D-02 SwitMx=.10000D-02 MixMth= 1
 Mixed Optimization -- RFO/linear search
 Second derivative matrix not updated -- first step.
 ITU=  0
     Eigenvalues ---    0.00671   0.01493   0.01524   0.01666   0.01729
     Eigenvalues ---    0.04696   0.04696   0.05368   0.07400   0.07460
     Eigenvalues ---    0.16000   0.16000   0.16000   0.18286   0.21666
     Eigenvalues ---    0.24773   0.24972   0.24997   0.31633   0.34478
     Eigenvalues ---    0.34513   0.34549   0.35099   0.38697   0.39895
     Eigenvalues ---    0.46588   0.49193   0.70618   1.07148   1.39703
 RFO step:  Lambda=-7.84857549D-03 EMin= 6.70627714D-03
 Linear search not attempted -- first point.
 Iteration  1 RMS(Cart)=  0.05481615 RMS(Int)=  0.00343334
 Iteration  2 RMS(Cart)=  0.00381445 RMS(Int)=  0.00243848
 Iteration  3 RMS(Cart)=  0.00000736 RMS(Int)=  0.00243848
 Iteration  4 RMS(Cart)=  0.00000005 RMS(Int)=  0.00243848
 ITry= 1 IFail=0 DXMaxC= 1.62D-01 DCOld= 1.00D+10 DXMaxT= 3.00D-01 DXLimC= 3.00D+00 Rises=F
 Variable       Old X    -DE/DX   Delta X   Delta X   Delta X     New X
                                 (Linear)    (Quad)   (Total)
    R1        2.84821  -0.00592   0.00000  -0.01825  -0.01825   2.82996
    R2        2.06414   0.00162   0.00000   0.00458   0.00458   2.06872
    R3        2.06474  -0.00138   0.00000  -0.00390  -0.00390   2.06084
    R4        2.06531  -0.00137   0.00000  -0.00389  -0.00389   2.06142
    R5        2.69775  -0.01385   0.00000  -0.03947  -0.03789   2.65986
    R6        2.71720  -0.01343   0.00000  -0.03979  -0.03841   2.67879
    R7        2.60489   0.00324   0.00000   0.00816   0.00783   2.61272
    R8        2.74951  -0.00528   0.00000  -0.00480  -0.00663   2.74288
    R9        2.25905   0.00156   0.00000   0.00144   0.00144   2.26049
   R10        2.60151  -0.00300   0.00000  -0.00344  -0.00420   2.59731
   R11        2.43410   0.00410   0.00000   0.00574   0.00574   2.43985
   R12        2.15969  -0.00910   0.00000  -0.00648  -0.00648   2.15321
    A1        1.91889  -0.00154   0.00000  -0.01027  -0.01027   1.90862
    A2        1.91508   0.00070   0.00000   0.00435   0.00434   1.91941
    A3        1.91221   0.00091   0.00000   0.00631   0.00630   1.91852
    A4        1.90845   0.00008   0.00000  -0.00127  -0.00127   1.90718
    A5        1.90833   0.00023   0.00000   0.00099   0.00100   1.90933
    A6        1.90074  -0.00037   0.00000  -0.00003  -0.00005   1.90068
    A7        1.94153   0.00779   0.00000   0.09026   0.08229   2.02383
    A8        1.91979   0.00856   0.00000   0.09351   0.08537   2.00516
    A9        1.86145  -0.00218   0.00000   0.02678   0.01878   1.88024
   A10        1.91588   0.00548   0.00000   0.00733   0.00978   1.92565
   A11        1.81125  -0.00458   0.00000  -0.00484  -0.00640   1.80486
   A12        2.17045   0.00341   0.00000   0.00690   0.00761   2.17806
   A13        2.30138   0.00119   0.00000  -0.00183  -0.00112   2.30026
   A14        1.95200  -0.00341   0.00000  -0.00021  -0.00265   1.94934
   A15        2.20552   0.00248   0.00000   0.00430   0.00445   2.20998
   A16        2.12462   0.00104   0.00000  -0.00109  -0.00095   2.12367
   A17        1.81598   0.00713   0.00000   0.01532   0.01721   1.83319
   A18        3.11937  -0.00047   0.00000  -0.00850  -0.00850   3.11087
   A19        3.14288  -0.00098   0.00000  -0.01787  -0.01787   3.12501
    D1       -1.00681  -0.00362   0.00000  -0.06985  -0.07316  -1.07997
    D2        1.05174   0.00392   0.00000   0.07829   0.08159   1.13333
    D3        1.09278  -0.00405   0.00000  -0.07513  -0.07844   1.01434
    D4       -3.13186   0.00349   0.00000   0.07301   0.07630  -3.05556
    D5       -3.10445  -0.00352   0.00000  -0.06863  -0.07191   3.10682
    D6       -1.04590   0.00402   0.00000   0.07951   0.08283  -0.96307
    D7        2.41104   0.00767   0.00000   0.08728   0.08673   2.49777
    D8        0.31755  -0.00581   0.00000  -0.09429  -0.09425   0.22330
    D9       -2.45134  -0.00731   0.00000  -0.06828  -0.06762  -2.51896
   D10       -0.34387   0.00560   0.00000   0.10934   0.10973  -0.23415
   D11       -0.15264   0.00289   0.00000   0.03961   0.03840  -0.11424
   D12        3.00239   0.00195   0.00000   0.02392   0.02306   3.02545
   D13       -0.07409   0.00121   0.00000   0.03644   0.03626  -0.03783
   D14        3.11621  -0.00138   0.00000  -0.03373  -0.03333   3.08287
   D15        3.05261   0.00227   0.00000   0.05393   0.05325   3.10586
   D16       -0.04028  -0.00032   0.00000  -0.01624  -0.01634  -0.05662
   D17        0.26173  -0.00398   0.00000  -0.09351  -0.09241   0.16933
   D18       -2.92597  -0.00147   0.00000  -0.02691  -0.02660  -2.95257
         Item               Value     Threshold  Converged?
 Maximum Force            0.013849     0.000450     NO 
 RMS     Force            0.004828     0.000300     NO 
 Maximum Displacement     0.161566     0.001800     NO 
 RMS     Displacement     0.052465     0.001200     NO 
 Predicted change in Energy=-4.716236D-03
 Lowest energy point so far.  Saving SCF results.
 GradGradGradGradGradGradGradGradGradGradGradGradGradGradGradGradGradGrad

 Leave Link  103 at Sat Oct 29 20:08:01 2022, MaxMem=  8053063680 cpu:               1.0 elap:               0.1
 (Enter /public3/home/scg5914/software-scg5914/g16/l202.exe)
                          Input orientation:                          
 ---------------------------------------------------------------------
 Center     Atomic      Atomic             Coordinates (Angstroms)
 Number     Number       Type             X           Y           Z
 ---------------------------------------------------------------------
      1          6           0       -0.462916    1.521022    0.083180
      2          6           0        0.308528    0.243578   -0.041978
      3          8           0        1.012874    0.064817   -1.247426
      4          6           0        2.217872   -0.570182   -1.010102
      5          6           0        2.286957   -0.630663    0.438461
      6          8           0        1.204558   -0.019152    1.024586
      7          7           0        3.210505   -1.194761    1.142605
      8          7           0        4.049531   -1.688278    1.734867
      9          8           0        2.967976   -0.950826   -1.860604
     10          1           0        0.228411    2.368506    0.035767
     11          1           0       -1.186146    1.600574   -0.729164
     12          1           0       -0.996361    1.541434    1.034490
 ---------------------------------------------------------------------
                    Distance matrix (angstroms):
                    1          2          3          4          5
     1  C    0.000000
     2  C    1.497549   0.000000
     3  O    2.463535   1.407538   0.000000
     4  C    3.571418   2.290210   1.382594   0.000000
     5  C    3.509668   2.215694   2.224678   1.451470   0.000000
     6  O    2.457407   1.417552   2.281629   2.338888   1.374436
     7  N    4.689550   3.448699   3.482580   2.451442   1.291110
     8  N    5.778395   4.569939   4.603118   3.484246   2.430203
     9  O    4.653960   3.436082   2.286906   1.196202   2.419089
    10  H    1.094719   2.127859   2.751173   3.699687   3.659889
    11  H    1.090548   2.132537   2.731819   4.047029   4.290013
    12  H    1.090858   2.132124   3.380025   4.355522   3.981636
                    6          7          8          9         10
     6  O    0.000000
     7  N    2.328048   0.000000
     8  N    3.374071   1.139429   0.000000
     9  O    3.507418   3.022845   3.826357   0.000000
    10  H    2.762523   4.776489   5.826267   4.703127   0.000000
    11  H    3.378552   5.536059   6.655848   5.004650   1.782080
    12  H    2.698067   5.019579   6.031798   5.505351   1.783693
                   11         12
    11  H    0.000000
    12  H    1.774822   0.000000
 Stoichiometry    C4H3N2O3(2)
 Framework group  C1[X(C4H3N2O3)]
 Deg. of freedom    30
 Full point group                 C1      NOp   1
 RotChk:  IX=0 Diff= 2.66D-02
 Largest Abelian subgroup         C1      NOp   1
 Largest concise Abelian subgroup C1      NOp   1
                         Standard orientation:                         
 ---------------------------------------------------------------------
 Center     Atomic      Atomic             Coordinates (Angstroms)
 Number     Number       Type             X           Y           Z
 ---------------------------------------------------------------------
      1          6           0       -2.786761   -0.721275    0.252567
      2          6           0       -1.500391   -0.290748   -0.381902
      3          8           0       -1.103703    1.036275   -0.131278
      4          6           0        0.270070    1.109109    0.006596
      5          6           0        0.684881   -0.281640   -0.016113
      6          8           0       -0.391315   -1.131201   -0.111635
      7          7           0        1.897080   -0.724518    0.021283
      8          7           0        2.977446   -1.083125    0.071381
      9          8           0        0.892596    2.125110    0.111965
     10          1           0       -2.692870   -0.659153    1.341481
     11          1           0       -3.599626   -0.072855   -0.076213
     12          1           0       -3.016613   -1.748635   -0.033212
 ---------------------------------------------------------------------
 Rotational constants (GHZ):           3.0650271           1.3653953           0.9627589
 Leave Link  202 at Sat Oct 29 20:08:01 2022, MaxMem=  8053063680 cpu:               0.1 elap:               0.0
 (Enter /public3/home/scg5914/software-scg5914/g16/l301.exe)
 Standard basis: 6-311+G(d,p) (5D, 7F)
 Ernie: Thresh=  0.10000D-02 Tol=  0.10000D-05 Strict=F.
 There are   225 symmetry adapted cartesian basis functions of A   symmetry.
 There are   216 symmetry adapted basis functions of A   symmetry.
   216 basis functions,   348 primitive gaussians,   225 cartesian basis functions
    33 alpha electrons       32 beta electrons
       nuclear repulsion energy       425.6814223981 Hartrees.
 IExCor=  402 DFT=T Ex+Corr=B3LYP ExCW=0 ScaHFX=  0.200000
 ScaDFX=  0.800000  0.720000  1.000000  0.810000 ScalE2=  1.000000  1.000000
 IRadAn=      5 IRanWt=     -1 IRanGd=            0 ICorTp=0 IEmpDi=141
 NAtoms=   12 NActive=   12 NUniq=   12 SFac= 1.00D+00 NAtFMM=   60 NAOKFM=F Big=F
 Integral buffers will be    131072 words long.
 Raffenetti 2 integral format.
 Two-electron integral symmetry is turned on.
 R6Disp:  Grimme-D3(BJ) Dispersion energy=       -0.0176911135 Hartrees.
 Nuclear repulsion after empirical dispersion term =      425.6637312846 Hartrees.
 Leave Link  301 at Sat Oct 29 20:08:01 2022, MaxMem=  8053063680 cpu:               0.6 elap:               0.0
 (Enter /public3/home/scg5914/software-scg5914/g16/l302.exe)
 NPDir=0 NMtPBC=     1 NCelOv=     1 NCel=       1 NClECP=     1 NCelD=      1
         NCelK=      1 NCelE2=     1 NClLst=     1 CellRange=     0.0.
 One-electron integrals computed using PRISM.
 One-electron integral symmetry used in STVInt
 NBasis=   216 RedAO= T EigKep=  2.48D-05  NBF=   216
 NBsUse=   216 1.00D-06 EigRej= -1.00D+00 NBFU=   216
 Precomputing XC quadrature grid using
 IXCGrd= 4 IRadAn=           5 IRanWt=          -1 IRanGd=           0 AccXCQ= 0.00D+00.
 Generated NRdTot=       0 NPtTot=           0 NUsed=           0 NTot=          32
 NSgBfM=   225   225   225   225   225 MxSgAt=    12 MxSgA2=    12.
 Leave Link  302 at Sat Oct 29 20:08:01 2022, MaxMem=  8053063680 cpu:               3.3 elap:               0.1
 (Enter /public3/home/scg5914/software-scg5914/g16/l303.exe)
 DipDrv:  MaxL=1.
 Leave Link  303 at Sat Oct 29 20:08:01 2022, MaxMem=  8053063680 cpu:               0.6 elap:               0.0
 (Enter /public3/home/scg5914/software-scg5914/g16/l401.exe)
 Initial guess from the checkpoint file:  "dsgdb9nsd_126081-4.chk"
 B after Tr=     0.000000    0.000000    0.000000
         Rot=    0.999984   -0.001231    0.001307    0.005304 Ang=  -0.64 deg.
 Guess basis will be translated and rotated to current coordinates.
 JPrj=2 DoOrth=T DoCkMO=T.
 Initial guess <Sx>= 0.0000 <Sy>= 0.0000 <Sz>= 0.5000 <S**2>= 0.7579 S= 0.5039
 Generating alternative initial guess.
 ExpMin= 4.38D-02 ExpMax= 8.59D+03 ExpMxC= 1.30D+03 IAcc=3 IRadAn=         5 AccDes= 0.00D+00
 Harris functional with IExCor=  402 and IRadAn=       5 diagonalized for initial guess.
 HarFok:  IExCor=  402 AccDes= 0.00D+00 IRadAn=         5 IDoV= 1 UseB2=F ITyADJ=14
 ICtDFT=  3500011 ScaDFX=  1.000000  1.000000  1.000000  1.000000
 FoFCou: FMM=F IPFlag=           0 FMFlag=      100000 FMFlg1=           0
         NFxFlg=           0 DoJE=T BraDBF=F KetDBF=T FulRan=T
         wScrn=  0.000000 ICntrl=       500 IOpCl=  0 I1Cent=   200000004 NGrid=           0
         NMat0=    1 NMatS0=      1 NMatT0=    0 NMatD0=    1 NMtDS0=    0 NMtDT0=    0
 Petite list used in FoFCou.
 Harris En= -489.424478916525    
 Leave Link  401 at Sat Oct 29 20:08:02 2022, MaxMem=  8053063680 cpu:              11.8 elap:               0.4
 (Enter /public3/home/scg5914/software-scg5914/g16/l502.exe)
 Keep R1 and R2 ints in memory in canonical form, NReq=583032936.
 FoFCou: FMM=F IPFlag=           0 FMFlag=           0 FMFlg1=           0
         NFxFlg=           0 DoJE=F BraDBF=F KetDBF=F FulRan=T
         wScrn=  0.000000 ICntrl=       600 IOpCl=  0 I1Cent=           0 NGrid=           0
         NMat0=    1 NMatS0=  23436 NMatT0=    0 NMatD0=    1 NMtDS0=    0 NMtDT0=    0
 Symmetry not used in FoFCou.
 Two-electron integral symmetry not used.
 UHF open shell SCF:
 Using DIIS extrapolation, IDIIS=  1040.
 NGot=  8053063680 LenX=  7503683252 LenY=  7503632186
 Requested convergence on RMS density matrix=1.00D-08 within 128 cycles.
 Requested convergence on MAX density matrix=1.00D-06.
 Requested convergence on             energy=1.00D-06.
 No special actions if energy rises.

 Cycle   1  Pass 1  IDiag  1:
 E= -489.425710646064    
 DIIS: error= 4.24D-03 at cycle   1 NSaved=   1.
 NSaved= 1 IEnMin= 1 EnMin= -489.425710646064     IErMin= 1 ErrMin= 4.24D-03
 ErrMax= 4.24D-03  0.00D+00 EMaxC= 1.00D-01 BMatC= 2.10D-02 BMatP= 2.10D-02
 IDIUse=3 WtCom= 9.58D-01 WtEn= 4.24D-02
 Coeff-Com:  0.100D+01
 Coeff-En:   0.100D+01
 Coeff:      0.100D+01
 Gap=     0.395 Goal=   None    Shift=    0.000
 Gap=     0.417 Goal=   None    Shift=    0.000
 GapD=    0.395 DampG=1.000 DampE=1.000 DampFc=1.0000 IDamp=-1.
 RMSDP=1.77D-03 MaxDP=7.46D-02              OVMax= 3.64D-02

[...]
 209. BD*(   1) C   4 - C   5        / 90. RY*(   7) C   4                    0.28    0.72    0.086
 209. BD*(   1) C   4 - C   5        /113. RY*(  13) C   5                    0.35    2.42    0.178
 209. BD*(   1) C   4 - C   5        /210. BD*(   1) C   4 - O   9            0.52    0.22    0.061
 209. BD*(   1) C   4 - C   5        /213. BD*(   1) C   5 - N   7            0.75    0.10    0.045
 211. BD*(   2) C   4 - O   9        / 86. RY*(   3) C   4                    1.61    1.64    0.160
 211. BD*(   2) C   4 - O   9        /170. RY*(   2) O   9                    1.23    0.71    0.093
 211. BD*(   2) C   4 - O   9        /183. RY*(  15) O   9                    0.25    3.00    0.086
 215. BD*(   2) N   7 - N   8        /104. RY*(   4) C   5                    0.27    0.95    0.041
 215. BD*(   2) N   7 - N   8        /136. RY*(   2) N   7                    1.50    2.25    0.146
 215. BD*(   2) N   7 - N   8        /139. RY*(   5) N   7                    0.74    1.08    0.072
 215. BD*(   2) N   7 - N   8        /152. RY*(   1) N   8                    4.21    0.67    0.133
 215. BD*(   2) N   7 - N   8        /165. RY*(  14) N   8                    0.63    2.28    0.095


 Natural Bond Orbitals (Summary):

                                                            Principal Delocalizations
           NBO                        Occupancy    Energy   (geminal,vicinal,remote)
 ====================================================================================
 Molecular unit  1  (C4H3N2O3)
     1. BD (   1) C   1 - C   2          0.99263    -0.68769  208(v),212(v),67(v),118(v)
     2. BD (   1) C   1 - H  10          0.97590    -0.53103  206(v),56(v),53(v)
     3. BD (   1) C   1 - H  11          0.98866    -0.53211  207(v),55(v)
     4. BD (   1) C   1 - H  12          0.98931    -0.53298  205(v),207(v)
     5. BD (   1) C   2 - O   3          0.99335    -0.92436  210(v),87(v),207(g),204(v)
                                                    88(v),206(g),213(r)
     6. BD (   2) C   2 - O   3          0.94524    -0.40817  211(v),86(v),89(v),202(v)
                                                    14(v),204(v)
     7. BD (   1) C   2 - O   6          0.99121    -0.90137  213(v),103(v),205(g),203(v)
                                                    14(g)
     8. BD (   1) O   3 - C   4          0.99082    -0.89819  213(v),50(v),201(v),207(v)
                                                    212(v)
     9. BD (   1) C   4 - C   5          0.98477    -0.74945  214(v),213(g),216(v),210(g)
                                                    135(v),169(v),137(v),201(r)
    10. BD (   1) C   4 - O   9          0.99754    -1.13146  209(g),84(g),205(v),106(v)
                                                    208(g)
    11. BD (   2) C   4 - O   9          0.99290    -0.41744  14(v),206(v),211(g)
    12. BD (   1) C   5 - O   6          0.98911    -0.91695  214(v),201(v),210(v),216(v)
                                                    205(v),50(v),137(v),51(v)
                                                    213(g)
    13. BD (   2) C   5 - O   6          0.92359    -0.42618  206(v),215(v),211(v),52(v)
                                                    14(g),57(v)
    14. BD*(   2) C   5 - O   6          0.58353    -0.13951  215(v),211(v),206(v),101(g)
                                                    118(g),136(v),109(g),132(g)
                                                    212(g),86(v),89(v),213(g)
                                                    119(g)
    15. BD (   1) C   5 - N   7          0.99466    -1.02986  214(g),153(v),209(g),207(v)
                                                    84(v),212(g)
    16. BD (   1) N   7 - N   8          0.99767    -1.23107  213(g),106(v),135(g),105(v)
                                                    108(v)
    17. BD (   2) N   7 - N   8          0.99286    -0.49224  14(v),215(g),104(v)
    18. BD (   3) N   7 - N   8          0.98521    -0.50045  212(v),209(v),103(v)
    19. CR (   1) C   1                  0.99962   -10.05956  206(v),56(v),186(v)
    20. CR (   1) C   2                  0.99952   -10.20387  206(g),212(v),208(v),35(v)
                                                    207(g),36(v)
    21. CR (   1) O   3                  0.99985   -19.00549  50(v),85(v),88(v)
    22. CR (   1) C   4                  0.99964   -10.22786  205(v),213(v),103(v)
    23. CR (   1) C   5                  0.99945   -10.20557  214(v),210(v),207(v),135(v)
                                                    85(v),87(v)
    24. CR (   1) O   6                  0.99986   -19.01032  50(v),103(v),102(v),53(v)
    25. CR (   1) N   7                  0.99965   -14.32609  106(v),155(v),153(v),110(v)
    26. CR (   1) N   8                  0.99983   -14.23109  213(v),135(v)
    27. CR (   1) O   9                  0.99986   -18.86789  84(v),209(v),208(v)
    28. LP (   1) O   3                  0.97839    -0.62015  207(v),50(v),209(v),51(v)
                                                    88(v),85(v),210(v)
    29. LP (   1) O   6                  0.98224    -0.64297  205(v),209(v),50(v),102(v)
                                                    213(v),51(v),52(v)
    30. LP (   1) N   8                  0.99006    -0.65093  213(v),135(v),115(r),137(v)
                                                    112(r),153(g),113(r)
    31. LP (   1) O   9                  0.99038    -0.72353  84(v),209(v),208(v),97(v)
                                                    87(v),171(g)
    32. LP (   2) O   9                  0.90243    -0.28681  208(v),209(v),85(v),88(v)
                                                    184(g)
    33. RY*(   1) C   1                  0.00100     0.59273   
    34. RY*(   2) C   1                  0.00086     0.60566   
    35. RY*(   3) C   1                  0.00029     1.60021   
    36. RY*(   4) C   1                  0.00013     1.27219   
    37. RY*(   5) C   1                  0.00009     0.76287   
    38. RY*(   6) C   1                  0.00004     1.06601   
    39. RY*(   7) C   1                  0.00001     1.65727   
    40. RY*(   8) C   1                  0.00001     0.61662   
    41. RY*(   9) C   1                  0.00000     2.99234   
    42. RY*(  10) C   1                  0.00001     0.35422   
    43. RY*(  11) C   1                  0.00000     2.74094   
    44. RY*(  12) C   1                  0.00001     1.87174   
    45. RY*(  13) C   1                  0.00000    23.20238   
    46. RY*(  14) C   1                  0.00001     1.61003   
    47. RY*(  15) C   1                  0.00000     1.91677   
    48. RY*(  16) C   1                  0.00000     1.37868   
    49. RY*(  17) C   1                  0.00000     2.31131   
    50. RY*(   1) C   2                  0.00432     0.87634   
    51. RY*(   2) C   2                  0.00224     1.41856   
    52. RY*(   3) C   2                  0.00172     1.56020   
    53. RY*(   4) C   2                  0.00120     0.97057   
    54. RY*(   5) C   2                  0.00087     1.50028   
    55. RY*(   6) C   2                  0.00076     1.02320   
    56. RY*(   7) C   2                  0.00032     1.85294   
    57. RY*(   8) C   2                  0.00024     1.34681   
    58. RY*(   9) C   2                  0.00011     1.66683   
    59. RY*(  10) C   2                  0.00003     1.22527   
    60. RY*(  11) C   2                  0.00004     1.89706   
    61. RY*(  12) C   2                  0.00002     1.88635   
    62. RY*(  13) C   2                  0.00001     0.77809   
    63. RY*(  14) C   2                  0.00000     2.46197   
    64. RY*(  15) C   2                  0.00000    21.30630   
    65. RY*(  16) C   2                  0.00000     2.58671   
    66. RY*(  17) C   2                  0.00000     1.95470   
    67. RY*(   1) O   3                  0.00132     0.66742   
    68. RY*(   2) O   3                  0.00078     0.89204   
    69. RY*(   3) O   3                  0.00028     1.65046   
    70. RY*(   4) O   3                  0.00017     1.55950   
    71. RY*(   5) O   3                  0.00010     1.71428   
    72. RY*(   6) O   3                  0.00008     2.42034   
    73. RY*(   7) O   3                  0.00005     2.05652   
    74. RY*(   8) O   3                  0.00003     2.04678   
    75. RY*(   9) O   3                  0.00001     4.25366   
    76. RY*(  10) O   3                  0.00001     3.69054   
    77. RY*(  11) O   3                  0.00000    49.66590   
    78. RY*(  12) O   3                  0.00000     4.77801   
    79. RY*(  13) O   3                  0.00001     2.51358   
    80. RY*(  14) O   3                  0.00000     2.38903   
    81. RY*(  15) O   3                  0.00001     2.66343   
    82. RY*(  16) O   3                  0.00001     1.68495   
    83. RY*(  17) O   3                  0.00000     3.17863   
    84. RY (   1) C   4                  0.00728     1.01551   
    85. RY*(   2) C   4                  0.00562     1.67898   
    86. RY*(   3) C   4                  0.00318     1.61867   
    87. RY*(   4) C   4                  0.00188     1.36713   
    88. RY*(   5) C   4                  0.00127     2.19211   
    89. RY*(   6) C   4                  0.00091     1.22681   
    90. RY*(   7) C   4                  0.00020     1.11855   
    91. RY*(   8) C   4                  0.00008     2.76181   
    92. RY*(   9) C   4                  0.00008     0.84681   
    93. RY*(  10) C   4                  0.00004     1.81331   
    94. RY*(  11) C   4                  0.00002     6.80112   
    95. RY*(  12) C   4                  0.00000     2.16230   
    96. RY*(  13) C   4                  0.00000     1.16853   
    97. RY*(  14) C   4                  0.00001     2.60031   
    98. RY*(  15) C   4                  0.00001    14.58719   
    99. RY*(  16) C   4                  0.00001     1.20903   
   100. RY*(  17) C   4                  0.00001     1.92610   
   101. RY*(   1) C   5                  0.00681     1.19927   
   102. RY*(   2) C   5                  0.00229     1.07954   
   103. RY*(   3) C   5                  0.00170     1.11456   
   104. RY*(   4) C   5                  0.00147     0.88550   
   105. RY*(   5) C   5                  0.00133     0.89166   
   106. RY*(   6) C   5                  0.00070     1.85092   
   107. RY*(   7) C   5                  0.00053     2.07497   
   108. RY*(   8) C   5                  0.00034     1.61931   
   109. RY*(   9) C   5                  0.00024     1.30449   
   110. RY*(  10) C   5                  0.00013     1.45559   
   111. RY*(  11) C   5                  0.00010     1.12865   
   112. RY*(  12) C   5                  0.00006     1.67663   
   113. RY*(  13) C   5                  0.00004     2.82166   
   114. RY*(  14) C   5                  0.00002     1.56004   
   115. RY*(  15) C   5                  0.00001    19.07979   
   116. RY*(  16) C   5                  0.00000     1.86375   
   117. RY*(  17) C   5                  0.00000     1.99695   
   118. RY*(   1) O   6                  0.00167     0.64738   
   119. RY*(   2) O   6                  0.00078     0.72640   
   120. RY*(   3) O   6                  0.00038     1.29028   
   121. RY*(   4) O   6                  0.00012     1.41670   
   122. RY*(   5) O   6                  0.00007     1.31454   
   123. RY*(   6) O   6                  0.00007     1.70435   
   124. RY*(   7) O   6                  0.00004     3.62067   
   125. RY*(   8) O   6                  0.00002     1.27458   
   126. RY*(   9) O   6                  0.00002     1.66665   
   127. RY*(  10) O   6                  0.00001     2.18299   
   128. RY*(  11) O   6                  0.00002     2.96357   
   129. RY*(  12) O   6                  0.00000     4.82540   
   130. RY*(  13) O   6                  0.00001     4.32129   
   131. RY*(  14) O   6                  0.00000    49.24035   
   132. RY*(  15) O   6                  0.00000     2.70606   
   133. RY*(  16) O   6                  0.00000     5.12427   
   134. RY*(  17) O   6                  0.00000     3.16122   
   135. RY*(   1) N   7                  0.00436     1.20166   
   136. RY*(   2) N   7                  0.00282     2.18884   
   137. RY*(   3) N   7                  0.00208     0.80943   
   138. RY*(   4) N   7                  0.00022     1.31759   
   139. RY*(   5) N   7                  0.00014     1.01874   
   140. RY*(   6) N   7                  0.00010     1.75158   
   141. RY*(   7) N   7                  0.00007     1.54545   
   142. RY*(   8) N   7                  0.00003     2.37908   
   143. RY*(   9) N   7                  0.00001     1.84726   
   144. RY*(  10) N   7                  0.00001     1.95452   
   145. RY*(  11) N   7                  0.00001     1.15389   
   146. RY*(  12) N   7                  0.00000     3.63298   
   147. RY*(  13) N   7                  0.00000     4.34287   
   148. RY*(  14) N   7                  0.00000     3.72756   
   149. RY*(  15) N   7                  0.00000    34.07850   
   150. RY*(  16) N   7                  0.00001     1.67078   
   151. RY*(  17) N   7                  0.00001     2.24266   
   152. RY*(   1) N   8                  0.00353     0.61044   
   153. RY*(   2) N   8                  0.00063     1.78083   
   154. RY*(   3) N   8                  0.00018     0.56965   
   155. RY*(   4) N   8                  0.00010     1.00073   
   156. RY*(   5) N   8                  0.00003     0.78448   
   157. RY*(   6) N   8                  0.00001     0.55341   
   158. RY*(   7) N   8                  0.00000    35.13211   
   159. RY*(   8) N   8                  0.00000     3.45762   
   160. RY*(   9) N   8                  0.00001     0.71683   
   161. RY*(  10) N   8                  0.00000     3.45423   
   162. RY*(  11) N   8                  0.00000     3.61295   
   163. RY*(  12) N   8                  0.00001     0.51267   
   164. RY*(  13) N   8                  0.00000     2.40498   
   165. RY*(  14) N   8                  0.00000     2.21669   
   166. RY*(  15) N   8                  0.00000     1.94127   
   167. RY*(  16) N   8                  0.00000     2.51446   
   168. RY*(  17) N   8                  0.00000     2.13372   
   169. RY*(   1) O   9                  0.00125     0.70053   
   170. RY*(   2) O   9                  0.00056     0.69281   
   171. RY*(   3) O   9                  0.00033     1.47546   
   172. RY*(   4) O   9                  0.00008     2.58620   
   173. RY*(   5) O   9                  0.00005     1.39270   
   174. RY*(   6) O   9                  0.00004     0.99952   
   175. RY*(   7) O   9                  0.00001     0.99288   
   176. RY*(   8) O   9                  0.00000     1.18616   
   177. RY*(   9) O   9                  0.00001     4.24314   
   178. RY*(  10) O   9                  0.00000    49.32080   
   179. RY*(  11) O   9                  0.00000     4.70943   
   180. RY*(  12) O   9                  0.00000     4.87590   
   181. RY*(  13) O   9                  0.00001     3.07062   
   182. RY*(  14) O   9                  0.00000     2.81228   
   183. RY*(  15) O   9                  0.00000     2.98058   
   184. RY*(  16) O   9                  0.00001     3.11193   
   185. RY*(  17) O   9                  0.00000     3.00076   
   186. RY*(   1) H  10                  0.00027     0.81986   
   187. RY*(   2) H  10                  0.00010     1.77358   
   188. RY*(   3) H  10                  0.00006     1.94501   
   189. RY*(   4) H  10                  0.00004     1.75468   
   190. RY*(   5) H  10                  0.00001     2.46287   
   191. RY*(   1) H  11                  0.00032     0.57936   
   192. RY*(   2) H  11                  0.00008     2.13738   
   193. RY*(   3) H  11                  0.00007     1.69957   
   194. RY*(   4) H  11                  0.00004     1.74635   
   195. RY*(   5) H  11                  0.00002     2.63387   
   196. RY*(   1) H  12                  0.00031     0.62559   
   197. RY*(   2) H  12                  0.00008     2.10928   
   198. RY*(   3) H  12                  0.00007     1.71956   
   199. RY*(   4) H  12                  0.00004     1.75461   
   200. RY*(   5) H  12                  0.00002     2.58654   
   201. BD*(   1) C   1 - C   2          0.00482     0.39247   
   202. BD*(   1) C   1 - H  10          0.00238     0.36489   
   203. BD*(   1) C   1 - H  11          0.00217     0.37181   
   204. BD*(   1) C   1 - H  12          0.00207     0.37061   
   205. BD*(   1) C   2 - O   3          0.01852     0.30225   
   206. BD*(   2) C   2 - O   3          0.14624    -0.06031  215(r),211(v),14(v),202(v)
                                                    201(g),52(g),57(g),207(g)
   207. BD*(   1) C   2 - O   6          0.02023     0.28093   
   208. BD*(   1) O   3 - C   4          0.06405     0.27297   
   209. BD*(   1) C   4 - C   5          0.04200     0.40156   
   210. BD*(   1) C   4 - O   9          0.00595     0.62037   
   211. BD*(   2) C   4 - O   9          0.16188    -0.02038  14(v),206(v),86(g),170(g)
                                                    183(g)
   212. BD*(   1) C   5 - O   6          0.01625     0.28942   
   213. BD*(   1) C   5 - N   7          0.01748     0.50142   
   214. BD*(   1) N   7 - N   8          0.00518     0.72954   
   215. BD*(   2) N   7 - N   8          0.24927    -0.05980  14(v),206(r),152(g),136(g)
                                                    139(g),165(g),104(v)
   216. BD*(   3) N   7 - N   8          0.01673    -0.04132   
       -------------------------------
              Total Lewis   30.56621  ( 95.5194%)
        Valence non-Lewis    1.35875  (  4.2461%)
        Rydberg non-Lewis    0.07505  (  0.2345%)
       -------------------------------
            Total unit  1   32.00000  (100.0000%)
           Charge unit  1    0.50000
 Leave Link  607 at Sat Oct 29 20:10:39 2022, MaxMem=  8053063680 cpu:              68.0 elap:               2.1
 (Enter /public3/home/scg5914/software-scg5914/g16/l9999.exe)
 Unable to Open any file for archive entry.
 1\1\GINC-G0304\SP\UB3LYP\Gen\C4H3N2O3(2)\SCG5914\29-Oct-2022\0\\#p b3l
 yp/chkbas pop=nbo geom=allcheck guess=tcheck em=gd3bj\\dsgdb9nsd_12608
 1-4\\0,2\C,0,-0.4456413103,1.5216405125,0.0853711296\C,0,0.3280291108,
 0.2629274215,-0.0499701967\O,0,0.9991231475,0.0558511722,-1.2399216506
 \C,0,2.2163500003,-0.5791248206,-1.013864664\C,0,2.2902830037,-0.62897
 41073,0.4307758815\O,0,1.1784306901,-0.0591554519,1.0088703996\N,0,3.2
 106422292,-1.1858273443,1.1464201894\N,0,4.0461974184,-1.6654873525,1.
 7566829256\O,0,2.9529161105,-0.9555722165,-1.8769031092\H,0,0.21504376
 85,2.4001657626,0.0521575551\H,0,-1.1665700247,1.5972077213,-0.7292240
 522\H,0,-0.9830145083,1.5224200374,1.0342862754\\Version=ES64L-G16RevC
 .01\State=2-A\HF=-489.4353145\S2=0.764637\S2-1=0.\S2A=0.75006\RMSD=3.5
 14e-09\Dipole=-0.7537488,0.6778601,0.9017716\Quadrupole=1.312426,3.010
 6642,-4.3230902,-0.8270712,1.3771588,-0.7182717\PG=C01 [X(C4H3N2O3)]\\
 @
 The archive entry for this job was punched.


 BUT 'GLORY' DOESN'T MEAN 'A NICE KNOCK DOWN ARGUMENT', ALICE OBJECTED.
 WHEN I USE A WORD, HUMPTY DUMPTY SAID, IN A RATHER SCORNFUL TONE,
 IT MEANS JUST WHAT I CHOOSE IT TO MEAN....
 NEITHER MORE NOR LESS....
 THE QUESTION IS, SAID ALICE,
 WHETHER YOU CAN MAKE WORDS MEAN SO MANY DIFFERENT THINGS...
 THE QUESTION IS, SAID HUMPTY DUMPTY,
 WHICH IS TO BE MASTER....
 THAT IS ALL.....

 ALICE THROUGH THE LOOKING GLASS
 Job cpu time:       0 days  0 hours  2 minutes  4.6 seconds.
 Elapsed time:       0 days  0 hours  0 minutes  4.3 seconds.
 File lengths (MBytes):  RWF=     34 Int=      0 D2E=      0 Chk=      6 Scr=      1
 Normal termination of Gaussian 16 at Sat Oct 29 20:10:39 2022.
