 Entering Gaussian System, Link 0=/public3/home/scg5914/software-scg5914/g16/g16
 Input=dsgdb9nsd_000958-3-.gjf
 Output=dsgdb9nsd_000958-3-.log
 Initial command:
 /public3/home/scg5914/software-scg5914/g16/l1.exe "/public3/home/scg5914/software-scg5914/test/tmp/dsgdb9nsd_000958-3-/Gau-226991.inp" -scrdir="/public3/home/scg5914/software-scg5914/test/tmp/dsgdb9nsd_000958-3-/"
 Entering Link 1 = /public3/home/scg5914/software-scg5914/g16/l1.exe PID=    226992.
  
 Copyright (c) 1988-2019, Gaussian, Inc.  All Rights Reserved.
  
 This is part of the Gaussian(R) 16 program.  It is based on
 the Gaussian(R) 09 system (copyright 2009, Gaussian, Inc.),
 the Gaussian(R) 03 system (copyright 2003, Gaussian, Inc.),
 the Gaussian(R) 98 system (copyright 1998, Gaussian, Inc.),
 the Gaussian(R) 94 system (copyright 1995, Gaussian, Inc.),
 the Gaussian 92(TM) system (copyright 1992, Gaussian, Inc.),
 the Gaussian 90(TM) system (copyright 1990, Gaussian, Inc.),
 the Gaussian 88(TM) system (copyright 1988, Gaussian, Inc.),
 the Gaussian 86(TM) system (copyright 1986, Carnegie Mellon
 University), and the Gaussian 82(TM) system (copyright 1983,
 Carnegie Mellon University). Gaussian is a federally registered
 trademark of Gaussian, Inc.
  
 This software contains proprietary and confidential information,
 including trade secrets, belonging to Gaussian, Inc.
  
 This software is provided under written license and may be
 used, copied, transmitted, or stored only in accord with that
 written license.
  
 The following legend is applicable only to US Government
 contracts under FAR:
  
                    RESTRICTED RIGHTS LEGEND
  
 Use, reproduction and disclosure by the US Government is
 subject to restrictions as set forth in subparagraphs (a)
 and (c) of the Commercial Computer Software - Restricted
 Rights clause in FAR 52.227-19.
  
 Gaussian, Inc.
 340 Quinnipiac St., Bldg. 40, Wallingford CT 06492
  
  
 ---------------------------------------------------------------
 Warning -- This program may not be used in any manner that
 competes with the business of Gaussian, Inc. or will provide
 assistance to any competitor of Gaussian, Inc.  The licensee
 of this program is prohibited from giving any competitor of
 Gaussian, Inc. access to this program.  By using this program,
 the user acknowledges that Gaussian, Inc. is engaged in the
 business of creating and licensing software in the field of
 computational chemistry and represents and warrants to the
 licensee that it is not a competitor of Gaussian, Inc. and that
 it will not use this program in any manner prohibited above.
 ---------------------------------------------------------------
  

 Cite this work as:
 Gaussian 16, Revision C.01,
 M. J. Frisch, G. W. Trucks, H. B. Schlegel, G. E. Scuseria, 
 M. A. Robb, J. R. Cheeseman, G. Scalmani, V. Barone, 
 G. A. Petersson, H. Nakatsuji, X. Li, M. Caricato, A. V. Marenich, 
 J. Bloino, B. G. Janesko, R. Gomperts, B. Mennucci, H. P. Hratchian, 
 J. V. Ortiz, A. F. Izmaylov, J. L. Sonnenberg, D. Williams-Young, 
 F. Ding, F. Lipparini, F. Egidi, J. Goings, B. Peng, A. Petrone, 
 T. Henderson, D. Ranasinghe, V. G. Zakrzewski, J. Gao, N. Rega, 
 G. Zheng, W. Liang, M. Hada, M. Ehara, K. Toyota, R. Fukuda, 
 J. Hasegawa, M. Ishida, T. Nakajima, Y. Honda, O. Kitao, H. Nakai, 
 T. Vreven, K. Throssell, J. A. Montgomery, Jr., J. E. Peralta, 
 F. Ogliaro, M. J. Bearpark, J. J. Heyd, E. N. Brothers, K. N. Kudin, 
 V. N. Staroverov, T. A. Keith, R. Kobayashi, J. Normand, 
 K. Raghavachari, A. P. Rendell, J. C. Burant, S. S. Iyengar, 
 J. Tomasi, M. Cossi, J. M. Millam, M. Klene, C. Adamo, R. Cammi, 
 J. W. Ochterski, R. L. Martin, K. Morokuma, O. Farkas, 
 J. B. Foresman, and D. J. Fox, Gaussian, Inc., Wallingford CT, 2019.
 
 ******************************************
 Gaussian 16:  ES64L-G16RevC.01  3-Jul-2019
                25-Oct-2022 
 ******************************************
 %chk=dsgdb9nsd_000958-3.chk
 %mem=60GB
 %nprocshared=32
 Will use up to   32 processors via shared memory.
 ------------------------------------
 #p opt freq b3lyp/6-311+g** em=gd3bj
 ------------------------------------
 1/18=20,19=15,26=3,38=1/1,3;
 2/9=110,12=2,17=6,18=5,40=1/2;
 3/5=4,6=6,7=111,11=2,25=1,30=1,71=1,74=-5,124=41/1,2,3;
 4//1;
 5/5=2,38=5/2;
 6/7=2,8=2,9=2,10=2,28=1/1;
 7//1,2,3,16;
 1/18=20,19=15,26=3/3(2);
 2/9=110/2;
 99//99;
 2/9=110/2;
 3/5=4,6=6,7=111,11=2,25=1,30=1,71=1,74=-5,124=41/1,2,3;
 4/5=5,16=3,69=1/1;
 5/5=2,38=5/2;
 7//1,2,3,16;
 1/18=20,19=15,26=3/3(-5);
 2/9=110/2;
 6/7=2,8=2,9=2,10=2,19=2,28=1/1;
 99/9=1/99;
 Leave Link    1 at Tue Oct 25 01:31:11 2022, MaxMem=  8053063680 cpu:               1.2 elap:               0.0
 (Enter /public3/home/scg5914/software-scg5914/g16/l101.exe)
 ------------------
 dsgdb9nsd_000958-3
 ------------------
 Symbolic Z-matrix:
 Charge = -1 Multiplicity = 1
 O                     0.10653   1.30091   0.12108 
 C                     0.07015  -0.02731   0.06073 
 N                     0.09079  -0.59317  -1.15181 
 C                     0.05184  -1.92256  -1.1283 
 N                    -0.00332  -2.68737  -0.03784 
 C                    -0.01808  -1.99235   1.10307 
 N                     0.0162   -0.66924   1.22713 
 H                     0.14347   1.61889  -0.79245 
 H                     0.06659  -2.42885  -2.09108 
 
 ITRead=  0  0  0  0  0  0  0  0  0
 MicOpt= -1 -1 -1 -1 -1 -1 -1 -1 -1
 NAtoms=      9 NQM=        9 NQMF=       0 NMMI=      0 NMMIF=      0
                NMic=       0 NMicF=      0.
                    Isotopes and Nuclear Properties:
 (Nuclear quadrupole moments (NQMom) in fm**2, nuclear magnetic moments (NMagM)
  in nuclear magnetons)

  Atom         1           2           3           4           5           6           7           8           9
 IAtWgt=          16          12          14          12          14          12          14           1           1
 AtmWgt=  15.9949146  12.0000000  14.0030740  12.0000000  14.0030740  12.0000000  14.0030740   1.0078250   1.0078250
 NucSpn=           0           0           2           0           2           0           2           1           1
 AtZEff=  -0.0000000  -0.0000000  -0.0000000  -0.0000000  -0.0000000  -0.0000000  -0.0000000  -0.0000000  -0.0000000
 NQMom=    0.0000000   0.0000000   2.0440000   0.0000000   2.0440000   0.0000000   2.0440000   0.0000000   0.0000000
 NMagM=    0.0000000   0.0000000   0.4037610   0.0000000   0.4037610   0.0000000   0.4037610   2.7928460   2.7928460
 AtZNuc=   8.0000000   6.0000000   7.0000000   6.0000000   7.0000000   6.0000000   7.0000000   1.0000000   1.0000000
 Leave Link  101 at Tue Oct 25 01:31:11 2022, MaxMem=  8053063680 cpu:               4.1 elap:               0.1
 (Enter /public3/home/scg5914/software-scg5914/g16/l103.exe)

 GradGradGradGradGradGradGradGradGradGradGradGradGradGradGradGradGradGrad
 Berny optimization.
 Initialization pass.
                           ----------------------------
                           !    Initial Parameters    !
                           ! (Angstroms and Degrees)  !
 --------------------------                            --------------------------
 ! Name  Definition              Value          Derivative Info.                !
 --------------------------------------------------------------------------------
 ! R1    R(1,2)                  1.3301         estimate D2E/DX2                !
 ! R2    R(1,8)                  0.968          estimate D2E/DX2                !
 ! R3    R(2,3)                  1.3382         estimate D2E/DX2                !
 ! R4    R(2,7)                  1.3325         estimate D2E/DX2                !
 ! R5    R(3,4)                  1.3302         estimate D2E/DX2                !
 ! R6    R(4,5)                  1.3331         estimate D2E/DX2                !
 ! R7    R(4,9)                  1.0879         estimate D2E/DX2                !
 ! R8    R(5,6)                  1.336          estimate D2E/DX2                !
 ! R9    R(6,7)                  1.3294         estimate D2E/DX2                !
 ! A1    A(2,1,8)              106.6342         estimate D2E/DX2                !
 ! A2    A(1,2,3)              117.5765         estimate D2E/DX2                !
 ! A3    A(1,2,7)              116.2623         estimate D2E/DX2                !
 ! A4    A(3,2,7)              126.1613         estimate D2E/DX2                !
 ! A5    A(2,3,4)              113.9617         estimate D2E/DX2                !
 ! A6    A(3,4,5)              126.0897         estimate D2E/DX2                !
 ! A7    A(3,4,9)              116.6846         estimate D2E/DX2                !
 ! A8    A(5,4,9)              117.2257         estimate D2E/DX2                !
 ! A9    A(4,5,6)              113.6125         estimate D2E/DX2                !
 ! A10   A(5,6,7)              126.6682         estimate D2E/DX2                !
 ! A11   A(2,7,6)              113.5066         estimate D2E/DX2                !
 ! D1    D(8,1,2,3)              0.001          estimate D2E/DX2                !
 ! D2    D(8,1,2,7)            179.9999         estimate D2E/DX2                !
 ! D3    D(1,2,3,4)            179.9997         estimate D2E/DX2                !
 ! D4    D(7,2,3,4)              0.0009         estimate D2E/DX2                !
 ! D5    D(1,2,7,6)           -179.9992         estimate D2E/DX2                !
 ! D6    D(3,2,7,6)             -0.0005         estimate D2E/DX2                !
 ! D7    D(2,3,4,5)             -0.0019         estimate D2E/DX2                !
 ! D8    D(2,3,4,9)           -179.9995         estimate D2E/DX2                !
 ! D9    D(3,4,5,6)              0.0023         estimate D2E/DX2                !
 ! D10   D(9,4,5,6)            179.9999         estimate D2E/DX2                !
 ! D11   D(4,5,6,7)             -0.0018         estimate D2E/DX2                !
 ! D12   D(5,6,7,2)              0.001          estimate D2E/DX2                !
 --------------------------------------------------------------------------------
 Trust Radius=3.00D-01 FncErr=1.00D-07 GrdErr=1.00D-06 EigMax=2.50D+02 EigMin=1.00D-04
 Number of steps in this run=     42 maximum allowed number of steps=    100.
 GradGradGradGradGradGradGradGradGradGradGradGradGradGradGradGradGradGrad

 Leave Link  103 at Tue Oct 25 01:31:11 2022, MaxMem=  8053063680 cpu:               0.2 elap:               0.0
 (Enter /public3/home/scg5914/software-scg5914/g16/l202.exe)
                          Input orientation:                          
 ---------------------------------------------------------------------
 Center     Atomic      Atomic             Coordinates (Angstroms)
 Number     Number       Type             X           Y           Z
 ---------------------------------------------------------------------
      1          8           0        0.106530    1.300912    0.121077
      2          6           0        0.070154   -0.027309    0.060734
      3          7           0        0.090791   -0.593174   -1.151814
      4          6           0        0.051836   -1.922559   -1.128302
      5          7           0       -0.003324   -2.687365   -0.037836
      6          6           0       -0.018076   -1.992347    1.103071
      7          7           0        0.016198   -0.669240    1.227126
      8          1           0        0.143474    1.618890   -0.792448
      9          1           0        0.066592   -2.428851   -2.091078
 ---------------------------------------------------------------------
                    Distance matrix (angstroms):
                    1          2          3          4          5
     1  O    0.000000
     2  C    1.330088   0.000000
     3  N    2.282118   1.338247   0.000000
     4  C    3.457558   2.237435   1.330163   0.000000
     5  N    3.992953   2.662896   2.373908   1.333074   0.000000
     6  C    3.438806   2.226123   2.655945   2.233559   1.336016
     7  N    2.261194   1.332462   2.381325   2.668355   2.381878
     8  H    0.967989   1.855604   2.241684   3.558519   4.374336
     9  H    4.336630   3.224549   2.062162   1.087882   2.070633
                    6          7          8          9
     6  C    0.000000
     7  N    1.329352   0.000000
     8  H    4.081681   3.054572   0.000000
     9  H    3.224949   3.756228   4.251653   0.000000
 Stoichiometry    C3H2N3O(1-)
 Framework group  C1[X(C3H2N3O)]
 Deg. of freedom    21
 Full point group                 C1      NOp   1
 Largest Abelian subgroup         C1      NOp   1
 Largest concise Abelian subgroup C1      NOp   1
                         Standard orientation:                         
 ---------------------------------------------------------------------
 Center     Atomic      Atomic             Coordinates (Angstroms)
 Number     Number       Type             X           Y           Z
 ---------------------------------------------------------------------
      1          8           0       -2.158034   -0.003034    0.000007
      2          6           0       -0.828298   -0.033621   -0.000008
      3          7           0       -0.181667    1.138033   -0.000001
      4          6           0        1.143571    1.023664   -0.000009
      5          7           0        1.833289   -0.117114    0.000013
      6          6           0        1.062590   -1.208426   -0.000003
      7          7           0       -0.266343   -1.241786   -0.000004
      8          1           0       -2.413730    0.930573    0.000004
      9          1           0        1.713881    1.950073    0.000005
 ---------------------------------------------------------------------
 Rotational constants (GHZ):           6.7708018           2.9847009           2.0715302
 Leave Link  202 at Tue Oct 25 01:31:11 2022, MaxMem=  8053063680 cpu:               0.2 elap:               0.0
 (Enter /public3/home/scg5914/software-scg5914/g16/l301.exe)
 Standard basis: 6-311+G(d,p) (5D, 7F)
 Ernie: Thresh=  0.10000D-02 Tol=  0.10000D-05 Strict=F.
 There are   173 symmetry adapted cartesian basis functions of A   symmetry.
 There are   166 symmetry adapted basis functions of A   symmetry.
   166 basis functions,   268 primitive gaussians,   173 cartesian basis functions
    25 alpha electrons       25 beta electrons
       nuclear repulsion energy       272.7346697988 Hartrees.
 IExCor=  402 DFT=T Ex+Corr=B3LYP ExCW=0 ScaHFX=  0.200000
 ScaDFX=  0.800000  0.720000  1.000000  0.810000 ScalE2=  1.000000  1.000000
 IRadAn=      5 IRanWt=     -1 IRanGd=            0 ICorTp=0 IEmpDi=141
 NAtoms=    9 NActive=    9 NUniq=    9 SFac= 1.00D+00 NAtFMM=   60 NAOKFM=F Big=F
 Integral buffers will be    131072 words long.
 Raffenetti 2 integral format.
 Two-electron integral symmetry is turned on.
 R6Disp:  Grimme-D3(BJ) Dispersion energy=       -0.0144335985 Hartrees.
 Nuclear repulsion after empirical dispersion term =      272.7202362003 Hartrees.
 Leave Link  301 at Tue Oct 25 01:31:11 2022, MaxMem=  8053063680 cpu:               1.6 elap:               0.1
 (Enter /public3/home/scg5914/software-scg5914/g16/l302.exe)
 NPDir=0 NMtPBC=     1 NCelOv=     1 NCel=       1 NClECP=     1 NCelD=      1
         NCelK=      1 NCelE2=     1 NClLst=     1 CellRange=     0.0.
 One-electron integrals computed using PRISM.
 One-electron integral symmetry used in STVInt
 NBasis=   166 RedAO= T EigKep=  1.85D-04  NBF=   166
 NBsUse=   166 1.00D-06 EigRej= -1.00D+00 NBFU=   166
 Precomputing XC quadrature grid using
 IXCGrd= 4 IRadAn=           5 IRanWt=          -1 IRanGd=           0 AccXCQ= 0.00D+00.
 Generated NRdTot=       0 NPtTot=           0 NUsed=           0 NTot=          32
 NSgBfM=   173   173   173   173   173 MxSgAt=     9 MxSgA2=     9.
 Leave Link  302 at Tue Oct 25 01:31:12 2022, MaxMem=  8053063680 cpu:               3.2 elap:               0.1
 (Enter /public3/home/scg5914/software-scg5914/g16/l303.exe)
 DipDrv:  MaxL=1.
 Leave Link  303 at Tue Oct 25 01:31:12 2022, MaxMem=  8053063680 cpu:               0.4 elap:               0.0
 (Enter /public3/home/scg5914/software-scg5914/g16/l401.exe)
 ExpMin= 4.38D-02 ExpMax= 8.59D+03 ExpMxC= 1.30D+03 IAcc=3 IRadAn=         5 AccDes= 0.00D+00
 Harris functional with IExCor=  402 and IRadAn=       5 diagonalized for initial guess.
 HarFok:  IExCor=  402 AccDes= 0.00D+00 IRadAn=         5 IDoV= 1 UseB2=F ITyADJ=14
 ICtDFT=  3500011 ScaDFX=  1.000000  1.000000  1.000000  1.000000
 FoFCou: FMM=F IPFlag=           0 FMFlag=      100000 FMFlg1=           0
         NFxFlg=           0 DoJE=T BraDBF=F KetDBF=T FulRan=T
         wScrn=  0.000000 ICntrl=       500 IOpCl=  0 I1Cent=   200000004 NGrid=           0
         NMat0=    1 NMatS0=      1 NMatT0=    0 NMatD0=    1 NMtDS0=    0 NMtDT0=    0
 Petite list used in FoFCou.
 Harris En= -355.208819265593    
 JPrj=0 DoOrth=F DoCkMO=F.
 Leave Link  401 at Tue Oct 25 01:31:12 2022, MaxMem=  8053063680 cpu:               7.5 elap:               0.3
 (Enter /public3/home/scg5914/software-scg5914/g16/l502.exe)
 Keep R1 ints in memory in canonical form, NReq=128107855.
 FoFCou: FMM=F IPFlag=           0 FMFlag=           0 FMFlg1=           0
         NFxFlg=           0 DoJE=F BraDBF=F KetDBF=F FulRan=T
         wScrn=  0.000000 ICntrl=       600 IOpCl=  0 I1Cent=           0 NGrid=           0
         NMat0=    1 NMatS0=  13861 NMatT0=    0 NMatD0=    1 NMtDS0=    0 NMtDT0=    0
 Symmetry not used in FoFCou.
 Two-electron integral symmetry not used.
 Closed shell SCF:
 Using DIIS extrapolation, IDIIS=  1040.
 NGot=  8053063680 LenX=  7956925807 LenY=  7956895437
 Requested convergence on RMS density matrix=1.00D-08 within 128 cycles.
 Requested convergence on MAX density matrix=1.00D-06.
 Requested convergence on             energy=1.00D-06.
 No special actions if energy rises.

 Cycle   1  Pass 1  IDiag  1:
 E= -354.850910260957    
 DIIS: error= 4.86D-02 at cycle   1 NSaved=   1.
 NSaved= 1 IEnMin= 1 EnMin= -354.850910260957     IErMin= 1 ErrMin= 4.86D-02
 ErrMax= 4.86D-02  0.00D+00 EMaxC= 1.00D-01 BMatC= 2.69D-01 BMatP= 2.69D-01
 IDIUse=3 WtCom= 5.14D-01 WtEn= 4.86D-01
 Coeff-Com:  0.100D+01
 Coeff-En:   0.100D+01
 Coeff:      0.100D+01
 Gap=     0.010 Goal=   None    Shift=    0.000
 GapD=    0.010 DampG=0.250 DampE=0.500 DampFc=0.2500 IDamp=-1.
 Damping current iteration by 2.50D-01
 RMSDP=3.75D-01 MaxDP=2.85D+01              OVMax= 9.61D-01

 Cycle   2  Pass 1  IDiag  1:
 E= -354.894710141012     Delta-E=       -0.043799880056 Rises=F Damp=T
 DIIS: error= 2.03D-02 at cycle   2 NSaved=   2.
 NSaved= 2 IEnMin= 2 EnMin= -354.894710141012     IErMin= 2 ErrMin= 2.03D-02
 ErrMax= 2.03D-02  0.00D+00 EMaxC= 1.00D-01 BMatC= 5.25D-02 BMatP= 2.69D-01
 IDIUse=3 WtCom= 7.97D-01 WtEn= 2.03D-01
 Coeff-Com: -0.268D+00 0.127D+01
 Coeff-En:   0.342D+00 0.658D+00
 Coeff:     -0.144D+00 0.114D+01
 Gap=     0.018 Goal=   None    Shift=    0.000
 RMSDP=9.31D-02 MaxDP=7.04D+00 DE=-4.38D-02 OVMax= 8.81D-01

 Cycle   3  Pass 1  IDiag  1:
 E= -354.897996785302     Delta-E=       -0.003286644290 Rises=F Damp=F
 DIIS: error= 5.61D-02 at cycle   3 NSaved=   3.
 NSaved= 3 IEnMin= 3 EnMin= -354.897996785302     IErMin= 2 ErrMin= 2.03D-02
 ErrMax= 5.61D-02  0.00D+00 EMaxC= 1.00D-01 BMatC= 1.69D-01 BMatP= 5.25D-02
 IDIUse=2 WtCom= 0.00D+00 WtEn= 1.00D+00
 Coeff-En:   0.000D+00 0.493D+00 0.507D+00
 Coeff:      0.000D+00 0.493D+00 0.507D+00
 Gap=     0.110 Goal=   None    Shift=    0.000
 RMSDP=1.33D-01 MaxDP=1.01D+01 DE=-3.29D-03 OVMax= 6.37D-01

 Cycle   4  Pass 1  IDiag  1:
 E= -354.727510695066     Delta-E=        0.170486090235 Rises=F Damp=F
 DIIS: error= 6.36D-02 at cycle   4 NSaved=   4.
 NSaved= 4 IEnMin= 3 EnMin= -354.897996785302     IErMin= 2 ErrMin= 2.03D-02
 ErrMax= 6.36D-02  0.00D+00 EMaxC= 1.00D-01 BMatC= 2.75D-01 BMatP= 5.25D-02
 IDIUse=2 WtCom= 0.00D+00 WtEn= 1.00D+00
 EnCoef did     3 forward-backward iterations
 Coeff-En:   0.560D-01 0.000D+00 0.570D+00 0.374D+00
 Coeff:      0.560D-01 0.000D+00 0.570D+00 0.374D+00
 Gap=     0.037 Goal=   None    Shift=    0.000
 RMSDP=1.28D-01 MaxDP=9.59D+00 DE= 1.70D-01 OVMax= 5.51D-01

 Cycle   5  Pass 1  IDiag  1:
 E= -355.066908629785     Delta-E=       -0.339397934719 Rises=F Damp=F
 DIIS: error= 1.14D-02 at cycle   5 NSaved=   5.
 NSaved= 5 IEnMin= 5 EnMin= -355.066908629785     IErMin= 5 ErrMin= 1.14D-02
 ErrMax= 1.14D-02  0.00D+00 EMaxC= 1.00D-01 BMatC= 1.51D-02 BMatP= 5.25D-02
 IDIUse=3 WtCom= 8.86D-01 WtEn= 1.14D-01
 Coeff-Com: -0.224D+00 0.343D+00 0.217D+00-0.116D-01 0.676D+00
 Coeff-En:   0.000D+00 0.000D+00 0.000D+00 0.000D+00 0.100D+01
 Coeff:     -0.199D+00 0.304D+00 0.192D+00-0.103D-01 0.713D+00
 Gap=     0.097 Goal=   None    Shift=    0.000
 RMSDP=1.37D-03 MaxDP=8.08D-02 DE=-3.39D-01 OVMax= 3.13D-02

 Cycle   6  Pass 1  IDiag  1:
 E= -355.075328299176     Delta-E=       -0.008419669391 Rises=F Damp=F
 DIIS: error= 7.64D-03 at cycle   6 NSaved=   6.
 NSaved= 6 IEnMin= 6 EnMin= -355.075328299176     IErMin= 6 ErrMin= 7.64D-03
 ErrMax= 7.64D-03  0.00D+00 EMaxC= 1.00D-01 BMatC= 3.04D-03 BMatP= 1.51D-02
 IDIUse=3 WtCom= 9.24D-01 WtEn= 7.64D-02
 Coeff-Com: -0.124D+00 0.172D+00 0.541D-01 0.106D-02 0.350D+00 0.546D+00
 Coeff-En:   0.000D+00 0.000D+00 0.000D+00 0.000D+00 0.137D+00 0.863D+00
 Coeff:     -0.114D+00 0.159D+00 0.499D-01 0.981D-03 0.334D+00 0.570D+00
 Gap=     0.083 Goal=   None    Shift=    0.000
 RMSDP=8.89D-04 MaxDP=5.98D-02 DE=-8.42D-03 OVMax= 1.81D-02

 Cycle   7  Pass 1  IDiag  1:
 E= -355.078066301843     Delta-E=       -0.002738002667 Rises=F Damp=F
 DIIS: error= 2.25D-03 at cycle   7 NSaved=   7.
 NSaved= 7 IEnMin= 7 EnMin= -355.078066301843     IErMin= 7 ErrMin= 2.25D-03
 ErrMax= 2.25D-03  0.00D+00 EMaxC= 1.00D-01 BMatC= 4.59D-04 BMatP= 3.04D-03
 IDIUse=3 WtCom= 9.78D-01 WtEn= 2.25D-02
 Coeff-Com: -0.193D-01 0.239D-01-0.444D-01 0.115D-01-0.403D-02 0.390D+00
 Coeff-Com:  0.642D+00
 Coeff-En:   0.000D+00 0.000D+00 0.000D+00 0.000D+00 0.000D+00 0.000D+00
 Coeff-En:   0.100D+01
 Coeff:     -0.189D-01 0.234D-01-0.434D-01 0.113D-01-0.393D-02 0.381D+00
 Coeff:      0.650D+00
 Gap=     0.080 Goal=   None    Shift=    0.000
 RMSDP=9.78D-04 MaxDP=7.20D-02 DE=-2.74D-03 OVMax= 1.27D-02

 Cycle   8  Pass 1  IDiag  1:
 E= -355.078611772402     Delta-E=       -0.000545470559 Rises=F Damp=F
 DIIS: error= 6.51D-04 at cycle   8 NSaved=   8.
 NSaved= 8 IEnMin= 8 EnMin= -355.078611772402     IErMin= 8 ErrMin= 6.51D-04
 ErrMax= 6.51D-04  0.00D+00 EMaxC= 1.00D-01 BMatC= 2.16D-05 BMatP= 4.59D-04
 IDIUse=3 WtCom= 9.93D-01 WtEn= 6.51D-03
 Coeff-Com:  0.210D-02-0.125D-02-0.237D-01 0.461D-02-0.375D-01 0.797D-01
 Coeff-Com:  0.260D+00 0.716D+00
 Coeff-En:   0.000D+00 0.000D+00 0.000D+00 0.000D+00 0.000D+00 0.000D+00
 Coeff-En:   0.000D+00 0.100D+01
 Coeff:      0.209D-02-0.124D-02-0.235D-01 0.458D-02-0.373D-01 0.792D-01
 Coeff:      0.259D+00 0.718D+00
 Gap=     0.080 Goal=   None    Shift=    0.000
 RMSDP=2.88D-04 MaxDP=2.21D-02 DE=-5.45D-04 OVMax= 3.31D-03

 Cycle   9  Pass 1  IDiag  1:
 E= -355.078631712017     Delta-E=       -0.000019939615 Rises=F Damp=F
 DIIS: error= 2.24D-04 at cycle   9 NSaved=   9.
 NSaved= 9 IEnMin= 9 EnMin= -355.078631712017     IErMin= 9 ErrMin= 2.24D-04
 ErrMax= 2.24D-04  0.00D+00 EMaxC= 1.00D-01 BMatC= 6.86D-06 BMatP= 2.16D-05
 IDIUse=3 WtCom= 9.98D-01 WtEn= 2.24D-03
 Coeff-Com:  0.188D-02-0.117D-02-0.372D-02 0.957D-03-0.111D-01-0.180D-01
 Coeff-Com:  0.425D-01 0.469D+00 0.520D+00
 Coeff-En:   0.000D+00 0.000D+00 0.000D+00 0.000D+00 0.000D+00 0.000D+00
 Coeff-En:   0.000D+00 0.139D+00 0.861D+00
 Coeff:      0.188D-02-0.116D-02-0.371D-02 0.955D-03-0.111D-01-0.180D-01
 Coeff:      0.424D-01 0.468D+00 0.520D+00
 Gap=     0.080 Goal=   None    Shift=    0.000
 RMSDP=3.60D-05 MaxDP=1.61D-03 DE=-1.99D-05 OVMax= 9.92D-04

 Cycle  10  Pass 1  IDiag  1:
 E= -355.078637389764     Delta-E=       -0.000005677747 Rises=F Damp=F
 DIIS: error= 5.14D-05 at cycle  10 NSaved=  10.
 NSaved=10 IEnMin=10 EnMin= -355.078637389764     IErMin=10 ErrMin= 5.14D-05
 ErrMax= 5.14D-05  0.00D+00 EMaxC= 1.00D-01 BMatC= 2.26D-07 BMatP= 6.86D-06
 IDIUse=1 WtCom= 1.00D+00 WtEn= 0.00D+00
 Coeff-Com:  0.603D-03-0.600D-03 0.206D-03 0.119D-04-0.118D-02-0.991D-02
 Coeff-Com:  0.439D-02 0.120D+00 0.196D+00 0.690D+00
 Coeff:      0.603D-03-0.600D-03 0.206D-03 0.119D-04-0.118D-02-0.991D-02
 Coeff:      0.439D-02 0.120D+00 0.196D+00 0.690D+00
 Gap=     0.080 Goal=   None    Shift=    0.000
 RMSDP=2.00D-05 MaxDP=1.49D-03 DE=-5.68D-06 OVMax= 1.92D-04

 Cycle  11  Pass 1  IDiag  1:
 E= -355.078637560344     Delta-E=       -0.000000170580 Rises=F Damp=F
 DIIS: error= 2.41D-05 at cycle  11 NSaved=  11.
 NSaved=11 IEnMin=11 EnMin= -355.078637560344     IErMin=11 ErrMin= 2.41D-05
 ErrMax= 2.41D-05  0.00D+00 EMaxC= 1.00D-01 BMatC= 7.35D-08 BMatP= 2.26D-07
 IDIUse=1 WtCom= 1.00D+00 WtEn= 0.00D+00
 Coeff-Com:  0.172D-03-0.184D-03 0.466D-03-0.472D-04 0.326D-03-0.419D-02
 Coeff-Com:  0.181D-02 0.456D-01 0.868D-01 0.425D+00 0.444D+00
 Coeff:      0.172D-03-0.184D-03 0.466D-03-0.472D-04 0.326D-03-0.419D-02
 Coeff:      0.181D-02 0.456D-01 0.868D-01 0.425D+00 0.444D+00
 Gap=     0.080 Goal=   None    Shift=    0.000
 RMSDP=3.48D-06 MaxDP=1.79D-04 DE=-1.71D-07 OVMax= 6.62D-05

 Cycle  12  Pass 1  IDiag  1:
 E= -355.078637624974     Delta-E=       -0.000000064630 Rises=F Damp=F
 DIIS: error= 1.17D-05 at cycle  12 NSaved=  12.
 NSaved=12 IEnMin=12 EnMin= -355.078637624974     IErMin=12 ErrMin= 1.17D-05
 ErrMax= 1.17D-05  0.00D+00 EMaxC= 1.00D-01 BMatC= 9.17D-09 BMatP= 7.35D-08
 IDIUse=1 WtCom= 1.00D+00 WtEn= 0.00D+00
 Coeff-Com:  0.693D-05-0.180D-04 0.205D-03-0.324D-04 0.361D-03-0.678D-04
 Coeff-Com:  0.142D-02 0.351D-02 0.639D-02 0.805D-01 0.192D+00 0.716D+00
 Coeff:      0.693D-05-0.180D-04 0.205D-03-0.324D-04 0.361D-03-0.678D-04
 Coeff:      0.142D-02 0.351D-02 0.639D-02 0.805D-01 0.192D+00 0.716D+00
 Gap=     0.080 Goal=   None    Shift=    0.000
 RMSDP=1.49D-06 MaxDP=4.25D-05 DE=-6.46D-08 OVMax= 3.49D-05

 Cycle  13  Pass 1  IDiag  1:
 E= -355.078637634852     Delta-E=       -0.000000009878 Rises=F Damp=F
 DIIS: error= 3.28D-06 at cycle  13 NSaved=  13.
 NSaved=13 IEnMin=13 EnMin= -355.078637634852     IErMin=13 ErrMin= 3.28D-06
 ErrMax= 3.28D-06  0.00D+00 EMaxC= 1.00D-01 BMatC= 8.67D-10 BMatP= 9.17D-09
 IDIUse=1 WtCom= 1.00D+00 WtEn= 0.00D+00
 Coeff-Com:  0.201D-04-0.429D-04 0.220D-04-0.845D-05 0.689D-04 0.530D-03
 Coeff-Com:  0.818D-03-0.344D-02-0.841D-02-0.956D-02 0.350D-01 0.335D+00
 Coeff-Com:  0.650D+00
 Coeff:      0.201D-04-0.429D-04 0.220D-04-0.845D-05 0.689D-04 0.530D-03
 Coeff:      0.818D-03-0.344D-02-0.841D-02-0.956D-02 0.350D-01 0.335D+00
 Coeff:      0.650D+00
 Gap=     0.080 Goal=   None    Shift=    0.000
 RMSDP=1.13D-06 MaxDP=9.06D-05 DE=-9.88D-09 OVMax= 1.09D-05

 Cycle  14  Pass 1  IDiag  1:
 E= -355.078637635610     Delta-E=       -0.000000000758 Rises=F Damp=F
 DIIS: error= 1.23D-06 at cycle  14 NSaved=  14.
 NSaved=14 IEnMin=14 EnMin= -355.078637635610     IErMin=14 ErrMin= 1.23D-06
 ErrMax= 1.23D-06  0.00D+00 EMaxC= 1.00D-01 BMatC= 1.32D-10 BMatP= 8.67D-10
 IDIUse=1 WtCom= 1.00D+00 WtEn= 0.00D+00
 Coeff-Com:  0.986D-06-0.613D-06-0.713D-05-0.138D-05 0.142D-04 0.255D-03
 Coeff-Com:  0.249D-03-0.147D-02-0.433D-02-0.119D-01-0.133D-01 0.293D-01
 Coeff-Com:  0.260D+00 0.741D+00
 Coeff:      0.986D-06-0.613D-06-0.713D-05-0.138D-05 0.142D-04 0.255D-03
 Coeff:      0.249D-03-0.147D-02-0.433D-02-0.119D-01-0.133D-01 0.293D-01
 Coeff:      0.260D+00 0.741D+00
 Gap=     0.080 Goal=   None    Shift=    0.000
 RMSDP=5.39D-07 MaxDP=2.56D-05 DE=-7.58D-10 OVMax= 7.95D-06

 Cycle  15  Pass 1  IDiag  1:
 E= -355.078637635782     Delta-E=       -0.000000000172 Rises=F Damp=F
 DIIS: error= 1.40D-07 at cycle  15 NSaved=  15.
 NSaved=15 IEnMin=15 EnMin= -355.078637635782     IErMin=15 ErrMin= 1.40D-07
 ErrMax= 1.40D-07  0.00D+00 EMaxC= 1.00D-01 BMatC= 1.93D-12 BMatP= 1.32D-10
 IDIUse=1 WtCom= 1.00D+00 WtEn= 0.00D+00
 Coeff-Com:  0.292D-06 0.700D-06-0.433D-05-0.541D-06 0.229D-05 0.958D-04
 Coeff-Com:  0.901D-04-0.547D-03-0.166D-02-0.470D-02-0.671D-02 0.503D-03
 Coeff-Com:  0.965D-01 0.333D+00 0.584D+00
 Coeff:      0.292D-06 0.700D-06-0.433D-05-0.541D-06 0.229D-05 0.958D-04
 Coeff:      0.901D-04-0.547D-03-0.166D-02-0.470D-02-0.671D-02 0.503D-03
 Coeff:      0.965D-01 0.333D+00 0.584D+00
 Gap=     0.080 Goal=   None    Shift=    0.000
 RMSDP=6.33D-08 MaxDP=2.10D-06 DE=-1.72D-10 OVMax= 8.20D-07

 Cycle  16  Pass 1  IDiag  1:
 E= -355.078637635785     Delta-E=       -0.000000000003 Rises=F Damp=F
 DIIS: error= 5.27D-08 at cycle  16 NSaved=  16.
 NSaved=16 IEnMin=16 EnMin= -355.078637635785     IErMin=16 ErrMin= 5.27D-08
 ErrMax= 5.27D-08  0.00D+00 EMaxC= 1.00D-01 BMatC= 3.92D-13 BMatP= 1.93D-12
 IDIUse=1 WtCom= 1.00D+00 WtEn= 0.00D+00
 Coeff-Com:  0.464D-06-0.456D-06-0.853D-06-0.969D-07-0.152D-05 0.310D-05
 Coeff-Com:  0.328D-05-0.277D-04-0.104D-03-0.243D-03-0.816D-03-0.408D-02
 Coeff-Com:  0.704D-02 0.453D-01 0.318D+00 0.634D+00
 Coeff:      0.464D-06-0.456D-06-0.853D-06-0.969D-07-0.152D-05 0.310D-05
 Coeff:      0.328D-05-0.277D-04-0.104D-03-0.243D-03-0.816D-03-0.408D-02
 Coeff:      0.704D-02 0.453D-01 0.318D+00 0.634D+00
 Gap=     0.080 Goal=   None    Shift=    0.000
 RMSDP=3.16D-08 MaxDP=1.31D-06 DE=-3.07D-12 OVMax= 4.25D-07

 Cycle  17  Pass 1  IDiag  1:
 E= -355.078637635784     Delta-E=        0.000000000001 Rises=F Damp=F
 DIIS: error= 8.59D-09 at cycle  17 NSaved=  17.
 NSaved=17 IEnMin=16 EnMin= -355.078637635785     IErMin=17 ErrMin= 8.59D-09
 ErrMax= 8.59D-09  0.00D+00 EMaxC= 1.00D-01 BMatC= 8.15D-15 BMatP= 3.92D-13
 IDIUse=1 WtCom= 1.00D+00 WtEn= 0.00D+00
 Coeff-Com: -0.922D-07 0.110D-06 0.154D-06-0.224D-07-0.387D-06-0.465D-05
 Coeff-Com: -0.412D-05 0.236D-04 0.774D-04 0.209D-03 0.228D-03-0.594D-03
 Coeff-Com: -0.549D-02-0.140D-01 0.104D-01 0.906D-01 0.919D+00
 Coeff:     -0.922D-07 0.110D-06 0.154D-06-0.224D-07-0.387D-06-0.465D-05
 Coeff:     -0.412D-05 0.236D-04 0.774D-04 0.209D-03 0.228D-03-0.594D-03
 Coeff:     -0.549D-02-0.140D-01 0.104D-01 0.906D-01 0.919D+00
 Gap=     0.080 Goal=   None    Shift=    0.000
 RMSDP=2.32D-08 MaxDP=9.02D-07 DE= 9.09D-13 OVMax= 2.48D-07

 Cycle  18  Pass 1  IDiag  1:
 E= -355.078637635783     Delta-E=        0.000000000001 Rises=F Damp=F
 DIIS: error= 2.90D-09 at cycle  18 NSaved=  18.
 NSaved=18 IEnMin=16 EnMin= -355.078637635785     IErMin=18 ErrMin= 2.90D-09
 ErrMax= 2.90D-09  0.00D+00 EMaxC= 1.00D-01 BMatC= 9.17D-16 BMatP= 8.15D-15
 IDIUse=1 WtCom= 1.00D+00 WtEn= 0.00D+00
 Large coefficients: NSaved= 18 BigCof=    0.00 CofMax=   10.00 Det=-1.47D-15
 Inversion failed.  Reducing to 17 matrices.
 Large coefficients: NSaved= 17 BigCof=    0.00 CofMax=   10.00 Det=-1.48D-15
 Inversion failed.  Reducing to 16 matrices.
 Large coefficients: NSaved= 16 BigCof=    0.00 CofMax=   10.00 Det=-1.52D-15
 Inversion failed.  Reducing to 15 matrices.
 Coeff-Com:  0.358D-07-0.117D-06-0.898D-06-0.860D-06 0.392D-05 0.109D-04
 Coeff-Com:  0.336D-04 0.505D-04 0.137D-03-0.757D-03-0.203D-02-0.920D-02
 Coeff-Com: -0.138D-01 0.743D-01 0.951D+00
 Coeff:      0.358D-07-0.117D-06-0.898D-06-0.860D-06 0.392D-05 0.109D-04
 Coeff:      0.336D-04 0.505D-04 0.137D-03-0.757D-03-0.203D-02-0.920D-02
 Coeff:     -0.138D-01 0.743D-01 0.951D+00
 Gap=     0.080 Goal=   None    Shift=    0.000
 RMSDP=3.50D-09 MaxDP=1.38D-07 DE= 9.09D-13 OVMax= 4.05D-08

 SCF Done:  E(RB3LYP) =  -355.078637636     A.U. after   18 cycles
            NFock= 18  Conv=0.35D-08     -V/T= 2.0026
 KE= 3.541615975665D+02 PE=-1.385723039309D+03 EE= 4.037625679065D+02
 Leave Link  502 at Tue Oct 25 01:31:17 2022, MaxMem=  8053063680 cpu:             121.6 elap:               4.8
 (Enter /public3/home/scg5914/software-scg5914/g16/l601.exe)
 Copying SCF densities to generalized density rwf, IOpCl= 0 IROHF=0.

 **********************************************************************

            Population analysis using the SCF Density.

 **********************************************************************

 Orbital symmetries:
       Occupied  (A) (A) (A) (A) (A) (A) (A) (A) (A) (A) (A) (A)
                 (A) (A) (A) (A) (A) (A) (A) (A) (A) (A) (A) (A)
                 (A)
       Virtual   (A) (A) (A) (A) (A) (A) (A) (A) (A) (A) (A) (A)
                 (A) (A) (A) (A) (A) (A) (A) (A) (A) (A) (A) (A)
                 (A) (A) (A) (A) (A) (A) (A) (A) (A) (A) (A) (A)
                 (A) (A) (A) (A) (A) (A) (A) (A) (A) (A) (A) (A)
                 (A) (A) (A) (A) (A) (A) (A) (A) (A) (A) (A) (A)
                 (A) (A) (A) (A) (A) (A) (A) (A) (A) (A) (A) (A)
                 (A) (A) (A) (A) (A) (A) (A) (A) (A) (A) (A) (A)
                 (A) (A) (A) (A) (A) (A) (A) (A) (A) (A) (A) (A)
                 (A) (A) (A) (A) (A) (A) (A) (A) (A) (A) (A) (A)
                 (A) (A) (A) (A) (A) (A) (A) (A) (A) (A) (A) (A)
                 (A) (A) (A) (A) (A) (A) (A) (A) (A) (A) (A) (A)
                 (A) (A) (A) (A) (A) (A) (A) (A) (A)
 The electronic state is 1-A.
 Alpha  occ. eigenvalues --  -19.02625 -14.16227 -14.12906 -14.12887 -10.13682
 Alpha  occ. eigenvalues --  -10.08449  -9.99621  -0.95970  -0.83753  -0.72703
 Alpha  occ. eigenvalues --   -0.71037  -0.51034  -0.50339  -0.40252  -0.36863
 Alpha  occ. eigenvalues --   -0.31171  -0.30741  -0.25982  -0.22864  -0.21578
 Alpha  occ. eigenvalues --   -0.14439  -0.13367  -0.12235  -0.09299   0.03388
 Alpha virt. eigenvalues --    0.11378   0.12714   0.13426   0.15401   0.16917
 Alpha virt. eigenvalues --    0.16938   0.18005   0.19088   0.20841   0.21205
 Alpha virt. eigenvalues --    0.22385   0.23046   0.24952   0.26399   0.26904
 Alpha virt. eigenvalues --    0.29432   0.31010   0.31798   0.32156   0.33743
 Alpha virt. eigenvalues --    0.34081   0.35703   0.36531   0.36849   0.37422
 Alpha virt. eigenvalues --    0.37570   0.39519   0.40666   0.42004   0.43017
 Alpha virt. eigenvalues --    0.44262   0.45913   0.46142   0.47351   0.50278
 Alpha virt. eigenvalues --    0.51719   0.56664   0.58557   0.62239   0.66610
 Alpha virt. eigenvalues --    0.70775   0.70977   0.72628   0.77212   0.78066
 Alpha virt. eigenvalues --    0.79223   0.85221   0.87173   0.90251   0.91780
 Alpha virt. eigenvalues --    0.97792   0.99603   1.00202   1.00757   1.02514
 Alpha virt. eigenvalues --    1.03209   1.07621   1.07668   1.09759   1.11112
 Alpha virt. eigenvalues --    1.15671   1.17971   1.20185   1.23590   1.25757
 Alpha virt. eigenvalues --    1.26653   1.28464   1.31137   1.38879   1.43814
 Alpha virt. eigenvalues --    1.46577   1.49617   1.52998   1.53962   1.57018
 Alpha virt. eigenvalues --    1.58845   1.61520   1.72667   1.77266   1.80839
 Alpha virt. eigenvalues --    1.85219   1.88753   1.88859   1.94891   2.00423
 Alpha virt. eigenvalues --    2.08097   2.09524   2.17645   2.21645   2.35449
 Alpha virt. eigenvalues --    2.36425   2.40566   2.45562   2.53887   2.55747
 Alpha virt. eigenvalues --    2.58864   2.64709   2.70797   2.73309   2.80261
 Alpha virt. eigenvalues --    2.92132   2.92839   2.93743   2.95575   2.95680
 Alpha virt. eigenvalues --    3.01357   3.01419   3.07726   3.10543   3.14594
 Alpha virt. eigenvalues --    3.23616   3.25954   3.32915   3.33274   3.54106
 Alpha virt. eigenvalues --    3.58663   3.70049   3.72023   3.78231   3.84815
 Alpha virt. eigenvalues --    3.97765   4.05090   4.08264   4.08352   4.08861
 Alpha virt. eigenvalues --    4.46783   4.54215   4.59760   5.07541   5.10717
 Alpha virt. eigenvalues --    5.12082   5.40978   5.58211   5.90914  23.97935
 Alpha virt. eigenvalues --   24.06698  24.08791  35.70966  35.81308  35.83362
 Alpha virt. eigenvalues --   50.05880
          Condensed to atoms (all electrons):
               1          2          3          4          5          6
     1  O    8.477059   0.158699  -0.197404  -0.037178   0.014193  -0.151692
     2  C    0.158699   5.782828   0.241661  -0.436430   0.231404  -0.726446
     3  N   -0.197404   0.241661   7.117562   0.226656   0.035231  -0.068834
     4  C   -0.037178  -0.436430   0.226656   5.773403  -0.148603   0.351655
     5  N    0.014193   0.231404   0.035231  -0.148603   7.575590  -0.730064
     6  C   -0.151692  -0.726446  -0.068834   0.351655  -0.730064   8.615576
     7  N   -0.193814   0.409131   0.044820  -0.116589   0.170294  -0.446712
     8  H    0.120859   0.041151   0.005328   0.009287  -0.000726   0.023885
     9  H    0.002223   0.034922  -0.139447   0.488189  -0.088343  -0.033531
               7          8          9
     1  O   -0.193814   0.120859   0.002223
     2  C    0.409131   0.041151   0.034922
     3  N    0.044820   0.005328  -0.139447
     4  C   -0.116589   0.009287   0.488189
     5  N    0.170294  -0.000726  -0.088343
     6  C   -0.446712   0.023885  -0.033531
     7  N    7.224589   0.027869  -0.008664
     8  H    0.027869   0.544569  -0.000689
     9  H   -0.008664  -0.000689   0.664242
 Mulliken charges:
               1
     1  O   -0.192945
     2  C    0.263081
     3  N   -0.265574
     4  C   -0.110391
     5  N   -0.058976
     6  C   -0.833836
     7  N   -0.110926
     8  H    0.228468
     9  H    0.081098
 Sum of Mulliken charges =  -1.00000
 Mulliken charges with hydrogens summed into heavy atoms:
               1
     1  O    0.035523
     2  C    0.263081
     3  N   -0.265574
     4  C   -0.029293
     5  N   -0.058976
     6  C   -0.833836
     7  N   -0.110926
 Electronic spatial extent (au):  <R**2>=            579.0865
 Charge=             -1.0000 electrons
 Dipole moment (field-independent basis, Debye):
    X=             -4.0059    Y=              6.2083    Z=             -0.0000  Tot=              7.3886
 Quadrupole moment (field-independent basis, Debye-Ang):
   XX=            -57.8277   YY=            -59.4528   ZZ=            -43.4723
   XY=              4.9823   XZ=             -0.0000   YZ=             -0.0000
 Traceless Quadrupole moment (field-independent basis, Debye-Ang):
   XX=             -4.2434   YY=             -5.8685   ZZ=             10.1119
   XY=              4.9823   XZ=             -0.0000   YZ=             -0.0000
 Octapole moment (field-independent basis, Debye-Ang**2):
  XXX=            -42.5257  YYY=             34.6896  ZZZ=              0.0001  XYY=            -17.1529
  XXY=             27.4666  XXZ=             -0.0001  XZZ=             -6.1967  YZZ=              4.1612
  YYZ=              0.0002  XYZ=             -0.0001
 Hexadecapole moment (field-independent basis, Debye-Ang**3):
 XXXX=           -581.7012 YYYY=           -382.8438 ZZZZ=            -56.1008 XXXY=             12.7392
 XXXZ=             -0.0002 YYYX=             53.1062 YYYZ=             -0.0000 ZZZX=             -0.0000
 ZZZY=             -0.0000 XXYY=           -153.4955 XXZZ=            -97.9605 YYZZ=            -65.7583
 XXYZ=             -0.0000 YYXZ=              0.0001 ZZXY=              7.4406
 N-N= 2.727202362003D+02 E-N=-1.385723038999D+03  KE= 3.541615975665D+02
 No NMR shielding tensors so no spin-rotation constants.
 Leave Link  601 at Tue Oct 25 01:31:17 2022, MaxMem=  8053063680 cpu:               2.3 elap:               0.1
 (Enter /public3/home/scg5914/software-scg5914/g16/l701.exe)
 ... and contract with generalized density number  0.
 Compute integral first derivatives.
 R6Disp: Adding Grimme-D3(BJ) dispersion energy 1st derivatives to the gradient.
 Leave Link  701 at Tue Oct 25 01:31:17 2022, MaxMem=  8053063680 cpu:               2.8 elap:               0.1
 (Enter /public3/home/scg5914/software-scg5914/g16/l702.exe)
 L702 exits ... SP integral derivatives will be done elsewhere.
 Leave Link  702 at Tue Oct 25 01:31:17 2022, MaxMem=  8053063680 cpu:               0.4 elap:               0.0
 (Enter /public3/home/scg5914/software-scg5914/g16/l703.exe)
 Integral derivatives from FoFJK, PRISM(SPDF).
 Compute integral first derivatives, UseDBF=F ICtDFT=           0.
 Calling FoFJK, ICntrl=      2127 FMM=F ISym2X=0 I1Cent= 0 IOpClX= 0 NMat=1 NMatS=1 NMatT=0.
 FoFJK:  IHMeth= 1 ICntrl=    2127 DoSepK=F KAlg= 0 I1Cent=           0 FoldK=F
 IRaf=         0 NMat=       1 IRICut=       1 DoRegI=T DoRafI=F ISym2E= 0 IDoP0=0 IntGTp=1.
 FoFCou: FMM=F IPFlag=           0 FMFlag=      100000 FMFlg1=         800
         NFxFlg=           0 DoJE=F BraDBF=F KetDBF=F FulRan=T
         wScrn=  0.000000 ICntrl=      2127 IOpCl=  0 I1Cent=           0 NGrid=           0
         NMat0=    1 NMatS0=      1 NMatT0=    0 NMatD0=    1 NMtDS0=    0 NMtDT0=    0
 Symmetry not used in FoFCou.
 Leave Link  703 at Tue Oct 25 01:31:18 2022, MaxMem=  8053063680 cpu:              28.4 elap:               0.9
 (Enter /public3/home/scg5914/software-scg5914/g16/l716.exe)
 Dipole        =-1.57605612D+00 2.44253976D+00-5.88292166D-06
 ***** Axes restored to original set *****
 -------------------------------------------------------------------
 Center     Atomic                   Forces (Hartrees/Bohr)
 Number     Number              X              Y              Z
 -------------------------------------------------------------------
      1        8           0.000870658    0.024863932   -0.005126490
      2        6          -0.000817194   -0.021783643    0.006376388
      3        7           0.000655870    0.015256504   -0.007244330
      4        6          -0.000317678   -0.010416269    0.000768517
      5        7           0.001698633    0.010305466   -0.046166177
      6        6          -0.004127973   -0.054476686    0.084201134
      7        7           0.001808177    0.035855827   -0.025607060
      8        1           0.000063614    0.000034347   -0.002054382
      9        1           0.000165892    0.000360523   -0.005147599
 -------------------------------------------------------------------
 Cartesian Forces:  Max     0.084201134 RMS     0.024226146
 Leave Link  716 at Tue Oct 25 01:31:18 2022, MaxMem=  8053063680 cpu:               0.3 elap:               0.0
 (Enter /public3/home/scg5914/software-scg5914/g16/l103.exe)

 GradGradGradGradGradGradGradGradGradGradGradGradGradGradGradGradGradGrad
 Berny optimization.
 FormGI is forming the generalized inverse of G from B-inverse, IUseBI=4.
 Internal  Forces:  Max     0.058285596 RMS     0.017659672
 Search for a local minimum.
 Step number   1 out of a maximum of   42
 All quantities printed in internal units (Hartrees-Bohrs-Radians)
 RMS Force = .17660D-01 SwitMx=.10000D-02 MixMth= 1
 Mixed Optimization -- RFO/linear search
 Second derivative matrix not updated -- first step.
 ITU=  0
     Eigenvalues ---    0.02544   0.02565   0.02579   0.02597   0.02601
     Eigenvalues ---    0.02617   0.16000   0.16000   0.23133   0.25000
     Eigenvalues ---    0.25000   0.25000   0.35059   0.53145   0.53790
     Eigenvalues ---    0.54000   0.57845   0.58845   0.58869   0.59485
     Eigenvalues ---    0.59566
 RFO step:  Lambda=-2.60813277D-02 EMin= 2.54352575D-02
 Linear search not attempted -- first point.
 Iteration  1 RMS(Cart)=  0.05183617 RMS(Int)=  0.00322823
 Iteration  2 RMS(Cart)=  0.00326139 RMS(Int)=  0.00101526
 Iteration  3 RMS(Cart)=  0.00000484 RMS(Int)=  0.00101526
 Iteration  4 RMS(Cart)=  0.00000000 RMS(Int)=  0.00101526
 ITry= 1 IFail=0 DXMaxC= 1.99D-01 DCOld= 1.00D+10 DXMaxT= 3.00D-01 DXLimC= 3.00D+00 Rises=F
 Variable       Old X    -DE/DX   Delta X   Delta X   Delta X     New X
                                 (Linear)    (Quad)   (Total)
    R1        2.51350   0.02456   0.00000   0.03956   0.03956   2.55306
    R2        1.82923   0.00195   0.00000   0.00346   0.00346   1.83270
    R3        2.52892  -0.00233   0.00000  -0.00697  -0.00798   2.52093
    R4        2.51799   0.00883   0.00000   0.01422   0.01415   2.53214
    R5        2.51364   0.00539   0.00000   0.00561   0.00460   2.51825
    R6        2.51914   0.00509   0.00000   0.00803   0.00799   2.52713
    R7        2.05580   0.00439   0.00000   0.01166   0.01166   2.06745
    R8        2.52470   0.04472   0.00000   0.07694   0.07797   2.60268
    R9        2.51211   0.04610   0.00000   0.07730   0.07833   2.59044
    A1        1.86112  -0.00118   0.00000  -0.00632  -0.00632   1.85480
    A2        2.05210  -0.01440   0.00000  -0.04851  -0.04793   2.00416
    A3        2.02916   0.00765   0.00000   0.03138   0.03195   2.06111
    A4        2.20193   0.00675   0.00000   0.01713   0.01598   2.21791
    A5        1.98901  -0.00391   0.00000  -0.03667  -0.04012   1.94888
    A6        2.20068   0.00405   0.00000   0.00775   0.00660   2.20728
    A7        2.03653  -0.00482   0.00000  -0.01889  -0.01831   2.01822
    A8        2.04597   0.00077   0.00000   0.01114   0.01171   2.05768
    A9        1.98291   0.02693   0.00000   0.10637   0.10773   2.09064
   A10        2.21078  -0.05829   0.00000  -0.19272  -0.18968   2.02110
   A11        1.98106   0.02446   0.00000   0.09814   0.09950   2.08056
    D1        0.00002  -0.00000   0.00000  -0.00001  -0.00001   0.00000
    D2        3.14159   0.00000   0.00000   0.00001   0.00001  -3.14158
    D3        3.14159   0.00000   0.00000   0.00000   0.00000   3.14159
    D4        0.00002  -0.00000   0.00000  -0.00002  -0.00002  -0.00001
    D5       -3.14158  -0.00000   0.00000  -0.00001  -0.00001  -3.14159
    D6       -0.00001   0.00000   0.00000   0.00001   0.00002   0.00001
    D7       -0.00003   0.00000   0.00000   0.00003   0.00003  -0.00000
    D8       -3.14158  -0.00000   0.00000  -0.00002  -0.00002   3.14158
    D9        0.00004  -0.00000   0.00000  -0.00003  -0.00003   0.00001
   D10        3.14159   0.00000   0.00000   0.00002   0.00002  -3.14157
   D11       -0.00003   0.00000   0.00000   0.00002   0.00002  -0.00001
   D12        0.00002  -0.00000   0.00000  -0.00002  -0.00001   0.00000
         Item               Value     Threshold  Converged?
 Maximum Force            0.058286     0.000450     NO 
 RMS     Force            0.017660     0.000300     NO 
 Maximum Displacement     0.198932     0.001800     NO 
 RMS     Displacement     0.052113     0.001200     NO 
 Predicted change in Energy=-1.398716D-02
 Lowest energy point so far.  Saving SCF results.
 GradGradGradGradGradGradGradGradGradGradGradGradGradGradGradGradGradGrad

 Leave Link  103 at Tue Oct 25 01:31:18 2022, MaxMem=  8053063680 cpu:               0.7 elap:               0.0
 (Enter /public3/home/scg5914/software-scg5914/g16/l202.exe)
                          Input orientation:                          
 ---------------------------------------------------------------------
 Center     Atomic      Atomic             Coordinates (Angstroms)
 Number     Number       Type             X           Y           Z
 ---------------------------------------------------------------------
      1          8           0        0.107660    1.312640    0.094862
      2          6           0        0.069992   -0.037322    0.056890
      3          7           0        0.092139   -0.564107   -1.168516
      4          6           0        0.052748   -1.895632   -1.132345
      5          7           0       -0.002584   -2.659715   -0.036221
      6          6           0       -0.023520   -2.070205    1.208342
      7          7           0        0.015521   -0.700009    1.220226
      8          1           0        0.144273    1.609526   -0.827673
      9          1           0        0.067946   -2.396220   -2.105035
 ---------------------------------------------------------------------
                    Distance matrix (angstroms):
                    1          2          3          4          5
     1  O    0.000000
     2  C    1.351022   0.000000
     3  N    2.262420   1.334021   0.000000
     4  C    3.435413   2.206330   1.332599   0.000000
     5  N    3.976046   2.625048   2.383829   1.337300   0.000000
     6  C    3.563802   2.338204   2.816232   2.348426   1.377279
     7  N    2.307745   1.339952   2.393831   2.639221   2.327968
     8  H    0.969821   1.870850   2.200812   3.519565   4.344466
     9  H    4.312396   3.199737   2.057739   1.094050   2.086719
                    6          7          8          9
     6  C    0.000000
     7  N    1.370804   0.000000
     8  H    4.208792   3.089404   0.000000
     9  H    3.330633   3.733261   4.205173   0.000000
 Stoichiometry    C3H2N3O(1-)
 Framework group  C1[X(C3H2N3O)]
 Deg. of freedom    21
 Full point group                 C1      NOp   1
 RotChk:  IX=2 Diff= 7.41D-02
 Largest Abelian subgroup         C1      NOp   1
 Largest concise Abelian subgroup C1      NOp   1
                         Standard orientation:                         
 ---------------------------------------------------------------------
 Center     Atomic      Atomic             Coordinates (Angstroms)
 Number     Number       Type             X           Y           Z
 ---------------------------------------------------------------------
      1          8           0       -2.167561   -0.086147    0.000002
      2          6           0       -0.816638   -0.069757    0.000001
      3          7           0       -0.271171    1.147649   -0.000002
      4          6           0        1.060187    1.090164   -0.000000
      5          7           0        1.807911   -0.018565    0.000006
      6          6           0        1.199411   -1.254132   -0.000002
      7          7           0       -0.171356   -1.244100   -0.000003
      8          1           0       -2.450580    0.841458   -0.000002
      9          1           0        1.575628    2.055185   -0.000013
 ---------------------------------------------------------------------
 Rotational constants (GHZ):           6.4539912           2.9785297           2.0379922
 Leave Link  202 at Tue Oct 25 01:31:18 2022, MaxMem=  8053063680 cpu:               0.2 elap:               0.0
 (Enter /public3/home/scg5914/software-scg5914/g16/l301.exe)
 Standard basis: 6-311+G(d,p) (5D, 7F)
 Ernie: Thresh=  0.10000D-02 Tol=  0.10000D-05 Strict=F.
 There are   173 symmetry adapted cartesian basis functions of A   symmetry.
 There are   166 symmetry adapted basis functions of A   symmetry.
   166 basis functions,   268 primitive gaussians,   173 cartesian basis functions
    25 alpha electrons       25 beta electrons
       nuclear repulsion energy       270.1078642767 Hartrees.
 IExCor=  402 DFT=T Ex+Corr=B3LYP ExCW=0 ScaHFX=  0.200000
 ScaDFX=  0.800000  0.720000  1.000000  0.810000 ScalE2=  1.000000  1.000000
 IRadAn=      5 IRanWt=     -1 IRanGd=            0 ICorTp=0 IEmpDi=141
 NAtoms=    9 NActive=    9 NUniq=    9 SFac= 1.00D+00 NAtFMM=   60 NAOKFM=F Big=F
 Integral buffers will be    131072 words long.
 Raffenetti 2 integral format.
 Two-electron integral symmetry is turned on.
 R6Disp:  Grimme-D3(BJ) Dispersion energy=       -0.0144545627 Hartrees.
 Nuclear repulsion after empirical dispersion term =      270.0934097140 Hartrees.
 Leave Link  301 at Tue Oct 25 01:31:19 2022, MaxMem=  8053063680 cpu:               0.6 elap:               0.0
 (Enter /public3/home/scg5914/software-scg5914/g16/l302.exe)
 NPDir=0 NMtPBC=     1 NCelOv=     1 NCel=       1 NClECP=     1 NCelD=      1
         NCelK=      1 NCelE2=     1 NClLst=     1 CellRange=     0.0.
 One-electron integrals computed using PRISM.
 One-electron integral symmetry used in STVInt
 NBasis=   166 RedAO= T EigKep=  1.88D-04  NBF=   166
 NBsUse=   166 1.00D-06 EigRej= -1.00D+00 NBFU=   166
 Precomputing XC quadrature grid using
 IXCGrd= 4 IRadAn=           5 IRanWt=          -1 IRanGd=           0 AccXCQ= 0.00D+00.
 Generated NRdTot=       0 NPtTot=           0 NUsed=           0 NTot=          32
 NSgBfM=   173   173   173   173   173 MxSgAt=     9 MxSgA2=     9.
 Leave Link  302 at Tue Oct 25 01:31:19 2022, MaxMem=  8053063680 cpu:               4.3 elap:               0.1
 (Enter /public3/home/scg5914/software-scg5914/g16/l303.exe)
 DipDrv:  MaxL=1.
 Leave Link  303 at Tue Oct 25 01:31:19 2022, MaxMem=  8053063680 cpu:               0.4 elap:               0.0
 (Enter /public3/home/scg5914/software-scg5914/g16/l401.exe)
 Initial guess from the checkpoint file:  "dsgdb9nsd_000958-3.chk"
 B after Tr=     0.000000   -0.000000    0.000000
         Rot=    0.999660    0.000000    0.000000   -0.026082 Ang=   2.99 deg.
 Guess basis will be translated and rotated to current coordinates.
 JPrj=2 DoOrth=T DoCkMO=T.
 Generating alternative initial guess.
 ExpMin= 4.38D-02 ExpMax= 8.59D+03 ExpMxC= 1.30D+03 IAcc=3 IRadAn=         5 AccDes= 0.00D+00
 Harris functional with IExCor=  402 and IRadAn=       5 diagonalized for initial guess.
 HarFok:  IExCor=  402 AccDes= 0.00D+00 IRadAn=         5 IDoV= 1 UseB2=F ITyADJ=14
 ICtDFT=  3500011 ScaDFX=  1.000000  1.000000  1.000000  1.000000
 FoFCou: FMM=F IPFlag=           0 FMFlag=      100000 FMFlg1=           0
         NFxFlg=           0 DoJE=T BraDBF=F KetDBF=T FulRan=T
         wScrn=  0.000000 ICntrl=       500 IOpCl=  0 I1Cent=   200000004 NGrid=           0
         NMat0=    1 NMatS0=      1 NMatT0=    0 NMatD0=    1 NMtDS0=    0 NMtDT0=    0
 Petite list used in FoFCou.
 Harris En= -355.211865029070    
 Leave Link  401 at Tue Oct 25 01:31:19 2022, MaxMem=  8053063680 cpu:               8.7 elap:               0.3
 (Enter /public3/home/scg5914/software-scg5914/g16/l502.exe)
 Keep R1 ints in memory in canonical form, NReq=128107855.
 FoFCou: FMM=F IPFlag=           0 FMFlag=           0 FMFlg1=           0
         NFxFlg=           0 DoJE=F BraDBF=F KetDBF=F FulRan=T
         wScrn=  0.000000 ICntrl=       600 IOpCl=  0 I1Cent=           0 NGrid=           0
         NMat0=    1 NMatS0=  13861 NMatT0=    0 NMatD0=    1 NMtDS0=    0 NMtDT0=    0
 Symmetry not used in FoFCou.
 Two-electron integral symmetry not used.
 Closed shell SCF:
 Using DIIS extrapolation, IDIIS=  1040.
 NGot=  8053063680 LenX=  7956925807 LenY=  7956895437
 Requested convergence on RMS density matrix=1.00D-08 within 128 cycles.
 Requested convergence on MAX density matrix=1.00D-06.
 Requested convergence on             energy=1.00D-06.
 No special actions if energy rises.

 Cycle   1  Pass 1  IDiag  1:
 E= -355.081385937811    
 DIIS: error= 4.39D-03 at cycle   1 NSaved=   1.
 NSaved= 1 IEnMin= 1 EnMin= -355.081385937811     IErMin= 1 ErrMin= 4.39D-03
 ErrMax= 4.39D-03  0.00D+00 EMaxC= 1.00D-01 BMatC= 6.42D-03 BMatP= 6.42D-03
 IDIUse=3 WtCom= 9.56D-01 WtEn= 4.39D-02
 Coeff-Com:  0.100D+01
 Coeff-En:   0.100D+01
 Coeff:      0.100D+01
 Gap=     0.382 Goal=   None    Shift=    0.000
 GapD=    0.382 DampG=1.000 DampE=1.000 DampFc=1.0000 IDamp=-1.
 RMSDP=4.59D-03 MaxDP=3.48D-01              OVMax= 7.35D-02

 Cycle   2  Pass 1  IDiag  1:
 E= -355.091029477476     Delta-E=       -0.009643539664 Rises=F Damp=F
 DIIS: error= 1.54D-03 at cycle   2 NSaved=   2.
 NSaved= 2 IEnMin= 2 EnMin= -355.091029477476     IErMin= 2 ErrMin= 1.54D-03
 ErrMax= 1.54D-03  0.00D+00 EMaxC= 1.00D-01 BMatC= 4.58D-04 BMatP= 6.42D-03
 IDIUse=3 WtCom= 9.85D-01 WtEn= 1.54D-02
 Coeff-Com:  0.437D-01 0.956D+00
 Coeff-En:   0.000D+00 0.100D+01
 Coeff:      0.430D-01 0.957D+00
 Gap=     0.107 Goal=   None    Shift=    0.000
 RMSDP=3.27D-04 MaxDP=8.71D-03 DE=-9.64D-03 OVMax= 1.39D-02

 Cycle   3  Pass 1  IDiag  1:
 E= -355.090645854354     Delta-E=        0.000383623122 Rises=F Damp=F
 DIIS: error= 2.46D-03 at cycle   3 NSaved=   3.
 NSaved= 3 IEnMin= 2 EnMin= -355.091029477476     IErMin= 2 ErrMin= 1.54D-03
 ErrMax= 2.46D-03  0.00D+00 EMaxC= 1.00D-01 BMatC= 9.06D-04 BMatP= 4.58D-04
 IDIUse=3 WtCom= 1.68D-01 WtEn= 8.32D-01
 Coeff-Com: -0.308D-01 0.605D+00 0.426D+00
 Coeff-En:   0.000D+00 0.638D+00 0.362D+00
 Coeff:     -0.516D-02 0.633D+00 0.373D+00
 Gap=     0.113 Goal=   None    Shift=    0.000
 RMSDP=4.40D-04 MaxDP=2.84D-02 DE= 3.84D-04 OVMax= 1.02D-02

 Cycle   4  Pass 1  IDiag  1:
 E= -355.091476524214     Delta-E=       -0.000830669860 Rises=F Damp=F
 DIIS: error= 1.30D-04 at cycle   4 NSaved=   4.
 NSaved= 4 IEnMin= 4 EnMin= -355.091476524214     IErMin= 4 ErrMin= 1.30D-04
 ErrMax= 1.30D-04  0.00D+00 EMaxC= 1.00D-01 BMatC= 3.83D-06 BMatP= 4.58D-04
 IDIUse=3 WtCom= 9.99D-01 WtEn= 1.30D-03
 Coeff-Com: -0.649D-02 0.949D-01 0.273D-01 0.884D+00
 Coeff-En:   0.000D+00 0.000D+00 0.000D+00 0.100D+01
 Coeff:     -0.648D-02 0.948D-01 0.272D-01 0.884D+00
 Gap=     0.114 Goal=   None    Shift=    0.000
 RMSDP=1.19D-04 MaxDP=7.48D-03 DE=-8.31D-04 OVMax= 2.01D-03

 Cycle   5  Pass 1  IDiag  1:
 E= -355.091479373887     Delta-E=       -0.000002849673 Rises=F Damp=F
 DIIS: error= 1.42D-04 at cycle   5 NSaved=   5.
 NSaved= 5 IEnMin= 5 EnMin= -355.091479373887     IErMin= 4 ErrMin= 1.30D-04
 ErrMax= 1.42D-04  0.00D+00 EMaxC= 1.00D-01 BMatC= 2.44D-06 BMatP= 3.83D-06
 IDIUse=3 WtCom= 9.99D-01 WtEn= 1.42D-03
 Coeff-Com: -0.196D-02 0.897D-02-0.130D-01 0.525D+00 0.481D+00
 Coeff-En:   0.000D+00 0.000D+00 0.000D+00 0.232D+00 0.768D+00
 Coeff:     -0.196D-02 0.896D-02-0.130D-01 0.525D+00 0.481D+00
 Gap=     0.114 Goal=   None    Shift=    0.000
 RMSDP=1.53D-05 MaxDP=5.98D-04 DE=-2.85D-06 OVMax= 5.56D-04

 Cycle   6  Pass 1  IDiag  1:
 E= -355.091481172776     Delta-E=       -0.000001798889 Rises=F Damp=F
 DIIS: error= 4.67D-05 at cycle   6 NSaved=   6.
 NSaved= 6 IEnMin= 6 EnMin= -355.091481172776     IErMin= 6 ErrMin= 4.67D-05
 ErrMax= 4.67D-05  0.00D+00 EMaxC= 1.00D-01 BMatC= 1.69D-07 BMatP= 2.44D-06
 IDIUse=1 WtCom= 1.00D+00 WtEn= 0.00D+00
 Coeff-Com: -0.591D-03-0.520D-02-0.911D-02 0.199D+00 0.254D+00 0.562D+00
 Coeff:     -0.591D-03-0.520D-02-0.911D-02 0.199D+00 0.254D+00 0.562D+00
 Gap=     0.114 Goal=   None    Shift=    0.000
 RMSDP=4.08D-06 MaxDP=7.21D-05 DE=-1.80D-06 OVMax= 2.20D-04

 Cycle   7  Pass 1  IDiag  1:
 E= -355.091481301492     Delta-E=       -0.000000128716 Rises=F Damp=F
 DIIS: error= 1.61D-05 at cycle   7 NSaved=   7.
 NSaved= 7 IEnMin= 7 EnMin= -355.091481301492     IErMin= 7 ErrMin= 1.61D-05
 ErrMax= 1.61D-05  0.00D+00 EMaxC= 1.00D-01 BMatC= 3.47D-08 BMatP= 1.69D-07
 IDIUse=1 WtCom= 1.00D+00 WtEn= 0.00D+00
 Coeff-Com:  0.512D-04-0.569D-02-0.420D-02 0.484D-01 0.771D-01 0.340D+00
 Coeff-Com:  0.544D+00
 Coeff:      0.512D-04-0.569D-02-0.420D-02 0.484D-01 0.771D-01 0.340D+00
 Coeff:      0.544D+00
 Gap=     0.114 Goal=   None    Shift=    0.000
 RMSDP=5.86D-06 MaxDP=3.02D-04 DE=-1.29D-07 OVMax= 1.03D-04

 Cycle   8  Pass 1  IDiag  1:
 E= -355.091481331322     Delta-E=       -0.000000029829 Rises=F Damp=F
 DIIS: error= 8.87D-06 at cycle   8 NSaved=   8.
 NSaved= 8 IEnMin= 8 EnMin= -355.091481331322     IErMin= 8 ErrMin= 8.87D-06
 ErrMax= 8.87D-06  0.00D+00 EMaxC= 1.00D-01 BMatC= 6.17D-09 BMatP= 3.47D-08
 IDIUse=1 WtCom= 1.00D+00 WtEn= 0.00D+00
 Coeff-Com:  0.924D-04-0.340D-02-0.195D-02 0.125D-01 0.238D-01 0.167D+00
 Coeff-Com:  0.369D+00 0.432D+00
 Coeff:      0.924D-04-0.340D-02-0.195D-02 0.125D-01 0.238D-01 0.167D+00
 Coeff:      0.369D+00 0.432D+00
 Gap=     0.114 Goal=   None    Shift=    0.000
 RMSDP=7.06D-07 MaxDP=1.15D-05 DE=-2.98D-08 OVMax= 2.73D-05

 Cycle   9  Pass 1  IDiag  1:
 E= -355.091481336994     Delta-E=       -0.000000005672 Rises=F Damp=F
 DIIS: error= 1.30D-06 at cycle   9 NSaved=   9.
 NSaved= 9 IEnMin= 9 EnMin= -355.091481336994     IErMin= 9 ErrMin= 1.30D-06
 ErrMax= 1.30D-06  0.00D+00 EMaxC= 1.00D-01 BMatC= 2.11D-10 BMatP= 6.17D-09
 IDIUse=1 WtCom= 1.00D+00 WtEn= 0.00D+00
 Coeff-Com:  0.260D-04-0.334D-03 0.487D-04-0.368D-02-0.604D-02 0.439D-02
 Coeff-Com:  0.655D-01 0.180D+00 0.760D+00
 Coeff:      0.260D-04-0.334D-03 0.487D-04-0.368D-02-0.604D-02 0.439D-02
 Coeff:      0.655D-01 0.180D+00 0.760D+00
 Gap=     0.114 Goal=   None    Shift=    0.000
 RMSDP=5.32D-07 MaxDP=1.40D-05 DE=-5.67D-09 OVMax= 8.21D-06

 Cycle  10  Pass 1  IDiag  1:
 E= -355.091481337224     Delta-E=       -0.000000000231 Rises=F Damp=F
 DIIS: error= 5.48D-07 at cycle  10 NSaved=  10.
 NSaved=10 IEnMin=10 EnMin= -355.091481337224     IErMin=10 ErrMin= 5.48D-07
 ErrMax= 5.48D-07  0.00D+00 EMaxC= 1.00D-01 BMatC= 1.36D-11 BMatP= 2.11D-10
 IDIUse=1 WtCom= 1.00D+00 WtEn= 0.00D+00
 Coeff-Com:  0.100D-04-0.560D-04 0.840D-04-0.210D-02-0.357D-02-0.377D-02
 Coeff-Com:  0.162D-01 0.617D-01 0.345D+00 0.586D+00
 Coeff:      0.100D-04-0.560D-04 0.840D-04-0.210D-02-0.357D-02-0.377D-02
 Coeff:      0.162D-01 0.617D-01 0.345D+00 0.586D+00
 Gap=     0.114 Goal=   None    Shift=    0.000
 RMSDP=7.63D-08 MaxDP=2.03D-06 DE=-2.31D-10 OVMax= 1.97D-06

 Cycle  11  Pass 1  IDiag  1:
 E= -355.091481337232     Delta-E=       -0.000000000008 Rises=F Damp=F
 DIIS: error= 1.99D-07 at cycle  11 NSaved=  11.
 NSaved=11 IEnMin=11 EnMin= -355.091481337232     IErMin=11 ErrMin= 1.99D-07
 ErrMax= 1.99D-07  0.00D+00 EMaxC= 1.00D-01 BMatC= 3.17D-12 BMatP= 1.36D-11
 IDIUse=1 WtCom= 1.00D+00 WtEn= 0.00D+00
 Coeff-Com:  0.395D-06 0.327D-04 0.397D-04-0.355D-03-0.700D-03-0.247D-02
 Coeff-Com: -0.327D-02-0.838D-03 0.494D-01 0.343D+00 0.615D+00
 Coeff:      0.395D-06 0.327D-04 0.397D-04-0.355D-03-0.700D-03-0.247D-02
 Coeff:     -0.327D-02-0.838D-03 0.494D-01 0.343D+00 0.615D+00
 Gap=     0.114 Goal=   None    Shift=    0.000
 RMSDP=3.49D-08 MaxDP=1.05D-06 DE=-8.19D-12 OVMax= 6.71D-07

 Cycle  12  Pass 1  IDiag  1:
 E= -355.091481337236     Delta-E=       -0.000000000003 Rises=F Damp=F
 DIIS: error= 3.25D-08 at cycle  12 NSaved=  12.
 NSaved=12 IEnMin=12 EnMin= -355.091481337236     IErMin=12 ErrMin= 3.25D-08
 ErrMax= 3.25D-08  0.00D+00 EMaxC= 1.00D-01 BMatC= 9.38D-14 BMatP= 3.17D-12
 IDIUse=1 WtCom= 1.00D+00 WtEn= 0.00D+00
 Coeff-Com: -0.220D-06 0.149D-04 0.134D-04-0.511D-04-0.126D-03-0.847D-03
 Coeff-Com: -0.226D-02-0.291D-02 0.511D-02 0.117D+00 0.249D+00 0.635D+00
 Coeff:     -0.220D-06 0.149D-04 0.134D-04-0.511D-04-0.126D-03-0.847D-03
 Coeff:     -0.226D-02-0.291D-02 0.511D-02 0.117D+00 0.249D+00 0.635D+00
 Gap=     0.114 Goal=   None    Shift=    0.000
 RMSDP=6.47D-09 MaxDP=2.07D-07 DE=-3.41D-12 OVMax= 2.05D-07

 SCF Done:  E(RB3LYP) =  -355.091481337     A.U. after   12 cycles
            NFock= 12  Conv=0.65D-08     -V/T= 2.0034
 KE= 3.538833103506D+02 PE=-1.380489720049D+03 EE= 4.014215186468D+02
 Leave Link  502 at Tue Oct 25 01:31:22 2022, MaxMem=  8053063680 cpu:              85.2 elap:               3.3
 (Enter /public3/home/scg5914/software-scg5914/g16/l701.exe)
 ... and contract with generalized density number  0.
 Compute integral first derivatives.
 R6Disp: Adding Grimme-D3(BJ) dispersion energy 1st derivatives to the gradient.
 Leave Link  701 at Tue Oct 25 01:31:22 2022, MaxMem=  8053063680 cpu:               2.9 elap:               0.1
 (Enter /public3/home/scg5914/software-scg5914/g16/l702.exe)
 L702 exits ... SP integral derivatives will be done elsewhere.
 Leave Link  702 at Tue Oct 25 01:31:22 2022, MaxMem=  8053063680 cpu:               0.4 elap:               0.0
 (Enter /public3/home/scg5914/software-scg5914/g16/l703.exe)
 Integral derivatives from FoFJK, PRISM(SPDF).
 Compute integral first derivatives, UseDBF=F ICtDFT=           0.
 Calling FoFJK, ICntrl=      2127 FMM=F ISym2X=0 I1Cent= 0 IOpClX= 0 NMat=1 NMatS=1 NMatT=0.
 FoFJK:  IHMeth= 1 ICntrl=    2127 DoSepK=F KAlg= 0 I1Cent=           0 FoldK=F
 IRaf=         0 NMat=       1 IRICut=       1 DoRegI=T DoRafI=F ISym2E= 0 IDoP0=0 IntGTp=1.
 FoFCou: FMM=F IPFlag=           0 FMFlag=      100000 FMFlg1=         800
         NFxFlg=           0 DoJE=F BraDBF=F KetDBF=F FulRan=T
         wScrn=  0.000000 ICntrl=      2127 IOpCl=  0 I1Cent=           0 NGrid=           0
         NMat0=    1 NMatS0=      1 NMatT0=    0 NMatD0=    1 NMtDS0=    0 NMtDT0=    0
 Symmetry not used in FoFCou.
 Leave Link  703 at Tue Oct 25 01:31:23 2022, MaxMem=  8053063680 cpu:              29.3 elap:               0.9
 (Enter /public3/home/scg5914/software-scg5914/g16/l716.exe)
 Dipole        =-1.62896024D+00 2.28584125D+00 1.07241537D-07
 ***** Axes restored to original set *****
 -------------------------------------------------------------------
 Center     Atomic                   Forces (Hartrees/Bohr)
 Number     Number              X              Y              Z
 -------------------------------------------------------------------
      1        8           0.000291746    0.013863206    0.003515326
      2        6          -0.001047935   -0.020308311    0.015236028
      3        7           0.000261819    0.005330676   -0.003570159
      4        6          -0.000842076   -0.015617935    0.012896353
      5        7           0.000707445   -0.004096324   -0.027124692
      6        6          -0.000361411   -0.005036354    0.007130055
      7        7           0.001201602    0.030121519   -0.011020741
      8        1          -0.000159310   -0.003692016    0.001749102
      9        1          -0.000051879   -0.000564460    0.001188730
 -------------------------------------------------------------------
 Cartesian Forces:  Max     0.030121519 RMS     0.010853380
 Leave Link  716 at Tue Oct 25 01:31:23 2022, MaxMem=  8053063680 cpu:               0.2 elap:               0.0
 (Enter /public3/home/scg5914/software-scg5914/g16/l103.exe)

 GradGradGradGradGradGradGradGradGradGradGradGradGradGradGradGradGradGrad
 Berny optimization.
 Using GEDIIS/GDIIS optimizer.
 FormGI is forming the generalized inverse of G from B-inverse, IUseBI=4.
 Internal  Forces:  Max     0.020569650 RMS     0.007089963
 Search for a local minimum.
 Step number   2 out of a maximum of   42
 All quantities printed in internal units (Hartrees-Bohrs-Radians)
 RMS Force = .70900D-02 SwitMx=.10000D-02 MixMth= 1
 Mixed Optimization -- RFO/linear search
 Update second derivatives using D2CorX and points    1    2
 DE= -1.28D-02 DEPred=-1.40D-02 R= 9.18D-01
 TightC=F SS=  1.41D+00  RLast= 2.78D-01 DXNew= 5.0454D-01 8.3517D-01
 Trust test= 9.18D-01 RLast= 2.78D-01 DXMaxT set to 5.05D-01
 ITU=  1  0
 Use linear search instead of GDIIS.
     Eigenvalues ---    0.02544   0.02566   0.02578   0.02596   0.02600
     Eigenvalues ---    0.02617   0.15851   0.16032   0.23135   0.24852
     Eigenvalues ---    0.25000   0.29737   0.35076   0.46106   0.52956
     Eigenvalues ---    0.53828   0.56527   0.58621   0.58873   0.59509
     Eigenvalues ---    0.66806
 RFO step:  Lambda=-3.09855504D-03 EMin= 2.54410854D-02
 Quartic linear search produced a step of -0.01409.
 Iteration  1 RMS(Cart)=  0.01387626 RMS(Int)=  0.00015989
 Iteration  2 RMS(Cart)=  0.00013115 RMS(Int)=  0.00003260
 Iteration  3 RMS(Cart)=  0.00000000 RMS(Int)=  0.00003260
 ITry= 1 IFail=0 DXMaxC= 4.27D-02 DCOld= 1.00D+10 DXMaxT= 5.05D-01 DXLimC= 3.00D+00 Rises=F
 Variable       Old X    -DE/DX   Delta X   Delta X   Delta X     New X
                                 (Linear)    (Quad)   (Total)
    R1        2.55306   0.01031  -0.00056   0.02250   0.02194   2.57501
    R2        1.83270  -0.00280  -0.00005  -0.00462  -0.00466   1.82803
    R3        2.52093   0.00627   0.00011   0.00875   0.00889   2.52982
    R4        2.53214  -0.02057  -0.00020  -0.03256  -0.03277   2.49937
    R5        2.51825   0.00950  -0.00006   0.01583   0.01581   2.53405
    R6        2.52713  -0.01656  -0.00011  -0.02622  -0.02632   2.50081
    R7        2.06745  -0.00080  -0.00016  -0.00060  -0.00077   2.06669
    R8        2.60268   0.01507  -0.00110   0.03708   0.03595   2.63863
    R9        2.59044   0.01582  -0.00110   0.03737   0.03623   2.62667
    A1        1.85480  -0.00546   0.00009  -0.03385  -0.03376   1.82104
    A2        2.00416   0.00264   0.00068   0.00493   0.00559   2.00975
    A3        2.06111  -0.00462  -0.00045  -0.01217  -0.01263   2.04848
    A4        2.21791   0.00198  -0.00023   0.00724   0.00705   2.22495
    A5        1.94888   0.00409   0.00057   0.00521   0.00588   1.95476
    A6        2.20728   0.00058  -0.00009   0.00262   0.00257   2.20985
    A7        2.01822   0.00079   0.00026   0.00314   0.00337   2.02159
    A8        2.05768  -0.00137  -0.00016  -0.00575  -0.00594   2.05174
    A9        2.09064  -0.00672  -0.00152  -0.00769  -0.00924   2.08140
   A10        2.02110   0.00564   0.00267  -0.00000   0.00257   2.02367
   A11        2.08056  -0.00557  -0.00140  -0.00737  -0.00883   2.07173
    D1        0.00000  -0.00000   0.00000  -0.00000  -0.00000   0.00000
    D2       -3.14158  -0.00000  -0.00000  -0.00000  -0.00000  -3.14159
    D3        3.14159  -0.00000  -0.00000  -0.00000  -0.00000   3.14159
    D4       -0.00001   0.00000   0.00000  -0.00000  -0.00000  -0.00001
    D5       -3.14159   0.00000   0.00000   0.00000   0.00001  -3.14159
    D6        0.00001  -0.00000  -0.00000   0.00000   0.00000   0.00001
    D7       -0.00000  -0.00000  -0.00000   0.00000   0.00000  -0.00000
    D8        3.14158   0.00000   0.00000   0.00001   0.00001  -3.14159
    D9        0.00001  -0.00000   0.00000  -0.00001  -0.00001   0.00001
   D10       -3.14157  -0.00000  -0.00000  -0.00002  -0.00002  -3.14159
   D11       -0.00001   0.00000  -0.00000   0.00001   0.00001  -0.00000
   D12        0.00000  -0.00000   0.00000  -0.00001  -0.00000  -0.00000
         Item               Value     Threshold  Converged?
 Maximum Force            0.020570     0.000450     NO 
 RMS     Force            0.007090     0.000300     NO 
 Maximum Displacement     0.042679     0.001800     NO 
 RMS     Displacement     0.013913     0.001200     NO 
 Predicted change in Energy=-1.563048D-03
 Lowest energy point so far.  Saving SCF results.
 GradGradGradGradGradGradGradGradGradGradGradGradGradGradGradGradGradGrad

 Leave Link  103 at Tue Oct 25 01:31:24 2022, MaxMem=  8053063680 cpu:               8.6 elap:               0.3
 (Enter /public3/home/scg5914/software-scg5914/g16/l202.exe)
                          Input orientation:                          
 ---------------------------------------------------------------------
 Center     Atomic      Atomic             Coordinates (Angstroms)
 Number     Number       Type             X           Y           Z
 ---------------------------------------------------------------------
      1          8           0        0.107749    1.327340    0.105858
      2          6           0        0.069893   -0.034097    0.063104
      3          7           0        0.091997   -0.565585   -1.165397
      4          6           0        0.052501   -1.905593   -1.133776
      5          7           0       -0.002302   -2.668360   -0.053733
      6          6           0       -0.023352   -2.066788    1.206160
      7          7           0        0.016255   -0.677424    1.217468
      8          1           0        0.143722    1.595271   -0.822952
      9          1           0        0.067712   -2.405808   -2.106202
 ---------------------------------------------------------------------
                    Distance matrix (angstroms):
                    1          2          3          4          5
     1  O    0.000000
     2  C    1.362634   0.000000
     3  N    2.280242   1.338725   0.000000
     4  C    3.462889   2.221558   1.340962   0.000000
     5  N    4.000399   2.637840   2.380410   1.323371   0.000000
     6  C    3.570428   2.333904   2.809129   2.346709   1.396304
     7  N    2.294150   1.322612   2.386691   2.652935   2.362229
     8  H    0.967352   1.856176   2.188434   3.515819   4.334924
     9  H    4.339493   3.214172   2.066911   1.093644   2.070377
                    6          7          8          9
     6  C    0.000000
     7  N    1.389975   0.000000
     8  H    4.189975   3.056911   0.000000
     9  H    3.330911   3.746564   4.202516   0.000000
 Stoichiometry    C3H2N3O(1-)
 Framework group  C1[X(C3H2N3O)]
 Deg. of freedom    21
 Full point group                 C1      NOp   1
 RotChk:  IX=2 Diff= 2.40D-02
 Largest Abelian subgroup         C1      NOp   1
 Largest concise Abelian subgroup C1      NOp   1
                         Standard orientation:                         
 ---------------------------------------------------------------------
 Center     Atomic      Atomic             Coordinates (Angstroms)
 Number     Number       Type             X           Y           Z
 ---------------------------------------------------------------------
      1          8           0       -2.180481   -0.060306    0.000004
      2          6           0       -0.817848   -0.062396   -0.000001
      3          7           0       -0.247039    1.148538   -0.000003
      4          6           0        1.091782    1.072783   -0.000000
      5          7           0        1.819821   -0.032328    0.000004
      6          6           0        1.177930   -1.272344    0.000000
      7          7           0       -0.211618   -1.237890   -0.000004
      8          1           0       -2.418596    0.877282    0.000002
      9          1           0        1.623113    2.028683   -0.000001
 ---------------------------------------------------------------------
 Rotational constants (GHZ):           6.4701716           2.9478075           2.0251500
 Leave Link  202 at Tue Oct 25 01:31:24 2022, MaxMem=  8053063680 cpu:               0.1 elap:               0.0
 (Enter /public3/home/scg5914/software-scg5914/g16/l301.exe)
 Standard basis: 6-311+G(d,p) (5D, 7F)
 Ernie: Thresh=  0.10000D-02 Tol=  0.10000D-05 Strict=F.
 There are   173 symmetry adapted cartesian basis functions of A   symmetry.
 There are   166 symmetry adapted basis functions of A   symmetry.
   166 basis functions,   268 primitive gaussians,   173 cartesian basis functions
    25 alpha electrons       25 beta electrons
       nuclear repulsion energy       269.4200635815 Hartrees.
 IExCor=  402 DFT=T Ex+Corr=B3LYP ExCW=0 ScaHFX=  0.200000
 ScaDFX=  0.800000  0.720000  1.000000  0.810000 ScalE2=  1.000000  1.000000
 IRadAn=      5 IRanWt=     -1 IRanGd=            0 ICorTp=0 IEmpDi=141
 NAtoms=    9 NActive=    9 NUniq=    9 SFac= 1.00D+00 NAtFMM=   60 NAOKFM=F Big=F
 Integral buffers will be    131072 words long.
 Raffenetti 2 integral format.
 Two-electron integral symmetry is turned on.
 R6Disp:  Grimme-D3(BJ) Dispersion energy=       -0.0144596148 Hartrees.
 Nuclear repulsion after empirical dispersion term =      269.4056039667 Hartrees.
 Leave Link  301 at Tue Oct 25 01:31:24 2022, MaxMem=  8053063680 cpu:               0.8 elap:               0.0
 (Enter /public3/home/scg5914/software-scg5914/g16/l302.exe)
 NPDir=0 NMtPBC=     1 NCelOv=     1 NCel=       1 NClECP=     1 NCelD=      1
         NCelK=      1 NCelE2=     1 NClLst=     1 CellRange=     0.0.
 One-electron integrals computed using PRISM.
 One-electron integral symmetry used in STVInt
 NBasis=   166 RedAO= T EigKep=  1.91D-04  NBF=   166
 NBsUse=   166 1.00D-06 EigRej= -1.00D+00 NBFU=   166
 Precomputing XC quadrature grid using
 IXCGrd= 4 IRadAn=           5 IRanWt=          -1 IRanGd=           0 AccXCQ= 0.00D+00.
 Generated NRdTot=       0 NPtTot=           0 NUsed=           0 NTot=          32
 NSgBfM=   173   173   173   173   173 MxSgAt=     9 MxSgA2=     9.
 Leave Link  302 at Tue Oct 25 01:31:24 2022, MaxMem=  8053063680 cpu:               2.9 elap:               0.1
 (Enter /public3/home/scg5914/software-scg5914/g16/l303.exe)
 DipDrv:  MaxL=1.
 Leave Link  303 at Tue Oct 25 01:31:24 2022, MaxMem=  8053063680 cpu:               0.3 elap:               0.0
 (Enter /public3/home/scg5914/software-scg5914/g16/l401.exe)
 Initial guess from the checkpoint file:  "dsgdb9nsd_000958-3.chk"
 B after Tr=    -0.000000   -0.000000    0.000000
         Rot=    0.999968    0.000000   -0.000000    0.007949 Ang=   0.91 deg.
 Guess basis will be translated and rotated to current coordinates.
 JPrj=2 DoOrth=T DoCkMO=T.
 Generating alternative initial guess.
 ExpMin= 4.38D-02 ExpMax= 8.59D+03 ExpMxC= 1.30D+03 IAcc=3 IRadAn=         5 AccDes= 0.00D+00
 Harris functional with IExCor=  402 and IRadAn=       5 diagonalized for initial guess.
 HarFok:  IExCor=  402 AccDes= 0.00D+00 IRadAn=         5 IDoV= 1 UseB2=F ITyADJ=14
 ICtDFT=  3500011 ScaDFX=  1.000000  1.000000  1.000000  1.000000
 FoFCou: FMM=F IPFlag=           0 FMFlag=      100000 FMFlg1=           0
         NFxFlg=           0 DoJE=T BraDBF=F KetDBF=T FulRan=T
         wScrn=  0.000000 ICntrl=       500 IOpCl=  0 I1Cent=   200000004 NGrid=           0
         NMat0=    1 NMatS0=      1 NMatT0=    0 NMatD0=    1 NMtDS0=    0 NMtDT0=    0
 Petite list used in FoFCou.
 Harris En= -355.210509754241    
 Leave Link  401 at Tue Oct 25 01:31:24 2022, MaxMem=  8053063680 cpu:               8.7 elap:               0.3
 (Enter /public3/home/scg5914/software-scg5914/g16/l502.exe)
 Keep R1 ints in memory in canonical form, NReq=128107855.
 FoFCou: FMM=F IPFlag=           0 FMFlag=           0 FMFlg1=           0
         NFxFlg=           0 DoJE=F BraDBF=F KetDBF=F FulRan=T
         wScrn=  0.000000 ICntrl=       600 IOpCl=  0 I1Cent=           0 NGrid=           0
         NMat0=    1 NMatS0=  13861 NMatT0=    0 NMatD0=    1 NMtDS0=    0 NMtDT0=    0
 Symmetry not used in FoFCou.
 Two-electron integral symmetry not used.
 Closed shell SCF:
 Using DIIS extrapolation, IDIIS=  1040.
 NGot=  8053063680 LenX=  7956925807 LenY=  7956895437
 Requested convergence on RMS density matrix=1.00D-08 within 128 cycles.
 Requested convergence on MAX density matrix=1.00D-06.
 Requested convergence on             energy=1.00D-06.
 No special actions if energy rises.

 Cycle   1  Pass 1  IDiag  1:
 E= -355.092437793401    
 DIIS: error= 1.31D-03 at cycle   1 NSaved=   1.
 NSaved= 1 IEnMin= 1 EnMin= -355.092437793401     IErMin= 1 ErrMin= 1.31D-03
 ErrMax= 1.31D-03  0.00D+00 EMaxC= 1.00D-01 BMatC= 7.04D-04 BMatP= 7.04D-04
 IDIUse=3 WtCom= 9.87D-01 WtEn= 1.31D-02
 Coeff-Com:  0.100D+01
 Coeff-En:   0.100D+01
 Coeff:      0.100D+01
 Gap=     0.380 Goal=   None    Shift=    0.000
 GapD=    0.380 DampG=1.000 DampE=1.000 DampFc=1.0000 IDamp=-1.
 RMSDP=4.39D-04 MaxDP=1.72D-02              OVMax= 1.34D-02

 Cycle   2  Pass 1  IDiag  1:
 E= -355.093227149596     Delta-E=       -0.000789356195 Rises=F Damp=F
 DIIS: error= 7.53D-04 at cycle   2 NSaved=   2.
 NSaved= 2 IEnMin= 2 EnMin= -355.093227149596     IErMin= 2 ErrMin= 7.53D-04
 ErrMax= 7.53D-04  0.00D+00 EMaxC= 1.00D-01 BMatC= 1.03D-04 BMatP= 7.04D-04
 IDIUse=3 WtCom= 9.92D-01 WtEn= 7.53D-03
 Coeff-Com:  0.165D+00 0.835D+00
 Coeff-En:   0.000D+00 0.100D+01
 Coeff:      0.164D+00 0.836D+00
 Gap=     0.123 Goal=   None    Shift=    0.000
 RMSDP=3.00D-04 MaxDP=1.79D-02 DE=-7.89D-04 OVMax= 7.63D-03

 Cycle   3  Pass 1  IDiag  1:
 E= -355.093171611552     Delta-E=        0.000055538044 Rises=F Damp=F
 DIIS: error= 1.04D-03 at cycle   3 NSaved=   3.
 NSaved= 3 IEnMin= 2 EnMin= -355.093227149596     IErMin= 2 ErrMin= 7.53D-04
 ErrMax= 1.04D-03  0.00D+00 EMaxC= 1.00D-01 BMatC= 1.52D-04 BMatP= 1.03D-04
 IDIUse=3 WtCom= 2.37D-01 WtEn= 7.63D-01
 Coeff-Com: -0.995D-02 0.553D+00 0.457D+00
 Coeff-En:   0.000D+00 0.593D+00 0.407D+00
 Coeff:     -0.236D-02 0.584D+00 0.419D+00
 Gap=     0.120 Goal=   None    Shift=    0.000
 RMSDP=1.31D-04 MaxDP=6.79D-03 DE= 5.55D-05 OVMax= 4.54D-03

 Cycle   4  Pass 1  IDiag  1:
 E= -355.093322349519     Delta-E=       -0.000150737967 Rises=F Damp=F
 DIIS: error= 1.26D-04 at cycle   4 NSaved=   4.
 NSaved= 4 IEnMin= 4 EnMin= -355.093322349519     IErMin= 4 ErrMin= 1.26D-04
 ErrMax= 1.26D-04  0.00D+00 EMaxC= 1.00D-01 BMatC= 3.42D-06 BMatP= 1.03D-04
 IDIUse=3 WtCom= 9.99D-01 WtEn= 1.26D-03
 Coeff-Com: -0.115D-01 0.250D+00 0.192D+00 0.570D+00
 Coeff-En:   0.000D+00 0.000D+00 0.000D+00 0.100D+01
 Coeff:     -0.115D-01 0.249D+00 0.191D+00 0.571D+00
 Gap=     0.120 Goal=   None    Shift=    0.000
 RMSDP=2.32D-05 MaxDP=8.95D-04 DE=-1.51D-04 OVMax= 9.56D-04

 Cycle   5  Pass 1  IDiag  1:
 E= -355.093323644197     Delta-E=       -0.000001294677 Rises=F Damp=F
 DIIS: error= 1.14D-04 at cycle   5 NSaved=   5.
 NSaved= 5 IEnMin= 5 EnMin= -355.093323644197     IErMin= 5 ErrMin= 1.14D-04
 ErrMax= 1.14D-04  0.00D+00 EMaxC= 1.00D-01 BMatC= 1.77D-06 BMatP= 3.42D-06
 IDIUse=3 WtCom= 9.99D-01 WtEn= 1.14D-03
 Coeff-Com: -0.515D-02 0.675D-01 0.496D-01 0.413D+00 0.475D+00
 Coeff-En:   0.000D+00 0.000D+00 0.000D+00 0.382D+00 0.618D+00
 Coeff:     -0.515D-02 0.674D-01 0.495D-01 0.413D+00 0.476D+00
 Gap=     0.120 Goal=   None    Shift=    0.000
 RMSDP=8.61D-06 MaxDP=2.85D-04 DE=-1.29D-06 OVMax= 5.05D-04

 Cycle   6  Pass 1  IDiag  1:
 E= -355.093325196995     Delta-E=       -0.000001552798 Rises=F Damp=F
 DIIS: error= 1.18D-05 at cycle   6 NSaved=   6.
 NSaved= 6 IEnMin= 6 EnMin= -355.093325196995     IErMin= 6 ErrMin= 1.18D-05
 ErrMax= 1.18D-05  0.00D+00 EMaxC= 1.00D-01 BMatC= 2.09D-08 BMatP= 1.77D-06
[...]
  19. CR (   1) N   7                /113. RY*(   3) C   6                    0.56   14.58    0.081
  19. CR (   1) N   7                /157. BD*(   1) C   2 - N   3            1.15   14.61    0.117
  20. LP (   1) O   1                / 43. RY*(   1) C   2                    1.29    1.70    0.042
  20. LP (   1) O   1                / 45. RY*(   3) C   2                    3.80    1.89    0.076
  20. LP (   1) O   1                /145. RY*(   1) H   8                    0.98    2.39    0.043
  20. LP (   1) O   1                /157. BD*(   1) C   2 - N   3            4.60    1.15    0.065
  21. LP (   2) O   1                / 47. RY*(   5) C   2                    1.76    1.90    0.053
  21. LP (   2) O   1                /146. RY*(   2) H   8                    1.83    1.82    0.053
  21. LP (   2) O   1                /158. BD*(   2) C   2 - N   3           31.85    0.33    0.100
  22. LP (   1) N   3                / 43. RY*(   1) C   2                    2.59    1.44    0.056
  22. LP (   1) N   3                / 44. RY*(   2) C   2                    4.08    1.26    0.065
  22. LP (   1) N   3                / 77. RY*(   1) C   4                    2.91    1.26    0.055
  22. LP (   1) N   3                / 78. RY*(   2) C   4                    1.92    1.55    0.050
  22. LP (   1) N   3                /155. BD*(   1) O   1 - C   2            4.74    0.71    0.052
  22. LP (   1) N   3                /156. BD*(   1) O   1 - H   8            1.06    0.76    0.026
  22. LP (   1) N   3                /159. BD*(   1) C   2 - N   7           11.04    0.95    0.092
  22. LP (   1) N   3                /161. BD*(   1) C   4 - N   5            9.14    0.95    0.084
  22. LP (   1) N   3                /163. BD*(   1) C   4 - H   9            2.73    0.76    0.041
  23. LP (   1) N   5                / 77. RY*(   1) C   4                    4.44    1.20    0.066
  23. LP (   1) N   5                / 78. RY*(   2) C   4                    0.85    1.49    0.032
  23. LP (   1) N   5                / 81. RY*(   5) C   4                    0.57    1.66    0.028
  23. LP (   1) N   5                /111. RY*(   1) C   6                    1.59    1.20    0.040
  23. LP (   1) N   5                /112. RY*(   2) C   6                    2.88    1.13    0.052
  23. LP (   1) N   5                /160. BD*(   1) N   3 - C   4           14.06    0.84    0.098
  23. LP (   1) N   5                /163. BD*(   1) C   4 - H   9            4.35    0.70    0.050
  23. LP (   1) N   5                /165. BD*(   1) C   6 - N   7            7.42    0.82    0.071
  24. LP (   1) C   6                / 94. RY*(   1) N   5                    2.85    0.80    0.043
  24. LP (   1) C   6                /115. RY*(   5) C   6                    0.50    1.52    0.025
  24. LP (   1) C   6                /128. RY*(   1) N   7                    1.97    1.07    0.042
  24. LP (   1) C   6                /159. BD*(   1) C   2 - N   7            8.97    0.80    0.076
  24. LP (   1) C   6                /161. BD*(   1) C   4 - N   5           10.26    0.80    0.081
  25. LP (   1) N   7                / 43. RY*(   1) C   2                    6.24    1.38    0.085
  25. LP (   1) N   7                / 45. RY*(   3) C   2                    1.15    1.57    0.039
  25. LP (   1) N   7                / 49. RY*(   7) C   2                    0.70    3.09    0.043
  25. LP (   1) N   7                / 50. RY*(   8) C   2                    0.74    1.00    0.025
  25. LP (   1) N   7                /111. RY*(   1) C   6                    2.82    1.20    0.053
  25. LP (   1) N   7                /112. RY*(   2) C   6                    1.50    1.13    0.038
  25. LP (   1) N   7                /113. RY*(   3) C   6                    0.50    0.80    0.018
  25. LP (   1) N   7                /155. BD*(   1) O   1 - C   2            6.01    0.65    0.056
  25. LP (   1) N   7                /157. BD*(   1) C   2 - N   3           14.92    0.83    0.100
  25. LP (   1) N   7                /164. BD*(   1) N   5 - C   6            7.28    0.82    0.070
 158. BD*(   2) C   2 - N   3        / 27. RY*(   2) O   1                    0.92    0.50    0.039
 158. BD*(   2) C   2 - N   3        / 46. RY*(   4) C   2                    2.18    1.45    0.103
 158. BD*(   2) C   2 - N   3        / 51. RY*(   9) C   2                    0.94    0.53    0.041
 158. BD*(   2) C   2 - N   3        / 64. RY*(   5) N   3                    1.43    0.39    0.043
 158. BD*(   2) C   2 - N   3        / 67. RY*(   8) N   3                    0.92    0.65    0.045
 158. BD*(   2) C   2 - N   3        /131. RY*(   4) N   7                    0.90    0.57    0.042
 158. BD*(   2) C   2 - N   3        /162. BD*(   2) C   4 - N   5          102.13    0.03    0.072
 158. BD*(   2) C   2 - N   3        /166. BD*(   2) C   6 - N   7           35.41    0.06    0.072
 162. BD*(   2) C   4 - N   5        / 79. RY*(   3) C   4                    0.60    1.57    0.069
 162. BD*(   2) C   4 - N   5        / 82. RY*(   6) C   4                    2.96    0.64    0.098
 162. BD*(   2) C   4 - N   5        / 96. RY*(   3) N   5                    2.03    0.54    0.074
 162. BD*(   2) C   4 - N   5        /166. BD*(   2) C   6 - N   7           49.93    0.04    0.075
 166. BD*(   2) C   6 - N   7        /117. RY*(   7) C   6                    1.89    0.79    0.108


 Natural Bond Orbitals (Summary):

                                                            Principal Delocalizations
           NBO                        Occupancy    Energy   (geminal,vicinal,remote)
 ====================================================================================
 Molecular unit  1  (C3H2N3O)
     1. BD (   1) O   1 - C   2          1.99295    -0.76327  165(v),160(v)
     2. BD (   1) O   1 - H   8          1.98611    -0.59806  159(v),45(v),43(v),157(v)
                                                    48(v)
     3. BD (   1) C   2 - N   3          1.98626    -0.68826  163(v),159(g),77(v),78(v)
                                                    160(g)
     4. BD (   2) C   2 - N   3          1.72745    -0.16430  162(v),166(v),158(g),79(v)
                                                    82(v),131(v),27(v)
     5. BD (   1) C   2 - N   7          1.98924    -0.69710  157(g),111(v),156(v),113(v)
                                                    112(v)
     6. BD (   1) N   3 - C   4          1.98404    -0.68014  155(v),43(v),45(v),161(g)
                                                    157(g),94(v)
     7. BD (   1) C   4 - N   5          1.99363    -0.68899  111(v),160(g),163(g)
     8. BD (   2) C   4 - N   5          1.79193    -0.14805  166(v),158(v),162(g),64(v)
                                                    114(v),117(v)
     9. BD (   1) C   4 - H   9          1.98052    -0.37945  164(v),157(v),60(v),95(v)
    10. BD (   1) N   5 - C   6          1.98323    -0.58174  163(v),78(v),77(v),161(g)
                                                    111(g)
    11. BD (   1) C   6 - N   7          1.97580    -0.58785  155(v),44(v),43(v),159(g)
                                                    95(v)
    12. BD (   2) C   6 - N   7          1.60298    -0.09508  158(v),162(v),47(v),131(g)
                                                    51(v),46(v)
    13. CR (   1) O   1                  1.99976   -18.79808  45(v),145(v)
    14. CR (   1) C   2                  1.99911   -10.01153  165(v),130(v),160(v),62(v)
                                                    155(g)
    15. CR (   1) N   3                  1.99935   -13.96902  43(v),77(v),44(v),159(v)
                                                    50(v),161(v)
    16. CR (   1) C   4                  1.99936    -9.95240  164(v),95(v),157(v),65(v)
    17. CR (   1) N   5                  1.99946   -13.94847  77(v),111(v),160(v)
    18. CR (   1) C   6                  1.99957    -9.90100  161(v),159(v)
    19. CR (   1) N   7                  1.99933   -13.94492  43(v),111(v),45(v),157(v)
                                                    113(v),44(v)
    20. LP (   1) O   1                  1.97998    -0.48393  157(v),45(v),43(v),145(v)
    21. LP (   2) O   1                  1.87147    -0.18702  158(v),146(v),47(v)
    22. LP (   1) N   3                  1.91480    -0.22442  159(v),161(v),155(v),44(v)
                                                    77(v),163(v),43(v),78(v)
                                                    156(r)
    23. LP (   1) N   5                  1.90918    -0.16670  160(v),165(v),77(v),163(v)
                                                    112(v),111(v),78(v),81(v)
    24. LP (   1) C   6                  1.93323    -0.07760  161(v),159(v),94(v),128(v)
                                                    115(g)
    25. LP (   1) N   7                  1.90612    -0.16615  157(v),164(v),43(v),155(v)
                                                    111(v),112(v),45(v),50(v)
                                                    49(v),113(v)
    26. RY*(   1) O   1                  0.00265     0.90819   
    27. RY*(   2) O   1                  0.00219     0.63803   
    28. RY*(   3) O   1                  0.00118     1.39131   
    29. RY*(   4) O   1                  0.00049     0.85431   
    30. RY*(   5) O   1                  0.00012     1.95690   
    31. RY*(   6) O   1                  0.00005     2.19030   
    32. RY*(   7) O   1                  0.00003     1.83905   
    33. RY*(   8) O   1                  0.00003     2.79394   
    34. RY*(   9) O   1                  0.00000     5.30785   
    35. RY*(  10) O   1                  0.00000     3.84315   
    36. RY*(  11) O   1                  0.00001     1.49130   
    37. RY*(  12) O   1                  0.00000     4.91483   
    38. RY*(  13) O   1                  0.00000    49.79081   
    39. RY*(  14) O   1                  0.00001     3.03366   
    40. RY*(  15) O   1                  0.00000     2.38240   
    41. RY*(  16) O   1                  0.00000     3.42733   
    42. RY*(  17) O   1                  0.00000     3.38101   
    43. RY*(   1) C   2                  0.01518     1.21664   
    44. RY*(   2) C   2                  0.01274     1.03277   
    45. RY*(   3) C   2                  0.00497     1.40670   
    46. RY*(   4) C   2                  0.00409     1.58708   
    47. RY*(   5) C   2                  0.00295     1.71622   
    48. RY*(   6) C   2                  0.00241     2.10759   
    49. RY*(   7) C   2                  0.00110     2.92676   
    50. RY*(   8) C   2                  0.00077     0.83316   
    51. RY*(   9) C   2                  0.00021     0.66553   
    52. RY*(  10) C   2                  0.00009     2.82392   
    53. RY*(  11) C   2                  0.00004     1.78608   
    54. RY*(  12) C   2                  0.00003     2.43888   
    55. RY*(  13) C   2                  0.00002     9.31878   
    56. RY*(  14) C   2                  0.00001     2.23797   
    57. RY*(  15) C   2                  0.00000     0.63030   
    58. RY*(  16) C   2                  0.00000     2.75481   
    59. RY*(  17) C   2                  0.00000    12.80727   
    60. RY*(   1) N   3                  0.01058     0.47720   
    61. RY*(   2) N   3                  0.00324     0.74422   
    62. RY*(   3) N   3                  0.00178     1.30442   
    63. RY*(   4) N   3                  0.00139     0.82024   
    64. RY*(   5) N   3                  0.00121     0.52583   
    65. RY*(   6) N   3                  0.00071     1.58045   
    66. RY*(   7) N   3                  0.00059     1.21460   
    67. RY*(   8) N   3                  0.00050     0.79514   
    68. RY*(   9) N   3                  0.00021     2.40525   
    69. RY*(  10) N   3                  0.00009     4.22542   
    70. RY*(  11) N   3                  0.00005     3.12003   
    71. RY*(  12) N   3                  0.00003     3.54067   
    72. RY*(  13) N   3                  0.00000     3.85588   
    73. RY*(  14) N   3                  0.00000    34.88027   
    74. RY*(  15) N   3                  0.00000     2.28959   
    75. RY*(  16) N   3                  0.00000     3.99421   
    76. RY*(  17) N   3                  0.00001     2.72201   
    77. RY*(   1) C   4                  0.01459     1.03175   
    78. RY*(   2) C   4                  0.00812     1.32671   
    79. RY*(   3) C   4                  0.00283     1.73511   
    80. RY*(   4) C   4                  0.00146     1.61625   
    81. RY*(   5) C   4                  0.00102     1.49659   
    82. RY*(   6) C   4                  0.00069     0.80988   
    83. RY*(   7) C   4                  0.00064     2.22927   
    84. RY*(   8) C   4                  0.00028     1.06451   
    85. RY*(   9) C   4                  0.00010     1.34414   
    86. RY*(  10) C   4                  0.00004     2.93132   
    87. RY*(  11) C   4                  0.00002     0.89842   
    88. RY*(  12) C   4                  0.00000     2.69442   
    89. RY*(  13) C   4                  0.00000    20.95122   
    90. RY*(  14) C   4                  0.00000     0.77091   
    91. RY*(  15) C   4                  0.00001     2.68384   
    92. RY*(  16) C   4                  0.00001     3.07111   
    93. RY*(  17) C   4                  0.00001     1.85794   
    94. RY*(   1) N   5                  0.00927     0.72576   
    95. RY*(   2) N   5                  0.00230     1.30301   
    96. RY*(   3) N   5                  0.00073     0.70146   
    97. RY*(   4) N   5                  0.00055     1.35896   
    98. RY*(   5) N   5                  0.00033     1.23438   
    99. RY*(   6) N   5                  0.00018     1.98563   
   100. RY*(   7) N   5                  0.00013     2.81528   
   101. RY*(   8) N   5                  0.00006     1.26196   
   102. RY*(   9) N   5                  0.00003     1.35463   
   103. RY*(  10) N   5                  0.00002     2.93657   
   104. RY*(  11) N   5                  0.00001     2.63916   
   105. RY*(  12) N   5                  0.00002     3.00713   
   106. RY*(  13) N   5                  0.00000    35.15496   
   107. RY*(  14) N   5                  0.00000     2.23886   
   108. RY*(  15) N   5                  0.00000     3.92272   
   109. RY*(  16) N   5                  0.00000     3.92495   
   110. RY*(  17) N   5                  0.00001     2.51090   
   111. RY*(   1) C   6                  0.01104     1.03801   
   112. RY*(   2) C   6                  0.00911     0.95983   
   113. RY*(   3) C   6                  0.00158     0.63255   
   114. RY*(   4) C   6                  0.00111     1.73283   
   115. RY*(   5) C   6                  0.00040     1.44502   
   116. RY*(   6) C   6                  0.00026     1.56318   
   117. RY*(   7) C   6                  0.00022     0.98832   
   118. RY*(   8) C   6                  0.00006     1.58424   
   119. RY*(   9) C   6                  0.00002     1.26536   
   120. RY*(  10) C   6                  0.00003     1.63229   
   121. RY*(  11) C   6                  0.00000     0.56133   
   122. RY*(  12) C   6                  0.00000     2.90523   
   123. RY*(  13) C   6                  0.00000    22.96674   
   124. RY*(  14) C   6                  0.00001     0.98906   
   125. RY*(  15) C   6                  0.00001     2.47248   
   126. RY*(  16) C   6                  0.00001     3.10935   
   127. RY*(  17) C   6                  0.00001     1.84623   
   128. RY*(   1) N   7                  0.00613     0.98808   
   129. RY*(   2) N   7                  0.00132     1.05035   
   130. RY*(   3) N   7                  0.00114     1.29634   
   131. RY*(   4) N   7                  0.00059     0.71095   
   132. RY*(   5) N   7                  0.00044     1.53539   
   133. RY*(   6) N   7                  0.00020     2.66185   
   134. RY*(   7) N   7                  0.00019     1.81986   
   135. RY*(   8) N   7                  0.00009     4.08108   
   136. RY*(   9) N   7                  0.00003     1.72337   
   137. RY*(  10) N   7                  0.00001     2.33624   
   138. RY*(  11) N   7                  0.00000     1.35155   
   139. RY*(  12) N   7                  0.00000     4.02479   
   140. RY*(  13) N   7                  0.00001     0.95962   
   141. RY*(  14) N   7                  0.00001     4.24983   
   142. RY*(  15) N   7                  0.00000    35.13402   
   143. RY*(  16) N   7                  0.00000     2.52542   
   144. RY*(  17) N   7                  0.00001     2.88862   
   145. RY*(   1) H   8                  0.00176     1.91078   
   146. RY*(   2) H   8                  0.00142     1.63643   
   147. RY*(   3) H   8                  0.00074     1.76278   
   148. RY*(   4) H   8                  0.00037     1.26440   
   149. RY*(   5) H   8                  0.00002     2.69181   
   150. RY*(   1) H   9                  0.00168     0.83050   
   151. RY*(   2) H   9                  0.00014     2.37184   
   152. RY*(   3) H   9                  0.00014     1.72008   
   153. RY*(   4) H   9                  0.00010     2.56355   
   154. RY*(   5) H   9                  0.00008     2.09483   
   155. BD*(   1) O   1 - C   2          0.06922     0.48478   
   156. BD*(   1) O   1 - H   8          0.01324     0.53284   
   157. BD*(   1) C   2 - N   3          0.04874     0.66350   
   158. BD*(   2) C   2 - N   3          0.46985     0.14052  162(v),166(v),46(g),64(g)
                                                    51(g),67(g),27(v),131(v)
   159. BD*(   1) C   2 - N   7          0.04722     0.72302   
   160. BD*(   1) N   3 - C   4          0.03972     0.66849   
   161. BD*(   1) C   4 - N   5          0.04141     0.72419   
   162. BD*(   2) C   4 - N   5          0.31510     0.16570  158(v),166(v),82(g),96(g)
                                                    79(g)
   163. BD*(   1) C   4 - H   9          0.04025     0.53699   
   164. BD*(   1) N   5 - C   6          0.02776     0.65086   
   165. BD*(   1) C   6 - N   7          0.02537     0.65594   
   166. BD*(   2) C   6 - N   7          0.20155     0.20206  162(v),158(v),117(g)
       -------------------------------
              Total Lewis   48.50485  ( 97.0097%)
        Valence non-Lewis    1.33944  (  2.6789%)
        Rydberg non-Lewis    0.15571  (  0.3114%)
       -------------------------------
            Total unit  1   50.00000  (100.0000%)
           Charge unit  1   -1.00000
 Leave Link  607 at Tue Oct 25 01:32:07 2022, MaxMem=  8053063680 cpu:              57.4 elap:               1.8
 (Enter /public3/home/scg5914/software-scg5914/g16/l9999.exe)
 Unable to Open any file for archive entry.
 1\1\GINC-G1201\SP\RB3LYP\Gen\C3H2N3O1(1-)\SCG5914\25-Oct-2022\0\\#p b3
 lyp/chkbas pop=nbo geom=allcheck guess=tcheck em=gd3bj\\dsgdb9nsd_0009
 58-3\\-1,1\O,0,0.1079197555,1.3307668224,0.1034017205\C,0,0.0695698241
 ,-0.040679213,0.067528009\N,0,0.0919870095,-0.5646208329,-1.1640757722
 \C,0,0.0523466273,-1.9072534064,-1.130232668\N,0,-0.0022784662,-2.6708
 871839,-0.0570139147\C,0,-0.0234199545,-2.0677888631,1.207431302\N,0,0
 .0163448247,-0.6744062036,1.2174852114\H,0,0.1437763853,1.5930917432,-
 0.8268332643\H,0,0.067929069,-2.3992661095,-2.1071607541\\Version=ES64
 L-G16RevC.01\State=1-A\HF=-355.0935126\RMSD=3.403e-09\Dipole=0.1109389
 ,1.5388854,-2.1909295\Quadrupole=7.5082504,-4.3781731,-3.1300773,-0.42
 66555,0.4040191,2.7638061\PG=C01 [X(C3H2N3O1)]\\@
 The archive entry for this job was punched.


 ... IT IS NO ONE DREAME THAT
     CAN PLEASE THESE ALL ...

                -- BEN JONSON
 Job cpu time:       0 days  0 hours  1 minutes 31.9 seconds.
 Elapsed time:       0 days  0 hours  0 minutes  3.0 seconds.
 File lengths (MBytes):  RWF=     14 Int=      0 D2E=      0 Chk=      3 Scr=      1
 Normal termination of Gaussian 16 at Tue Oct 25 01:32:08 2022.
