 Entering Gaussian System, Link 0=/public3/home/scg5914/software-scg5914/g16/g16
 Input=dsgdb9nsd_001232-4-.gjf
 Output=dsgdb9nsd_001232-4-.log
 Initial command:
 /public3/home/scg5914/software-scg5914/g16/l1.exe "/public3/home/scg5914/software-scg5914/test/tmp/dsgdb9nsd_001232-4-/Gau-109891.inp" -scrdir="/public3/home/scg5914/software-scg5914/test/tmp/dsgdb9nsd_001232-4-/"
 Entering Link 1 = /public3/home/scg5914/software-scg5914/g16/l1.exe PID=    109892.
  
 Copyright (c) 1988-2019, Gaussian, Inc.  All Rights Reserved.
  
 This is part of the Gaussian(R) 16 program.  It is based on
 the Gaussian(R) 09 system (copyright 2009, Gaussian, Inc.),
 the Gaussian(R) 03 system (copyright 2003, Gaussian, Inc.),
 the Gaussian(R) 98 system (copyright 1998, Gaussian, Inc.),
 the Gaussian(R) 94 system (copyright 1995, Gaussian, Inc.),
 the Gaussian 92(TM) system (copyright 1992, Gaussian, Inc.),
 the Gaussian 90(TM) system (copyright 1990, Gaussian, Inc.),
 the Gaussian 88(TM) system (copyright 1988, Gaussian, Inc.),
 the Gaussian 86(TM) system (copyright 1986, Carnegie Mellon
 University), and the Gaussian 82(TM) system (copyright 1983,
 Carnegie Mellon University). Gaussian is a federally registered
 trademark of Gaussian, Inc.
  
 This software contains proprietary and confidential information,
 including trade secrets, belonging to Gaussian, Inc.
  
 This software is provided under written license and may be
 used, copied, transmitted, or stored only in accord with that
 written license.
  
 The following legend is applicable only to US Government
 contracts under FAR:
  
                    RESTRICTED RIGHTS LEGEND
  
 Use, reproduction and disclosure by the US Government is
 subject to restrictions as set forth in subparagraphs (a)
 and (c) of the Commercial Computer Software - Restricted
 Rights clause in FAR 52.227-19.
  
 Gaussian, Inc.
 340 Quinnipiac St., Bldg. 40, Wallingford CT 06492
  
  
 ---------------------------------------------------------------
 Warning -- This program may not be used in any manner that
 competes with the business of Gaussian, Inc. or will provide
 assistance to any competitor of Gaussian, Inc.  The licensee
 of this program is prohibited from giving any competitor of
 Gaussian, Inc. access to this program.  By using this program,
 the user acknowledges that Gaussian, Inc. is engaged in the
 business of creating and licensing software in the field of
 computational chemistry and represents and warrants to the
 licensee that it is not a competitor of Gaussian, Inc. and that
 it will not use this program in any manner prohibited above.
 ---------------------------------------------------------------
  

 Cite this work as:
 Gaussian 16, Revision C.01,
 M. J. Frisch, G. W. Trucks, H. B. Schlegel, G. E. Scuseria, 
 M. A. Robb, J. R. Cheeseman, G. Scalmani, V. Barone, 
 G. A. Petersson, H. Nakatsuji, X. Li, M. Caricato, A. V. Marenich, 
 J. Bloino, B. G. Janesko, R. Gomperts, B. Mennucci, H. P. Hratchian, 
 J. V. Ortiz, A. F. Izmaylov, J. L. Sonnenberg, D. Williams-Young, 
 F. Ding, F. Lipparini, F. Egidi, J. Goings, B. Peng, A. Petrone, 
 T. Henderson, D. Ranasinghe, V. G. Zakrzewski, J. Gao, N. Rega, 
 G. Zheng, W. Liang, M. Hada, M. Ehara, K. Toyota, R. Fukuda, 
 J. Hasegawa, M. Ishida, T. Nakajima, Y. Honda, O. Kitao, H. Nakai, 
 T. Vreven, K. Throssell, J. A. Montgomery, Jr., J. E. Peralta, 
 F. Ogliaro, M. J. Bearpark, J. J. Heyd, E. N. Brothers, K. N. Kudin, 
 V. N. Staroverov, T. A. Keith, R. Kobayashi, J. Normand, 
 K. Raghavachari, A. P. Rendell, J. C. Burant, S. S. Iyengar, 
 J. Tomasi, M. Cossi, J. M. Millam, M. Klene, C. Adamo, R. Cammi, 
 J. W. Ochterski, R. L. Martin, K. Morokuma, O. Farkas, 
 J. B. Foresman, and D. J. Fox, Gaussian, Inc., Wallingford CT, 2019.
 
 ******************************************
 Gaussian 16:  ES64L-G16RevC.01  3-Jul-2019
                25-Oct-2022 
 ******************************************
 %chk=dsgdb9nsd_001232-4.chk
 %mem=60GB
 %nprocshared=32
 Will use up to   32 processors via shared memory.
 ------------------------------------
 #p opt freq b3lyp/6-311+g** em=gd3bj
 ------------------------------------
 1/18=20,19=15,26=3,38=1/1,3;
 2/9=110,12=2,17=6,18=5,40=1/2;
 3/5=4,6=6,7=111,11=2,25=1,30=1,71=1,74=-5,124=41/1,2,3;
 4//1;
 5/5=2,38=5/2;
 6/7=2,8=2,9=2,10=2,28=1/1;
 7//1,2,3,16;
 1/18=20,19=15,26=3/3(2);
 2/9=110/2;
 99//99;
 2/9=110/2;
 3/5=4,6=6,7=111,11=2,25=1,30=1,71=1,74=-5,124=41/1,2,3;
 4/5=5,16=3,69=1/1;
 5/5=2,38=5/2;
 7//1,2,3,16;
 1/18=20,19=15,26=3/3(-5);
 2/9=110/2;
 6/7=2,8=2,9=2,10=2,19=2,28=1/1;
 99/9=1/99;
 Leave Link    1 at Tue Oct 25 05:12:19 2022, MaxMem=  8053063680 cpu:               0.9 elap:               0.0
 (Enter /public3/home/scg5914/software-scg5914/g16/l101.exe)
 ------------------
 dsgdb9nsd_001232-4
 ------------------
 Symbolic Z-matrix:
 Charge = -1 Multiplicity = 1
 O                    -0.22066  -0.03892   0.13447 
 C                    -0.13565   1.29835   0.19535 
 O                     0.86217   1.87936   0.52403 
 C                    -1.42712   2.01613  -0.22498 
 N                    -2.52013   1.0726   -0.34457 
 C                    -3.67106   1.4103    0.08285 
 N                    -4.77242   0.61755  -0.03821 
 H                    -5.56216   0.79118   0.55952 
 H                    -4.62509  -0.33831  -0.32425 
 H                    -1.60915   2.83436   0.4856 
 H                    -1.14121  -0.22839  -0.14261 
 H                    -3.87842   2.38517   0.54243 
 
 ITRead=  0  0  0  0  0  0  0  0  0  0  0  0
 MicOpt= -1 -1 -1 -1 -1 -1 -1 -1 -1 -1 -1 -1
 NAtoms=     12 NQM=       12 NQMF=       0 NMMI=      0 NMMIF=      0
                NMic=       0 NMicF=      0.
                    Isotopes and Nuclear Properties:
 (Nuclear quadrupole moments (NQMom) in fm**2, nuclear magnetic moments (NMagM)
  in nuclear magnetons)

  Atom         1           2           3           4           5           6           7           8           9          10
 IAtWgt=          16          12          16          12          14          12          14           1           1           1
 AtmWgt=  15.9949146  12.0000000  15.9949146  12.0000000  14.0030740  12.0000000  14.0030740   1.0078250   1.0078250   1.0078250
 NucSpn=           0           0           0           0           2           0           2           1           1           1
 AtZEff=  -0.0000000  -0.0000000  -0.0000000  -0.0000000  -0.0000000  -0.0000000  -0.0000000  -0.0000000  -0.0000000  -0.0000000
 NQMom=    0.0000000   0.0000000   0.0000000   0.0000000   2.0440000   0.0000000   2.0440000   0.0000000   0.0000000   0.0000000
 NMagM=    0.0000000   0.0000000   0.0000000   0.0000000   0.4037610   0.0000000   0.4037610   2.7928460   2.7928460   2.7928460
 AtZNuc=   8.0000000   6.0000000   8.0000000   6.0000000   7.0000000   6.0000000   7.0000000   1.0000000   1.0000000   1.0000000

  Atom        11          12
 IAtWgt=           1           1
 AtmWgt=   1.0078250   1.0078250
 NucSpn=           1           1
 AtZEff=  -0.0000000  -0.0000000
 NQMom=    0.0000000   0.0000000
 NMagM=    2.7928460   2.7928460
 AtZNuc=   1.0000000   1.0000000
 Leave Link  101 at Tue Oct 25 05:12:19 2022, MaxMem=  8053063680 cpu:               4.4 elap:               0.2
 (Enter /public3/home/scg5914/software-scg5914/g16/l103.exe)

 GradGradGradGradGradGradGradGradGradGradGradGradGradGradGradGradGradGrad
 Berny optimization.
 Initialization pass.
                           ----------------------------
                           !    Initial Parameters    !
                           ! (Angstroms and Degrees)  !
 --------------------------                            --------------------------
 ! Name  Definition              Value          Derivative Info.                !
 --------------------------------------------------------------------------------
 ! R1    R(1,2)                  1.3414         estimate D2E/DX2                !
 ! R2    R(1,11)                 0.9798         estimate D2E/DX2                !
 ! R3    R(2,3)                  1.2005         estimate D2E/DX2                !
 ! R4    R(2,4)                  1.5362         estimate D2E/DX2                !
 ! R5    R(4,5)                  1.4489         estimate D2E/DX2                !
 ! R6    R(4,10)                 1.0989         estimate D2E/DX2                !
 ! R7    R(5,6)                  1.2733         estimate D2E/DX2                !
 ! R8    R(6,7)                  1.3624         estimate D2E/DX2                !
 ! R9    R(6,12)                 1.0975         estimate D2E/DX2                !
 ! R10   R(7,8)                  1.0055         estimate D2E/DX2                !
 ! R11   R(7,9)                  1.0086         estimate D2E/DX2                !
 ! A1    A(2,1,11)             105.3762         estimate D2E/DX2                !
 ! A2    A(1,2,3)              123.2023         estimate D2E/DX2                !
 ! A3    A(1,2,4)              113.5864         estimate D2E/DX2                !
 ! A4    A(3,2,4)              123.1986         estimate D2E/DX2                !
 ! A5    A(2,4,5)              110.6421         estimate D2E/DX2                !
 ! A6    A(2,4,10)             108.0743         estimate D2E/DX2                !
 ! A7    A(5,4,10)             114.4128         estimate D2E/DX2                !
 ! A8    A(4,5,6)              118.7806         estimate D2E/DX2                !
 ! A9    A(5,6,7)              123.1305         estimate D2E/DX2                !
 ! A10   A(5,6,12)             123.1541         estimate D2E/DX2                !
 ! A11   A(7,6,12)             113.6614         estimate D2E/DX2                !
 ! A12   A(6,7,8)              118.7914         estimate D2E/DX2                !
 ! A13   A(6,7,9)              117.2961         estimate D2E/DX2                !
 ! A14   A(8,7,9)              116.5487         estimate D2E/DX2                !
 ! D1    D(11,1,2,3)           178.9994         estimate D2E/DX2                !
 ! D2    D(11,1,2,4)            -2.2598         estimate D2E/DX2                !
 ! D3    D(1,2,4,5)             11.005          estimate D2E/DX2                !
 ! D4    D(1,2,4,10)           136.9869         estimate D2E/DX2                !
 ! D5    D(3,2,4,5)           -170.2541         estimate D2E/DX2                !
 ! D6    D(3,2,4,10)           -44.2723         estimate D2E/DX2                !
 ! D7    D(2,4,5,6)            139.3453         estimate D2E/DX2                !
 ! D8    D(10,4,5,6)            16.9964         estimate D2E/DX2                !
 ! D9    D(4,5,6,7)            177.0061         estimate D2E/DX2                !
 ! D10   D(4,5,6,12)            -0.1481         estimate D2E/DX2                !
 ! D11   D(5,6,7,8)            160.5429         estimate D2E/DX2                !
 ! D12   D(5,6,7,9)             11.5045         estimate D2E/DX2                !
 ! D13   D(12,6,7,8)           -22.0581         estimate D2E/DX2                !
 ! D14   D(12,6,7,9)          -171.0965         estimate D2E/DX2                !
 --------------------------------------------------------------------------------
 Trust Radius=3.00D-01 FncErr=1.00D-07 GrdErr=1.00D-06 EigMax=2.50D+02 EigMin=1.00D-04
 Number of steps in this run=     49 maximum allowed number of steps=    100.
 GradGradGradGradGradGradGradGradGradGradGradGradGradGradGradGradGradGrad

 Leave Link  103 at Tue Oct 25 05:12:19 2022, MaxMem=  8053063680 cpu:               0.2 elap:               0.0
 (Enter /public3/home/scg5914/software-scg5914/g16/l202.exe)
                          Input orientation:                          
 ---------------------------------------------------------------------
 Center     Atomic      Atomic             Coordinates (Angstroms)
 Number     Number       Type             X           Y           Z
 ---------------------------------------------------------------------
      1          8           0       -0.220659   -0.038925    0.134470
      2          6           0       -0.135648    1.298349    0.195349
      3          8           0        0.862170    1.879361    0.524030
      4          6           0       -1.427123    2.016127   -0.224980
      5          7           0       -2.520132    1.072600   -0.344575
      6          6           0       -3.671064    1.410299    0.082850
      7          7           0       -4.772416    0.617554   -0.038208
      8          1           0       -5.562161    0.791177    0.559519
      9          1           0       -4.625086   -0.338312   -0.324245
     10          1           0       -1.609154    2.834364    0.485596
     11          1           0       -1.141209   -0.228394   -0.142611
     12          1           0       -3.878415    2.385172    0.542435
 ---------------------------------------------------------------------
                    Distance matrix (angstroms):
                    1          2          3          4          5
     1  O    0.000000
     2  C    1.341356   0.000000
     3  O    2.236984   1.200519   0.000000
     4  C    2.409978   1.536161   2.412589   0.000000
     5  N    2.598566   2.455249   3.584035   1.448866   0.000000
     6  C    3.742753   3.538976   4.578741   2.344580   1.273332
     7  N    4.602094   4.692297   5.801451   3.630685   2.318126
     8  H    5.422303   5.462315   6.515937   4.383432   3.185988
     9  H    4.438359   4.806631   5.978932   3.972430   2.534150
    10  H    3.210451   2.148210   2.649708   1.098893   2.150088
    11  H    0.979839   1.859117   2.983382   2.264156   1.906516
    12  H    4.407024   3.912795   4.767529   2.594986   2.086759
                    6          7          8          9         10
     6  C    0.000000
     7  N    1.362379   0.000000
     8  H    2.046161   1.005544   0.000000
     9  H    2.033107   1.008565   1.713153   0.000000
    10  H    2.538038   3.898056   4.450431   4.451692   0.000000
    11  H    3.022633   3.729905   4.591005   3.490340   3.161345
    12  H    1.097538   2.064184   2.318644   2.953983   2.313990
                   11         12
    11  H    0.000000
    12  H    3.846077   0.000000
 Stoichiometry    C3H5N2O2(1-)
 Framework group  C1[X(C3H5N2O2)]
 Deg. of freedom    30
 Full point group                 C1      NOp   1
 Largest Abelian subgroup         C1      NOp   1
 Largest concise Abelian subgroup C1      NOp   1
                         Standard orientation:                         
 ---------------------------------------------------------------------
 Center     Atomic      Atomic             Coordinates (Angstroms)
 Number     Number       Type             X           Y           Z
 ---------------------------------------------------------------------
      1          8           0        1.451214    1.303585   -0.064586
      2          6           0        1.652397   -0.021367   -0.007467
      3          8           0        2.715290   -0.534936   -0.225992
      4          6           0        0.400794   -0.816378    0.394078
      5          7           0       -0.773315    0.032165    0.368432
      6          6           0       -1.860638   -0.439628   -0.096880
      7          7           0       -3.030444    0.258575   -0.108871
      8          1           0       -3.761125   -0.031434   -0.735864
      9          1           0       -2.983535    1.243317    0.103932
     10          1           0        0.336116   -1.700982   -0.254657
     11          1           0        0.501554    1.431241    0.140190
     12          1           0       -1.954045   -1.462265   -0.484282
 ---------------------------------------------------------------------
 Rotational constants (GHZ):           8.7920339           1.2716757           1.1396023
 Leave Link  202 at Tue Oct 25 05:12:19 2022, MaxMem=  8053063680 cpu:               0.2 elap:               0.0
 (Enter /public3/home/scg5914/software-scg5914/g16/l301.exe)
 Standard basis: 6-311+G(d,p) (5D, 7F)
 Ernie: Thresh=  0.10000D-02 Tol=  0.10000D-05 Strict=F.
 There are   191 symmetry adapted cartesian basis functions of A   symmetry.
 There are   184 symmetry adapted basis functions of A   symmetry.
   184 basis functions,   292 primitive gaussians,   191 cartesian basis functions
    27 alpha electrons       27 beta electrons
       nuclear repulsion energy       281.0662032137 Hartrees.
 IExCor=  402 DFT=T Ex+Corr=B3LYP ExCW=0 ScaHFX=  0.200000
 ScaDFX=  0.800000  0.720000  1.000000  0.810000 ScalE2=  1.000000  1.000000
 IRadAn=      5 IRanWt=     -1 IRanGd=            0 ICorTp=0 IEmpDi=141
 NAtoms=   12 NActive=   12 NUniq=   12 SFac= 1.00D+00 NAtFMM=   60 NAOKFM=F Big=F
 Integral buffers will be    131072 words long.
 Raffenetti 2 integral format.
 Two-electron integral symmetry is turned on.
 R6Disp:  Grimme-D3(BJ) Dispersion energy=       -0.0153318182 Hartrees.
 Nuclear repulsion after empirical dispersion term =      281.0508713955 Hartrees.
 Leave Link  301 at Tue Oct 25 05:12:19 2022, MaxMem=  8053063680 cpu:               1.0 elap:               0.0
 (Enter /public3/home/scg5914/software-scg5914/g16/l302.exe)
 NPDir=0 NMtPBC=     1 NCelOv=     1 NCel=       1 NClECP=     1 NCelD=      1
         NCelK=      1 NCelE2=     1 NClLst=     1 CellRange=     0.0.
 One-electron integrals computed using PRISM.
 One-electron integral symmetry used in STVInt
 NBasis=   184 RedAO= T EigKep=  7.69D-05  NBF=   184
 NBsUse=   184 1.00D-06 EigRej= -1.00D+00 NBFU=   184
 Precomputing XC quadrature grid using
 IXCGrd= 4 IRadAn=           5 IRanWt=          -1 IRanGd=           0 AccXCQ= 0.00D+00.
 Generated NRdTot=       0 NPtTot=           0 NUsed=           0 NTot=          32
 NSgBfM=   191   191   191   191   191 MxSgAt=    12 MxSgA2=    12.
 Leave Link  302 at Tue Oct 25 05:12:19 2022, MaxMem=  8053063680 cpu:               3.7 elap:               0.1
 (Enter /public3/home/scg5914/software-scg5914/g16/l303.exe)
 DipDrv:  MaxL=1.
 Leave Link  303 at Tue Oct 25 05:12:19 2022, MaxMem=  8053063680 cpu:               0.5 elap:               0.0
 (Enter /public3/home/scg5914/software-scg5914/g16/l401.exe)
 ExpMin= 4.38D-02 ExpMax= 8.59D+03 ExpMxC= 1.30D+03 IAcc=3 IRadAn=         5 AccDes= 0.00D+00
 Harris functional with IExCor=  402 and IRadAn=       5 diagonalized for initial guess.
 HarFok:  IExCor=  402 AccDes= 0.00D+00 IRadAn=         5 IDoV= 1 UseB2=F ITyADJ=14
 ICtDFT=  3500011 ScaDFX=  1.000000  1.000000  1.000000  1.000000
 FoFCou: FMM=F IPFlag=           0 FMFlag=      100000 FMFlg1=           0
         NFxFlg=           0 DoJE=T BraDBF=F KetDBF=T FulRan=T
         wScrn=  0.000000 ICntrl=       500 IOpCl=  0 I1Cent=   200000004 NGrid=           0
         NMat0=    1 NMatS0=      1 NMatT0=    0 NMatD0=    1 NMtDS0=    0 NMtDT0=    0
 Petite list used in FoFCou.
 Harris En= -377.596671169964    
 JPrj=0 DoOrth=F DoCkMO=F.
 Leave Link  401 at Tue Oct 25 05:12:20 2022, MaxMem=  8053063680 cpu:               9.2 elap:               0.3
 (Enter /public3/home/scg5914/software-scg5914/g16/l502.exe)
 Keep R1 ints in memory in canonical form, NReq=177424138.
 FoFCou: FMM=F IPFlag=           0 FMFlag=           0 FMFlg1=           0
         NFxFlg=           0 DoJE=F BraDBF=F KetDBF=F FulRan=T
         wScrn=  0.000000 ICntrl=       600 IOpCl=  0 I1Cent=           0 NGrid=           0
         NMat0=    1 NMatS0=  17020 NMatT0=    0 NMatD0=    1 NMtDS0=    0 NMtDT0=    0
 Symmetry not used in FoFCou.
 Two-electron integral symmetry not used.
 Closed shell SCF:
 Using DIIS extrapolation, IDIIS=  1040.
 NGot=  8053063680 LenX=  7908133714 LenY=  7908096792
 Requested convergence on RMS density matrix=1.00D-08 within 128 cycles.
 Requested convergence on MAX density matrix=1.00D-06.
 Requested convergence on             energy=1.00D-06.
 No special actions if energy rises.

 Cycle   1  Pass 1  IDiag  1:
 E= -377.114621796794    
 DIIS: error= 3.61D-02 at cycle   1 NSaved=   1.
 NSaved= 1 IEnMin= 1 EnMin= -377.114621796794     IErMin= 1 ErrMin= 3.61D-02
 ErrMax= 3.61D-02  0.00D+00 EMaxC= 1.00D-01 BMatC= 3.67D-01 BMatP= 3.67D-01
 IDIUse=3 WtCom= 6.39D-01 WtEn= 3.61D-01
 Coeff-Com:  0.100D+01
 Coeff-En:   0.100D+01
 Coeff:      0.100D+01
 Gap=     0.095 Goal=   None    Shift=    0.000
 GapD=    0.095 DampG=0.500 DampE=0.500 DampFc=0.2500 IDamp=-1.
 Damping current iteration by 2.50D-01
 RMSDP=2.92D-01 MaxDP=1.56D+01              OVMax= 9.60D-01

 Cycle   2  Pass 1  IDiag  1:
 E= -377.161962135549     Delta-E=       -0.047340338755 Rises=F Damp=T
 DIIS: error= 1.16D-02 at cycle   2 NSaved=   2.
 NSaved= 2 IEnMin= 2 EnMin= -377.161962135549     IErMin= 2 ErrMin= 1.16D-02
 ErrMax= 1.16D-02  0.00D+00 EMaxC= 1.00D-01 BMatC= 5.14D-02 BMatP= 3.67D-01
 IDIUse=3 WtCom= 8.84D-01 WtEn= 1.16D-01
 Coeff-Com: -0.296D+00 0.130D+01
 Coeff-En:   0.362D+00 0.638D+00
 Coeff:     -0.220D+00 0.122D+01
 Gap=     0.157 Goal=   None    Shift=    0.000
 RMSDP=7.28D-02 MaxDP=3.89D+00 DE=-4.73D-02 OVMax= 8.13D-01

 Cycle   3  Pass 1  IDiag  1:
 E= -377.263401871315     Delta-E=       -0.101439735766 Rises=F Damp=F
 DIIS: error= 2.72D-02 at cycle   3 NSaved=   3.
 NSaved= 3 IEnMin= 3 EnMin= -377.263401871315     IErMin= 2 ErrMin= 1.16D-02
 ErrMax= 2.72D-02  0.00D+00 EMaxC= 1.00D-01 BMatC= 1.35D-01 BMatP= 5.14D-02
 IDIUse=2 WtCom= 0.00D+00 WtEn= 1.00D+00
 Coeff-En:   0.000D+00 0.236D+00 0.764D+00
 Coeff:      0.000D+00 0.236D+00 0.764D+00
 Gap=     0.076 Goal=   None    Shift=    0.000
 RMSDP=1.87D-01 MaxDP=1.09D+01 DE=-1.01D-01 OVMax= 9.92D-01

 Cycle   4  Pass 1  IDiag  1:
 E= -376.248388447561     Delta-E=        1.015013423754 Rises=F Damp=F
 DIIS: error= 4.68D-02 at cycle   4 NSaved=   4.
 NSaved= 4 IEnMin= 3 EnMin= -377.263401871315     IErMin= 2 ErrMin= 1.16D-02
 ErrMax= 4.68D-02  0.00D+00 EMaxC= 1.00D-01 BMatC= 6.66D-01 BMatP= 5.14D-02
 IDIUse=2 WtCom= 0.00D+00 WtEn= 1.00D+00
 Coeff-En:   0.000D+00 0.000D+00 0.824D+00 0.176D+00
 Coeff:      0.000D+00 0.000D+00 0.824D+00 0.176D+00
 Gap=    -0.057 Goal=   None    Shift=    0.000
 RMSDP=1.86D-01 MaxDP=1.09D+01 DE= 1.02D+00 OVMax= 9.88D-01

 Cycle   5  Pass 1  IDiag  1:
 E= -377.316254401821     Delta-E=       -1.067865954260 Rises=F Damp=F
 DIIS: error= 2.23D-02 at cycle   5 NSaved=   5.
 NSaved= 5 IEnMin= 5 EnMin= -377.316254401821     IErMin= 2 ErrMin= 1.16D-02
 ErrMax= 2.23D-02  0.00D+00 EMaxC= 1.00D-01 BMatC= 1.17D-01 BMatP= 5.14D-02
 IDIUse=2 WtCom= 0.00D+00 WtEn= 1.00D+00
 Coeff-En:   0.000D+00 0.000D+00 0.412D+00 0.000D+00 0.588D+00
 Coeff:      0.000D+00 0.000D+00 0.412D+00 0.000D+00 0.588D+00
 Gap=     0.047 Goal=   None    Shift=    0.000
 RMSDP=4.81D-03 MaxDP=2.59D-01 DE=-1.07D+00 OVMax= 1.55D-01

 Cycle   6  Pass 1  IDiag  1:
 E= -377.395384762602     Delta-E=       -0.079130360782 Rises=F Damp=F
 DIIS: error= 8.25D-03 at cycle   6 NSaved=   6.
 NSaved= 6 IEnMin= 6 EnMin= -377.395384762602     IErMin= 6 ErrMin= 8.25D-03
 ErrMax= 8.25D-03  0.00D+00 EMaxC= 1.00D-01 BMatC= 2.10D-02 BMatP= 5.14D-02
 IDIUse=3 WtCom= 9.17D-01 WtEn= 8.25D-02
 Coeff-Com: -0.499D-01 0.132D+00 0.224D+00-0.847D-02 0.315D+00 0.386D+00
 Coeff-En:   0.000D+00 0.000D+00 0.000D+00 0.000D+00 0.160D+00 0.840D+00
 Coeff:     -0.458D-01 0.121D+00 0.206D+00-0.777D-02 0.303D+00 0.424D+00
 Gap=     0.082 Goal=   None    Shift=    0.000
 RMSDP=4.37D-03 MaxDP=3.51D-01 DE=-7.91D-02 OVMax= 6.38D-02

 Cycle   7  Pass 1  IDiag  1:
 E= -377.412937049048     Delta-E=       -0.017552286446 Rises=F Damp=F
 DIIS: error= 2.24D-03 at cycle   7 NSaved=   7.
 NSaved= 7 IEnMin= 7 EnMin= -377.412937049048     IErMin= 7 ErrMin= 2.24D-03
 ErrMax= 2.24D-03  0.00D+00 EMaxC= 1.00D-01 BMatC= 1.21D-03 BMatP= 2.10D-02
 IDIUse=3 WtCom= 9.78D-01 WtEn= 2.24D-02
 Coeff-Com: -0.969D-02 0.174D-01 0.407D-01-0.942D-03 0.106D+00 0.248D+00
 Coeff-Com:  0.598D+00
 Coeff-En:   0.000D+00 0.000D+00 0.000D+00 0.000D+00 0.000D+00 0.000D+00
 Coeff-En:   0.100D+01
 Coeff:     -0.948D-02 0.170D-01 0.398D-01-0.921D-03 0.104D+00 0.243D+00
 Coeff:      0.607D+00
 Gap=     0.077 Goal=   None    Shift=    0.000
 RMSDP=7.42D-04 MaxDP=4.66D-02 DE=-1.76D-02 OVMax= 2.36D-02

 Cycle   8  Pass 1  IDiag  1:
 E= -377.414024436016     Delta-E=       -0.001087386968 Rises=F Damp=F
 DIIS: error= 1.06D-03 at cycle   8 NSaved=   8.
 NSaved= 8 IEnMin= 8 EnMin= -377.414024436016     IErMin= 8 ErrMin= 1.06D-03
 ErrMax= 1.06D-03  0.00D+00 EMaxC= 1.00D-01 BMatC= 2.18D-04 BMatP= 1.21D-03
 IDIUse=3 WtCom= 9.89D-01 WtEn= 1.06D-02
 Coeff-Com: -0.175D-02 0.209D-03-0.879D-02-0.516D-03 0.170D-01 0.104D+00
 Coeff-Com:  0.415D+00 0.475D+00
 Coeff-En:   0.000D+00 0.000D+00 0.000D+00 0.000D+00 0.000D+00 0.000D+00
 Coeff-En:   0.915D-01 0.909D+00
 Coeff:     -0.174D-02 0.207D-03-0.870D-02-0.510D-03 0.169D-01 0.103D+00
 Coeff:      0.412D+00 0.479D+00
 Gap=     0.078 Goal=   None    Shift=    0.000
 RMSDP=1.05D-04 MaxDP=2.28D-03 DE=-1.09D-03 OVMax= 6.39D-03

 Cycle   9  Pass 1  IDiag  1:
 E= -377.414211538114     Delta-E=       -0.000187102097 Rises=F Damp=F
 DIIS: error= 1.75D-04 at cycle   9 NSaved=   9.
 NSaved= 9 IEnMin= 9 EnMin= -377.414211538114     IErMin= 9 ErrMin= 1.75D-04
 ErrMax= 1.75D-04  0.00D+00 EMaxC= 1.00D-01 BMatC= 8.34D-06 BMatP= 2.18D-04
 IDIUse=3 WtCom= 9.98D-01 WtEn= 1.75D-03
 Coeff-Com:  0.750D-03-0.253D-02-0.403D-02 0.224D-03 0.460D-02 0.354D-01
 Coeff-Com:  0.153D+00 0.231D+00 0.582D+00
 Coeff-En:   0.000D+00 0.000D+00 0.000D+00 0.000D+00 0.000D+00 0.000D+00
 Coeff-En:   0.000D+00 0.000D+00 0.100D+01
 Coeff:      0.749D-03-0.252D-02-0.402D-02 0.224D-03 0.459D-02 0.353D-01
 Coeff:      0.152D+00 0.231D+00 0.582D+00
 Gap=     0.078 Goal=   None    Shift=    0.000
 RMSDP=4.00D-05 MaxDP=2.98D-03 DE=-1.87D-04 OVMax= 1.45D-03

 Cycle  10  Pass 1  IDiag  1:
 E= -377.414216766115     Delta-E=       -0.000005228001 Rises=F Damp=F
 DIIS: error= 9.86D-05 at cycle  10 NSaved=  10.
 NSaved=10 IEnMin=10 EnMin= -377.414216766115     IErMin=10 ErrMin= 9.86D-05
 ErrMax= 9.86D-05  0.00D+00 EMaxC= 1.00D-01 BMatC= 2.49D-06 BMatP= 8.34D-06
 IDIUse=1 WtCom= 1.00D+00 WtEn= 0.00D+00
 Coeff-Com:  0.941D-03-0.125D-02-0.172D-02 0.405D-04-0.971D-03 0.350D-02
 Coeff-Com:  0.228D-01 0.639D-01 0.379D+00 0.533D+00
 Coeff:      0.941D-03-0.125D-02-0.172D-02 0.405D-04-0.971D-03 0.350D-02
 Coeff:      0.228D-01 0.639D-01 0.379D+00 0.533D+00
 Gap=     0.078 Goal=   None    Shift=    0.000
 RMSDP=2.00D-05 MaxDP=1.50D-03 DE=-5.23D-06 OVMax= 3.88D-04

 Cycle  11  Pass 1  IDiag  1:
 E= -377.414218902439     Delta-E=       -0.000002136324 Rises=F Damp=F
 DIIS: error= 1.83D-05 at cycle  11 NSaved=  11.
 NSaved=11 IEnMin=11 EnMin= -377.414218902439     IErMin=11 ErrMin= 1.83D-05
 ErrMax= 1.83D-05  0.00D+00 EMaxC= 1.00D-01 BMatC= 5.31D-08 BMatP= 2.49D-06
 IDIUse=1 WtCom= 1.00D+00 WtEn= 0.00D+00
 Coeff-Com:  0.339D-03-0.435D-03 0.253D-03 0.387D-04-0.465D-03-0.146D-02
 Coeff-Com: -0.421D-02-0.123D-02 0.594D-01 0.117D+00 0.831D+00
 Coeff:      0.339D-03-0.435D-03 0.253D-03 0.387D-04-0.465D-03-0.146D-02
 Coeff:     -0.421D-02-0.123D-02 0.594D-01 0.117D+00 0.831D+00
 Gap=     0.078 Goal=   None    Shift=    0.000
 RMSDP=1.40D-05 MaxDP=1.25D-03 DE=-2.14D-06 OVMax= 1.43D-04

 Cycle  12  Pass 1  IDiag  1:
 E= -377.414218960453     Delta-E=       -0.000000058014 Rises=F Damp=F
 DIIS: error= 5.98D-06 at cycle  12 NSaved=  12.
 NSaved=12 IEnMin=12 EnMin= -377.414218960453     IErMin=12 ErrMin= 5.98D-06
 ErrMax= 5.98D-06  0.00D+00 EMaxC= 1.00D-01 BMatC= 1.18D-08 BMatP= 5.31D-08
 IDIUse=1 WtCom= 1.00D+00 WtEn= 0.00D+00
 Coeff-Com:  0.147D-03-0.222D-03 0.203D-03 0.128D-04-0.206D-03-0.745D-03
 Coeff-Com: -0.227D-02-0.269D-02 0.118D-01 0.239D-01 0.442D+00 0.528D+00
 Coeff:      0.147D-03-0.222D-03 0.203D-03 0.128D-04-0.206D-03-0.745D-03
 Coeff:     -0.227D-02-0.269D-02 0.118D-01 0.239D-01 0.442D+00 0.528D+00
 Gap=     0.078 Goal=   None    Shift=    0.000
 RMSDP=2.09D-06 MaxDP=1.74D-04 DE=-5.80D-08 OVMax= 3.31D-05

 Cycle  13  Pass 1  IDiag  1:
 E= -377.414218969592     Delta-E=       -0.000000009139 Rises=F Damp=F
 DIIS: error= 2.10D-06 at cycle  13 NSaved=  13.
 NSaved=13 IEnMin=13 EnMin= -377.414218969592     IErMin=13 ErrMin= 2.10D-06
 ErrMax= 2.10D-06  0.00D+00 EMaxC= 1.00D-01 BMatC= 9.97D-10 BMatP= 1.18D-08
 IDIUse=1 WtCom= 1.00D+00 WtEn= 0.00D+00
 Coeff-Com:  0.993D-05-0.210D-04 0.605D-04 0.334D-05-0.311D-04-0.832D-04
 Coeff-Com: -0.146D-03-0.383D-03-0.344D-02-0.119D-01 0.943D-02 0.171D+00
 Coeff-Com:  0.835D+00
 Coeff:      0.993D-05-0.210D-04 0.605D-04 0.334D-05-0.311D-04-0.832D-04
 Coeff:     -0.146D-03-0.383D-03-0.344D-02-0.119D-01 0.943D-02 0.171D+00
 Coeff:      0.835D+00
 Gap=     0.078 Goal=   None    Shift=    0.000
 RMSDP=1.79D-06 MaxDP=1.50D-04 DE=-9.14D-09 OVMax= 2.65D-05

 Cycle  14  Pass 1  IDiag  1:
 E= -377.414218970846     Delta-E=       -0.000000001255 Rises=F Damp=F
 DIIS: error= 2.90D-07 at cycle  14 NSaved=  14.
 NSaved=14 IEnMin=14 EnMin= -377.414218970846     IErMin=14 ErrMin= 2.90D-07
 ErrMax= 2.90D-07  0.00D+00 EMaxC= 1.00D-01 BMatC= 2.16D-11 BMatP= 9.97D-10
 IDIUse=1 WtCom= 1.00D+00 WtEn= 0.00D+00
 Coeff-Com: -0.292D-05 0.284D-05 0.262D-05 0.100D-06-0.973D-06 0.215D-04
 Coeff-Com:  0.114D-03 0.251D-03-0.994D-03-0.367D-02-0.140D-01 0.244D-01
 Coeff-Com:  0.222D+00 0.772D+00
 Coeff:     -0.292D-05 0.284D-05 0.262D-05 0.100D-06-0.973D-06 0.215D-04
 Coeff:      0.114D-03 0.251D-03-0.994D-03-0.367D-02-0.140D-01 0.244D-01
 Coeff:      0.222D+00 0.772D+00
 Gap=     0.078 Goal=   None    Shift=    0.000
 RMSDP=3.07D-07 MaxDP=1.94D-05 DE=-1.25D-09 OVMax= 5.03D-06

 Cycle  15  Pass 1  IDiag  1:
 E= -377.414218970869     Delta-E=       -0.000000000022 Rises=F Damp=F
 DIIS: error= 1.53D-07 at cycle  15 NSaved=  15.
 NSaved=15 IEnMin=15 EnMin= -377.414218970869     IErMin=15 ErrMin= 1.53D-07
 ErrMax= 1.53D-07  0.00D+00 EMaxC= 1.00D-01 BMatC= 5.05D-12 BMatP= 2.16D-11
 IDIUse=1 WtCom= 1.00D+00 WtEn= 0.00D+00
 Coeff-Com: -0.171D-05 0.185D-05-0.208D-05 0.249D-06 0.751D-06 0.119D-04
 Coeff-Com:  0.507D-04 0.145D-03-0.271D-03-0.101D-02-0.540D-02 0.377D-02
 Coeff-Com:  0.613D-01 0.360D+00 0.582D+00
 Coeff:     -0.171D-05 0.185D-05-0.208D-05 0.249D-06 0.751D-06 0.119D-04
 Coeff:      0.507D-04 0.145D-03-0.271D-03-0.101D-02-0.540D-02 0.377D-02
 Coeff:      0.613D-01 0.360D+00 0.582D+00
 Gap=     0.078 Goal=   None    Shift=    0.000
 RMSDP=7.56D-08 MaxDP=2.91D-06 DE=-2.23D-11 OVMax= 1.58D-06

 Cycle  16  Pass 1  IDiag  1:
 E= -377.414218970873     Delta-E=       -0.000000000005 Rises=F Damp=F
 DIIS: error= 8.02D-08 at cycle  16 NSaved=  16.
 NSaved=16 IEnMin=16 EnMin= -377.414218970873     IErMin=16 ErrMin= 8.02D-08
 ErrMax= 8.02D-08  0.00D+00 EMaxC= 1.00D-01 BMatC= 1.05D-12 BMatP= 5.05D-12
 IDIUse=1 WtCom= 1.00D+00 WtEn= 0.00D+00
 Coeff-Com: -0.816D-06 0.120D-05-0.186D-05-0.695D-07 0.381D-06 0.248D-05
 Coeff-Com:  0.434D-05 0.415D-04-0.141D-04-0.385D-04-0.662D-04-0.492D-03
 Coeff-Com:  0.281D-02 0.877D-01 0.323D+00 0.587D+00
 Coeff:     -0.816D-06 0.120D-05-0.186D-05-0.695D-07 0.381D-06 0.248D-05
 Coeff:      0.434D-05 0.415D-04-0.141D-04-0.385D-04-0.662D-04-0.492D-03
 Coeff:      0.281D-02 0.877D-01 0.323D+00 0.587D+00
 Gap=     0.078 Goal=   None    Shift=    0.000
 RMSDP=5.40D-08 MaxDP=2.17D-06 DE=-4.77D-12 OVMax= 1.12D-06

 Cycle  17  Pass 1  IDiag  1:
 E= -377.414218970876     Delta-E=       -0.000000000002 Rises=F Damp=F
 DIIS: error= 1.52D-08 at cycle  17 NSaved=  17.
 NSaved=17 IEnMin=17 EnMin= -377.414218970876     IErMin=17 ErrMin= 1.52D-08
 ErrMax= 1.52D-08  0.00D+00 EMaxC= 1.00D-01 BMatC= 6.23D-14 BMatP= 1.05D-12
 IDIUse=1 WtCom= 1.00D+00 WtEn= 0.00D+00
 Coeff-Com: -0.102D-06 0.182D-06-0.751D-07-0.116D-07 0.519D-07-0.126D-05
 Coeff-Com: -0.819D-05-0.167D-04 0.211D-04 0.116D-03 0.102D-02-0.516D-03
 Coeff-Com: -0.785D-02-0.356D-01-0.218D-01 0.153D+00 0.912D+00
 Coeff:     -0.102D-06 0.182D-06-0.751D-07-0.116D-07 0.519D-07-0.126D-05
 Coeff:     -0.819D-05-0.167D-04 0.211D-04 0.116D-03 0.102D-02-0.516D-03
 Coeff:     -0.785D-02-0.356D-01-0.218D-01 0.153D+00 0.912D+00
 Gap=     0.078 Goal=   None    Shift=    0.000
 RMSDP=4.19D-08 MaxDP=1.72D-06 DE=-2.39D-12 OVMax= 8.01D-07

 Cycle  18  Pass 1  IDiag  1:
 E= -377.414218970875     Delta-E=        0.000000000001 Rises=F Damp=F
 DIIS: error= 2.34D-09 at cycle  18 NSaved=  18.
 NSaved=18 IEnMin=17 EnMin= -377.414218970876     IErMin=18 ErrMin= 2.34D-09
 ErrMax= 2.34D-09  0.00D+00 EMaxC= 1.00D-01 BMatC= 1.81D-15 BMatP= 6.23D-14
 IDIUse=1 WtCom= 1.00D+00 WtEn= 0.00D+00
 Coeff-Com: -0.122D-08 0.176D-07 0.138D-06-0.939D-08-0.289D-07-0.350D-06
 Coeff-Com: -0.182D-05-0.737D-05-0.486D-05 0.149D-05 0.125D-03-0.915D-05
 Coeff-Com: -0.114D-02-0.107D-01-0.258D-01-0.231D-01 0.121D+00 0.940D+00
 Coeff:     -0.122D-08 0.176D-07 0.138D-06-0.939D-08-0.289D-07-0.350D-06
 Coeff:     -0.182D-05-0.737D-05-0.486D-05 0.149D-05 0.125D-03-0.915D-05
 Coeff:     -0.114D-02-0.107D-01-0.258D-01-0.231D-01 0.121D+00 0.940D+00
 Gap=     0.078 Goal=   None    Shift=    0.000
 RMSDP=1.23D-08 MaxDP=5.95D-07 DE= 7.96D-13 OVMax= 2.35D-07

 Cycle  19  Pass 1  IDiag  1:
 E= -377.414218970876     Delta-E=       -0.000000000001 Rises=F Damp=F
 DIIS: error= 6.88D-10 at cycle  19 NSaved=  19.
 NSaved=19 IEnMin=19 EnMin= -377.414218970876     IErMin=19 ErrMin= 6.88D-10
 ErrMax= 6.88D-10  0.00D+00 EMaxC= 1.00D-01 BMatC= 1.68D-16 BMatP= 1.81D-15
 IDIUse=1 WtCom= 1.00D+00 WtEn= 0.00D+00
 Large coefficients: NSaved= 19 BigCof=    0.00 CofMax=   10.00 Det=-7.15D-16
 Inversion failed.  Reducing to 18 matrices.
 Large coefficients: NSaved= 18 BigCof=    0.00 CofMax=   10.00 Det=-7.27D-16
 Inversion failed.  Reducing to 17 matrices.
 Large coefficients: NSaved= 17 BigCof=    0.00 CofMax=   10.00 Det=-7.27D-16
 Inversion failed.  Reducing to 16 matrices.
 Large coefficients: NSaved= 16 BigCof=    0.00 CofMax=   10.00 Det=-7.30D-16
 Inversion failed.  Reducing to 15 matrices.
 Coeff-Com:  0.107D-07 0.102D-06 0.528D-06 0.235D-06-0.242D-05-0.461D-05
 Coeff-Com: -0.636D-04-0.546D-05 0.183D-03 0.111D-02 0.896D-04-0.611D-02
 Coeff-Com: -0.351D-01 0.116D+00 0.924D+00
 Coeff:      0.107D-07 0.102D-06 0.528D-06 0.235D-06-0.242D-05-0.461D-05
 Coeff:     -0.636D-04-0.546D-05 0.183D-03 0.111D-02 0.896D-04-0.611D-02
 Coeff:     -0.351D-01 0.116D+00 0.924D+00
 Gap=     0.078 Goal=   None    Shift=    0.000
 RMSDP=2.29D-09 MaxDP=1.47D-07 DE=-1.36D-12 OVMax= 3.96D-08

 SCF Done:  E(RB3LYP) =  -377.414218971     A.U. after   19 cycles
            NFock= 19  Conv=0.23D-08     -V/T= 2.0033
 KE= 3.761877034037D+02 PE=-1.457290757314D+03 EE= 4.226379635440D+02
 Leave Link  502 at Tue Oct 25 05:12:26 2022, MaxMem=  8053063680 cpu:             152.2 elap:               6.3
 (Enter /public3/home/scg5914/software-scg5914/g16/l601.exe)
 Copying SCF densities to generalized density rwf, IOpCl= 0 IROHF=0.

 **********************************************************************

            Population analysis using the SCF Density.

 **********************************************************************

 Orbital symmetries:
       Occupied  (A) (A) (A) (A) (A) (A) (A) (A) (A) (A) (A) (A)
                 (A) (A) (A) (A) (A) (A) (A) (A) (A) (A) (A) (A)
                 (A) (A) (A)
       Virtual   (A) (A) (A) (A) (A) (A) (A) (A) (A) (A) (A) (A)
                 (A) (A) (A) (A) (A) (A) (A) (A) (A) (A) (A) (A)
                 (A) (A) (A) (A) (A) (A) (A) (A) (A) (A) (A) (A)
                 (A) (A) (A) (A) (A) (A) (A) (A) (A) (A) (A) (A)
                 (A) (A) (A) (A) (A) (A) (A) (A) (A) (A) (A) (A)
                 (A) (A) (A) (A) (A) (A) (A) (A) (A) (A) (A) (A)
                 (A) (A) (A) (A) (A) (A) (A) (A) (A) (A) (A) (A)
                 (A) (A) (A) (A) (A) (A) (A) (A) (A) (A) (A) (A)
                 (A) (A) (A) (A) (A) (A) (A) (A) (A) (A) (A) (A)
                 (A) (A) (A) (A) (A) (A) (A) (A) (A) (A) (A) (A)
                 (A) (A) (A) (A) (A) (A) (A) (A) (A) (A) (A) (A)
                 (A) (A) (A) (A) (A) (A) (A) (A) (A) (A) (A) (A)
                 (A) (A) (A) (A) (A) (A) (A) (A) (A) (A) (A) (A)
                 (A)
 The electronic state is 1-A.
 Alpha  occ. eigenvalues --  -18.96627 -18.89561 -14.18984 -14.13763 -10.08681
 Alpha  occ. eigenvalues --  -10.06334  -9.96937  -0.90571  -0.82196  -0.80247
 Alpha  occ. eigenvalues --   -0.71395  -0.51195  -0.45012  -0.41586  -0.39470
 Alpha  occ. eigenvalues --   -0.32926  -0.29681  -0.27794  -0.25372  -0.24101
 Alpha  occ. eigenvalues --   -0.22833  -0.17781  -0.12819  -0.12507  -0.11064
 Alpha  occ. eigenvalues --   -0.07290   0.02137
 Alpha virt. eigenvalues --    0.09926   0.13464   0.15594   0.16022   0.18103
 Alpha virt. eigenvalues --    0.18498   0.18882   0.21022   0.21257   0.21959
 Alpha virt. eigenvalues --    0.22977   0.23974   0.25466   0.25783   0.26135
 Alpha virt. eigenvalues --    0.28064   0.28628   0.29570   0.30851   0.31275
 Alpha virt. eigenvalues --    0.32448   0.35283   0.36140   0.36312   0.39381
 Alpha virt. eigenvalues --    0.39690   0.40131   0.40866   0.42552   0.43121
 Alpha virt. eigenvalues --    0.43984   0.44644   0.45130   0.46783   0.47272
 Alpha virt. eigenvalues --    0.48084   0.51118   0.54281   0.57095   0.59996
 Alpha virt. eigenvalues --    0.63656   0.65034   0.66613   0.70299   0.71641
 Alpha virt. eigenvalues --    0.72522   0.74747   0.77120   0.80103   0.82416
 Alpha virt. eigenvalues --    0.83421   0.88317   0.90016   0.90754   0.91301
 Alpha virt. eigenvalues --    0.92719   0.95798   0.96766   1.00303   1.04403
 Alpha virt. eigenvalues --    1.05901   1.09957   1.10553   1.15190   1.21936
 Alpha virt. eigenvalues --    1.23666   1.26357   1.28766   1.32466   1.33464
 Alpha virt. eigenvalues --    1.35482   1.36508   1.37492   1.40304   1.45111
 Alpha virt. eigenvalues --    1.48912   1.54027   1.58664   1.61684   1.66067
 Alpha virt. eigenvalues --    1.68734   1.70644   1.74423   1.75506   1.77200
 Alpha virt. eigenvalues --    1.80080   1.84858   1.87192   1.89780   1.91849
 Alpha virt. eigenvalues --    1.95336   1.96852   1.97857   2.00670   2.08347
 Alpha virt. eigenvalues --    2.13756   2.17631   2.20081   2.23881   2.30786
 Alpha virt. eigenvalues --    2.35436   2.39990   2.43689   2.52349   2.59836
 Alpha virt. eigenvalues --    2.61245   2.66692   2.68988   2.71808   2.78302
 Alpha virt. eigenvalues --    2.81754   2.83806   2.85251   2.88290   2.90706
 Alpha virt. eigenvalues --    2.97523   3.02768   3.04421   3.07999   3.09036
 Alpha virt. eigenvalues --    3.10002   3.14517   3.24385   3.28589   3.29307
 Alpha virt. eigenvalues --    3.35567   3.39126   3.45246   3.52397   3.59136
 Alpha virt. eigenvalues --    3.68370   3.75191   3.80519   3.83379   3.93767
 Alpha virt. eigenvalues --    4.02454   4.04650   4.12855   4.21231   4.23877
 Alpha virt. eigenvalues --    4.55203   4.89781   4.98350   5.15148   5.25252
 Alpha virt. eigenvalues --    5.26890   5.34170   5.60743   5.75627   6.06735
 Alpha virt. eigenvalues --   23.98171  24.03143  24.10826  35.71729  35.83186
 Alpha virt. eigenvalues --   50.05912  50.22062
          Condensed to atoms (all electrons):
               1          2          3          4          5          6
     1  O    8.205262   0.322686  -0.136566  -0.459054   0.013226   0.072383
     2  C    0.322686   5.343428   0.513598  -0.209078  -0.122450   0.246609
     3  O   -0.136566   0.513598   8.260248  -0.212446   0.008533   0.010332
     4  C   -0.459054  -0.209078  -0.212446   7.186893   0.256458  -0.757661
     5  N    0.013226  -0.122450   0.008533   0.256458   7.013827   0.482314
     6  C    0.072383   0.246609   0.010332  -0.757661   0.482314   5.574898
     7  N   -0.001059  -0.007880   0.000003   0.023398  -0.334636   0.048926
     8  H   -0.000222  -0.003639  -0.000021   0.020555   0.023123  -0.027786
     9  H   -0.000630  -0.001021  -0.000007   0.003371   0.018019   0.000745
    10  H    0.014458  -0.036365  -0.008586   0.430635  -0.082786  -0.016563
    11  H    0.234330   0.005841   0.009109   0.024659   0.021064  -0.012191
    12  H   -0.001278  -0.001547  -0.000258   0.035069  -0.020487   0.422892
               7          8          9         10         11         12
     1  O   -0.001059  -0.000222  -0.000630   0.014458   0.234330  -0.001278
     2  C   -0.007880  -0.003639  -0.001021  -0.036365   0.005841  -0.001547
     3  O    0.000003  -0.000021  -0.000007  -0.008586   0.009109  -0.000258
     4  C    0.023398   0.020555   0.003371   0.430635   0.024659   0.035069
     5  N   -0.334636   0.023123   0.018019  -0.082786   0.021064  -0.020487
     6  C    0.048926  -0.027786   0.000745  -0.016563  -0.012191   0.422892
     7  N    7.144657   0.309877   0.333076  -0.002896   0.001516  -0.174737
     8  H    0.309877   0.509831  -0.034093   0.000232   0.000217   0.003291
     9  H    0.333076  -0.034093   0.454043   0.000057   0.000307   0.011511
    10  H   -0.002896   0.000232   0.000057   0.646813   0.003027   0.013446
    11  H    0.001516   0.000217   0.000307   0.003027   0.454062   0.001154
    12  H   -0.174737   0.003291   0.011511   0.013446   0.001154   0.657827
 Mulliken charges:
               1
     1  O   -0.263535
     2  C   -0.050183
     3  O   -0.443938
     4  C   -0.342798
     5  N   -0.276206
     6  C   -0.044899
     7  N   -0.340246
     8  H    0.198635
     9  H    0.214622
    10  H    0.038529
    11  H    0.256905
    12  H    0.053115
 Sum of Mulliken charges =  -1.00000
 Mulliken charges with hydrogens summed into heavy atoms:
               1
     1  O   -0.006630
     2  C   -0.050183
     3  O   -0.443938
     4  C   -0.304269
     5  N   -0.276206
     6  C    0.008216
     7  N    0.073011
 Electronic spatial extent (au):  <R**2>=            989.9825
 Charge=             -1.0000 electrons
 Dipole moment (field-independent basis, Debye):
    X=             -7.5793    Y=              1.8398    Z=             -2.2541  Tot=              8.1186
 Quadrupole moment (field-independent basis, Debye-Ang):
   XX=            -66.1531   YY=            -48.5892   ZZ=            -49.0032
   XY=              0.5559   XZ=              5.0570   YZ=              3.3276
 Traceless Quadrupole moment (field-independent basis, Debye-Ang):
   XX=            -11.5713   YY=              5.9926   ZZ=              5.5786
   XY=              0.5559   XZ=              5.0570   YZ=              3.3276
 Octapole moment (field-independent basis, Debye-Ang**2):
  XXX=            -63.6342  YYY=             11.9063  ZZZ=             -9.1624  XYY=            -14.7998
  XXY=             11.6254  XXZ=             -9.5700  XZZ=              0.6466  YZZ=              5.8064
  YYZ=             -4.0262  XYZ=             -0.7503
 Hexadecapole moment (field-independent basis, Debye-Ang**3):
 XXXX=          -1206.5596 YYYY=           -211.6981 ZZZZ=            -87.4074 XXXY=              9.0499
 XXXZ=             74.3021 YYYX=            -10.9423 YYYZ=             12.6951 ZZZX=             -1.5447
 ZZZY=             10.1188 XXYY=           -218.7771 XXZZ=           -195.0931 YYZZ=            -53.9731
 XXYZ=              7.1750 YYXZ=             -1.6296 ZZXY=              4.6213
 N-N= 2.810508713955D+02 E-N=-1.457290757395D+03  KE= 3.761877034037D+02
 No NMR shielding tensors so no spin-rotation constants.
 Leave Link  601 at Tue Oct 25 05:12:26 2022, MaxMem=  8053063680 cpu:               2.3 elap:               0.1
 (Enter /public3/home/scg5914/software-scg5914/g16/l701.exe)
 ... and contract with generalized density number  0.
 Compute integral first derivatives.
 R6Disp: Adding Grimme-D3(BJ) dispersion energy 1st derivatives to the gradient.
 Leave Link  701 at Tue Oct 25 05:12:27 2022, MaxMem=  8053063680 cpu:               3.0 elap:               0.1
 (Enter /public3/home/scg5914/software-scg5914/g16/l702.exe)
 L702 exits ... SP integral derivatives will be done elsewhere.
 Leave Link  702 at Tue Oct 25 05:12:27 2022, MaxMem=  8053063680 cpu:               0.6 elap:               0.0
 (Enter /public3/home/scg5914/software-scg5914/g16/l703.exe)
 Integral derivatives from FoFJK, PRISM(SPDF).
 Compute integral first derivatives, UseDBF=F ICtDFT=           0.
 Calling FoFJK, ICntrl=      2127 FMM=F ISym2X=0 I1Cent= 0 IOpClX= 0 NMat=1 NMatS=1 NMatT=0.
 FoFJK:  IHMeth= 1 ICntrl=    2127 DoSepK=F KAlg= 0 I1Cent=           0 FoldK=F
 IRaf=         0 NMat=       1 IRICut=       1 DoRegI=T DoRafI=F ISym2E= 0 IDoP0=0 IntGTp=1.
 FoFCou: FMM=F IPFlag=           0 FMFlag=      100000 FMFlg1=         800
         NFxFlg=           0 DoJE=F BraDBF=F KetDBF=F FulRan=T
         wScrn=  0.000000 ICntrl=      2127 IOpCl=  0 I1Cent=           0 NGrid=           0
         NMat0=    1 NMatS0=      1 NMatT0=    0 NMatD0=    1 NMtDS0=    0 NMtDT0=    0
 Symmetry not used in FoFCou.
 Leave Link  703 at Tue Oct 25 05:12:28 2022, MaxMem=  8053063680 cpu:              29.7 elap:               0.9
 (Enter /public3/home/scg5914/software-scg5914/g16/l716.exe)
 Dipole        =-2.98192562D+00 7.23842403D-01-8.86844775D-01
 ***** Axes restored to original set *****
 -------------------------------------------------------------------
 Center     Atomic                   Forces (Hartrees/Bohr)
 Number     Number              X              Y              Z
 -------------------------------------------------------------------
      1        8           0.009571058   -0.033358849   -0.002473021
      2        6          -0.082405292    0.044376747   -0.030420224
      3        8           0.042992467    0.007173674    0.016194313
      4        6           0.026773068   -0.041150040    0.015357134
      5        7           0.013358061    0.021445826    0.011871825
      6        6           0.022375720    0.014305695    0.002520203
      7        7          -0.035732606   -0.018385042   -0.011755346
      8        1           0.001339764   -0.002348792    0.002550935
      9        1           0.000804973   -0.000397698    0.002474380
     10        1          -0.001414003    0.003433410   -0.006452870
     11        1           0.001584165    0.004254790    0.000882879
     12        1           0.000752624    0.000650277   -0.000750206
 -------------------------------------------------------------------
 Cartesian Forces:  Max     0.082405292 RMS     0.023001812
 Leave Link  716 at Tue Oct 25 05:12:28 2022, MaxMem=  8053063680 cpu:               0.4 elap:               0.0
 (Enter /public3/home/scg5914/software-scg5914/g16/l103.exe)

 GradGradGradGradGradGradGradGradGradGradGradGradGradGradGradGradGradGrad
 Berny optimization.
 FormGI is forming the generalized inverse of G from B-inverse, IUseBI=4.
 Internal  Forces:  Max     0.043639082 RMS     0.014006705
 Search for a local minimum.
 Step number   1 out of a maximum of   49
 All quantities printed in internal units (Hartrees-Bohrs-Radians)
 RMS Force = .14007D-01 SwitMx=.10000D-02 MixMth= 1
 Mixed Optimization -- RFO/linear search
 Second derivative matrix not updated -- first step.
 ITU=  0
     Eigenvalues ---    0.00288   0.01016   0.01045   0.02189   0.02468
     Eigenvalues ---    0.02636   0.03221   0.03367   0.04019   0.13236
     Eigenvalues ---    0.15994   0.16000   0.16000   0.16000   0.22003
     Eigenvalues ---    0.23299   0.24997   0.25000   0.25000   0.28862
     Eigenvalues ---    0.33805   0.33956   0.38394   0.46214   0.46727
     Eigenvalues ---    0.51416   0.52470   0.56902   0.75179   1.04563
 RFO step:  Lambda=-2.24323446D-02 EMin= 2.87604390D-03
 Linear search not attempted -- first point.
 Iteration  1 RMS(Cart)=  0.11782274 RMS(Int)=  0.00940676
 Iteration  2 RMS(Cart)=  0.01808850 RMS(Int)=  0.00134348
 Iteration  3 RMS(Cart)=  0.00017377 RMS(Int)=  0.00133835
 Iteration  4 RMS(Cart)=  0.00000020 RMS(Int)=  0.00133835
 ITry= 1 IFail=0 DXMaxC= 3.44D-01 DCOld= 1.00D+10 DXMaxT= 3.00D-01 DXLimC= 3.00D+00 Rises=F
 Variable       Old X    -DE/DX   Delta X   Delta X   Delta X     New X
                                 (Linear)    (Quad)   (Total)
    R1        2.53479   0.02838   0.00000   0.04798   0.04798   2.58278
    R2        1.85163  -0.00256   0.00000  -0.00477  -0.00477   1.84685
    R3        2.26865   0.04364   0.00000   0.04086   0.04086   2.30951
    R4        2.90292  -0.03857   0.00000  -0.12401  -0.12401   2.77891
    R5        2.73796  -0.01270   0.00000  -0.03125  -0.03125   2.70671
    R6        2.07661  -0.00138   0.00000  -0.00383  -0.00383   2.07277
    R7        2.40625   0.00615   0.00000   0.00794   0.00794   2.41419
    R8        2.57452   0.04005   0.00000   0.07320   0.07320   2.64772
    R9        2.07405   0.00012   0.00000   0.00033   0.00033   2.07438
   R10        1.90020   0.00006   0.00000   0.00012   0.00012   1.90032
   R11        1.90591  -0.00021   0.00000  -0.00043  -0.00043   1.90548
    A1        1.83916  -0.00711   0.00000  -0.03899  -0.03899   1.80018
    A2        2.15029  -0.02001   0.00000  -0.07384  -0.07424   2.07605
    A3        1.98246   0.00384   0.00000   0.01374   0.01327   1.99573
    A4        2.15022   0.01614   0.00000   0.05894   0.05838   2.20861
    A5        1.93107   0.00684   0.00000   0.04267   0.03956   1.97063
    A6        1.88625   0.00745   0.00000   0.07884   0.07581   1.96206
    A7        1.99688  -0.00362   0.00000   0.01420   0.00932   2.00620
    A8        2.07311   0.02363   0.00000   0.08673   0.08673   2.15984
    A9        2.14903   0.00064   0.00000   0.00238   0.00223   2.15126
   A10        2.14944  -0.00131   0.00000  -0.00714  -0.00729   2.14215
   A11        1.98377   0.00061   0.00000   0.00344   0.00328   1.98705
   A12        2.07330  -0.00039   0.00000  -0.01209  -0.01334   2.05996
   A13        2.04720  -0.00162   0.00000  -0.01889  -0.02015   2.02705
   A14        2.03416  -0.00052   0.00000  -0.01446  -0.01601   2.01815
    D1        3.12413   0.00051   0.00000   0.02276   0.02110  -3.13796
    D2       -0.03944  -0.00102   0.00000  -0.03368  -0.03202  -0.07146
    D3        0.19207   0.00175   0.00000   0.11105   0.11002   0.30210
    D4        2.39087   0.00703   0.00000   0.21327   0.21578   2.60665
    D5       -2.97150  -0.00030   0.00000   0.05270   0.05019  -2.92130
    D6       -0.77270   0.00498   0.00000   0.15492   0.15595  -0.61675
    D7        2.43203   0.01092   0.00000   0.21585   0.21565   2.64768
    D8        0.29664  -0.00157   0.00000   0.06823   0.06843   0.36508
    D9        3.08934  -0.00261   0.00000  -0.04907  -0.04900   3.04034
   D10       -0.00258  -0.00096   0.00000  -0.01452  -0.01459  -0.01718
   D11        2.80200  -0.00220   0.00000  -0.04058  -0.04014   2.76186
   D12        0.20079   0.00283   0.00000   0.05135   0.05098   0.25177
   D13       -0.38499  -0.00376   0.00000  -0.07242  -0.07206  -0.45704
   D14       -2.98620   0.00126   0.00000   0.01950   0.01906  -2.96713
         Item               Value     Threshold  Converged?
 Maximum Force            0.043639     0.000450     NO 
 RMS     Force            0.014007     0.000300     NO 
 Maximum Displacement     0.343910     0.001800     NO 
 RMS     Displacement     0.123386     0.001200     NO 
 Predicted change in Energy=-1.355331D-02
 Lowest energy point so far.  Saving SCF results.
 GradGradGradGradGradGradGradGradGradGradGradGradGradGradGradGradGradGrad

 Leave Link  103 at Tue Oct 25 05:12:28 2022, MaxMem=  8053063680 cpu:               2.8 elap:               0.1
 (Enter /public3/home/scg5914/software-scg5914/g16/l202.exe)
                          Input orientation:                          
 ---------------------------------------------------------------------
 Center     Atomic      Atomic             Coordinates (Angstroms)
 Number     Number       Type             X           Y           Z
 ---------------------------------------------------------------------
      1          8           0       -0.161841   -0.050641    0.013922
      2          6           0       -0.132050    1.303320    0.198044
      3          8           0        0.922681    1.834448    0.512801
      4          6           0       -1.397757    1.985173   -0.111057
      5          7           0       -2.515000    1.090367   -0.162585
      6          6           0       -3.715169    1.437396    0.104366
      7          7           0       -4.816049    0.586810   -0.062016
      8          1           0       -5.651482    0.787515    0.460492
      9          1           0       -4.606460   -0.391068   -0.190760
     10          1           0       -1.550761    2.881427    0.502482
     11          1           0       -1.093055   -0.221494   -0.228545
     12          1           0       -3.983954    2.456118    0.412488
 ---------------------------------------------------------------------
                    Distance matrix (angstroms):
                    1          2          3          4          5
     1  O    0.000000
     2  C    1.366747   0.000000
     3  O    2.231284   1.222141   0.000000
     4  C    2.384879   1.470538   2.407561   0.000000
     5  N    2.621147   2.419473   3.581543   1.432328   0.000000
     6  C    3.853385   3.586850   4.672700   2.390996   1.277536
     7  N    4.698272   4.745615   5.900850   3.693581   2.357649
     8  H    5.571184   5.549690   6.657208   4.455920   3.212081
     9  H    4.462334   4.800257   6.001610   3.993576   2.563133
    10  H    3.280978   2.143792   2.685925   1.096865   2.140086
    11  H    0.977313   1.852178   2.973160   2.230700   1.935783
    12  H    4.588163   4.026424   4.946878   2.680355   2.086579
                    6          7          8          9         10
     6  C    0.000000
     7  N    1.401112   0.000000
     8  H    2.073277   1.005607   0.000000
     9  H    2.055427   1.008339   1.704481   0.000000
    10  H    2.632182   4.030636   4.604578   4.530685   0.000000
    11  H    3.120613   3.813367   4.719335   3.517698   3.220561
    12  H    1.097716   2.100440   2.359490   2.976221   2.471723
                   11         12
    11  H    0.000000
    12  H    3.992220   0.000000
 Stoichiometry    C3H5N2O2(1-)
 Framework group  C1[X(C3H5N2O2)]
 Deg. of freedom    30
 Full point group                 C1      NOp   1
 RotChk:  IX=2 Diff= 7.90D-02
 Largest Abelian subgroup         C1      NOp   1
 Largest concise Abelian subgroup C1      NOp   1
                         Standard orientation:                         
 ---------------------------------------------------------------------
 Center     Atomic      Atomic             Coordinates (Angstroms)
 Number     Number       Type             X           Y           Z
 ---------------------------------------------------------------------
      1          8           0        1.502553    1.309138   -0.014896
      2          6           0        1.645703   -0.050083   -0.010136
      3          8           0        2.753768   -0.528880   -0.201375
      4          6           0        0.420395   -0.787532    0.332313
      5          7           0       -0.762942    0.010225    0.210409
      6          6           0       -1.916396   -0.467745   -0.060123
      7          7           0       -3.086480    0.302980   -0.061576
      8          1           0       -3.873728   -0.034174   -0.588657
      9          1           0       -2.959561    1.303296   -0.058817
     10          1           0        0.370630   -1.767036   -0.158816
     11          1           0        0.548952    1.432765    0.159752
     12          1           0       -2.089126   -1.537184   -0.237446
 ---------------------------------------------------------------------
 Rotational constants (GHZ):           9.0726692           1.2357873           1.1024062
 Leave Link  202 at Tue Oct 25 05:12:28 2022, MaxMem=  8053063680 cpu:               0.1 elap:               0.0
 (Enter /public3/home/scg5914/software-scg5914/g16/l301.exe)
 Standard basis: 6-311+G(d,p) (5D, 7F)
 Ernie: Thresh=  0.10000D-02 Tol=  0.10000D-05 Strict=F.
 There are   191 symmetry adapted cartesian basis functions of A   symmetry.
 There are   184 symmetry adapted basis functions of A   symmetry.
   184 basis functions,   292 primitive gaussians,   191 cartesian basis functions
    27 alpha electrons       27 beta electrons
       nuclear repulsion energy       279.1968237403 Hartrees.
 IExCor=  402 DFT=T Ex+Corr=B3LYP ExCW=0 ScaHFX=  0.200000
 ScaDFX=  0.800000  0.720000  1.000000  0.810000 ScalE2=  1.000000  1.000000
 IRadAn=      5 IRanWt=     -1 IRanGd=            0 ICorTp=0 IEmpDi=141
 NAtoms=   12 NActive=   12 NUniq=   12 SFac= 1.00D+00 NAtFMM=   60 NAOKFM=F Big=F
 Integral buffers will be    131072 words long.
 Raffenetti 2 integral format.
 Two-electron integral symmetry is turned on.
 R6Disp:  Grimme-D3(BJ) Dispersion energy=       -0.0151309249 Hartrees.
 Nuclear repulsion after empirical dispersion term =      279.1816928154 Hartrees.
 Leave Link  301 at Tue Oct 25 05:12:28 2022, MaxMem=  8053063680 cpu:               0.9 elap:               0.0
 (Enter /public3/home/scg5914/software-scg5914/g16/l302.exe)
 NPDir=0 NMtPBC=     1 NCelOv=     1 NCel=       1 NClECP=     1 NCelD=      1
         NCelK=      1 NCelE2=     1 NClLst=     1 CellRange=     0.0.
 One-electron integrals computed using PRISM.
 One-electron integral symmetry used in STVInt
 NBasis=   184 RedAO= T EigKep=  6.17D-05  NBF=   184
 NBsUse=   184 1.00D-06 EigRej= -1.00D+00 NBFU=   184
 Precomputing XC quadrature grid using
 IXCGrd= 4 IRadAn=           5 IRanWt=          -1 IRanGd=           0 AccXCQ= 0.00D+00.
 Generated NRdTot=       0 NPtTot=           0 NUsed=           0 NTot=          32
 NSgBfM=   191   191   191   191   191 MxSgAt=    12 MxSgA2=    12.
 Leave Link  302 at Tue Oct 25 05:12:28 2022, MaxMem=  8053063680 cpu:               3.2 elap:               0.1
 (Enter /public3/home/scg5914/software-scg5914/g16/l303.exe)
 DipDrv:  MaxL=1.
 Leave Link  303 at Tue Oct 25 05:12:28 2022, MaxMem=  8053063680 cpu:               0.4 elap:               0.0
 (Enter /public3/home/scg5914/software-scg5914/g16/l401.exe)
 Initial guess from the checkpoint file:  "dsgdb9nsd_001232-4.chk"
 B after Tr=    -0.000000   -0.000000    0.000000
         Rot=    0.999996    0.001178   -0.000767    0.002328 Ang=   0.31 deg.
 Guess basis will be translated and rotated to current coordinates.
 JPrj=2 DoOrth=T DoCkMO=T.
 Generating alternative initial guess.
 ExpMin= 4.38D-02 ExpMax= 8.59D+03 ExpMxC= 1.30D+03 IAcc=3 IRadAn=         5 AccDes= 0.00D+00
 Harris functional with IExCor=  402 and IRadAn=       5 diagonalized for initial guess.
 HarFok:  IExCor=  402 AccDes= 0.00D+00 IRadAn=         5 IDoV= 1 UseB2=F ITyADJ=14
 ICtDFT=  3500011 ScaDFX=  1.000000  1.000000  1.000000  1.000000
 FoFCou: FMM=F IPFlag=           0 FMFlag=      100000 FMFlg1=           0
         NFxFlg=           0 DoJE=T BraDBF=F KetDBF=T FulRan=T
         wScrn=  0.000000 ICntrl=       500 IOpCl=  0 I1Cent=   200000004 NGrid=           0
         NMat0=    1 NMatS0=      1 NMatT0=    0 NMatD0=    1 NMtDS0=    0 NMtDT0=    0
 Petite list used in FoFCou.
 Harris En= -377.608373947892    
 Leave Link  401 at Tue Oct 25 05:12:29 2022, MaxMem=  8053063680 cpu:              11.1 elap:               0.4
 (Enter /public3/home/scg5914/software-scg5914/g16/l502.exe)
 Keep R1 ints in memory in canonical form, NReq=177424138.
 FoFCou: FMM=F IPFlag=           0 FMFlag=           0 FMFlg1=           0
         NFxFlg=           0 DoJE=F BraDBF=F KetDBF=F FulRan=T
         wScrn=  0.000000 ICntrl=       600 IOpCl=  0 I1Cent=           0 NGrid=           0
         NMat0=    1 NMatS0=  17020 NMatT0=    0 NMatD0=    1 NMtDS0=    0 NMtDT0=    0
 Symmetry not used in FoFCou.
 Two-electron integral symmetry not used.
 Closed shell SCF:
 Using DIIS extrapolation, IDIIS=  1040.
 NGot=  8053063680 LenX=  7908133714 LenY=  7908096792
 Requested convergence on RMS density matrix=1.00D-08 within 128 cycles.
 Requested convergence on MAX density matrix=1.00D-06.
 Requested convergence on             energy=1.00D-06.
 No special actions if energy rises.

 Cycle   1  Pass 1  IDiag  1:
 E= -377.388618851051    
 DIIS: error= 8.58D-03 at cycle   1 NSaved=   1.
 NSaved= 1 IEnMin= 1 EnMin= -377.388618851051     IErMin= 1 ErrMin= 8.58D-03
 ErrMax= 8.58D-03  0.00D+00 EMaxC= 1.00D-01 BMatC= 2.47D-02 BMatP= 2.47D-02
 IDIUse=3 WtCom= 9.14D-01 WtEn= 8.58D-02
 Coeff-Com:  0.100D+01
 Coeff-En:   0.100D+01
 Coeff:      0.100D+01
 Gap=     0.368 Goal=   None    Shift=    0.000
 GapD=    0.368 DampG=1.000 DampE=1.000 DampFc=1.0000 IDamp=-1.
 RMSDP=3.31D-03 MaxDP=1.69D-01              OVMax= 7.65D-02

 Cycle   2  Pass 1  IDiag  1:
 E= -377.428931074264     Delta-E=       -0.040312223212 Rises=F Damp=F
 DIIS: error= 2.17D-03 at cycle   2 NSaved=   2.
 NSaved= 2 IEnMin= 2 EnMin= -377.428931074264     IErMin= 2 ErrMin= 2.17D-03
 ErrMax= 2.17D-03  0.00D+00 EMaxC= 1.00D-01 BMatC= 1.30D-03 BMatP= 2.47D-02
 IDIUse=3 WtCom= 9.78D-01 WtEn= 2.17D-02
 Coeff-Com:  0.189D-01 0.981D+00
 Coeff-En:   0.000D+00 0.100D+01
 Coeff:      0.185D-01 0.981D+00
 Gap=     0.084 Goal=   None    Shift=    0.000
 RMSDP=6.09D-04 MaxDP=3.06D-02 DE=-4.03D-02 OVMax= 3.74D-02

 Cycle   3  Pass 1  IDiag  1:
 E= -377.427519032373     Delta-E=        0.001412041890 Rises=F Damp=F
 DIIS: error= 3.86D-03 at cycle   3 NSaved=   3.
 NSaved= 3 IEnMin= 2 EnMin= -377.428931074264     IErMin= 2 ErrMin= 2.17D-03
 ErrMax= 3.86D-03  0.00D+00 EMaxC= 1.00D-01 BMatC= 3.13D-03 BMatP= 1.30D-03
 IDIUse=3 WtCom= 1.39D-01 WtEn= 8.61D-01
 Coeff-Com: -0.405D-01 0.638D+00 0.402D+00
 Coeff-En:   0.000D+00 0.667D+00 0.333D+00
 Coeff:     -0.562D-02 0.663D+00 0.343D+00
 Gap=     0.091 Goal=   None    Shift=    0.000
 RMSDP=4.43D-04 MaxDP=1.76D-02 DE= 1.41D-03 OVMax= 2.62D-02

 Cycle   4  Pass 1  IDiag  1:
 E= -377.430286077895     Delta-E=       -0.002767045522 Rises=F Damp=F
 DIIS: error= 5.21D-04 at cycle   4 NSaved=   4.
 NSaved= 4 IEnMin= 4 EnMin= -377.430286077895     IErMin= 4 ErrMin= 5.21D-04
 ErrMax= 5.21D-04  0.00D+00 EMaxC= 1.00D-01 BMatC= 5.50D-05 BMatP= 1.30D-03
 IDIUse=3 WtCom= 9.95D-01 WtEn= 5.21D-03
 Coeff-Com: -0.189D-01 0.242D+00 0.155D+00 0.622D+00
 Coeff-En:   0.000D+00 0.000D+00 0.000D+00 0.100D+01
 Coeff:     -0.188D-01 0.241D+00 0.154D+00 0.624D+00
 Gap=     0.090 Goal=   None    Shift=    0.000
 RMSDP=8.51D-05 MaxDP=2.25D-03 DE=-2.77D-03 OVMax= 4.57D-03

 Cycle   5  Pass 1  IDiag  1:
 E= -377.430311335930     Delta-E=       -0.000025258035 Rises=F Damp=F
 DIIS: error= 4.67D-04 at cycle   5 NSaved=   5.
 NSaved= 5 IEnMin= 5 EnMin= -377.430311335930     IErMin= 5 ErrMin= 4.67D-04
 ErrMax= 4.67D-04  0.00D+00 EMaxC= 1.00D-01 BMatC= 3.71D-05 BMatP= 5.50D-05
 IDIUse=3 WtCom= 9.95D-01 WtEn= 4.67D-03
 Coeff-Com: -0.610D-02 0.546D-01 0.397D-01 0.438D+00 0.473D+00
 Coeff-En:   0.000D+00 0.000D+00 0.000D+00 0.366D+00 0.634D+00
 Coeff:     -0.607D-02 0.543D-01 0.395D-01 0.438D+00 0.474D+00
 Gap=     0.090 Goal=   None    Shift=    0.000
 RMSDP=4.35D-05 MaxDP=1.20D-03 DE=-2.53D-05 OVMax= 1.78D-03

 Cycle   6  Pass 1  IDiag  1:
 E= -377.430341234126     Delta-E=       -0.000029898195 Rises=F Damp=F
 DIIS: error= 4.77D-05 at cycle   6 NSaved=   6.
 NSaved= 6 IEnMin= 6 EnMin= -377.430341234126     IErMin= 6 ErrMin= 4.77D-05
 ErrMax= 4.77D-05  0.00D+00 EMaxC= 1.00D-01 BMatC= 8.41D-07 BMatP= 3.71D-05
 IDIUse=1 WtCom= 1.00D+00 WtEn= 0.00D+00
 Coeff-Com: -0.342D-03-0.871D-02-0.599D-02 0.107D+00 0.175D+00 0.733D+00
 Coeff:     -0.342D-03-0.871D-02-0.599D-02 0.107D+00 0.175D+00 0.733D+00
 Gap=     0.090 Goal=   None    Shift=    0.000
 RMSDP=1.84D-05 MaxDP=9.20D-04 DE=-2.99D-05 OVMax= 3.75D-04

 Cycle   7  Pass 1  IDiag  1:
 E= -377.430341937612     Delta-E=       -0.000000703487 Rises=F Damp=F
 DIIS: error= 2.87D-05 at cycle   7 NSaved=   7.
 NSaved= 7 IEnMin= 7 EnMin= -377.430341937612     IErMin= 7 ErrMin= 2.87D-05
 ErrMax= 2.87D-05  0.00D+00 EMaxC= 1.00D-01 BMatC= 2.32D-07 BMatP= 8.41D-07
 IDIUse=1 WtCom= 1.00D+00 WtEn= 0.00D+00
 Coeff-Com:  0.447D-03-0.111D-01-0.866D-02 0.189D-01 0.470D-01 0.412D+00
 Coeff-Com:  0.542D+00
 Coeff:      0.447D-03-0.111D-01-0.866D-02 0.189D-01 0.470D-01 0.412D+00
 Coeff:      0.542D+00
 Gap=     0.090 Goal=   None    Shift=    0.000
 RMSDP=7.10D-06 MaxDP=4.58D-04 DE=-7.03D-07 OVMax= 1.52D-04

 Cycle   8  Pass 1  IDiag  1:
 E= -377.430342137174     Delta-E=       -0.000000199562 Rises=F Damp=F
 DIIS: error= 7.21D-06 at cycle   8 NSaved=   8.
 NSaved= 8 IEnMin= 8 EnMin= -377.430342137174     IErMin= 8 ErrMin= 7.21D-06
 ErrMax= 7.21D-06  0.00D+00 EMaxC= 1.00D-01 BMatC= 1.16D-08 BMatP= 2.32D-07
 IDIUse=1 WtCom= 1.00D+00 WtEn= 0.00D+00
 Coeff-Com:  0.204D-03-0.360D-02-0.319D-02 0.140D-02 0.344D-02 0.991D-01
 Coeff-Com:  0.225D+00 0.677D+00
 Coeff:      0.204D-03-0.360D-02-0.319D-02 0.140D-02 0.344D-02 0.991D-01
 Coeff:      0.225D+00 0.677D+00
 Gap=     0.090 Goal=   None    Shift=    0.000
 RMSDP=1.73D-06 MaxDP=7.84D-05 DE=-2.00D-07 OVMax= 4.38D-05

 Cycle   9  Pass 1  IDiag  1:
 E= -377.430342146475     Delta-E=       -0.000000009301 Rises=F Damp=F
 DIIS: error= 3.61D-06 at cycle   9 NSaved=   9.
 NSaved= 9 IEnMin= 9 EnMin= -377.430342146475     IErMin= 9 ErrMin= 3.61D-06
 ErrMax= 3.61D-06  0.00D+00 EMaxC= 1.00D-01 BMatC= 2.41D-09 BMatP= 1.16D-08
 IDIUse=1 WtCom= 1.00D+00 WtEn= 0.00D+00
 Coeff-Com:  0.750D-04-0.998D-03-0.101D-02-0.144D-02-0.319D-02 0.152D-01
 Coeff-Com:  0.771D-01 0.393D+00 0.521D+00
 Coeff:      0.750D-04-0.998D-03-0.101D-02-0.144D-02-0.319D-02 0.152D-01
 Coeff:      0.771D-01 0.393D+00 0.521D+00
 Gap=     0.090 Goal=   None    Shift=    0.000
 RMSDP=5.02D-07 MaxDP=2.35D-05 DE=-9.30D-09 OVMax= 1.70D-05

 Cycle  10  Pass 1  IDiag  1:
 E= -377.430342148187     Delta-E=       -0.000000001712 Rises=F Damp=F
 DIIS: error= 1.56D-06 at cycle  10 NSaved=  10.
 NSaved=10 IEnMin=10 EnMin= -377.430342148187     IErMin=10 ErrMin= 1.56D-06
 ErrMax= 1.56D-06  0.00D+00 EMaxC= 1.00D-01 BMatC= 4.45D-10 BMatP= 2.41D-09
 IDIUse=1 WtCom= 1.00D+00 WtEn= 0.00D+00
 Coeff-Com:  0.114D-04 0.118D-04-0.791D-04-0.118D-02-0.275D-02-0.868D-02
 Coeff-Com:  0.116D-01 0.151D+00 0.336D+00 0.514D+00
 Coeff:      0.114D-04 0.118D-04-0.791D-04-0.118D-02-0.275D-02-0.868D-02
 Coeff:      0.116D-01 0.151D+00 0.336D+00 0.514D+00
 Gap=     0.090 Goal=   None    Shift=    0.000
 RMSDP=2.39D-07 MaxDP=5.63D-06 DE=-1.71D-09 OVMax= 9.83D-06

 Cycle  11  Pass 1  IDiag  1:
 E= -377.430342148523     Delta-E=       -0.000000000335 Rises=F Damp=F
 DIIS: error= 3.27D-07 at cycle  11 NSaved=  11.
 NSaved=11 IEnMin=11 EnMin= -377.430342148523     IErMin=11 ErrMin= 3.27D-07
 ErrMax= 3.27D-07  0.00D+00 EMaxC= 1.00D-01 BMatC= 2.84D-11 BMatP= 4.45D-10
 IDIUse=1 WtCom= 1.00D+00 WtEn= 0.00D+00
 Coeff-Com: -0.544D-06 0.908D-04 0.598D-04-0.476D-03-0.101D-02-0.558D-02
 Coeff-Com: -0.204D-02 0.348D-01 0.110D+00 0.270D+00 0.594D+00
 Coeff:     -0.544D-06 0.908D-04 0.598D-04-0.476D-03-0.101D-02-0.558D-02
 Coeff:     -0.204D-02 0.348D-01 0.110D+00 0.270D+00 0.594D+00
 Gap=     0.090 Goal=   None    Shift=    0.000
 RMSDP=1.09D-07 MaxDP=7.98D-06 DE=-3.35D-10 OVMax= 2.26D-06

 Cycle  12  Pass 1  IDiag  1:
 E= -377.430342148546     Delta-E=       -0.000000000023 Rises=F Damp=F
 DIIS: error= 6.33D-08 at cycle  12 NSaved=  12.
 NSaved=12 IEnMin=12 EnMin= -377.430342148546     IErMin=12 ErrMin= 6.33D-08
 ErrMax= 6.33D-08  0.00D+00 EMaxC= 1.00D-01 BMatC= 8.78D-13 BMatP= 2.84D-11
 IDIUse=1 WtCom= 1.00D+00 WtEn= 0.00D+00
 Coeff-Com: -0.988D-06 0.313D-04 0.287D-04-0.917D-04-0.186D-03-0.133D-02
 Coeff-Com: -0.139D-02 0.334D-02 0.171D-01 0.635D-01 0.204D+00 0.715D+00
 Coeff:     -0.988D-06 0.313D-04 0.287D-04-0.917D-04-0.186D-03-0.133D-02
 Coeff:     -0.139D-02 0.334D-02 0.171D-01 0.635D-01 0.204D+00 0.715D+00
 Gap=     0.090 Goal=   None    Shift=    0.000
 RMSDP=1.75D-08 MaxDP=5.24D-07 DE=-2.33D-11 OVMax= 8.04D-07

 Cycle  13  Pass 1  IDiag  1:
 E= -377.430342148548     Delta-E=       -0.000000000002 Rises=F Damp=F
 DIIS: error= 3.97D-08 at cycle  13 NSaved=  13.
 NSaved=13 IEnMin=13 EnMin= -377.430342148548     IErMin=13 ErrMin= 3.97D-08
 ErrMax= 3.97D-08  0.00D+00 EMaxC= 1.00D-01 BMatC= 2.72D-13 BMatP= 8.78D-13
 IDIUse=1 WtCom= 1.00D+00 WtEn= 0.00D+00
 Coeff-Com: -0.507D-06 0.111D-04 0.120D-04-0.136D-04-0.309D-04-0.329D-03
 Coeff-Com: -0.690D-03-0.805D-03 0.944D-03 0.158D-01 0.687D-01 0.415D+00
 Coeff-Com:  0.501D+00
 Coeff:     -0.507D-06 0.111D-04 0.120D-04-0.136D-04-0.309D-04-0.329D-03
 Coeff:     -0.690D-03-0.805D-03 0.944D-03 0.158D-01 0.687D-01 0.415D+00
 Coeff:      0.501D+00
 Gap=     0.090 Goal=   None    Shift=    0.000
 RMSDP=6.07D-09 MaxDP=3.06D-07 DE=-2.05D-12 OVMax= 2.69D-07

 SCF Done:  E(RB3LYP) =  -377.430342149     A.U. after   13 cycles
            NFock= 13  Conv=0.61D-08     -V/T= 2.0036
 KE= 3.760589438098D+02 PE=-1.453512092042D+03 EE= 4.208411132685D+02
 Leave Link  502 at Tue Oct 25 05:12:33 2022, MaxMem=  8053063680 cpu:             109.3 elap:               4.5
 (Enter /public3/home/scg5914/software-scg5914/g16/l701.exe)
 ... and contract with generalized density number  0.
 Compute integral first derivatives.
 R6Disp: Adding Grimme-D3(BJ) dispersion energy 1st derivatives to the gradient.
 Leave Link  701 at Tue Oct 25 05:12:33 2022, MaxMem=  8053063680 cpu:               2.6 elap:               0.1
 (Enter /public3/home/scg5914/software-scg5914/g16/l702.exe)
 L702 exits ... SP integral derivatives will be done elsewhere.
 Leave Link  702 at Tue Oct 25 05:12:33 2022, MaxMem=  8053063680 cpu:               0.2 elap:               0.0
 (Enter /public3/home/scg5914/software-scg5914/g16/l703.exe)
 Integral derivatives from FoFJK, PRISM(SPDF).
 Compute integral first derivatives, UseDBF=F ICtDFT=           0.
 Calling FoFJK, ICntrl=      2127 FMM=F ISym2X=0 I1Cent= 0 IOpClX= 0 NMat=1 NMatS=1 NMatT=0.
 FoFJK:  IHMeth= 1 ICntrl=    2127 DoSepK=F KAlg= 0 I1Cent=           0 FoldK=F
 IRaf=         0 NMat=       1 IRICut=       1 DoRegI=T DoRafI=F ISym2E= 0 IDoP0=0 IntGTp=1.
 FoFCou: FMM=F IPFlag=           0 FMFlag=      100000 FMFlg1=         800
         NFxFlg=           0 DoJE=F BraDBF=F KetDBF=F FulRan=T
         wScrn=  0.000000 ICntrl=      2127 IOpCl=  0 I1Cent=           0 NGrid=           0
         NMat0=    1 NMatS0=      1 NMatT0=    0 NMatD0=    1 NMtDS0=    0 NMtDT0=    0
 Symmetry not used in FoFCou.
 Leave Link  703 at Tue Oct 25 05:12:35 2022, MaxMem=  8053063680 cpu:              38.8 elap:               1.2
 (Enter /public3/home/scg5914/software-scg5914/g16/l716.exe)
 Dipole        =-3.01603325D+00 4.45614702D-01-6.60879286D-01
 ***** Axes restored to original set *****
 -------------------------------------------------------------------
 Center     Atomic                   Forces (Hartrees/Bohr)
 Number     Number              X              Y              Z
 -------------------------------------------------------------------
      1        8          -0.000056452   -0.015917266   -0.003419943
      2        6          -0.029280631    0.024084583   -0.017148166
      3        8           0.014114242    0.004692033    0.007884063
      4        6           0.001715300   -0.026836012    0.020942666
      5        7           0.005835233    0.012016013    0.000986016
      6        6           0.014370551    0.006545141    0.001014118
      7        7          -0.009336980   -0.003811042   -0.011411450
      8        1           0.001367908   -0.001236942    0.004542270
      9        1           0.001216823   -0.000672826    0.002781123
     10        1           0.001020290    0.002917476   -0.007012229
     11        1           0.000256472   -0.001578478    0.001436740
     12        1          -0.001222755   -0.000202681   -0.000595208
 -------------------------------------------------------------------
 Cartesian Forces:  Max     0.029280631 RMS     0.010804171
 Leave Link  716 at Tue Oct 25 05:12:35 2022, MaxMem=  8053063680 cpu:               0.2 elap:               0.0
 (Enter /public3/home/scg5914/software-scg5914/g16/l103.exe)

 GradGradGradGradGradGradGradGradGradGradGradGradGradGradGradGradGradGrad
 Berny optimization.
 Using GEDIIS/GDIIS optimizer.
 FormGI is forming the generalized inverse of G from B-inverse, IUseBI=4.
 Internal  Forces:  Max     0.020476816 RMS     0.006679482
 Search for a local minimum.
 Step number   2 out of a maximum of   49
 All quantities printed in internal units (Hartrees-Bohrs-Radians)
 RMS Force = .66795D-02 SwitMx=.10000D-02 MixMth= 1
 Mixed Optimization -- RFO/linear search
 Update second derivatives using D2CorX and points    1    2
 DE= -1.61D-02 DEPred=-1.36D-02 R= 1.19D+00
 TightC=F SS=  1.41D+00  RLast= 4.50D-01 DXNew= 5.0454D-01 1.3509D+00
 Trust test= 1.19D+00 RLast= 4.50D-01 DXMaxT set to 5.05D-01
 ITU=  1  0
 Use linear search instead of GDIIS.
     Eigenvalues ---    0.00329   0.00950   0.01167   0.02160   0.02356
     Eigenvalues ---    0.02532   0.02665   0.03400   0.03519   0.13612
     Eigenvalues ---    0.15893   0.15987   0.16000   0.16354   0.19647
     Eigenvalues ---    0.22422   0.23578   0.24984   0.25027   0.27640
     Eigenvalues ---    0.33809   0.33956   0.38147   0.46215   0.46724
     Eigenvalues ---    0.51130   0.51422   0.56194   0.76491   1.01183
 RFO step:  Lambda=-1.17341184D-02 EMin= 3.29155835D-03
 Quartic linear search produced a step of  0.68913.
 Iteration  1 RMS(Cart)=  0.10118276 RMS(Int)=  0.02513649
 Iteration  2 RMS(Cart)=  0.03613475 RMS(Int)=  0.00936787
 Iteration  3 RMS(Cart)=  0.00174189 RMS(Int)=  0.00931483
 Iteration  4 RMS(Cart)=  0.00001678 RMS(Int)=  0.00931483
 Iteration  5 RMS(Cart)=  0.00000041 RMS(Int)=  0.00931483
 ITry= 1 IFail=0 DXMaxC= 3.57D-01 DCOld= 1.00D+10 DXMaxT= 5.05D-01 DXLimC= 3.00D+00 Rises=F
 Variable       Old X    -DE/DX   Delta X   Delta X   Delta X     New X
                                 (Linear)    (Quad)   (Total)
    R1        2.58278   0.01759   0.03307   0.04204   0.07510   2.65788
    R2        1.84685  -0.00033  -0.00329  -0.00024  -0.00353   1.84332
    R3        2.30951   0.01625   0.02816   0.01924   0.04740   2.35691
    R4        2.77891  -0.02048  -0.08546  -0.08875  -0.17420   2.60471
    R5        2.70671  -0.01734  -0.02154  -0.06642  -0.08795   2.61875
    R6        2.07277  -0.00168  -0.00264  -0.00719  -0.00983   2.06294
    R7        2.41419  -0.00661   0.00547  -0.01538  -0.00990   2.40429
    R8        2.64772   0.00926   0.05044   0.01654   0.06698   2.71470
    R9        2.07438  -0.00006   0.00023  -0.00032  -0.00009   2.07429
   R10        1.90032   0.00098   0.00008   0.00332   0.00340   1.90373
   R11        1.90548   0.00055  -0.00029   0.00197   0.00168   1.90716
    A1        1.80018   0.00273  -0.02687   0.03485   0.00798   1.80816
    A2        2.07605  -0.00321  -0.05116  -0.00048  -0.05713   2.01892
    A3        1.99573   0.00120   0.00915   0.00990   0.01345   2.00918
    A4        2.20861   0.00217   0.04023   0.00682   0.04122   2.24983
    A5        1.97063   0.00598   0.02726   0.06999   0.06884   2.03946
    A6        1.96206   0.00323   0.05224   0.08911   0.11308   2.07514
    A7        2.00620   0.00007   0.00642   0.08431   0.05873   2.06493
    A8        2.15984   0.00235   0.05977  -0.00205   0.05772   2.21755
    A9        2.15126  -0.00364   0.00154  -0.02593  -0.02449   2.12677
   A10        2.14215   0.00311  -0.00502   0.02724   0.02211   2.16427
   A11        1.98705   0.00053   0.00226   0.00021   0.00236   1.98941
   A12        2.05996  -0.00253  -0.00919  -0.04618  -0.06447   1.99549
   A13        2.02705  -0.00206  -0.01389  -0.04034  -0.06350   1.96355
   A14        2.01815   0.00039  -0.01103  -0.02314  -0.04825   1.96990
    D1       -3.13796  -0.00255   0.01454  -0.16750  -0.14994   2.99529
    D2       -0.07146  -0.00020  -0.02207   0.05029   0.02520  -0.04626
    D3        0.30210  -0.00432   0.07582  -0.28831  -0.22010   0.08200
    D4        2.60665   0.00442   0.14870  -0.01802   0.13619   2.74284
    D5       -2.92130  -0.00203   0.03459  -0.05142  -0.02235  -2.94365
    D6       -0.61675   0.00671   0.10747   0.21887   0.33394  -0.28281
    D7        2.64768   0.00749   0.14861   0.17534   0.32396   2.97163
    D8        0.36508  -0.00315   0.04716  -0.10433  -0.05718   0.30790
    D9        3.04034   0.00003  -0.03377   0.02878  -0.00495   3.03539
   D10       -0.01718   0.00004  -0.01006   0.00531  -0.00478  -0.02196
   D11        2.76186  -0.00400  -0.02766  -0.12994  -0.15270   2.60916
   D12        0.25177   0.00243   0.03513   0.05010   0.08036   0.33213
   D13       -0.45704  -0.00387  -0.04966  -0.10703  -0.15181  -0.60885
   D14       -2.96713   0.00256   0.01314   0.07302   0.08125  -2.88589
         Item               Value     Threshold  Converged?
 Maximum Force            0.020477     0.000450     NO 
 RMS     Force            0.006679     0.000300     NO 
 Maximum Displacement     0.356767     0.001800     NO 
 RMS     Displacement     0.121030     0.001200     NO 
 Predicted change in Energy=-1.186838D-02
 Lowest energy point so far.  Saving SCF results.
 GradGradGradGradGradGradGradGradGradGradGradGradGradGradGradGradGradGrad

 Leave Link  103 at Tue Oct 25 05:12:35 2022, MaxMem=  8053063680 cpu:               0.6 elap:               0.0
 (Enter /public3/home/scg5914/software-scg5914/g16/l202.exe)
                          Input orientation:                          
 ---------------------------------------------------------------------
 Center     Atomic      Atomic             Coordinates (Angstroms)
 Number     Number       Type             X           Y           Z
 ---------------------------------------------------------------------
      1          8           0       -0.200262   -0.067685   -0.069002
      2          6           0       -0.165741    1.326822    0.110922
      3          8           0        0.950904    1.808494    0.387796
      4          6           0       -1.393908    1.951611    0.077736
      5          7           0       -2.508937    1.135219   -0.025282
      6          6           0       -3.726831    1.481440    0.099633
      7          7           0       -4.804997    0.567104   -0.155791
      8          1           0       -5.631264    0.735247    0.395464
      9          1           0       -4.507544   -0.397013   -0.132571
     10          1           0       -1.505717    2.921550    0.566041
     11          1           0       -1.152770   -0.266666   -0.137011
     12          1           0       -4.053832    2.503249    0.331698
 ---------------------------------------------------------------------
                    Distance matrix (angstroms):
                    1          2          3          4          5
     1  O    0.000000
     2  C    1.406490   0.000000
     3  O    2.248087   1.247222   0.000000
     4  C    2.350294   1.378352   2.369548   0.000000
     5  N    2.603626   2.354958   3.548863   1.385785   0.000000
     6  C    3.855505   3.564463   4.698000   2.379931   1.272297
     7  N    4.649094   4.708609   5.913284   3.688756   2.368898
     8  H    5.509647   5.504804   6.669097   4.419919   3.175836
     9  H    4.320321   4.677836   5.910135   3.905765   2.520650
    10  H    3.323104   2.132094   2.702896   1.091661   2.132391
    11  H    0.975444   1.890742   3.001193   2.241656   1.953703
    12  H    4.649760   4.068166   5.053040   2.728369   2.094192
                    6          7          8          9         10
     6  C    0.000000
     7  N    1.436556   0.000000
     8  H    2.066685   1.007408   0.000000
     9  H    2.047442   1.009228   1.680352   0.000000
    10  H    2.687899   4.117002   4.672168   4.529005   0.000000
    11  H    3.120523   3.746236   4.619985   3.357308   3.283836
    12  H    1.097668   2.133201   2.370271   2.972023   2.592833
                   11         12
    11  H    0.000000
    12  H    4.038351   0.000000
 Stoichiometry    C3H5N2O2(1-)
 Framework group  C1[X(C3H5N2O2)]
 Deg. of freedom    30
 Full point group                 C1      NOp   1
 RotChk:  IX=2 Diff= 4.94D-02
 Largest Abelian subgroup         C1      NOp   1
 Largest concise Abelian subgroup C1      NOp   1
                         Standard orientation:                         
 ---------------------------------------------------------------------
 Center     Atomic      Atomic             Coordinates (Angstroms)
 Number     Number       Type             X           Y           Z
 ---------------------------------------------------------------------
[...]
  24. LP (   2) O   3                / 59. RY*(  15) C   2                    0.67    1.74    0.032
  24. LP (   2) O   3                /172. BD*(   1) O   1 - C   2           32.83    0.55    0.122
  24. LP (   2) O   3                /175. BD*(   1) C   2 - C   4           12.66    0.77    0.091
  25. LP (   3) O   3                / 47. RY*(   3) C   2                    4.57    1.84    0.091
  25. LP (   3) O   3                / 63. RY*(   2) O   3                    1.29    0.88    0.034
  25. LP (   3) O   3                /176. BD*(   2) C   2 - C   4          104.62    0.25    0.145
  26. LP (   1) N   5                / 79. RY*(   1) C   4                    3.17    1.39    0.061
  26. LP (   1) N   5                /113. RY*(   1) C   6                    4.18    1.00    0.059
  26. LP (   1) N   5                /115. RY*(   3) C   6                    1.56    1.43    0.044
  26. LP (   1) N   5                /116. RY*(   4) C   6                    0.66    1.77    0.031
  26. LP (   1) N   5                /118. RY*(   6) C   6                    0.54    1.85    0.029
  26. LP (   1) N   5                /173. BD*(   1) O   1 - H  11            5.75    0.76    0.061
  26. LP (   1) N   5                /175. BD*(   1) C   2 - C   4            3.44    0.89    0.050
  26. LP (   1) N   5                /178. BD*(   1) C   4 - H  10            9.17    0.76    0.077
  26. LP (   1) N   5                /181. BD*(   1) C   6 - N   7            6.36    0.70    0.061
  26. LP (   1) N   5                /182. BD*(   1) C   6 - H  12           13.57    0.70    0.089
  27. LP (   1) N   7                /116. RY*(   4) C   6                    1.65    1.79    0.049
  27. LP (   1) N   7                /147. RY*(   1) H   8                    0.51    1.09    0.021
  27. LP (   1) N   7                /148. RY*(   2) H   8                    1.08    2.14    0.044
  27. LP (   1) N   7                /153. RY*(   2) H   9                    1.21    2.14    0.046
  27. LP (   1) N   7                /179. BD*(   1) N   5 - C   6            3.35    1.00    0.052
  27. LP (   1) N   7                /180. BD*(   2) N   5 - C   6           10.42    0.37    0.060
  27. LP (   1) N   7                /182. BD*(   1) C   6 - H  12            0.90    0.73    0.023
 172. BD*(   1) O   1 - C   2        / 31. RY*(   4) O   1                    1.47    0.65    0.118
 172. BD*(   1) O   1 - C   2        / 46. RY*(   2) C   2                    1.20    1.15    0.135
 172. BD*(   1) O   1 - C   2        / 51. RY*(   7) C   2                    0.72    1.19    0.112
 172. BD*(   1) O   1 - C   2        /157. RY*(   1) H  10                    0.72    0.02    0.013
 172. BD*(   1) O   1 - C   2        /177. BD*(   1) C   4 - N   5            1.68    0.18    0.063
 172. BD*(   1) O   1 - C   2        /178. BD*(   1) C   4 - H  10            2.97    0.09    0.057
 176. BD*(   2) C   2 - C   4        / 29. RY*(   2) O   1                    0.65    0.49    0.033
 176. BD*(   2) C   2 - C   4        / 50. RY*(   6) C   2                    0.53    1.53    0.053
 176. BD*(   2) C   2 - C   4        / 52. RY*(   8) C   2                    1.84    0.58    0.061
 176. BD*(   2) C   2 - C   4        / 63. RY*(   2) O   3                    1.65    0.63    0.060
 176. BD*(   2) C   2 - C   4        / 80. RY*(   2) C   4                    0.66    0.61    0.037
 176. BD*(   2) C   2 - C   4        / 84. RY*(   6) C   4                    0.77    1.52    0.064
 180. BD*(   2) N   5 - C   6        / 80. RY*(   2) C   4                    0.70    0.63    0.043
 180. BD*(   2) N   5 - C   6        / 98. RY*(   3) N   5                    2.22    0.68    0.080
 180. BD*(   2) N   5 - C   6        /114. RY*(   2) C   6                    3.83    0.48    0.087
 180. BD*(   2) N   5 - C   6        /117. RY*(   5) C   6                    0.73    1.26    0.062
 180. BD*(   2) N   5 - C   6        /176. BD*(   2) C   2 - C   4           70.09    0.02    0.055
 180. BD*(   2) N   5 - C   6        /179. BD*(   1) N   5 - C   6            0.61    0.63    0.039
 180. BD*(   2) N   5 - C   6        /183. BD*(   1) N   7 - H   8            1.18    0.36    0.042


 Natural Bond Orbitals (Summary):

                                                            Principal Delocalizations
           NBO                        Occupancy    Energy   (geminal,vicinal,remote)
 ====================================================================================
 Molecular unit  1  (C3H5N2O2)
     1. BD (   1) O   1 - C   2          1.99483    -0.66549  178(v)
     2. BD (   1) O   1 - H  11          1.98628    -0.55518  174(v),46(v),48(v),49(v)
     3. BD (   1) C   2 - O   3          1.99528    -0.83895  175(g),45(g),177(v),173(v)
                                                    81(v)
     4. BD (   1) C   2 - C   4          1.98610    -0.51312  179(v),174(g),177(g),62(v)
                                                    96(v),28(v)
     5. BD (   2) C   2 - C   4          1.73797    -0.06540  180(v),176(g),63(v),100(v)
     6. BD (   1) C   4 - N   5          1.98095    -0.62881  181(v),174(v),115(v),179(g)
                                                    48(v),175(g),46(v),116(v)
                                                    178(g)
     7. BD (   1) C   4 - H  10          1.98337    -0.34032  172(v),45(v),175(g),97(v)
                                                    49(v)
     8. BD (   1) N   5 - C   6          1.99104    -0.72554  177(g),81(v),175(v),182(g)
                                                    181(g)
     9. BD (   2) N   5 - C   6          1.96252    -0.16455  176(v),183(v),80(v),180(g)
                                                    130(v)
    10. BD (   1) C   6 - N   7          1.99192    -0.60865  177(v),179(g),96(v)
    11. BD (   1) C   6 - H  12          1.98349    -0.38072  184(v),96(v),179(g),97(v)
    12. BD (   1) N   7 - H   8          1.98385    -0.49089  180(v),179(v),114(v),117(v)
    13. BD (   1) N   7 - H   9          1.98955    -0.49276  182(v),115(v),179(v)
    14. CR (   1) O   1                  1.99978   -18.74988  46(v),48(v),162(v)
    15. CR (   1) C   2                  1.99921    -9.97132  82(v),175(g),172(g),177(v)
    16. CR (   1) O   3                  1.99975   -18.64084  45(v),175(v)
    17. CR (   1) C   4                  1.99910    -9.86368  179(v),46(v),174(v),45(v)
    18. CR (   1) N   5                  1.99924   -13.96585  115(v),79(v),113(v),181(v)
                                                    182(v)
    19. CR (   1) C   6                  1.99934    -9.93445  177(v),97(v)
    20. CR (   1) N   7                  1.99953   -14.00982  116(v),117(v),152(v),150(v)
    21. LP (   1) O   1                  1.98173    -0.44275  175(v),46(v),162(v),48(v)
                                                    174(v)
    22. LP (   2) O   1                  1.88761    -0.13724  176(v),163(v),50(v)
    23. LP (   1) O   3                  1.98002    -0.49584  45(v),175(v),172(v),60(v)
                                                    64(g)
    24. LP (   2) O   3                  1.85186    -0.05752  172(v),175(v),46(v),48(v)
                                                    59(v)
    25. LP (   3) O   3                  1.60399    -0.05217  176(v),47(v),63(g)
    26. LP (   1) N   5                  1.86760    -0.17067  182(v),178(v),181(v),173(r)
                                                    113(v),175(v),79(v),115(v)
                                                    116(v),118(v)
    27. LP (   1) N   7                  1.92721    -0.19606  180(v),179(v),116(v),153(v)
                                                    148(v),182(v),147(v)
    28. RY*(   1) O   1                  0.00314     0.61941   
    29. RY*(   2) O   1                  0.00136     0.68582   
    30. RY*(   3) O   1                  0.00120     1.16831   
    31. RY*(   4) O   1                  0.00060     1.14612   
    32. RY*(   5) O   1                  0.00013     2.33730   
    33. RY*(   6) O   1                  0.00006     2.17261   
    34. RY*(   7) O   1                  0.00004     2.13226   
    35. RY*(   8) O   1                  0.00002     2.16179   
    36. RY*(   9) O   1                  0.00000     4.59703   
    37. RY*(  10) O   1                  0.00000    49.91090   
    38. RY*(  11) O   1                  0.00000     5.14138   
    39. RY*(  12) O   1                  0.00000     5.08402   
    40. RY*(  13) O   1                  0.00001     2.25391   
    41. RY*(  14) O   1                  0.00000     2.08926   
    42. RY*(  15) O   1                  0.00000     2.93026   
    43. RY*(  16) O   1                  0.00000     3.05773   
    44. RY*(  17) O   1                  0.00000     3.20349   
    45. RY*(   1) C   2                  0.01480     1.23548   
    46. RY*(   2) C   2                  0.01254     1.64719   
    47. RY*(   3) C   2                  0.00566     1.78555   
    48. RY*(   4) C   2                  0.00385     1.95492   
    49. RY*(   5) C   2                  0.00213     1.86473   
    50. RY*(   6) C   2                  0.00203     1.72388   
    51. RY*(   7) C   2                  0.00077     1.68566   
    52. RY*(   8) C   2                  0.00020     0.77023   
    53. RY*(   9) C   2                  0.00012     5.29579   
    54. RY*(  10) C   2                  0.00004     7.23935   
    55. RY*(  11) C   2                  0.00005     2.52428   
    56. RY*(  12) C   2                  0.00000     2.85245   
    57. RY*(  13) C   2                  0.00001     2.91306   
    58. RY*(  14) C   2                  0.00001     7.15411   
    59. RY*(  15) C   2                  0.00000     1.68106   
    60. RY*(  16) C   2                  0.00001     6.24959   
    61. RY*(  17) C   2                  0.00000     0.38558   
    62. RY*(   1) O   3                  0.00333     0.83521   
    63. RY*(   2) O   3                  0.00172     0.82457   
    64. RY*(   3) O   3                  0.00067     1.04694   
    65. RY*(   4) O   3                  0.00016     2.99826   
    66. RY*(   5) O   3                  0.00008     2.85573   
    67. RY*(   6) O   3                  0.00004     2.00757   
    68. RY*(   7) O   3                  0.00001     2.94719   
    69. RY*(   8) O   3                  0.00002     1.35702   
    70. RY*(   9) O   3                  0.00002     1.53867   
    71. RY*(  10) O   3                  0.00001     3.63881   
    72. RY*(  11) O   3                  0.00000     4.87500   
    73. RY*(  12) O   3                  0.00000     5.18992   
    74. RY*(  13) O   3                  0.00000     3.35971   
    75. RY*(  14) O   3                  0.00000     2.61213   
    76. RY*(  15) O   3                  0.00000     2.54422   
    77. RY*(  16) O   3                  0.00000    49.34775   
    78. RY*(  17) O   3                  0.00000     3.01240   
    79. RY*(   1) C   4                  0.00423     1.21916   
    80. RY*(   2) C   4                  0.00408     0.80239   
    81. RY*(   3) C   4                  0.00294     1.62782   
    82. RY*(   4) C   4                  0.00182     0.94800   
    83. RY*(   5) C   4                  0.00076     2.22784   
    84. RY*(   6) C   4                  0.00044     1.70998   
    85. RY*(   7) C   4                  0.00029     1.00552   
    86. RY*(   8) C   4                  0.00013     1.36723   
    87. RY*(   9) C   4                  0.00011     2.48000   
    88. RY*(  10) C   4                  0.00008     2.40902   
    89. RY*(  11) C   4                  0.00004     2.05152   
    90. RY*(  12) C   4                  0.00000     2.65491   
    91. RY*(  13) C   4                  0.00001     2.67656   
    92. RY*(  14) C   4                  0.00000    21.15548   
    93. RY*(  15) C   4                  0.00000     1.44816   
    94. RY*(  16) C   4                  0.00001     1.97079   
    95. RY*(  17) C   4                  0.00001     2.19076   
    96. RY*(   1) N   5                  0.00824     0.66974   
    97. RY*(   2) N   5                  0.00180     1.54045   
    98. RY*(   3) N   5                  0.00144     0.85229   
    99. RY*(   4) N   5                  0.00127     1.35320   
   100. RY*(   5) N   5                  0.00106     1.90557   
   101. RY*(   6) N   5                  0.00043     1.59279   
   102. RY*(   7) N   5                  0.00030     0.90614   
   103. RY*(   8) N   5                  0.00017     1.70121   
   104. RY*(   9) N   5                  0.00008     2.37859   
   105. RY*(  10) N   5                  0.00006     2.08833   
   106. RY*(  11) N   5                  0.00001     3.59013   
   107. RY*(  12) N   5                  0.00001     2.70071   
   108. RY*(  13) N   5                  0.00001     4.14010   
   109. RY*(  14) N   5                  0.00000    35.33205   
   110. RY*(  15) N   5                  0.00000     2.20189   
   111. RY*(  16) N   5                  0.00000     4.01411   
   112. RY*(  17) N   5                  0.00001     2.66984   
   113. RY*(   1) C   6                  0.01284     0.82494   
   114. RY*(   2) C   6                  0.00503     0.64753   
   115. RY*(   3) C   6                  0.00375     1.25623   
   116. RY*(   4) C   6                  0.00286     1.59546   
   117. RY*(   5) C   6                  0.00155     1.43334   
   118. RY*(   6) C   6                  0.00062     1.67828   
   119. RY*(   7) C   6                  0.00024     1.68963   
   120. RY*(   8) C   6                  0.00012     2.53171   
   121. RY*(   9) C   6                  0.00002     1.32175   
   122. RY*(  10) C   6                  0.00003     3.68008   
   123. RY*(  11) C   6                  0.00000     0.75341   
   124. RY*(  12) C   6                  0.00000     2.54079   
   125. RY*(  13) C   6                  0.00001     0.93144   
   126. RY*(  14) C   6                  0.00001     3.10721   
   127. RY*(  15) C   6                  0.00001     1.66251   
   128. RY*(  16) C   6                  0.00000    20.45509   
   129. RY*(  17) C   6                  0.00001     2.18018   
   130. RY*(   1) N   7                  0.00351     0.67895   
   131. RY*(   2) N   7                  0.00104     1.10291   
   132. RY*(   3) N   7                  0.00046     0.51368   
   133. RY*(   4) N   7                  0.00021     1.27685   
   134. RY*(   5) N   7                  0.00008     2.44232   
   135. RY*(   6) N   7                  0.00004     1.87073   
   136. RY*(   7) N   7                  0.00003     1.21031   
   137. RY*(   8) N   7                  0.00000    35.37275   
   138. RY*(   9) N   7                  0.00000     3.47820   
   139. RY*(  10) N   7                  0.00000     3.54828   
   140. RY*(  11) N   7                  0.00001     1.74885   
   141. RY*(  12) N   7                  0.00000     3.70018   
   142. RY*(  13) N   7                  0.00001     0.68244   
   143. RY*(  14) N   7                  0.00000     2.47508   
   144. RY*(  15) N   7                  0.00000     2.13844   
   145. RY*(  16) N   7                  0.00000     2.59126   
   146. RY*(  17) N   7                  0.00000     2.70167   
   147. RY*(   1) H   8                  0.00182     0.88954   
   148. RY*(   2) H   8                  0.00103     1.94255   
   149. RY*(   3) H   8                  0.00034     1.60780   
   150. RY*(   4) H   8                  0.00011     2.27769   
   151. RY*(   5) H   8                  0.00002     2.63759   
   152. RY*(   1) H   9                  0.00217     1.12955   
   153. RY*(   2) H   9                  0.00086     1.94138   
   154. RY*(   3) H   9                  0.00036     1.77981   
   155. RY*(   4) H   9                  0.00013     1.99397   
   156. RY*(   5) H   9                  0.00001     2.59239   
   157. RY*(   1) H  10                  0.00358     0.51464   
   158. RY*(   2) H  10                  0.00033     2.31344   
   159. RY*(   3) H  10                  0.00030     2.04847   
   160. RY*(   4) H  10                  0.00006     2.81021   
   161. RY*(   5) H  10                  0.00007     2.16288   
   162. RY*(   1) H  11                  0.00217     1.88537   
   163. RY*(   2) H  11                  0.00136     1.69292   
   164. RY*(   3) H  11                  0.00090     2.01973   
   165. RY*(   4) H  11                  0.00030     1.65443   
   166. RY*(   5) H  11                  0.00004     2.54662   
   167. RY*(   1) H  12                  0.00418     0.48892   
   168. RY*(   2) H  12                  0.00032     2.04020   
   169. RY*(   3) H  12                  0.00022     2.07952   
   170. RY*(   4) H  12                  0.00008     2.30830   
   171. RY*(   5) H  12                  0.00005     2.61332   
   172. BD*(   1) O   1 - C   2          0.10858     0.49682  178(v),177(v),31(g),46(g)
                                                    51(g),157(r)
   173. BD*(   1) O   1 - H  11          0.02459     0.59101   
   174. BD*(   1) C   2 - O   3          0.01540     0.78610   
   175. BD*(   1) C   2 - C   4          0.05019     0.71590   
   176. BD*(   2) C   2 - C   4          0.45750     0.19370  180(v),52(g),63(v),84(g)
                                                    80(g),29(v),50(g)
   177. BD*(   1) C   4 - N   5          0.01580     0.67992   
   178. BD*(   1) C   4 - H  10          0.02927     0.59156   
   179. BD*(   1) N   5 - C   6          0.01825     0.79915   
   180. BD*(   2) N   5 - C   6          0.37500     0.17084  176(v),114(g),98(g),183(v)
                                                    117(g),80(v),179(g)
   181. BD*(   1) C   6 - N   7          0.03038     0.52875   
   182. BD*(   1) C   6 - H  12          0.04732     0.52900   
   183. BD*(   1) N   7 - H   8          0.01621     0.53572   
   184. BD*(   1) N   7 - H   9          0.01037     0.55020   
       -------------------------------
              Total Lewis   52.66310  ( 97.5243%)
        Valence non-Lewis    1.19885  (  2.2201%)
        Rydberg non-Lewis    0.13805  (  0.2556%)
       -------------------------------
            Total unit  1   54.00000  (100.0000%)
           Charge unit  1   -1.00000
 Leave Link  607 at Tue Oct 25 05:14:18 2022, MaxMem=  8053063680 cpu:              52.4 elap:               1.7
 (Enter /public3/home/scg5914/software-scg5914/g16/l9999.exe)
 Unable to Open any file for archive entry.
 1\1\GINC-G0307\SP\RB3LYP\Gen\C3H5N2O2(1-)\SCG5914\25-Oct-2022\0\\#p b3
 lyp/chkbas pop=nbo geom=allcheck guess=tcheck em=gd3bj\\dsgdb9nsd_0012
 32-4\\-1,1\O,0,-0.1745556941,-0.0976086179,-0.039568372\C,0,-0.1603449
 836,1.2883519905,0.1799640466\O,0,0.940997298,1.8354639609,0.303416195
 \C,0,-1.4390766067,1.8875783377,0.2317039782\N,0,-2.5558806132,1.11442
 19512,0.0809583697\C,0,-3.7695955337,1.5248107005,0.1141350737\N,0,-4.
 8702141527,0.6494683991,-0.1890885311\H,0,-5.4994273502,0.5462845485,0
 .6057670345\H,0,-4.4899644122,-0.2691614512,-0.40026129\H,0,-1.5040944
 287,2.9633141174,0.3886873875\H,0,-1.1214804679,-0.3119081606,-0.10595
 84211\H,0,-4.0572606313,2.5683561634,0.2798765033\\Version=ES64L-G16Re
 vC.01\State=1-A\HF=-377.4448165\RMSD=9.572e-09\Dipole=-2.4533829,-0.51
 80454,0.2723103\Quadrupole=-14.6098902,7.5408033,7.0690868,-0.3445624,
 -4.5104451,-0.164678\PG=C01 [X(C3H5N2O2)]\\@
 The archive entry for this job was punched.


 SCIENCE AND PEACE WILL TRIUMPH OVER IGNORANCE AND WAR

                          -- PASTEUR
 Job cpu time:       0 days  0 hours  1 minutes 36.1 seconds.
 Elapsed time:       0 days  0 hours  0 minutes  3.3 seconds.
 File lengths (MBytes):  RWF=     16 Int=      0 D2E=      0 Chk=      4 Scr=      1
 Normal termination of Gaussian 16 at Tue Oct 25 05:14:18 2022.
