 Entering Gaussian System, Link 0=/public3/home/scg5914/software-scg5914/g16/g16
 Input=dsgdb9nsd_000696-4.gjf
 Output=dsgdb9nsd_000696-4.log
 Initial command:
 /public3/home/scg5914/software-scg5914/g16/l1.exe "/public3/home/scg5914/software-scg5914/test/tmp/dsgdb9nsd_000696-4/Gau-43242.inp" -scrdir="/public3/home/scg5914/software-scg5914/test/tmp/dsgdb9nsd_000696-4/"
 Entering Link 1 = /public3/home/scg5914/software-scg5914/g16/l1.exe PID=     43243.
  
 Copyright (c) 1988-2019, Gaussian, Inc.  All Rights Reserved.
  
 This is part of the Gaussian(R) 16 program.  It is based on
 the Gaussian(R) 09 system (copyright 2009, Gaussian, Inc.),
 the Gaussian(R) 03 system (copyright 2003, Gaussian, Inc.),
 the Gaussian(R) 98 system (copyright 1998, Gaussian, Inc.),
 the Gaussian(R) 94 system (copyright 1995, Gaussian, Inc.),
 the Gaussian 92(TM) system (copyright 1992, Gaussian, Inc.),
 the Gaussian 90(TM) system (copyright 1990, Gaussian, Inc.),
 the Gaussian 88(TM) system (copyright 1988, Gaussian, Inc.),
 the Gaussian 86(TM) system (copyright 1986, Carnegie Mellon
 University), and the Gaussian 82(TM) system (copyright 1983,
 Carnegie Mellon University). Gaussian is a federally registered
 trademark of Gaussian, Inc.
  
 This software contains proprietary and confidential information,
 including trade secrets, belonging to Gaussian, Inc.
  
 This software is provided under written license and may be
 used, copied, transmitted, or stored only in accord with that
 written license.
  
 The following legend is applicable only to US Government
 contracts under FAR:
  
                    RESTRICTED RIGHTS LEGEND
  
 Use, reproduction and disclosure by the US Government is
 subject to restrictions as set forth in subparagraphs (a)
 and (c) of the Commercial Computer Software - Restricted
 Rights clause in FAR 52.227-19.
  
 Gaussian, Inc.
 340 Quinnipiac St., Bldg. 40, Wallingford CT 06492
  
  
 ---------------------------------------------------------------
 Warning -- This program may not be used in any manner that
 competes with the business of Gaussian, Inc. or will provide
 assistance to any competitor of Gaussian, Inc.  The licensee
 of this program is prohibited from giving any competitor of
 Gaussian, Inc. access to this program.  By using this program,
 the user acknowledges that Gaussian, Inc. is engaged in the
 business of creating and licensing software in the field of
 computational chemistry and represents and warrants to the
 licensee that it is not a competitor of Gaussian, Inc. and that
 it will not use this program in any manner prohibited above.
 ---------------------------------------------------------------
  

 Cite this work as:
 Gaussian 16, Revision C.01,
 M. J. Frisch, G. W. Trucks, H. B. Schlegel, G. E. Scuseria, 
 M. A. Robb, J. R. Cheeseman, G. Scalmani, V. Barone, 
 G. A. Petersson, H. Nakatsuji, X. Li, M. Caricato, A. V. Marenich, 
 J. Bloino, B. G. Janesko, R. Gomperts, B. Mennucci, H. P. Hratchian, 
 J. V. Ortiz, A. F. Izmaylov, J. L. Sonnenberg, D. Williams-Young, 
 F. Ding, F. Lipparini, F. Egidi, J. Goings, B. Peng, A. Petrone, 
 T. Henderson, D. Ranasinghe, V. G. Zakrzewski, J. Gao, N. Rega, 
 G. Zheng, W. Liang, M. Hada, M. Ehara, K. Toyota, R. Fukuda, 
 J. Hasegawa, M. Ishida, T. Nakajima, Y. Honda, O. Kitao, H. Nakai, 
 T. Vreven, K. Throssell, J. A. Montgomery, Jr., J. E. Peralta, 
 F. Ogliaro, M. J. Bearpark, J. J. Heyd, E. N. Brothers, K. N. Kudin, 
 V. N. Staroverov, T. A. Keith, R. Kobayashi, J. Normand, 
 K. Raghavachari, A. P. Rendell, J. C. Burant, S. S. Iyengar, 
 J. Tomasi, M. Cossi, J. M. Millam, M. Klene, C. Adamo, R. Cammi, 
 J. W. Ochterski, R. L. Martin, K. Morokuma, O. Farkas, 
 J. B. Foresman, and D. J. Fox, Gaussian, Inc., Wallingford CT, 2019.
 
 ******************************************
 Gaussian 16:  ES64L-G16RevC.01  3-Jul-2019
                25-Aug-2022 
 ******************************************
 %chk=dsgdb9nsd_000696-4.chk
 %mem=60GB
 %nprocshared=32
 Will use up to   32 processors via shared memory.
 ------------------------------------
 #p opt freq b3lyp/6-311+g** em=gd3bj
 ------------------------------------
 1/18=20,19=15,26=3,38=1/1,3;
 2/9=110,12=2,17=6,18=5,40=1/2;
 3/5=4,6=6,7=111,11=2,25=1,30=1,71=1,74=-5,124=41/1,2,3;
 4//1;
 5/5=2,38=5/2;
 6/7=2,8=2,9=2,10=2,28=1/1;
 7//1,2,3,16;
 1/18=20,19=15,26=3/3(2);
 2/9=110/2;
 99//99;
 2/9=110/2;
 3/5=4,6=6,7=111,11=2,25=1,30=1,71=1,74=-5,124=41/1,2,3;
 4/5=5,16=3,69=1/1;
 5/5=2,38=5/2;
 7//1,2,3,16;
 1/18=20,19=15,26=3/3(-5);
 2/9=110/2;
 6/7=2,8=2,9=2,10=2,19=2,28=1/1;
 99/9=1/99;
 Leave Link    1 at Thu Aug 25 05:18:37 2022, MaxMem=  8053063680 cpu:               0.9 elap:               0.0
 (Enter /public3/home/scg5914/software-scg5914/g16/l101.exe)
 ------------------
 dsgdb9nsd_000696-4
 ------------------
 Symbolic Z-matrix:
 Charge =  0 Multiplicity = 2
 C                    -0.09412   1.61298   0.01343 
 C                     1.40427   1.29754   0.03416 
 C                     1.2545    0.07709   0.99242 
 C                     2.00711  -0.78435  -0.01429 
 N                     1.21604   0.11552  -0.95946 
 C                     0.02231   0.08622   0.03754 
 H                    -0.51254   2.09283   0.9017 
 H                    -0.48191   2.05281  -0.90909 
 H                     2.26426   1.96298  -0.06379 
 H                     3.09176  -0.65732  -0.09822 
 H                     1.7388   -1.84321  -0.09491 
 H                    -0.75036  -0.67937  -0.05641 
 
 ITRead=  0  0  0  0  0  0  0  0  0  0  0  0
 MicOpt= -1 -1 -1 -1 -1 -1 -1 -1 -1 -1 -1 -1
 NAtoms=     12 NQM=       12 NQMF=       0 NMMI=      0 NMMIF=      0
                NMic=       0 NMicF=      0.
                    Isotopes and Nuclear Properties:
 (Nuclear quadrupole moments (NQMom) in fm**2, nuclear magnetic moments (NMagM)
  in nuclear magnetons)

  Atom         1           2           3           4           5           6           7           8           9          10
 IAtWgt=          12          12          12          12          14          12           1           1           1           1
 AtmWgt=  12.0000000  12.0000000  12.0000000  12.0000000  14.0030740  12.0000000   1.0078250   1.0078250   1.0078250   1.0078250
 NucSpn=           0           0           0           0           2           0           1           1           1           1
 AtZEff=  -0.0000000  -0.0000000  -0.0000000  -0.0000000  -0.0000000  -0.0000000  -0.0000000  -0.0000000  -0.0000000  -0.0000000
 NQMom=    0.0000000   0.0000000   0.0000000   0.0000000   2.0440000   0.0000000   0.0000000   0.0000000   0.0000000   0.0000000
 NMagM=    0.0000000   0.0000000   0.0000000   0.0000000   0.4037610   0.0000000   2.7928460   2.7928460   2.7928460   2.7928460
 AtZNuc=   6.0000000   6.0000000   6.0000000   6.0000000   7.0000000   6.0000000   1.0000000   1.0000000   1.0000000   1.0000000

  Atom        11          12
 IAtWgt=           1           1
 AtmWgt=   1.0078250   1.0078250
 NucSpn=           1           1
 AtZEff=  -0.0000000  -0.0000000
 NQMom=    0.0000000   0.0000000
 NMagM=    2.7928460   2.7928460
 AtZNuc=   1.0000000   1.0000000
 Leave Link  101 at Thu Aug 25 05:18:37 2022, MaxMem=  8053063680 cpu:               4.2 elap:               0.1
 (Enter /public3/home/scg5914/software-scg5914/g16/l103.exe)

 GradGradGradGradGradGradGradGradGradGradGradGradGradGradGradGradGradGrad
 Berny optimization.
 Initialization pass.
                           ----------------------------
                           !    Initial Parameters    !
                           ! (Angstroms and Degrees)  !
 --------------------------                            --------------------------
 ! Name  Definition              Value          Derivative Info.                !
 --------------------------------------------------------------------------------
 ! R1    R(1,2)                  1.5314         estimate D2E/DX2                !
 ! R2    R(1,6)                  1.5314         estimate D2E/DX2                !
 ! R3    R(1,7)                  1.0929         estimate D2E/DX2                !
 ! R4    R(1,8)                  1.0931         estimate D2E/DX2                !
 ! R5    R(2,3)                  1.5589         estimate D2E/DX2                !
 ! R6    R(2,5)                  1.5556         estimate D2E/DX2                !
 ! R7    R(2,9)                  1.0918         estimate D2E/DX2                !
 ! R8    R(3,4)                  1.5238         estimate D2E/DX2                !
 ! R9    R(3,6)                  1.5589         estimate D2E/DX2                !
 ! R10   R(4,5)                  1.5261         estimate D2E/DX2                !
 ! R11   R(4,10)                 1.0953         estimate D2E/DX2                !
 ! R12   R(4,11)                 1.0953         estimate D2E/DX2                !
 ! R13   R(5,6)                  1.5556         estimate D2E/DX2                !
 ! R14   R(6,12)                 1.0918         estimate D2E/DX2                !
 ! A1    A(2,1,6)               73.742          estimate D2E/DX2                !
 ! A2    A(2,1,7)              117.0041         estimate D2E/DX2                !
 ! A3    A(2,1,8)              116.1948         estimate D2E/DX2                !
 ! A4    A(6,1,7)              117.0041         estimate D2E/DX2                !
 ! A5    A(6,1,8)              116.1947         estimate D2E/DX2                !
 ! A6    A(7,1,8)              111.9289         estimate D2E/DX2                !
 ! A7    A(1,2,3)               94.3345         estimate D2E/DX2                !
 ! A8    A(1,2,5)               91.6886         estimate D2E/DX2                !
 ! A9    A(1,2,9)              130.088          estimate D2E/DX2                !
 ! A10   A(3,2,5)               77.651          estimate D2E/DX2                !
 ! A11   A(3,2,9)              127.4448         estimate D2E/DX2                !
 ! A12   A(5,2,9)              120.0755         estimate D2E/DX2                !
 ! A13   A(2,3,4)               89.3716         estimate D2E/DX2                !
 ! A14   A(2,3,6)               72.2317         estimate D2E/DX2                !
 ! A15   A(4,3,6)               89.3715         estimate D2E/DX2                !
 ! A16   A(3,4,5)               79.6185         estimate D2E/DX2                !
 ! A17   A(3,4,10)             118.3048         estimate D2E/DX2                !
 ! A18   A(3,4,11)             118.3048         estimate D2E/DX2                !
 ! A19   A(5,4,10)             113.4209         estimate D2E/DX2                !
 ! A20   A(5,4,11)             113.4209         estimate D2E/DX2                !
 ! A21   A(10,4,11)            110.4304         estimate D2E/DX2                !
 ! A22   A(2,5,4)               89.4115         estimate D2E/DX2                !
 ! A23   A(2,5,6)               72.4097         estimate D2E/DX2                !
 ! A24   A(4,5,6)               89.4115         estimate D2E/DX2                !
 ! A25   A(1,6,3)               94.3345         estimate D2E/DX2                !
 ! A26   A(1,6,5)               91.6887         estimate D2E/DX2                !
 ! A27   A(1,6,12)             130.0878         estimate D2E/DX2                !
 ! A28   A(3,6,5)               77.651          estimate D2E/DX2                !
 ! A29   A(3,6,12)             127.445          estimate D2E/DX2                !
 ! A30   A(5,6,12)             120.0756         estimate D2E/DX2                !
 ! D1    D(6,1,2,3)            -37.274          estimate D2E/DX2                !
 ! D2    D(6,1,2,5)             40.4665         estimate D2E/DX2                !
 ! D3    D(6,1,2,9)            173.3208         estimate D2E/DX2                !
 ! D4    D(7,1,2,3)             75.1977         estimate D2E/DX2                !
 ! D5    D(7,1,2,5)            152.9382         estimate D2E/DX2                !
 ! D6    D(7,1,2,9)            -74.2074         estimate D2E/DX2                !
 ! D7    D(8,1,2,3)           -148.9265         estimate D2E/DX2                !
 ! D8    D(8,1,2,5)            -71.1859         estimate D2E/DX2                !
 ! D9    D(8,1,2,9)             61.6684         estimate D2E/DX2                !
 ! D10   D(2,1,6,3)             37.274          estimate D2E/DX2                !
 ! D11   D(2,1,6,5)            -40.4666         estimate D2E/DX2                !
 ! D12   D(2,1,6,12)          -173.3209         estimate D2E/DX2                !
 ! D13   D(7,1,6,3)            -75.1977         estimate D2E/DX2                !
 ! D14   D(7,1,6,5)           -152.9383         estimate D2E/DX2                !
 ! D15   D(7,1,6,12)            74.2074         estimate D2E/DX2                !
 ! D16   D(8,1,6,3)            148.9265         estimate D2E/DX2                !
 ! D17   D(8,1,6,5)             71.1859         estimate D2E/DX2                !
 ! D18   D(8,1,6,12)           -61.6685         estimate D2E/DX2                !
 ! D19   D(1,2,3,4)            126.3935         estimate D2E/DX2                !
 ! D20   D(1,2,3,6)             36.8521         estimate D2E/DX2                !
 ! D21   D(5,2,3,4)             35.6109         estimate D2E/DX2                !
 ! D22   D(5,2,3,6)            -53.9305         estimate D2E/DX2                !
 ! D23   D(9,2,3,4)            -82.9766         estimate D2E/DX2                !
 ! D24   D(9,2,3,6)           -172.518          estimate D2E/DX2                !
 ! D25   D(1,2,5,4)           -129.6177         estimate D2E/DX2                !
 ! D26   D(1,2,5,6)            -40.0485         estimate D2E/DX2                !
 ! D27   D(3,2,5,4)            -35.5492         estimate D2E/DX2                !
 ! D28   D(3,2,5,6)             54.0199         estimate D2E/DX2                !
 ! D29   D(9,2,5,4)             90.7815         estimate D2E/DX2                !
 ! D30   D(9,2,5,6)           -179.6493         estimate D2E/DX2                !
 ! D31   D(2,3,4,5)            -36.1184         estimate D2E/DX2                !
 ! D32   D(2,3,4,10)            75.0009         estimate D2E/DX2                !
 ! D33   D(2,3,4,11)          -147.2376         estimate D2E/DX2                !
 ! D34   D(6,3,4,5)             36.1184         estimate D2E/DX2                !
 ! D35   D(6,3,4,10)           147.2377         estimate D2E/DX2                !
 ! D36   D(6,3,4,11)           -75.0009         estimate D2E/DX2                !
 ! D37   D(2,3,6,1)            -36.8521         estimate D2E/DX2                !
 ! D38   D(2,3,6,5)             53.9305         estimate D2E/DX2                !
 ! D39   D(2,3,6,12)           172.5182         estimate D2E/DX2                !
 ! D40   D(4,3,6,1)           -126.3936         estimate D2E/DX2                !
 ! D41   D(4,3,6,5)            -35.611          estimate D2E/DX2                !
 ! D42   D(4,3,6,12)            82.9767         estimate D2E/DX2                !
 ! D43   D(3,4,5,2)             36.207          estimate D2E/DX2                !
 ! D44   D(3,4,5,6)            -36.2071         estimate D2E/DX2                !
 ! D45   D(10,4,5,2)           -80.279          estimate D2E/DX2                !
 ! D46   D(10,4,5,6)          -152.693          estimate D2E/DX2                !
 ! D47   D(11,4,5,2)           152.693          estimate D2E/DX2                !
 ! D48   D(11,4,5,6)            80.2789         estimate D2E/DX2                !
 ! D49   D(2,5,6,1)             40.0485         estimate D2E/DX2                !
 ! D50   D(2,5,6,3)            -54.0199         estimate D2E/DX2                !
 ! D51   D(2,5,6,12)           179.6492         estimate D2E/DX2                !
 ! D52   D(4,5,6,1)            129.6177         estimate D2E/DX2                !
 ! D53   D(4,5,6,3)             35.5493         estimate D2E/DX2                !
 ! D54   D(4,5,6,12)           -90.7816         estimate D2E/DX2                !
 --------------------------------------------------------------------------------
 Trust Radius=3.00D-01 FncErr=1.00D-07 GrdErr=1.00D-06 EigMax=2.50D+02 EigMin=1.00D-04
 Number of steps in this run=    100 maximum allowed number of steps=    100.
 GradGradGradGradGradGradGradGradGradGradGradGradGradGradGradGradGradGrad

 Leave Link  103 at Thu Aug 25 05:18:37 2022, MaxMem=  8053063680 cpu:               0.8 elap:               0.0
 (Enter /public3/home/scg5914/software-scg5914/g16/l202.exe)
                          Input orientation:                          
 ---------------------------------------------------------------------
 Center     Atomic      Atomic             Coordinates (Angstroms)
 Number     Number       Type             X           Y           Z
 ---------------------------------------------------------------------
      1          6           0       -0.094120    1.612976    0.013425
      2          6           0        1.404273    1.297540    0.034157
      3          6           0        1.254505    0.077094    0.992417
      4          6           0        2.007109   -0.784353   -0.014289
      5          7           0        1.216036    0.115524   -0.959464
      6          6           0        0.022305    0.086223    0.037543
      7          1           0       -0.512540    2.092826    0.901702
      8          1           0       -0.481905    2.052813   -0.909089
      9          1           0        2.264256    1.962985   -0.063793
     10          1           0        3.091762   -0.657318   -0.098222
     11          1           0        1.738804   -1.843205   -0.094905
     12          1           0       -0.750363   -0.679374   -0.056405
 ---------------------------------------------------------------------
                    Distance matrix (angstroms):
                    1          2          3          4          5
     1  C    0.000000
     2  C    1.531376   0.000000
     3  C    2.266307   1.558903   0.000000
     4  C    3.187965   2.167957   1.523799   0.000000
     5  N    2.214811   1.555596   1.952638   1.526083   0.000000
     6  C    1.531376   1.837698   1.558904   2.167957   1.555595
     7  H    1.092870   2.249285   2.682135   3.932662   3.218949
     8  H    1.093099   2.240048   3.245660   3.878836   2.576554
     9  H    2.385458   1.091779   2.385741   2.759790   2.305234
    10  H    3.913636   2.585849   2.259285   1.095287   2.203944
    11  H    3.913635   3.161147   2.259285   1.095287   2.203944
    12  H    2.385456   2.925551   2.385743   2.759791   2.305234
                    6          7          8          9         10
     6  C    0.000000
     7  H    2.249285   0.000000
     8  H    2.240048   1.811492   0.000000
     9  H    2.925551   2.942725   2.874717   0.000000
    10  H    3.161147   4.642642   4.557785   2.748078   0.000000
    11  H    2.585847   4.642641   4.557784   3.842415   1.799121
    12  H    1.091779   2.942724   2.874715   4.008746   3.842416
                   11         12
    11  H    0.000000
    12  H    2.748079   0.000000
 Stoichiometry    C5H6N(2)
 Framework group  C1[X(C5H6N)]
 Deg. of freedom    30
 Full point group                 C1      NOp   1
 Largest Abelian subgroup         C1      NOp   1
 Largest concise Abelian subgroup C1      NOp   1
                         Standard orientation:                         
 ---------------------------------------------------------------------
 Center     Atomic      Atomic             Coordinates (Angstroms)
 Number     Number       Type             X           Y           Z
 ---------------------------------------------------------------------
      1          6           0       -1.604699   -0.000000   -0.003896
      2          6           0       -0.380531    0.918849    0.043415
      3          6           0        0.418931    0.000003    1.016431
      4          6           0        1.583050   -0.000000    0.033176
      5          7           0        0.404351   -0.000002   -0.936153
      6          6           0       -0.380530   -0.918849    0.043417
      7          1           0       -2.259272    0.000001    0.871261
      8          1           0       -2.172202   -0.000002   -0.938137
      9          1           0       -0.312159    2.004373   -0.051167
     10          1           0        2.204011    0.899560   -0.036496
     11          1           0        2.204010   -0.899561   -0.036492
     12          1           0       -0.312161   -2.004373   -0.051160
 ---------------------------------------------------------------------
 Rotational constants (GHZ):           8.9639145           4.3902535           4.2569646
 Leave Link  202 at Thu Aug 25 05:18:37 2022, MaxMem=  8053063680 cpu:               0.2 elap:               0.0
 (Enter /public3/home/scg5914/software-scg5914/g16/l301.exe)
 Standard basis: 6-311+G(d,p) (5D, 7F)
 Ernie: Thresh=  0.10000D-02 Tol=  0.10000D-05 Strict=F.
 There are   174 symmetry adapted cartesian basis functions of A   symmetry.
 There are   168 symmetry adapted basis functions of A   symmetry.
   168 basis functions,   264 primitive gaussians,   174 cartesian basis functions
    22 alpha electrons       21 beta electrons
       nuclear repulsion energy       225.9943284364 Hartrees.
 IExCor=  402 DFT=T Ex+Corr=B3LYP ExCW=0 ScaHFX=  0.200000
 ScaDFX=  0.800000  0.720000  1.000000  0.810000 ScalE2=  1.000000  1.000000
 IRadAn=      5 IRanWt=     -1 IRanGd=            0 ICorTp=0 IEmpDi=141
 NAtoms=   12 NActive=   12 NUniq=   12 SFac= 1.00D+00 NAtFMM=   60 NAOKFM=F Big=F
 Integral buffers will be    131072 words long.
 Raffenetti 2 integral format.
 Two-electron integral symmetry is turned on.
 R6Disp:  Grimme-D3(BJ) Dispersion energy=       -0.0164172025 Hartrees.
 Nuclear repulsion after empirical dispersion term =      225.9779112340 Hartrees.
 Leave Link  301 at Thu Aug 25 05:18:38 2022, MaxMem=  8053063680 cpu:               0.9 elap:               0.0
 (Enter /public3/home/scg5914/software-scg5914/g16/l302.exe)
 NPDir=0 NMtPBC=     1 NCelOv=     1 NCel=       1 NClECP=     1 NCelD=      1
         NCelK=      1 NCelE2=     1 NClLst=     1 CellRange=     0.0.
 One-electron integrals computed using PRISM.
 One-electron integral symmetry used in STVInt
 NBasis=   168 RedAO= T EigKep=  1.41D-05  NBF=   168
 NBsUse=   168 1.00D-06 EigRej= -1.00D+00 NBFU=   168
 Precomputing XC quadrature grid using
 IXCGrd= 4 IRadAn=           5 IRanWt=          -1 IRanGd=           0 AccXCQ= 0.00D+00.
 Generated NRdTot=       0 NPtTot=           0 NUsed=           0 NTot=          32
 NSgBfM=   174   174   174   174   174 MxSgAt=    12 MxSgA2=    12.
 Leave Link  302 at Thu Aug 25 05:18:38 2022, MaxMem=  8053063680 cpu:               3.4 elap:               0.1
 (Enter /public3/home/scg5914/software-scg5914/g16/l303.exe)
 DipDrv:  MaxL=1.
 Leave Link  303 at Thu Aug 25 05:18:38 2022, MaxMem=  8053063680 cpu:               0.4 elap:               0.0
 (Enter /public3/home/scg5914/software-scg5914/g16/l401.exe)
 ExpMin= 4.38D-02 ExpMax= 6.29D+03 ExpMxC= 9.49D+02 IAcc=3 IRadAn=         5 AccDes= 0.00D+00
 Harris functional with IExCor=  402 and IRadAn=       5 diagonalized for initial guess.
 HarFok:  IExCor=  402 AccDes= 0.00D+00 IRadAn=         5 IDoV= 1 UseB2=F ITyADJ=14
 ICtDFT=  3500011 ScaDFX=  1.000000  1.000000  1.000000  1.000000
 FoFCou: FMM=F IPFlag=           0 FMFlag=      100000 FMFlg1=           0
         NFxFlg=           0 DoJE=T BraDBF=F KetDBF=T FulRan=T
         wScrn=  0.000000 ICntrl=       500 IOpCl=  0 I1Cent=   200000004 NGrid=           0
         NMat0=    1 NMatS0=      1 NMatT0=    0 NMatD0=    1 NMtDS0=    0 NMtDT0=    0
 Petite list used in FoFCou.
 Harris En= -248.706340923677    
 JPrj=0 DoOrth=F DoCkMO=F.
 Initial guess <Sx>= 0.0000 <Sy>= 0.0000 <Sz>= 0.5000 <S**2>= 0.7500 S= 0.5000
 Leave Link  401 at Thu Aug 25 05:18:38 2022, MaxMem=  8053063680 cpu:               9.6 elap:               0.3
 (Enter /public3/home/scg5914/software-scg5914/g16/l502.exe)
 Keep R1 and R2 ints in memory in canonical form, NReq=233584488.
 FoFCou: FMM=F IPFlag=           0 FMFlag=           0 FMFlg1=           0
         NFxFlg=           0 DoJE=F BraDBF=F KetDBF=F FulRan=T
         wScrn=  0.000000 ICntrl=       600 IOpCl=  0 I1Cent=           0 NGrid=           0
         NMat0=    1 NMatS0=  14196 NMatT0=    0 NMatD0=    1 NMtDS0=    0 NMtDT0=    0
 Symmetry not used in FoFCou.
 Two-electron integral symmetry not used.
 UHF open shell SCF:
 Using DIIS extrapolation, IDIIS=  1040.
 NGot=  8053063680 LenX=  7851454862 LenY=  7851424145
 Requested convergence on RMS density matrix=1.00D-08 within 128 cycles.
 Requested convergence on MAX density matrix=1.00D-06.
 Requested convergence on             energy=1.00D-06.
 No special actions if energy rises.

 Cycle   1  Pass 1  IDiag  1:
 E= -248.640007550093    
 DIIS: error= 1.97D-02 at cycle   1 NSaved=   1.
 NSaved= 1 IEnMin= 1 EnMin= -248.640007550093     IErMin= 1 ErrMin= 1.97D-02
 ErrMax= 1.97D-02  0.00D+00 EMaxC= 1.00D-01 BMatC= 4.65D-01 BMatP= 4.65D-01
 IDIUse=3 WtCom= 8.03D-01 WtEn= 1.97D-01
 Coeff-Com:  0.100D+01
 Coeff-En:   0.100D+01
 Coeff:      0.100D+01
 Gap=     0.217 Goal=   None    Shift=    0.000
 Gap=     0.229 Goal=   None    Shift=    0.000
 GapD=    0.217 DampG=1.000 DampE=0.500 DampFc=0.5000 IDamp=-1.
 Damping current iteration by 5.00D-01
 RMSDP=1.10D-02 MaxDP=5.62D-01              OVMax= 1.72D-01

 Cycle   2  Pass 1  IDiag  1:
 E= -248.683280560262     Delta-E=       -0.043273010169 Rises=F Damp=T
 DIIS: error= 9.76D-03 at cycle   2 NSaved=   2.
 NSaved= 2 IEnMin= 2 EnMin= -248.683280560262     IErMin= 2 ErrMin= 9.76D-03
 ErrMax= 9.76D-03  0.00D+00 EMaxC= 1.00D-01 BMatC= 5.63D-02 BMatP= 4.65D-01
 IDIUse=3 WtCom= 9.02D-01 WtEn= 9.76D-02
 Coeff-Com:  0.108D+00 0.892D+00
 Coeff-En:   0.202D+00 0.798D+00
 Coeff:      0.118D+00 0.882D+00
 Gap=     0.218 Goal=   None    Shift=    0.000
 Gap=     0.237 Goal=   None    Shift=    0.000
 RMSDP=3.21D-03 MaxDP=2.02D-01 DE=-4.33D-02 OVMax= 1.39D-01

 Cycle   3  Pass 1  IDiag  1:
 E= -248.741030749300     Delta-E=       -0.057750189038 Rises=F Damp=F
 DIIS: error= 1.02D-02 at cycle   3 NSaved=   3.
 NSaved= 3 IEnMin= 3 EnMin= -248.741030749300     IErMin= 2 ErrMin= 9.76D-03
 ErrMax= 1.02D-02  0.00D+00 EMaxC= 1.00D-01 BMatC= 5.07D-02 BMatP= 5.63D-02
 IDIUse=3 WtCom= 8.98D-01 WtEn= 1.02D-01
 Coeff-Com: -0.189D-01 0.490D+00 0.529D+00
 Coeff-En:   0.000D+00 0.000D+00 0.100D+01
 Coeff:     -0.170D-01 0.440D+00 0.577D+00
 Gap=     0.219 Goal=   None    Shift=    0.000
 Gap=     0.239 Goal=   None    Shift=    0.000
 RMSDP=2.11D-03 MaxDP=7.54D-02 DE=-5.78D-02 OVMax= 9.29D-02

 Cycle   4  Pass 1  IDiag  1:
 E= -248.746437036438     Delta-E=       -0.005406287138 Rises=F Damp=F
 DIIS: error= 6.96D-03 at cycle   4 NSaved=   4.
 NSaved= 4 IEnMin= 4 EnMin= -248.746437036438     IErMin= 4 ErrMin= 6.96D-03
 ErrMax= 6.96D-03  0.00D+00 EMaxC= 1.00D-01 BMatC= 2.65D-02 BMatP= 5.07D-02
 IDIUse=3 WtCom= 9.30D-01 WtEn= 6.96D-02
 Coeff-Com: -0.263D-01 0.137D+00 0.429D+00 0.461D+00
 Coeff-En:   0.000D+00 0.000D+00 0.377D+00 0.623D+00
 Coeff:     -0.245D-01 0.127D+00 0.425D+00 0.472D+00
 Gap=     0.213 Goal=   None    Shift=    0.000
 Gap=     0.231 Goal=   None    Shift=    0.000
 RMSDP=7.95D-04 MaxDP=2.36D-02 DE=-5.41D-03 OVMax= 2.90D-02

 Cycle   5  Pass 1  IDiag  1:
 E= -248.752228610313     Delta-E=       -0.005791573875 Rises=F Damp=F
 DIIS: error= 7.10D-04 at cycle   5 NSaved=   5.
 NSaved= 5 IEnMin= 5 EnMin= -248.752228610313     IErMin= 5 ErrMin= 7.10D-04
 ErrMax= 7.10D-04  0.00D+00 EMaxC= 1.00D-01 BMatC= 2.96D-04 BMatP= 2.65D-02
 IDIUse=3 WtCom= 9.93D-01 WtEn= 7.10D-03
 Coeff-Com: -0.860D-02 0.205D-01 0.140D+00 0.178D+00 0.670D+00
 Coeff-En:   0.000D+00 0.000D+00 0.000D+00 0.000D+00 0.100D+01
 Coeff:     -0.854D-02 0.203D-01 0.139D+00 0.177D+00 0.672D+00
 Gap=     0.213 Goal=   None    Shift=    0.000
 Gap=     0.232 Goal=   None    Shift=    0.000
 RMSDP=1.55D-04 MaxDP=6.41D-03 DE=-5.79D-03 OVMax= 5.59D-03

 Cycle   6  Pass 1  IDiag  1:
 E= -248.752282919743     Delta-E=       -0.000054309431 Rises=F Damp=F
 DIIS: error= 4.79D-04 at cycle   6 NSaved=   6.
 NSaved= 6 IEnMin= 6 EnMin= -248.752282919743     IErMin= 6 ErrMin= 4.79D-04
 ErrMax= 4.79D-04  0.00D+00 EMaxC= 1.00D-01 BMatC= 1.01D-04 BMatP= 2.96D-04
 IDIUse=3 WtCom= 9.95D-01 WtEn= 4.79D-03
 Coeff-Com: -0.141D-02-0.521D-02 0.299D-01 0.387D-01 0.389D+00 0.549D+00
 Coeff-En:   0.000D+00 0.000D+00 0.000D+00 0.000D+00 0.178D+00 0.822D+00
 Coeff:     -0.141D-02-0.519D-02 0.297D-01 0.385D-01 0.388D+00 0.550D+00
 Gap=     0.213 Goal=   None    Shift=    0.000
 Gap=     0.232 Goal=   None    Shift=    0.000
 RMSDP=6.52D-05 MaxDP=3.06D-03 DE=-5.43D-05 OVMax= 1.37D-03

 Cycle   7  Pass 1  IDiag  1:
 E= -248.752307773079     Delta-E=       -0.000024853335 Rises=F Damp=F
 DIIS: error= 1.60D-04 at cycle   7 NSaved=   7.
 NSaved= 7 IEnMin= 7 EnMin= -248.752307773079     IErMin= 7 ErrMin= 1.60D-04
 ErrMax= 1.60D-04  0.00D+00 EMaxC= 1.00D-01 BMatC= 4.76D-06 BMatP= 1.01D-04
 IDIUse=3 WtCom= 9.98D-01 WtEn= 1.60D-03
 Coeff-Com:  0.158D-02-0.434D-02-0.157D-01-0.275D-01-0.523D-01 0.531D-01
 Coeff-Com:  0.105D+01
 Coeff-En:   0.000D+00 0.000D+00 0.000D+00 0.000D+00 0.000D+00 0.000D+00
 Coeff-En:   0.100D+01
 Coeff:      0.158D-02-0.433D-02-0.157D-01-0.275D-01-0.522D-01 0.531D-01
 Coeff:      0.105D+01
 Gap=     0.213 Goal=   None    Shift=    0.000
 Gap=     0.233 Goal=   None    Shift=    0.000
 RMSDP=3.68D-05 MaxDP=2.06D-03 DE=-2.49D-05 OVMax= 1.42D-03

 Cycle   8  Pass 1  IDiag  1:
 E= -248.752310010991     Delta-E=       -0.000002237913 Rises=F Damp=F
 DIIS: error= 7.42D-05 at cycle   8 NSaved=   8.
 NSaved= 8 IEnMin= 8 EnMin= -248.752310010991     IErMin= 8 ErrMin= 7.42D-05
 ErrMax= 7.42D-05  0.00D+00 EMaxC= 1.00D-01 BMatC= 1.53D-06 BMatP= 4.76D-06
 IDIUse=1 WtCom= 1.00D+00 WtEn= 0.00D+00
 Coeff-Com:  0.949D-03-0.136D-02-0.107D-01-0.191D-01-0.728D-01-0.428D-01
 Coeff-Com:  0.549D+00 0.597D+00
 Coeff:      0.949D-03-0.136D-02-0.107D-01-0.191D-01-0.728D-01-0.428D-01
 Coeff:      0.549D+00 0.597D+00
 Gap=     0.213 Goal=   None    Shift=    0.000
 Gap=     0.233 Goal=   None    Shift=    0.000
 RMSDP=1.47D-05 MaxDP=1.05D-03 DE=-2.24D-06 OVMax= 3.17D-04

 Cycle   9  Pass 1  IDiag  1:
 E= -248.752310471755     Delta-E=       -0.000000460764 Rises=F Damp=F
 DIIS: error= 2.94D-05 at cycle   9 NSaved=   9.
 NSaved= 9 IEnMin= 9 EnMin= -248.752310471755     IErMin= 9 ErrMin= 2.94D-05
 ErrMax= 2.94D-05  0.00D+00 EMaxC= 1.00D-01 BMatC= 1.37D-07 BMatP= 1.53D-06
 IDIUse=1 WtCom= 1.00D+00 WtEn= 0.00D+00
 Coeff-Com: -0.113D-03 0.587D-03 0.687D-03 0.381D-03-0.790D-02-0.265D-01
 Coeff-Com: -0.764D-01 0.202D+00 0.907D+00
 Coeff:     -0.113D-03 0.587D-03 0.687D-03 0.381D-03-0.790D-02-0.265D-01
 Coeff:     -0.764D-01 0.202D+00 0.907D+00
 Gap=     0.213 Goal=   None    Shift=    0.000
 Gap=     0.233 Goal=   None    Shift=    0.000
 RMSDP=4.70D-06 MaxDP=2.14D-04 DE=-4.61D-07 OVMax= 2.00D-04

 Cycle  10  Pass 1  IDiag  1:
 E= -248.752310536449     Delta-E=       -0.000000064694 Rises=F Damp=F
 DIIS: error= 5.06D-06 at cycle  10 NSaved=  10.
 NSaved=10 IEnMin=10 EnMin= -248.752310536449     IErMin=10 ErrMin= 5.06D-06
 ErrMax= 5.06D-06  0.00D+00 EMaxC= 1.00D-01 BMatC= 7.04D-09 BMatP= 1.37D-07
 IDIUse=1 WtCom= 1.00D+00 WtEn= 0.00D+00
 Coeff-Com: -0.868D-04 0.201D-03 0.942D-03 0.153D-02 0.446D-02-0.780D-03
 Coeff-Com: -0.580D-01-0.320D-01 0.142D+00 0.941D+00
 Coeff:     -0.868D-04 0.201D-03 0.942D-03 0.153D-02 0.446D-02-0.780D-03
 Coeff:     -0.580D-01-0.320D-01 0.142D+00 0.941D+00
 Gap=     0.213 Goal=   None    Shift=    0.000
 Gap=     0.233 Goal=   None    Shift=    0.000
 RMSDP=1.03D-06 MaxDP=4.40D-05 DE=-6.47D-08 OVMax= 3.30D-05

 Cycle  11  Pass 1  IDiag  1:
 E= -248.752310539882     Delta-E=       -0.000000003433 Rises=F Damp=F
 DIIS: error= 2.58D-06 at cycle  11 NSaved=  11.
 NSaved=11 IEnMin=11 EnMin= -248.752310539882     IErMin=11 ErrMin= 2.58D-06
 ErrMax= 2.58D-06  0.00D+00 EMaxC= 1.00D-01 BMatC= 1.93D-09 BMatP= 7.04D-09
 IDIUse=1 WtCom= 1.00D+00 WtEn= 0.00D+00
 Coeff-Com: -0.273D-04 0.322D-04 0.348D-03 0.670D-03 0.261D-02 0.213D-02
 Coeff-Com: -0.179D-01-0.282D-01-0.122D-01 0.405D+00 0.648D+00
 Coeff:     -0.273D-04 0.322D-04 0.348D-03 0.670D-03 0.261D-02 0.213D-02
 Coeff:     -0.179D-01-0.282D-01-0.122D-01 0.405D+00 0.648D+00
 Gap=     0.213 Goal=   None    Shift=    0.000
 Gap=     0.233 Goal=   None    Shift=    0.000
 RMSDP=3.15D-07 MaxDP=1.61D-05 DE=-3.43D-09 OVMax= 7.53D-06

 Cycle  12  Pass 1  IDiag  1:
 E= -248.752310540388     Delta-E=       -0.000000000506 Rises=F Damp=F
 DIIS: error= 1.31D-06 at cycle  12 NSaved=  12.
 NSaved=12 IEnMin=12 EnMin= -248.752310540388     IErMin=12 ErrMin= 1.31D-06
 ErrMax= 1.31D-06  0.00D+00 EMaxC= 1.00D-01 BMatC= 3.69D-10 BMatP= 1.93D-09
 IDIUse=1 WtCom= 1.00D+00 WtEn= 0.00D+00
 Coeff-Com:  0.745D-05-0.307D-04-0.517D-04-0.607D-05 0.282D-03 0.138D-02
 Coeff-Com:  0.442D-02-0.612D-02-0.441D-01-0.169D-01 0.297D+00 0.764D+00
 Coeff:      0.745D-05-0.307D-04-0.517D-04-0.607D-05 0.282D-03 0.138D-02
 Coeff:      0.442D-02-0.612D-02-0.441D-01-0.169D-01 0.297D+00 0.764D+00
 Gap=     0.213 Goal=   None    Shift=    0.000
 Gap=     0.233 Goal=   None    Shift=    0.000
 RMSDP=1.75D-07 MaxDP=1.08D-05 DE=-5.06D-10 OVMax= 3.94D-06

 Cycle  13  Pass 1  IDiag  1:
 E= -248.752310540517     Delta-E=       -0.000000000129 Rises=F Damp=F
 DIIS: error= 2.63D-07 at cycle  13 NSaved=  13.
 NSaved=13 IEnMin=13 EnMin= -248.752310540517     IErMin=13 ErrMin= 2.63D-07
 ErrMax= 2.63D-07  0.00D+00 EMaxC= 1.00D-01 BMatC= 2.32D-11 BMatP= 3.69D-10
 IDIUse=1 WtCom= 1.00D+00 WtEn= 0.00D+00
 Coeff-Com:  0.357D-05-0.627D-05-0.476D-04-0.743D-04-0.259D-03-0.690D-04
 Coeff-Com:  0.241D-02 0.301D-02-0.498D-02-0.456D-01-0.570D-01 0.110D+00
 Coeff-Com:  0.993D+00
 Coeff:      0.357D-05-0.627D-05-0.476D-04-0.743D-04-0.259D-03-0.690D-04
 Coeff:      0.241D-02 0.301D-02-0.498D-02-0.456D-01-0.570D-01 0.110D+00
 Coeff:      0.993D+00
 Gap=     0.213 Goal=   None    Shift=    0.000
 Gap=     0.233 Goal=   None    Shift=    0.000
 RMSDP=6.14D-08 MaxDP=3.34D-06 DE=-1.29D-10 OVMax= 1.63D-06

 Cycle  14  Pass 1  IDiag  1:
 E= -248.752310540531     Delta-E=       -0.000000000014 Rises=F Damp=F
 DIIS: error= 5.82D-08 at cycle  14 NSaved=  14.
 NSaved=14 IEnMin=14 EnMin= -248.752310540531     IErMin=14 ErrMin= 5.82D-08
 ErrMax= 5.82D-08  0.00D+00 EMaxC= 1.00D-01 BMatC= 1.81D-12 BMatP= 2.32D-11
 IDIUse=1 WtCom= 1.00D+00 WtEn= 0.00D+00
 Coeff-Com: -0.530D-06 0.239D-05-0.212D-05-0.772D-05-0.549D-04-0.139D-03
 Coeff-Com: -0.248D-03 0.936D-03 0.387D-02-0.211D-02-0.352D-01-0.690D-01
 Coeff-Com:  0.937D-01 0.101D+01
 Coeff:     -0.530D-06 0.239D-05-0.212D-05-0.772D-05-0.549D-04-0.139D-03
 Coeff:     -0.248D-03 0.936D-03 0.387D-02-0.211D-02-0.352D-01-0.690D-01
 Coeff:      0.937D-01 0.101D+01
 Gap=     0.213 Goal=   None    Shift=    0.000
 Gap=     0.233 Goal=   None    Shift=    0.000
 RMSDP=1.90D-08 MaxDP=6.20D-07 DE=-1.42D-11 OVMax= 6.85D-07

 Cycle  15  Pass 1  IDiag  1:
 E= -248.752310540532     Delta-E=       -0.000000000001 Rises=F Damp=F
 DIIS: error= 2.11D-08 at cycle  15 NSaved=  15.
 NSaved=15 IEnMin=15 EnMin= -248.752310540532     IErMin=15 ErrMin= 2.11D-08
 ErrMax= 2.11D-08  0.00D+00 EMaxC= 1.00D-01 BMatC= 1.66D-13 BMatP= 1.81D-12
 IDIUse=1 WtCom= 1.00D+00 WtEn= 0.00D+00
 Coeff-Com: -0.366D-06 0.852D-06 0.351D-05 0.587D-05 0.165D-04-0.948D-05
 Coeff-Com: -0.256D-03-0.110D-03 0.905D-03 0.371D-02 0.132D-02-0.161D-01
 Coeff-Com: -0.808D-01 0.106D+00 0.985D+00
 Coeff:     -0.366D-06 0.852D-06 0.351D-05 0.587D-05 0.165D-04-0.948D-05
 Coeff:     -0.256D-03-0.110D-03 0.905D-03 0.371D-02 0.132D-02-0.161D-01
 Coeff:     -0.808D-01 0.106D+00 0.985D+00
 Gap=     0.213 Goal=   None    Shift=    0.000
 Gap=     0.233 Goal=   None    Shift=    0.000
 RMSDP=5.86D-09 MaxDP=2.44D-07 DE=-7.96D-13 OVMax= 2.16D-07

 SCF Done:  E(UB3LYP) =  -248.752310541     A.U. after   15 cycles
            NFock= 15  Conv=0.59D-08     -V/T= 2.0045
 <Sx>= 0.0000 <Sy>= 0.0000 <Sz>= 0.5000 <S**2>= 0.7540 S= 0.5020
 <L.S>=  0.00000000000    
 KE= 2.476426899626D+02 PE=-1.029468939863D+03 EE= 3.070960281259D+02
 Annihilation of the first spin contaminant:
 S**2 before annihilation     0.7540,   after     0.7500
 Leave Link  502 at Thu Aug 25 05:18:47 2022, MaxMem=  8053063680 cpu:             238.4 elap:               9.1
 (Enter /public3/home/scg5914/software-scg5914/g16/l601.exe)
 Copying SCF densities to generalized density rwf, IOpCl= 1 IROHF=0.

 **********************************************************************

            Population analysis using the SCF Density.

 **********************************************************************

 Orbital symmetries:
 Alpha Orbitals:
       Occupied  (A) (A) (A) (A) (A) (A) (A) (A) (A) (A) (A) (A)
                 (A) (A) (A) (A) (A) (A) (A) (A) (A) (A)
       Virtual   (A) (A) (A) (A) (A) (A) (A) (A) (A) (A) (A) (A)
                 (A) (A) (A) (A) (A) (A) (A) (A) (A) (A) (A) (A)
                 (A) (A) (A) (A) (A) (A) (A) (A) (A) (A) (A) (A)
                 (A) (A) (A) (A) (A) (A) (A) (A) (A) (A) (A) (A)
                 (A) (A) (A) (A) (A) (A) (A) (A) (A) (A) (A) (A)
                 (A) (A) (A) (A) (A) (A) (A) (A) (A) (A) (A) (A)
                 (A) (A) (A) (A) (A) (A) (A) (A) (A) (A) (A) (A)
                 (A) (A) (A) (A) (A) (A) (A) (A) (A) (A) (A) (A)
                 (A) (A) (A) (A) (A) (A) (A) (A) (A) (A) (A) (A)
                 (A) (A) (A) (A) (A) (A) (A) (A) (A) (A) (A) (A)
                 (A) (A) (A) (A) (A) (A) (A) (A) (A) (A) (A) (A)
                 (A) (A) (A) (A) (A) (A) (A) (A) (A) (A) (A) (A)
                 (A) (A)
 Beta  Orbitals:
       Occupied  (A) (A) (A) (A) (A) (A) (A) (A) (A) (A) (A) (A)
                 (A) (A) (A) (A) (A) (A) (A) (A) (A)
       Virtual   (A) (A) (A) (A) (A) (A) (A) (A) (A) (A) (A) (A)
                 (A) (A) (A) (A) (A) (A) (A) (A) (A) (A) (A) (A)
                 (A) (A) (A) (A) (A) (A) (A) (A) (A) (A) (A) (A)
                 (A) (A) (A) (A) (A) (A) (A) (A) (A) (A) (A) (A)
                 (A) (A) (A) (A) (A) (A) (A) (A) (A) (A) (A) (A)
                 (A) (A) (A) (A) (A) (A) (A) (A) (A) (A) (A) (A)
                 (A) (A) (A) (A) (A) (A) (A) (A) (A) (A) (A) (A)
                 (A) (A) (A) (A) (A) (A) (A) (A) (A) (A) (A) (A)
                 (A) (A) (A) (A) (A) (A) (A) (A) (A) (A) (A) (A)
                 (A) (A) (A) (A) (A) (A) (A) (A) (A) (A) (A) (A)
                 (A) (A) (A) (A) (A) (A) (A) (A) (A) (A) (A) (A)
                 (A) (A) (A) (A) (A) (A) (A) (A) (A) (A) (A) (A)
                 (A) (A) (A)
 The electronic state is 2-A.
 Alpha  occ. eigenvalues --  -14.35684 -10.22878 -10.22873 -10.21242 -10.20183
 Alpha  occ. eigenvalues --  -10.18518  -1.03067  -0.78681  -0.68793  -0.66301
 Alpha  occ. eigenvalues --   -0.63260  -0.53013  -0.49912  -0.46223  -0.45680
 Alpha  occ. eigenvalues --   -0.37916  -0.36109  -0.35879  -0.34344  -0.32153
 Alpha  occ. eigenvalues --   -0.31913  -0.20345
 Alpha virt. eigenvalues --    0.00944   0.01270   0.01801   0.02602   0.04643
 Alpha virt. eigenvalues --    0.05487   0.05500   0.06857   0.06877   0.07868
 Alpha virt. eigenvalues --    0.08993   0.09697   0.10014   0.10416   0.12756
 Alpha virt. eigenvalues --    0.12830   0.13428   0.14260   0.15569   0.16905
 Alpha virt. eigenvalues --    0.17197   0.17363   0.18235   0.19338   0.19409
 Alpha virt. eigenvalues --    0.21319   0.21632   0.21920   0.22414   0.24610
 Alpha virt. eigenvalues --    0.24940   0.25924   0.26507   0.27369   0.27560
 Alpha virt. eigenvalues --    0.30254   0.34911   0.36607   0.46326   0.46639
 Alpha virt. eigenvalues --    0.47733   0.50987   0.51739   0.54145   0.56926
 Alpha virt. eigenvalues --    0.57159   0.58174   0.59651   0.61752   0.62848
 Alpha virt. eigenvalues --    0.63906   0.64767   0.66509   0.67825   0.67945
 Alpha virt. eigenvalues --    0.69614   0.71265   0.72496   0.75517   0.85375
 Alpha virt. eigenvalues --    0.87392   0.88099   0.93642   0.94941   0.95750
 Alpha virt. eigenvalues --    1.01126   1.04419   1.04481   1.11401   1.23533
 Alpha virt. eigenvalues --    1.24362   1.28445   1.35168   1.35615   1.40265
 Alpha virt. eigenvalues --    1.46185   1.46492   1.47584   1.50817   1.53909
 Alpha virt. eigenvalues --    1.57194   1.60174   1.60862   1.68961   1.71939
 Alpha virt. eigenvalues --    1.74157   1.77491   1.78583   1.79166   1.83346
 Alpha virt. eigenvalues --    1.84974   1.85950   1.89381   1.93460   1.93911
 Alpha virt. eigenvalues --    1.99915   2.05802   2.06661   2.09036   2.11964
 Alpha virt. eigenvalues --    2.16324   2.20237   2.22390   2.29316   2.33261
 Alpha virt. eigenvalues --    2.36583   2.37218   2.47653   2.48921   2.51742
 Alpha virt. eigenvalues --    2.54104   2.57563   2.59256   2.59490   2.64052
 Alpha virt. eigenvalues --    2.71643   2.72778   2.76678   2.78567   2.83196
 Alpha virt. eigenvalues --    2.84142   2.84676   2.91315   2.99900   3.10741
 Alpha virt. eigenvalues --    3.13353   3.14356   3.32215   3.42632   3.47103
 Alpha virt. eigenvalues --    3.71382   3.73101   3.75812   3.80625   3.86448
 Alpha virt. eigenvalues --    4.07377   4.26856   4.34840   4.56562   4.64492
 Alpha virt. eigenvalues --   23.76435  23.77484  23.85195  23.89418  24.05117
 Alpha virt. eigenvalues --   35.55359
  Beta  occ. eigenvalues --  -14.35096 -10.22826 -10.22821 -10.21120 -10.19044
  Beta  occ. eigenvalues --  -10.18524  -1.02057  -0.78338  -0.67106  -0.66126
  Beta  occ. eigenvalues --   -0.62836  -0.52885  -0.49692  -0.46095  -0.45193
  Beta  occ. eigenvalues --   -0.35918  -0.35508  -0.34088  -0.32228  -0.31458
  Beta  occ. eigenvalues --   -0.31407
  Beta virt. eigenvalues --   -0.08141   0.00999   0.01298   0.01837   0.03038
  Beta virt. eigenvalues --    0.04655   0.05487   0.05629   0.06999   0.07163
  Beta virt. eigenvalues --    0.08096   0.09364   0.09781   0.10003   0.10587
  Beta virt. eigenvalues --    0.12946   0.13435   0.13479   0.14487   0.15665
  Beta virt. eigenvalues --    0.17079   0.17425   0.17519   0.18400   0.19536
  Beta virt. eigenvalues --    0.19758   0.21813   0.21832   0.22408   0.22601
  Beta virt. eigenvalues --    0.24759   0.25034   0.26415   0.26934   0.27411
  Beta virt. eigenvalues --    0.27918   0.30885   0.35472   0.37089   0.46398
  Beta virt. eigenvalues --    0.46853   0.47948   0.51190   0.51920   0.54542
  Beta virt. eigenvalues --    0.57064   0.58426   0.58467   0.60025   0.62289
  Beta virt. eigenvalues --    0.63181   0.64464   0.65962   0.66638   0.68008
  Beta virt. eigenvalues --    0.68118   0.70038   0.71910   0.72998   0.75568
  Beta virt. eigenvalues --    0.85783   0.87749   0.88457   0.95272   0.95779
  Beta virt. eigenvalues --    0.95809   1.02514   1.04522   1.05813   1.11742
  Beta virt. eigenvalues --    1.23957   1.24881   1.28669   1.35279   1.36164
  Beta virt. eigenvalues --    1.40567   1.46808   1.47040   1.48214   1.50943
  Beta virt. eigenvalues --    1.54177   1.57519   1.60409   1.61558   1.69321
  Beta virt. eigenvalues --    1.73002   1.74300   1.78171   1.78695   1.79528
  Beta virt. eigenvalues --    1.83725   1.85822   1.86100   1.90448   1.93509
  Beta virt. eigenvalues --    1.94439   2.01245   2.06684   2.07101   2.10208
  Beta virt. eigenvalues --    2.12724   2.16699   2.21067   2.24035   2.29500
  Beta virt. eigenvalues --    2.33881   2.37031   2.37706   2.48298   2.49513
  Beta virt. eigenvalues --    2.52043   2.54572   2.58032   2.59677   2.59681
  Beta virt. eigenvalues --    2.64247   2.71999   2.73179   2.76824   2.78994
  Beta virt. eigenvalues --    2.83342   2.84208   2.84893   2.91620   3.00479
  Beta virt. eigenvalues --    3.12709   3.13688   3.15501   3.32980   3.43140
  Beta virt. eigenvalues --    3.47609   3.71524   3.73255   3.77768   3.81261
  Beta virt. eigenvalues --    3.86498   4.08097   4.26993   4.35227   4.58227
  Beta virt. eigenvalues --    4.64956  23.76495  23.78541  23.85331  23.89581
  Beta virt. eigenvalues --   24.05224  35.55958
          Condensed to atoms (all electrons):
               1          2          3          4          5          6
     1  C    6.534766  -0.529846   0.506552  -0.258987  -0.295557  -0.529847
     2  C   -0.529846   6.706889  -0.227061  -0.089803   0.282231  -0.292973
     3  C    0.506552  -0.227061   5.950471  -0.005856  -0.161537  -0.227062
     4  C   -0.258987  -0.089803  -0.005856   5.864492   0.292681  -0.089802
     5  N   -0.295557   0.282231  -0.161537   0.292681   6.751246   0.282229
     6  C   -0.529847  -0.292973  -0.227062  -0.089802   0.282229   6.706894
     7  H    0.424666  -0.043139   0.006498  -0.010734   0.023333  -0.043139
     8  H    0.337115  -0.003445   0.013003   0.008651  -0.004549  -0.003445
     9  H    0.028967   0.262425   0.025261  -0.010569  -0.022083   0.047144
    10  H    0.003343  -0.022336  -0.044324   0.381626  -0.043879   0.054859
    11  H    0.003344   0.054859  -0.044324   0.381626  -0.043879  -0.022336
    12  H    0.028967   0.047144   0.025261  -0.010569  -0.022083   0.262425
               7          8          9         10         11         12
     1  C    0.424666   0.337115   0.028967   0.003343   0.003344   0.028967
     2  C   -0.043139  -0.003445   0.262425  -0.022336   0.054859   0.047144
     3  C    0.006498   0.013003   0.025261  -0.044324  -0.044324   0.025261
     4  C   -0.010734   0.008651  -0.010569   0.381626   0.381626  -0.010569
     5  N    0.023333  -0.004549  -0.022083  -0.043879  -0.043879  -0.022083
     6  C   -0.043139  -0.003445   0.047144   0.054859  -0.022336   0.262425
     7  H    0.518486  -0.026093  -0.000346   0.000085   0.000085  -0.000346
     8  H   -0.026093   0.534003  -0.000680   0.000022   0.000022  -0.000680
     9  H   -0.000346  -0.000680   0.535864   0.006133  -0.000729  -0.001610
    10  H    0.000085   0.000022   0.006133   0.547304  -0.029105  -0.000729
    11  H    0.000085   0.000022  -0.000729  -0.029105   0.547304   0.006133
    12  H   -0.000346  -0.000680  -0.001610  -0.000729   0.006133   0.535864
          Atomic-Atomic Spin Densities.
               1          2          3          4          5          6
     1  C   -0.311603   0.124934   0.006376   0.042090   0.084499   0.124935
     2  C    0.124934  -0.028928  -0.075448   0.022578  -0.081925   0.017508
     3  C    0.006376  -0.075448   0.902051  -0.059636   0.001609  -0.075448
     4  C    0.042090   0.022578  -0.059636   0.042015  -0.055677   0.022578
     5  N    0.084499  -0.081925   0.001609  -0.055677   0.368587  -0.081926
     6  C    0.124935   0.017508  -0.075448   0.022578  -0.081926  -0.028929
     7  H    0.007783  -0.007752   0.006497  -0.000582   0.002919  -0.007752
     8  H    0.011226  -0.003340   0.001089  -0.001589  -0.003423  -0.003340
     9  H   -0.010639   0.007492  -0.000524   0.002150   0.002185   0.002802
    10  H   -0.005003   0.003611  -0.000390   0.004619   0.002754   0.001122
    11  H   -0.005003   0.001122  -0.000390   0.004619   0.002754   0.003611
    12  H   -0.010639   0.002802  -0.000524   0.002150   0.002186   0.007492
               7          8          9         10         11         12
     1  C    0.007783   0.011226  -0.010639  -0.005003  -0.005003  -0.010639
     2  C   -0.007752  -0.003340   0.007492   0.003611   0.001122   0.002802
     3  C    0.006497   0.001089  -0.000524  -0.000390  -0.000390  -0.000524
     4  C   -0.000582  -0.001589   0.002150   0.004619   0.004619   0.002150
     5  N    0.002919  -0.003423   0.002185   0.002754   0.002754   0.002186
     6  C   -0.007752  -0.003340   0.002802   0.001122   0.003611   0.007492
     7  H    0.002421  -0.001368   0.000089   0.000010   0.000010   0.000089
     8  H   -0.001368   0.002410   0.000222   0.000031   0.000031   0.000222
     9  H    0.000089   0.000222  -0.004294  -0.000562  -0.000073  -0.000048
    10  H    0.000010   0.000031  -0.000562  -0.006183  -0.000691  -0.000073
    11  H    0.000010   0.000031  -0.000073  -0.000691  -0.006183  -0.000562
    12  H    0.000089   0.000222  -0.000048  -0.000073  -0.000562  -0.004294
 Mulliken charges and spin densities:
               1          2
     1  C   -0.253483   0.058954
     2  C   -0.144946  -0.017347
     3  C    0.183118   0.705262
     4  C   -0.452755   0.025316
     5  N   -0.038151   0.244542
     6  C   -0.144947  -0.017348
     7  H    0.150645   0.002364
     8  H    0.146074   0.002170
     9  H    0.130222  -0.001200
    10  H    0.147001  -0.000756
    11  H    0.147001  -0.000756
    12  H    0.130222  -0.001200
 Sum of Mulliken charges =  -0.00000   1.00000
 Mulliken charges and spin densities with hydrogens summed into heavy atoms:
               1          2
     1  C    0.043236   0.063488
     2  C   -0.014724  -0.018548
     3  C    0.183118   0.705262
     4  C   -0.158753   0.023804
     5  N   -0.038151   0.244542
     6  C   -0.014725  -0.018548
 Electronic spatial extent (au):  <R**2>=            395.3884
 Charge=             -0.0000 electrons
 Dipole moment (field-independent basis, Debye):
    X=             -0.3096    Y=             -0.0000    Z=             -0.0542  Tot=              0.3143
 Quadrupole moment (field-independent basis, Debye-Ang):
   XX=            -33.3732   YY=            -33.5806   ZZ=            -42.4176
   XY=              0.0000   XZ=             -0.2055   YZ=             -0.0000
 Traceless Quadrupole moment (field-independent basis, Debye-Ang):
   XX=              3.0839   YY=              2.8766   ZZ=             -5.9605
   XY=              0.0000   XZ=             -0.2055   YZ=             -0.0000
 Octapole moment (field-independent basis, Debye-Ang**2):
  XXX=              1.9654  YYY=             -0.0000  ZZZ=             -4.4334  XYY=              1.2354
  XXY=             -0.0000  XXZ=             -1.1955  XZZ=             -4.1788  YZZ=             -0.0000
  YYZ=             -1.7983  XYZ=             -0.0000
 Hexadecapole moment (field-independent basis, Debye-Ang**3):
 XXXX=           -296.2165 YYYY=           -120.8782 ZZZZ=           -139.8222 XXXY=             -0.0000
 XXXZ=             -2.8768 YYYX=              0.0000 YYYZ=             -0.0000 ZZZX=             -1.9046
 ZZZY=             -0.0000 XXYY=            -72.6387 XXZZ=            -69.8027 YYZZ=            -44.4840
 XXYZ=             -0.0000 YYXZ=             -0.9010 ZZXY=             -0.0000
 N-N= 2.259779112340D+02 E-N=-1.029468939846D+03  KE= 2.476426899626D+02
                          Isotropic Fermi Contact Couplings
        Atom                 a.u.       MegaHertz       Gauss      10(-4) cm-1
     1  C(13)             -0.00261      -2.93068      -1.04574      -0.97757
     2  C(13)             -0.00525      -5.90208      -2.10601      -1.96872
     3  C(13)              0.21264     239.05258      85.29990      79.73936
     4  C(13)             -0.00324      -3.64785      -1.30164      -1.21679
     5  N(14)             -0.01994      -6.44330      -2.29913      -2.14925
     6  C(13)             -0.00525      -5.90213      -2.10603      -1.96874
     7  H(1)              -0.00010      -0.43540      -0.15536      -0.14523
     8  H(1)               0.00049       2.19777       0.78422       0.73310
     9  H(1)              -0.00085      -3.79512      -1.35419      -1.26592
    10  H(1)              -0.00102      -4.57413      -1.63216      -1.52576
    11  H(1)              -0.00102      -4.57413      -1.63216      -1.52576
    12  H(1)              -0.00085      -3.79515      -1.35420      -1.26592
 --------------------------------------------------------
       Center         ----  Spin Dipole Couplings  ----
                      3XX-RR        3YY-RR        3ZZ-RR
 --------------------------------------------------------
     1   Atom        0.013100     -0.010939     -0.002160
     2   Atom       -0.040878     -0.028400      0.069278
     3   Atom       -0.417347     -0.407340      0.824687
     4   Atom       -0.048366     -0.076906      0.125272
     5   Atom       -0.365944     -0.359636      0.725580
     6   Atom       -0.040878     -0.028400      0.069278
     7   Atom        0.010055     -0.006034     -0.004021
     8   Atom        0.006024     -0.004675     -0.001349
     9   Atom       -0.008073      0.010622     -0.002550
    10   Atom        0.006082     -0.002982     -0.003100
    11   Atom        0.006082     -0.002982     -0.003100
    12   Atom       -0.008073      0.010622     -0.002550
 --------------------------------------------------------
                        XY            XZ            YZ
 --------------------------------------------------------
     1   Atom        0.000000      0.004710      0.000000
     2   Atom       -0.012592      0.030872     -0.020008
     3   Atom        0.000000     -0.013058      0.000003
     4   Atom       -0.000000     -0.038229      0.000001
     5   Atom        0.000000      0.020802      0.000004
     6   Atom        0.012592      0.030872      0.020009
     7   Atom        0.000000      0.001595      0.000000
     8   Atom        0.000000      0.003048      0.000000
     9   Atom       -0.005942      0.001852     -0.004892
    10   Atom        0.013428     -0.005309     -0.002833
    11   Atom       -0.013428     -0.005309      0.002833
    12   Atom        0.005942      0.001852      0.004891
 --------------------------------------------------------


 ---------------------------------------------------------------------------------
              Anisotropic Spin Dipole Couplings in Principal Axis System
 ---------------------------------------------------------------------------------

       Atom             a.u.   MegaHertz   Gauss  10(-4) cm-1        Axes

              Baa    -0.0109    -1.468    -0.524    -0.490 -0.0000  1.0000 -0.0000
     1 C(13)  Bbb    -0.0035    -0.469    -0.167    -0.157 -0.2730  0.0000  0.9620
              Bcc     0.0144     1.937     0.691     0.646  0.9620  0.0000  0.2730
 
              Baa    -0.0516    -6.922    -2.470    -2.309  0.9209  0.3467 -0.1778
     2 C(13)  Bbb    -0.0304    -4.077    -1.455    -1.360 -0.2920  0.9162  0.2744
              Bcc     0.0820    10.998     3.924     3.669  0.2581 -0.2008  0.9450
 
              Baa    -0.4175   -56.022   -19.990   -18.687  0.9999 -0.0000  0.0105
     3 C(13)  Bbb    -0.4073   -54.661   -19.504   -18.233  0.0000  1.0000 -0.0000
              Bcc     0.8248   110.684    39.495    36.920 -0.0105  0.0000  0.9999
 
              Baa    -0.0769   -10.320    -3.682    -3.442 -0.0000  1.0000 -0.0000
     4 C(13)  Bbb    -0.0564    -7.570    -2.701    -2.525  0.9786  0.0000  0.2059
              Bcc     0.1333    17.890     6.383     5.967 -0.2059  0.0000  0.9786
 
              Baa    -0.3663   -14.129    -5.042    -4.713  0.9998  0.0000 -0.0190
     5 N(14)  Bbb    -0.3596   -13.870    -4.949    -4.627 -0.0000  1.0000 -0.0000
              Bcc     0.7260    27.999     9.991     9.340  0.0190  0.0000  0.9998
 
              Baa    -0.0516    -6.922    -2.470    -2.309  0.9209 -0.3467 -0.1778
     6 C(13)  Bbb    -0.0304    -4.077    -1.455    -1.360  0.2920  0.9162 -0.2744
              Bcc     0.0820    10.998     3.924     3.669  0.2581  0.2008  0.9450
 
              Baa    -0.0060    -3.219    -1.149    -1.074 -0.0000  1.0000 -0.0000
     7 H(1)   Bbb    -0.0042    -2.241    -0.799    -0.747 -0.1112  0.0000  0.9938
              Bcc     0.0102     5.460     1.948     1.821  0.9938  0.0000  0.1112
 
              Baa    -0.0047    -2.494    -0.890    -0.832  0.0000  1.0000 -0.0000
     8 H(1)   Bbb    -0.0024    -1.305    -0.466    -0.435 -0.3387  0.0000  0.9409
              Bcc     0.0071     3.799     1.356     1.267  0.9409  0.0000  0.3387
 
              Baa    -0.0098    -5.245    -1.871    -1.749  0.9623  0.2634 -0.0678
     9 H(1)   Bbb    -0.0042    -2.223    -0.793    -0.741 -0.0172  0.3078  0.9513
              Bcc     0.0140     7.467     2.664     2.491 -0.2714  0.9143 -0.3007
 
              Baa    -0.0127    -6.775    -2.418    -2.260 -0.5966  0.7969 -0.0948
    10 H(1)   Bbb    -0.0048    -2.538    -0.906    -0.847  0.1698  0.2408  0.9556
              Bcc     0.0175     9.313     3.323     3.107  0.7844  0.5540 -0.2789
 
              Baa    -0.0127    -6.775    -2.418    -2.260  0.5966  0.7969  0.0948
    11 H(1)   Bbb    -0.0048    -2.538    -0.906    -0.847  0.1698 -0.2408  0.9556
              Bcc     0.0175     9.313     3.323     3.107  0.7844 -0.5540 -0.2789
 
              Baa    -0.0098    -5.245    -1.871    -1.749  0.9623 -0.2634 -0.0678
    12 H(1)   Bbb    -0.0042    -2.223    -0.793    -0.741 -0.0172 -0.3078  0.9513
              Bcc     0.0140     7.467     2.664     2.491  0.2714  0.9143  0.3007
 

 ---------------------------------------------------------------------------------

 No NMR shielding tensors so no spin-rotation constants.
 Leave Link  601 at Thu Aug 25 05:18:48 2022, MaxMem=  8053063680 cpu:               4.1 elap:               0.1
 (Enter /public3/home/scg5914/software-scg5914/g16/l701.exe)
 ... and contract with generalized density number  0.
 Compute integral first derivatives.
 R6Disp: Adding Grimme-D3(BJ) dispersion energy 1st derivatives to the gradient.
 Leave Link  701 at Thu Aug 25 05:18:48 2022, MaxMem=  8053063680 cpu:               2.7 elap:               0.1
 (Enter /public3/home/scg5914/software-scg5914/g16/l702.exe)
 L702 exits ... SP integral derivatives will be done elsewhere.
 Leave Link  702 at Thu Aug 25 05:18:48 2022, MaxMem=  8053063680 cpu:               0.2 elap:               0.0
 (Enter /public3/home/scg5914/software-scg5914/g16/l703.exe)
 Integral derivatives from FoFJK, PRISM(SPDF).
 Compute integral first derivatives, UseDBF=F ICtDFT=           0.
 Calling FoFJK, ICntrl=      2127 FMM=F ISym2X=0 I1Cent= 0 IOpClX= 1 NMat=1 NMatS=1 NMatT=0.
 FoFJK:  IHMeth= 1 ICntrl=    2127 DoSepK=F KAlg= 0 I1Cent=           0 FoldK=F
 IRaf=         0 NMat=       1 IRICut=       1 DoRegI=T DoRafI=F ISym2E= 0 IDoP0=0 IntGTp=1.
 FoFCou: FMM=F IPFlag=           0 FMFlag=      100000 FMFlg1=         800
         NFxFlg=           0 DoJE=F BraDBF=F KetDBF=F FulRan=T
         wScrn=  0.000000 ICntrl=      2127 IOpCl=  1 I1Cent=           0 NGrid=           0
         NMat0=    1 NMatS0=      1 NMatT0=    0 NMatD0=    1 NMtDS0=    0 NMtDT0=    0
 Symmetry not used in FoFCou.
 Leave Link  703 at Thu Aug 25 05:18:50 2022, MaxMem=  8053063680 cpu:              48.6 elap:               1.5
 (Enter /public3/home/scg5914/software-scg5914/g16/l716.exe)
 Dipole        =-1.21804627D-01-1.17548002D-07-2.13348906D-02
 ***** Axes restored to original set *****
 -------------------------------------------------------------------
 Center     Atomic                   Forces (Hartrees/Bohr)
 Number     Number              X              Y              Z
 -------------------------------------------------------------------
      1        6          -0.000637990    0.000727821   -0.000061681
      2        6           0.004243585    0.017054934   -0.000016709
      3        6          -0.001012124    0.001076731   -0.027738670
      4        6           0.012837433   -0.014652898   -0.002543079
      5        7           0.001697653   -0.001844812    0.032849193
      6        6          -0.017464271   -0.001971704    0.000036833
      7        1           0.001575252   -0.001800003   -0.000999767
      8        1           0.000305368   -0.000345952    0.000855547
      9        1          -0.000623102   -0.000798517   -0.001080206
     10        1          -0.001569547    0.000431816   -0.000107167
     11        1          -0.000222715    0.001612298   -0.000110464
     12        1           0.000870457    0.000510285   -0.001083831
 -------------------------------------------------------------------
 Cartesian Forces:  Max     0.032849193 RMS     0.008942766
 Leave Link  716 at Thu Aug 25 05:18:50 2022, MaxMem=  8053063680 cpu:               0.3 elap:               0.0
 (Enter /public3/home/scg5914/software-scg5914/g16/l103.exe)

 GradGradGradGradGradGradGradGradGradGradGradGradGradGradGradGradGradGrad
 Berny optimization.
 FormGI is forming the generalized inverse of G from B-inverse, IUseBI=4.
 Internal  Forces:  Max     0.009250607 RMS     0.003116745
 Search for a local minimum.
 Step number   1 out of a maximum of  100
 All quantities printed in internal units (Hartrees-Bohrs-Radians)
 RMS Force = .31167D-02 SwitMx=.10000D-02 MixMth= 1
 Mixed Optimization -- RFO/linear search
 Second derivative matrix not updated -- first step.
 ITU=  0
     Eigenvalues ---    0.01871   0.01991   0.02071   0.02617   0.03155
     Eigenvalues ---    0.03962   0.04841   0.04879   0.05591   0.05835
     Eigenvalues ---    0.07055   0.07384   0.07833   0.08510   0.12279
     Eigenvalues ---    0.13504   0.16799   0.18911   0.20143   0.20926
     Eigenvalues ---    0.23034   0.24437   0.27154   0.28434   0.34209
     Eigenvalues ---    0.34209   0.34457   0.34483   0.34608   0.34608
 RFO step:  Lambda=-7.20671076D-03 EMin= 1.87126884D-02
 Linear search not attempted -- first point.
 Iteration  1 RMS(Cart)=  0.01785919 RMS(Int)=  0.00055966
 Iteration  2 RMS(Cart)=  0.00031918 RMS(Int)=  0.00042150
 Iteration  3 RMS(Cart)=  0.00000004 RMS(Int)=  0.00042150
 ITry= 1 IFail=0 DXMaxC= 8.19D-02 DCOld= 1.00D+10 DXMaxT= 3.00D-01 DXLimC= 3.00D+00 Rises=F
 Variable       Old X    -DE/DX   Delta X   Delta X   Delta X     New X
                                 (Linear)    (Quad)   (Total)
    R1        2.89388   0.00069   0.00000   0.00488   0.00431   2.89819
    R2        2.89388   0.00069   0.00000   0.00488   0.00431   2.89819
    R3        2.06523  -0.00221   0.00000  -0.00627  -0.00627   2.05896
    R4        2.06566  -0.00097   0.00000  -0.00276  -0.00276   2.06290
    R5        2.94590  -0.00093   0.00000   0.00035   0.00049   2.94639
    R6        2.93965  -0.00163   0.00000  -0.00604  -0.00548   2.93417
    R7        2.06316  -0.00088   0.00000  -0.00249  -0.00249   2.06067
    R8        2.87956   0.00231   0.00000   0.00216   0.00193   2.88150
    R9        2.94590  -0.00093   0.00000   0.00035   0.00049   2.94639
   R10        2.88388  -0.00048   0.00000  -0.00783  -0.00788   2.87600
   R11        2.06979  -0.00150   0.00000  -0.00428  -0.00428   2.06551
   R12        2.06979  -0.00150   0.00000  -0.00428  -0.00428   2.06551
   R13        2.93965  -0.00163   0.00000  -0.00604  -0.00548   2.93417
   R14        2.06316  -0.00088   0.00000  -0.00249  -0.00249   2.06067
    A1        1.28704   0.00263   0.00000   0.02366   0.02321   1.31025
    A2        2.04211  -0.00091   0.00000  -0.00884  -0.00867   2.03344
    A3        2.02798  -0.00084   0.00000  -0.00135  -0.00128   2.02670
    A4        2.04211  -0.00091   0.00000  -0.00884  -0.00867   2.03344
    A5        2.02798  -0.00084   0.00000  -0.00135  -0.00128   2.02670
    A6        1.95353   0.00103   0.00000   0.00180   0.00163   1.95515
    A7        1.64645  -0.00054   0.00000  -0.00527  -0.00515   1.64130
    A8        1.60027   0.00008   0.00000   0.00101   0.00090   1.60117
    A9        2.27046  -0.00022   0.00000   0.01252   0.01197   2.28243
   A10        1.35526  -0.00772   0.00000  -0.06142  -0.06128   1.29399
   A11        2.22433   0.00249   0.00000   0.01634   0.01565   2.23999
   A12        2.09571   0.00263   0.00000   0.00417   0.00431   2.10002
   A13        1.55983   0.00664   0.00000   0.05115   0.05064   1.61047
   A14        1.26068   0.00336   0.00000   0.02531   0.02455   1.28523
   A15        1.55983   0.00664   0.00000   0.05115   0.05064   1.61047
   A16        1.38960  -0.00925   0.00000  -0.06357  -0.06311   1.32649
   A17        2.06481   0.00195   0.00000   0.00938   0.00882   2.07363
   A18        2.06481   0.00195   0.00000   0.00938   0.00882   2.07362
   A19        1.97957   0.00246   0.00000   0.00564   0.00543   1.98500
   A20        1.97957   0.00246   0.00000   0.00564   0.00543   1.98500
   A21        1.92737  -0.00095   0.00000   0.01402   0.01373   1.94111
   A22        1.56052   0.00782   0.00000   0.05674   0.05632   1.61685
   A23        1.26379   0.00373   0.00000   0.02857   0.02769   1.29147
   A24        1.56052   0.00782   0.00000   0.05674   0.05632   1.61685
   A25        1.64645  -0.00054   0.00000  -0.00527  -0.00515   1.64130
   A26        1.60027   0.00008   0.00000   0.00101   0.00090   1.60117
   A27        2.27046  -0.00022   0.00000   0.01252   0.01197   2.28243
   A28        1.35527  -0.00772   0.00000  -0.06142  -0.06128   1.29399
   A29        2.22433   0.00249   0.00000   0.01633   0.01565   2.23999
   A30        2.09571   0.00263   0.00000   0.00417   0.00431   2.10002
    D1       -0.65055   0.00355   0.00000   0.02725   0.02715  -0.62341
    D2        0.70627  -0.00420   0.00000  -0.03436  -0.03430   0.67197
    D3        3.02502  -0.00024   0.00000  -0.01645  -0.01636   3.00866
    D4        1.31245   0.00375   0.00000   0.02840   0.02819   1.34064
    D5        2.66928  -0.00400   0.00000  -0.03320  -0.03325   2.63602
    D6       -1.29516  -0.00004   0.00000  -0.01529  -0.01531  -1.31048
    D7       -2.59926   0.00330   0.00000   0.01882   0.01877  -2.58049
    D8       -1.24243  -0.00444   0.00000  -0.04278  -0.04268  -1.28511
    D9        1.07632  -0.00048   0.00000  -0.02488  -0.02474   1.05158
   D10        0.65055  -0.00355   0.00000  -0.02725  -0.02715   0.62341
   D11       -0.70627   0.00420   0.00000   0.03436   0.03430  -0.67197
   D12       -3.02502   0.00024   0.00000   0.01645   0.01636  -3.00866
   D13       -1.31245  -0.00375   0.00000  -0.02840  -0.02819  -1.34064
   D14       -2.66928   0.00400   0.00000   0.03320   0.03325  -2.63602
   D15        1.29516   0.00004   0.00000   0.01529   0.01531   1.31048
   D16        2.59926  -0.00330   0.00000  -0.01882  -0.01877   2.58049
   D17        1.24243   0.00444   0.00000   0.04278   0.04268   1.28511
   D18       -1.07632   0.00048   0.00000   0.02488   0.02474  -1.05158
   D19        2.20598   0.00151   0.00000   0.01055   0.01117   2.21715
   D20        0.64319  -0.00331   0.00000  -0.02657  -0.02656   0.61663
   D21        0.62153   0.00187   0.00000   0.01283   0.01324   0.63477
   D22       -0.94126  -0.00294   0.00000  -0.02428  -0.02448  -0.96575
   D23       -1.44822   0.00393   0.00000   0.05103   0.05161  -1.39660
   D24       -3.01101  -0.00089   0.00000   0.01391   0.01389  -2.99712
   D25       -2.26226  -0.00188   0.00000  -0.00879  -0.00960  -2.27185
   D26       -0.69898   0.00382   0.00000   0.03252   0.03265  -0.66633
   D27       -0.62045  -0.00256   0.00000  -0.01526  -0.01593  -0.63638
   D28        0.94283   0.00314   0.00000   0.02605   0.02633   0.96915
   D29        1.58444  -0.00355   0.00000  -0.02984  -0.03013   1.55431
   D30       -3.13547   0.00215   0.00000   0.01147   0.01212  -3.12335
   D31       -0.63038  -0.00163   0.00000  -0.01224  -0.01282  -0.64321
   D32        1.30901  -0.00350   0.00000  -0.03793  -0.03847   1.27054
   D33       -2.56978   0.00024   0.00000   0.01344   0.01283  -2.55695
   D34        0.63038   0.00163   0.00000   0.01224   0.01282   0.64320
   D35        2.56978  -0.00024   0.00000  -0.01344  -0.01283   2.55695
   D36       -1.30901   0.00350   0.00000   0.03793   0.03847  -1.27054
   D37       -0.64319   0.00331   0.00000   0.02657   0.02656  -0.61663
   D38        0.94127   0.00294   0.00000   0.02428   0.02448   0.96575
   D39        3.01101   0.00089   0.00000  -0.01392  -0.01389   2.99712
   D40       -2.20598  -0.00151   0.00000  -0.01055  -0.01117  -2.21715
   D41       -0.62153  -0.00187   0.00000  -0.01283  -0.01324  -0.63477
   D42        1.44822  -0.00393   0.00000  -0.05103  -0.05161   1.39661
   D43        0.63193   0.00180   0.00000   0.01386   0.01460   0.64654
   D44       -0.63193  -0.00180   0.00000  -0.01386  -0.01460  -0.64654
   D45       -1.40113   0.00328   0.00000   0.02854   0.02912  -1.37201
   D46       -2.66500  -0.00033   0.00000   0.00082  -0.00008  -2.66508
   D47        2.66499   0.00033   0.00000  -0.00082   0.00009   2.66508
   D48        1.40113  -0.00328   0.00000  -0.02854  -0.02912   1.37201
   D49        0.69898  -0.00382   0.00000  -0.03252  -0.03265   0.66633
   D50       -0.94282  -0.00314   0.00000  -0.02605  -0.02633  -0.96915
   D51        3.13547  -0.00215   0.00000  -0.01147  -0.01212   3.12335
   D52        2.26226   0.00188   0.00000   0.00879   0.00960   2.27185
   D53        0.62045   0.00256   0.00000   0.01526   0.01592   0.63638
   D54       -1.58444   0.00355   0.00000   0.02984   0.03013  -1.55431
         Item               Value     Threshold  Converged?
 Maximum Force            0.009251     0.000450     NO 
 RMS     Force            0.003117     0.000300     NO 
 Maximum Displacement     0.081946     0.001800     NO 
 RMS     Displacement     0.017734     0.001200     NO 
 Predicted change in Energy=-3.883379D-03
 Lowest energy point so far.  Saving SCF results.
 GradGradGradGradGradGradGradGradGradGradGradGradGradGradGradGradGradGrad

 Leave Link  103 at Thu Aug 25 05:18:50 2022, MaxMem=  8053063680 cpu:               0.7 elap:               0.0
 (Enter /public3/home/scg5914/software-scg5914/g16/l202.exe)
                          Input orientation:                          
 ---------------------------------------------------------------------
 Center     Atomic      Atomic             Coordinates (Angstroms)
 Number     Number       Type             X           Y           Z
 ---------------------------------------------------------------------
      1          6           0       -0.100942    1.620763    0.014651
      2          6           0        1.403258    1.322278    0.034436
      3          6           0        1.255705    0.075631    0.959144
      4          6           0        2.030212   -0.810700   -0.010207
      5          7           0        1.222857    0.107862   -0.916100
      6          6           0       -0.002086    0.090471    0.037880
      7          1           0       -0.514360    2.094911    0.904256
      8          1           0       -0.491081    2.063297   -0.903845
      9          1           0        2.262285    1.984863   -0.075827
     10          1           0        3.111333   -0.676007   -0.098124
     11          1           0        1.754768   -1.865057   -0.094798
     12          1           0       -0.771829   -0.674582   -0.068391
 ---------------------------------------------------------------------
                    Distance matrix (angstroms):
                    1          2          3          4          5
     1  C    0.000000
     2  C    1.533657   0.000000
     3  C    2.262740   1.559162   0.000000
     4  C    3.233334   2.223659   1.524823   0.000000
     5  N    2.215313   1.552697   1.875808   1.521914   0.000000
     6  C    1.533657   1.868784   1.559162   2.223659   1.552696
     7  H    1.089554   2.242947   2.685821   3.969089   3.206241
     8  H    1.091641   2.240090   3.236172   3.926241   2.600281
     9  H    2.392822   1.090460   2.393645   2.805947   2.304257
    10  H    3.950517   2.632154   2.264096   1.093021   2.202244
    11  H    3.950517   3.209263   2.264096   1.093021   2.202244
    12  H    2.392821   2.954493   2.393646   2.805948   2.304257
                    6          7          8          9         10
     6  C    0.000000
     7  H    2.242947   0.000000
     8  H    2.240090   1.808527   0.000000
     9  H    2.954493   2.946596   2.876246   0.000000
    10  H    3.209263   4.672088   4.596778   2.793136   0.000000
    11  H    2.632154   4.672087   4.596778   3.883275   1.803918
    12  H    1.090460   2.946595   2.876245   4.034668   3.883276
                   11         12
    11  H    0.000000
    12  H    2.793138   0.000000
 Stoichiometry    C5H6N(2)
 Framework group  C1[X(C5H6N)]
 Deg. of freedom    30
 Full point group                 C1      NOp   1
 RotChk:  IX=0 Diff= 1.19D-03
 Largest Abelian subgroup         C1      NOp   1
 Largest concise Abelian subgroup C1      NOp   1
                         Standard orientation:                         
 ---------------------------------------------------------------------
 Center     Atomic      Atomic             Coordinates (Angstroms)
 Number     Number       Type             X           Y           Z
 ---------------------------------------------------------------------
      1          6           0       -1.615061    0.000000   -0.004395
      2          6           0       -0.399753    0.934392    0.040796
      3          6           0        0.422339    0.000001    0.979978
      4          6           0        1.618048    0.000000    0.033741
      5          7           0        0.412991   -0.000001   -0.895807
      6          6           0       -0.399753   -0.934392    0.040797
      7          1           0       -2.261342    0.000001    0.872787
      8          1           0       -2.187006   -0.000000   -0.934212
      9          1           0       -0.329701    2.017334   -0.066128
     10          1           0        2.230943    0.901959   -0.040588
     11          1           0        2.230942   -0.901959   -0.040586
     12          1           0       -0.329703   -2.017334   -0.066125
 ---------------------------------------------------------------------
 Rotational constants (GHZ):           9.1437362           4.3651459           4.1390847
 Leave Link  202 at Thu Aug 25 05:18:50 2022, MaxMem=  8053063680 cpu:               0.1 elap:               0.0
 (Enter /public3/home/scg5914/software-scg5914/g16/l301.exe)
 Standard basis: 6-311+G(d,p) (5D, 7F)
 Ernie: Thresh=  0.10000D-02 Tol=  0.10000D-05 Strict=F.
 There are   174 symmetry adapted cartesian basis functions of A   symmetry.
 There are   168 symmetry adapted basis functions of A   symmetry.
   168 basis functions,   264 primitive gaussians,   174 cartesian basis functions
    22 alpha electrons       21 beta electrons
       nuclear repulsion energy       225.6529522331 Hartrees.
 IExCor=  402 DFT=T Ex+Corr=B3LYP ExCW=0 ScaHFX=  0.200000
 ScaDFX=  0.800000  0.720000  1.000000  0.810000 ScalE2=  1.000000  1.000000
 IRadAn=      5 IRanWt=     -1 IRanGd=            0 ICorTp=0 IEmpDi=141
 NAtoms=   12 NActive=   12 NUniq=   12 SFac= 1.00D+00 NAtFMM=   60 NAOKFM=F Big=F
 Integral buffers will be    131072 words long.
 Raffenetti 2 integral format.
 Two-electron integral symmetry is turned on.
 R6Disp:  Grimme-D3(BJ) Dispersion energy=       -0.0161870122 Hartrees.
 Nuclear repulsion after empirical dispersion term =      225.6367652209 Hartrees.
 Leave Link  301 at Thu Aug 25 05:18:50 2022, MaxMem=  8053063680 cpu:               0.6 elap:               0.0
 (Enter /public3/home/scg5914/software-scg5914/g16/l302.exe)
 NPDir=0 NMtPBC=     1 NCelOv=     1 NCel=       1 NClECP=     1 NCelD=      1
         NCelK=      1 NCelE2=     1 NClLst=     1 CellRange=     0.0.
 One-electron integrals computed using PRISM.
 One-electron integral symmetry used in STVInt
 NBasis=   168 RedAO= T EigKep=  1.48D-05  NBF=   168
 NBsUse=   168 1.00D-06 EigRej= -1.00D+00 NBFU=   168
 Precomputing XC quadrature grid using
 IXCGrd= 4 IRadAn=           5 IRanWt=          -1 IRanGd=           0 AccXCQ= 0.00D+00.
 Generated NRdTot=       0 NPtTot=           0 NUsed=           0 NTot=          32
 NSgBfM=   174   174   174   174   174 MxSgAt=    12 MxSgA2=    12.
 Leave Link  302 at Thu Aug 25 05:18:50 2022, MaxMem=  8053063680 cpu:               2.6 elap:               0.1
 (Enter /public3/home/scg5914/software-scg5914/g16/l303.exe)
 DipDrv:  MaxL=1.
 Leave Link  303 at Thu Aug 25 05:18:50 2022, MaxMem=  8053063680 cpu:               0.4 elap:               0.0
 (Enter /public3/home/scg5914/software-scg5914/g16/l401.exe)
 Initial guess from the checkpoint file:  "dsgdb9nsd_000696-4.chk"
 B after Tr=     0.000000   -0.000000    0.000000
         Rot=    1.000000   -0.000001    0.000371    0.000000 Ang=  -0.04 deg.
 Guess basis will be translated and rotated to current coordinates.
 JPrj=2 DoOrth=T DoCkMO=T.
 Initial guess <Sx>= 0.0000 <Sy>= 0.0000 <Sz>= 0.5000 <S**2>= 0.7539 S= 0.5020
 Generating alternative initial guess.
 ExpMin= 4.38D-02 ExpMax= 6.29D+03 ExpMxC= 9.49D+02 IAcc=3 IRadAn=         5 AccDes= 0.00D+00
 Harris functional with IExCor=  402 and IRadAn=       5 diagonalized for initial guess.
 HarFok:  IExCor=  402 AccDes= 0.00D+00 IRadAn=         5 IDoV= 1 UseB2=F ITyADJ=14
 ICtDFT=  3500011 ScaDFX=  1.000000  1.000000  1.000000  1.000000
 FoFCou: FMM=F IPFlag=           0 FMFlag=      100000 FMFlg1=           0
         NFxFlg=           0 DoJE=T BraDBF=F KetDBF=T FulRan=T
         wScrn=  0.000000 ICntrl=       500 IOpCl=  0 I1Cent=   200000004 NGrid=           0
         NMat0=    1 NMatS0=      1 NMatT0=    0 NMatD0=    1 NMtDS0=    0 NMtDT0=    0
 Petite list used in FoFCou.
 Harris En= -248.711457846024    
 Leave Link  401 at Thu Aug 25 05:18:50 2022, MaxMem=  8053063680 cpu:               9.8 elap:               0.3
 (Enter /public3/home/scg5914/software-scg5914/g16/l502.exe)
 Keep R1 and R2 ints in memory in canonical form, NReq=233584488.
 FoFCou: FMM=F IPFlag=           0 FMFlag=           0 FMFlg1=           0
         NFxFlg=           0 DoJE=F BraDBF=F KetDBF=F FulRan=T
         wScrn=  0.000000 ICntrl=       600 IOpCl=  0 I1Cent=           0 NGrid=           0
         NMat0=    1 NMatS0=  14196 NMatT0=    0 NMatD0=    1 NMtDS0=    0 NMtDT0=    0
 Symmetry not used in FoFCou.
 Two-electron integral symmetry not used.
 UHF open shell SCF:
 Using DIIS extrapolation, IDIIS=  1040.
 NGot=  8053063680 LenX=  7851454862 LenY=  7851424145
 Requested convergence on RMS density matrix=1.00D-08 within 128 cycles.
 Requested convergence on MAX density matrix=1.00D-06.
 Requested convergence on             energy=1.00D-06.
 No special actions if energy rises.

 Cycle   1  Pass 1  IDiag  1:
 E= -248.752698970070    
 DIIS: error= 2.75D-03 at cycle   1 NSaved=   1.
 NSaved= 1 IEnMin= 1 EnMin= -248.752698970070     IErMin= 1 ErrMin= 2.75D-03
 ErrMax= 2.75D-03  0.00D+00 EMaxC= 1.00D-01 BMatC= 6.02D-03 BMatP= 6.02D-03
 IDIUse=3 WtCom= 9.72D-01 WtEn= 2.75D-02
 Coeff-Com:  0.100D+01
 Coeff-En:   0.100D+01
 Coeff:      0.100D+01
 Gap=     0.536 Goal=   None    Shift=    0.000
 Gap=     0.668 Goal=   None    Shift=    0.000
 GapD=    0.536 DampG=2.000 DampE=1.000 DampFc=2.0000 IDamp=-1.
 RMSDP=2.67D-03 MaxDP=1.41D-01              OVMax= 2.84D-02

 Cycle   2  Pass 1  IDiag  1:
 E= -248.755264447395     Delta-E=       -0.002565477325 Rises=F Damp=F
 DIIS: error= 7.78D-04 at cycle   2 NSaved=   2.
 NSaved= 2 IEnMin= 2 EnMin= -248.755264447395     IErMin= 2 ErrMin= 7.78D-04
 ErrMax= 7.78D-04  0.00D+00 EMaxC= 1.00D-01 BMatC= 4.49D-04 BMatP= 6.02D-03
 IDIUse=3 WtCom= 9.92D-01 WtEn= 7.78D-03
 Coeff-Com:  0.295D-01 0.971D+00
 Coeff-En:   0.000D+00 0.100D+01
 Coeff:      0.292D-01 0.971D+00
 Gap=     0.190 Goal=   None    Shift=    0.000
 Gap=     0.249 Goal=   None    Shift=    0.000
 RMSDP=4.58D-04 MaxDP=2.52D-02 DE=-2.57D-03 OVMax= 1.31D-02

 Cycle   3  Pass 1  IDiag  1:
 E= -248.755008534423     Delta-E=        0.000255912972 Rises=F Damp=F
 DIIS: error= 1.70D-03 at cycle   3 NSaved=   3.
 NSaved= 3 IEnMin= 2 EnMin= -248.755264447395     IErMin= 2 ErrMin= 7.78D-04
 ErrMax= 1.70D-03  0.00D+00 EMaxC= 1.00D-01 BMatC= 1.68D-03 BMatP= 4.49D-04
 IDIUse=3 WtCom= 1.95D-01 WtEn= 8.05D-01
 Coeff-Com: -0.359D-01 0.691D+00 0.345D+00
 Coeff-En:   0.000D+00 0.732D+00 0.268D+00
 Coeff:     -0.700D-02 0.724D+00 0.283D+00
 Gap=     0.190 Goal=   None    Shift=    0.000
 Gap=     0.247 Goal=   None    Shift=    0.000
 RMSDP=2.58D-04 MaxDP=1.02D-02 DE= 2.56D-04 OVMax= 9.19D-03

 Cycle   4  Pass 1  IDiag  1:
 E= -248.755380172159     Delta-E=       -0.000371637736 Rises=F Damp=F
 DIIS: error= 2.15D-04 at cycle   4 NSaved=   4.
 NSaved= 4 IEnMin= 4 EnMin= -248.755380172159     IErMin= 4 ErrMin= 2.15D-04
 ErrMax= 2.15D-04  0.00D+00 EMaxC= 1.00D-01 BMatC= 2.48D-05 BMatP= 4.49D-04
 IDIUse=3 WtCom= 9.98D-01 WtEn= 2.15D-03
 Coeff-Com: -0.126D-01 0.147D+00-0.229D-01 0.888D+00
 Coeff-En:   0.000D+00 0.000D+00 0.000D+00 0.100D+01
 Coeff:     -0.126D-01 0.147D+00-0.228D-01 0.889D+00
[...]
   9. BD (   1) C   3 - N   5        / 39. RY*(   1) C   2                    1.85    1.43    0.068
   9. BD (   1) C   3 - N   5        / 73. RY*(   1) C   4                    2.84    1.46    0.085
   9. BD (   1) C   3 - N   5        /107. RY*(   1) C   6                    1.85    1.43    0.068
   9. BD (   1) C   3 - N   5        /158. BD*(   1) C   2 - C   3            3.39    0.61    0.060
   9. BD (   1) C   3 - N   5        /159. BD*(   1) C   2 - N   5           10.70    0.51    0.096
   9. BD (   1) C   3 - N   5        /160. BD*(   1) C   2 - H   9            1.67    0.70    0.045
   9. BD (   1) C   3 - N   5        /161. BD*(   1) C   3 - C   4            4.27    0.65    0.069
   9. BD (   1) C   3 - N   5        /162. BD*(   1) C   3 - N   5            0.85    0.23    0.018
   9. BD (   1) C   3 - N   5        /163. BD*(   1) C   3 - C   6            3.39    0.61    0.060
   9. BD (   1) C   3 - N   5        /164. BD*(   1) C   4 - N   5           13.27    0.54    0.110
   9. BD (   1) C   3 - N   5        /165. BD*(   1) C   4 - H  10            0.48    0.70    0.024
   9. BD (   1) C   3 - N   5        /166. BD*(   1) C   4 - H  11            0.48    0.70    0.024
   9. BD (   1) C   3 - N   5        /167. BD*(   1) N   5 - C   6           10.70    0.51    0.096
   9. BD (   1) C   3 - N   5        /168. BD*(   1) C   6 - H  12            1.67    0.70    0.045
  10. BD (   1) C   3 - C   6        / 74. RY*(   2) C   4                    0.27    1.71    0.027
  10. BD (   1) C   3 - C   6        / 90. RY*(   1) N   5                    0.25    1.25    0.023
  10. BD (   1) C   3 - C   6        /157. BD*(   1) C   1 - H   8            1.69    0.94    0.051
  10. BD (   1) C   3 - C   6        /159. BD*(   1) C   2 - N   5            0.72    0.75    0.029
  10. BD (   1) C   3 - C   6        /160. BD*(   1) C   2 - H   9            4.27    0.94    0.080
  10. BD (   1) C   3 - C   6        /162. BD*(   1) C   3 - N   5            5.37    0.47    0.065
  10. BD (   1) C   3 - C   6        /164. BD*(   1) C   4 - N   5            0.31    0.78    0.020
  10. BD (   1) C   3 - C   6        /165. BD*(   1) C   4 - H  10            1.89    0.94    0.054
  10. BD (   1) C   3 - C   6        /168. BD*(   1) C   6 - H  12            0.39    0.94    0.024
  11. BD (   1) C   4 - N   5        /154. BD*(   1) C   1 - C   2            0.34    1.01    0.024
  11. BD (   1) C   4 - N   5        /155. BD*(   1) C   1 - C   6            0.34    1.01    0.024
  11. BD (   1) C   4 - N   5        /162. BD*(   1) C   3 - N   5            7.79    0.60    0.088
  12. BD (   1) C   4 - H  10        /163. BD*(   1) C   3 - C   6            0.41    0.84    0.024
  12. BD (   1) C   4 - H  10        /167. BD*(   1) N   5 - C   6            0.46    0.74    0.023
  13. BD (   1) C   4 - H  11        /158. BD*(   1) C   2 - C   3            0.41    0.84    0.024
  13. BD (   1) C   4 - H  11        /159. BD*(   1) C   2 - N   5            0.46    0.74    0.023
  14. BD (   1) N   5 - C   6        / 74. RY*(   2) C   4                    0.30    1.79    0.029
  14. BD (   1) N   5 - C   6        /156. BD*(   1) C   1 - H   7            1.38    1.03    0.048
  14. BD (   1) N   5 - C   6        /160. BD*(   1) C   2 - H   9            2.42    1.02    0.063
  14. BD (   1) N   5 - C   6        /162. BD*(   1) C   3 - N   5            6.61    0.55    0.078
  14. BD (   1) N   5 - C   6        /165. BD*(   1) C   4 - H  10            1.08    1.02    0.042
  15. BD (   1) C   6 - H  12        / 58. RY*(   3) C   3                    0.39    1.45    0.030
  15. BD (   1) C   6 - H  12        /167. BD*(   1) N   5 - C   6            0.27    0.76    0.018
  16. CR (   1) C   1                /129. RY*(   1) H   8                    0.25   11.08    0.067
  16. CR (   1) C   1                /160. BD*(   1) C   2 - H   9            0.27   10.44    0.068
  16. CR (   1) C   1                /168. BD*(   1) C   6 - H  12            0.27   10.44    0.068
  17. CR (   1) C   2                /134. RY*(   1) H   9                    0.26   11.43    0.069
  17. CR (   1) C   2                /168. BD*(   1) C   6 - H  12            0.31   10.49    0.072
  18. CR (   1) C   3                /162. BD*(   1) C   3 - N   5            7.77   10.00    0.362
  19. CR (   1) C   4                / 57. RY*(   2) C   3                    0.48   10.98    0.092
  19. CR (   1) C   4                /164. BD*(   1) C   4 - N   5            0.26   10.32    0.066
  20. CR (   1) N   5                / 75. RY*(   3) C   4                    0.32   15.00    0.087
  20. CR (   1) N   5                /162. BD*(   1) C   3 - N   5            3.94   14.11    0.307
  20. CR (   1) N   5                /164. BD*(   1) C   4 - N   5            0.41   14.42    0.099
  21. CR (   1) C   6                /149. RY*(   1) H  12                    0.26   11.43    0.069
  21. CR (   1) C   6                /160. BD*(   1) C   2 - H   9            0.31   10.49    0.072
 159. BD*(   1) C   2 - N   5        /158. BD*(   1) C   2 - C   3            0.65    0.11    0.057
 162. BD*(   1) C   3 - N   5        /161. BD*(   1) C   3 - C   4            0.35    0.42    0.060
 164. BD*(   1) C   4 - N   5        / 75. RY*(   3) C   4                    0.34    0.58    0.103
 164. BD*(   1) C   4 - N   5        /158. BD*(   1) C   2 - C   3            0.38    0.07    0.035
 164. BD*(   1) C   4 - N   5        /161. BD*(   1) C   3 - C   4            0.79    0.11    0.062
 164. BD*(   1) C   4 - N   5        /163. BD*(   1) C   3 - C   6            0.38    0.07    0.035
 167. BD*(   1) N   5 - C   6        /163. BD*(   1) C   3 - C   6            0.65    0.11    0.057


 Natural Bond Orbitals (Summary):

                                                            Principal Delocalizations
           NBO                        Occupancy    Energy   (geminal,vicinal,remote)
 ====================================================================================
 Molecular unit  1  (C5H6N)
     1. BD (   1) C   1 - C   2          0.98704    -0.58616  168(v),155(g),167(v),164(v)
                                                    161(v),160(g)
     2. BD (   1) C   1 - C   6          0.98704    -0.58616  160(v),154(g),159(v),164(v)
                                                    161(v),168(g)
     3. BD (   1) C   1 - H   7          0.99212    -0.51895  159(v),167(v)
     4. BD (   1) C   1 - H   8          0.99178    -0.51736  159(v),167(v),158(v),163(v)
     5. BD (   1) C   2 - C   3          0.97321    -0.54175  162(g),168(v),166(v),157(v)
                                                    167(v),160(g),164(v),74(v)
     6. BD (   1) C   2 - N   5          0.98226    -0.62362  162(g),168(v),156(v),166(v)
                                                    74(v)
     7. BD (   1) C   2 - H   9          0.99584    -0.55401  58(v),159(g)
     8. BD (   1) C   3 - C   4          0.98325    -0.58579  162(g),154(v),155(v),159(v)
                                                    167(v),92(v)
     9. BD (   1) C   3 - N   5          0.90900    -0.30120  164(g),159(g),167(g),161(g)
                                                    158(g),163(g),73(v),39(v)
                                                    107(v),160(v),168(v),162(g)
                                                    165(v),166(v)
    10. BD (   1) C   3 - C   6          0.97321    -0.54175  162(g),160(v),165(v),157(v)
                                                    159(v),168(g),164(v),74(v)
    11. BD (   1) C   4 - N   5          0.98249    -0.67385  162(g),154(v),155(v)
    12. BD (   1) C   4 - H  10          0.99533    -0.53052  167(v),163(v)
    13. BD (   1) C   4 - H  11          0.99533    -0.53052  159(v),158(v)
    14. BD (   1) N   5 - C   6          0.98226    -0.62362  162(g),160(v),156(v),165(v)
                                                    74(v)
    15. BD (   1) C   6 - H  12          0.99584    -0.55401  58(v),167(g)
    16. CR (   1) C   1                  0.99964   -10.04667  160(v),168(v),129(v)
    17. CR (   1) C   2                  0.99960   -10.09839  168(r),134(v),167(v)
    18. CR (   1) C   3                  0.99917   -10.06838  162(g)
    19. CR (   1) C   4                  0.99964   -10.07658  57(v),164(g)
    20. CR (   1) N   5                  0.99980   -14.18247  162(g),164(g),75(v)
    21. CR (   1) C   6                  0.99960   -10.09839  160(r),149(v),159(v)
    22. RY*(   1) C   1                  0.00160     0.71322   
    23. RY*(   2) C   1                  0.00126     0.99589   
    24. RY*(   3) C   1                  0.00046     0.61407   
    25. RY*(   4) C   1                  0.00013     2.41971   
    26. RY*(   5) C   1                  0.00010     1.94682   
    27. RY*(   6) C   1                  0.00006     2.35723   
    28. RY*(   7) C   1                  0.00007     2.32265   
    29. RY*(   8) C   1                  0.00001     3.56344   
    30. RY*(   9) C   1                  0.00001     0.92734   
    31. RY*(  10) C   1                  0.00000     0.83671   
    32. RY*(  11) C   1                  0.00000     2.28235   
    33. RY*(  12) C   1                  0.00000     1.25967   
    34. RY*(  13) C   1                  0.00001     1.97703   
    35. RY*(  14) C   1                  0.00001     1.96272   
    36. RY*(  15) C   1                  0.00001     0.82076   
    37. RY*(  16) C   1                  0.00000    20.97977   
    38. RY*(  17) C   1                  0.00001     1.53260   
    39. RY*(   1) C   2                  0.00223     1.12703   
    40. RY*(   2) C   2                  0.00165     1.45853   
    41. RY*(   3) C   2                  0.00094     0.72090   
    42. RY*(   4) C   2                  0.00066     1.08172   
    43. RY*(   5) C   2                  0.00041     0.87493   
    44. RY*(   6) C   2                  0.00028     1.12468   
    45. RY*(   7) C   2                  0.00016     1.40087   
    46. RY*(   8) C   2                  0.00014     1.43469   
    47. RY*(   9) C   2                  0.00011     2.03346   
    48. RY*(  10) C   2                  0.00004     2.10459   
    49. RY*(  11) C   2                  0.00001     2.63929   
    50. RY*(  12) C   2                  0.00000     2.05011   
    51. RY*(  13) C   2                  0.00000    22.47320   
    52. RY*(  14) C   2                  0.00001     1.34543   
    53. RY*(  15) C   2                  0.00000     2.07175   
    54. RY*(  16) C   2                  0.00000     1.50821   
    55. RY*(  17) C   2                  0.00000     1.20703   
    56. RY*(   1) C   3                  0.00169     0.72005   
    57. RY*(   2) C   3                  0.00138     0.90678   
    58. RY*(   3) C   3                  0.00118     0.90042   
    59. RY*(   4) C   3                  0.00051     0.95201   
    60. RY*(   5) C   3                  0.00037     1.15198   
    61. RY*(   6) C   3                  0.00028     0.72709   
    62. RY*(   7) C   3                  0.00013     1.33583   
    63. RY*(   8) C   3                  0.00008     1.05191   
    64. RY*(   9) C   3                  0.00009     1.74138   
    65. RY*(  10) C   3                  0.00005     2.05670   
    66. RY*(  11) C   3                  0.00002     2.58588   
    67. RY*(  12) C   3                  0.00000     2.66953   
    68. RY*(  13) C   3                  0.00000     1.84315   
    69. RY*(  14) C   3                  0.00000     1.67834   
    70. RY*(  15) C   3                  0.00000    23.47647   
    71. RY*(  16) C   3                  0.00000     2.16266   
    72. RY*(  17) C   3                  0.00000     1.76928   
    73. RY*(   1) C   4                  0.00256     1.16076   
    74. RY*(   2) C   4                  0.00174     1.16978   
    75. RY*(   3) C   4                  0.00050     0.81728   
    76. RY*(   4) C   4                  0.00023     1.76355   
    77. RY*(   5) C   4                  0.00015     1.34884   
    78. RY*(   6) C   4                  0.00009     0.97488   
    79. RY*(   7) C   4                  0.00003     2.24356   
    80. RY*(   8) C   4                  0.00003     1.88133   
    81. RY*(   9) C   4                  0.00000     1.28791   
    82. RY*(  10) C   4                  0.00000    21.06694   
    83. RY*(  11) C   4                  0.00001     1.96521   
    84. RY*(  12) C   4                  0.00000     1.38186   
    85. RY*(  13) C   4                  0.00000     1.23364   
    86. RY*(  14) C   4                  0.00000     1.74323   
    87. RY*(  15) C   4                  0.00000     1.55169   
    88. RY*(  16) C   4                  0.00000     1.43892   
    89. RY*(  17) C   4                  0.00000     2.22288   
    90. RY*(   1) N   5                  0.00215     0.71243   
    91. RY*(   2) N   5                  0.00116     1.21495   
    92. RY*(   3) N   5                  0.00099     0.81750   
    93. RY*(   4) N   5                  0.00056     0.93158   
    94. RY*(   5) N   5                  0.00046     1.02702   
    95. RY*(   6) N   5                  0.00030     1.35471   
    96. RY*(   7) N   5                  0.00015     0.80640   
    97. RY*(   8) N   5                  0.00006     1.98341   
    98. RY*(   9) N   5                  0.00004     1.59755   
    99. RY*(  10) N   5                  0.00003     2.64294   
   100. RY*(  11) N   5                  0.00000     3.00923   
   101. RY*(  12) N   5                  0.00000     3.80977   
   102. RY*(  13) N   5                  0.00000     3.59391   
   103. RY*(  14) N   5                  0.00000     2.53432   
   104. RY*(  15) N   5                  0.00000     2.39220   
   105. RY*(  16) N   5                  0.00000    34.80165   
   106. RY*(  17) N   5                  0.00000     2.19747   
   107. RY*(   1) C   6                  0.00223     1.12703   
   108. RY*(   2) C   6                  0.00165     1.45853   
   109. RY*(   3) C   6                  0.00094     0.72090   
   110. RY*(   4) C   6                  0.00066     1.08172   
   111. RY*(   5) C   6                  0.00041     0.87493   
   112. RY*(   6) C   6                  0.00028     1.12468   
   113. RY*(   7) C   6                  0.00016     1.40087   
   114. RY*(   8) C   6                  0.00014     1.43469   
   115. RY*(   9) C   6                  0.00011     2.03346   
   116. RY*(  10) C   6                  0.00004     2.10459   
   117. RY*(  11) C   6                  0.00001     2.63929   
   118. RY*(  12) C   6                  0.00000     2.05011   
   119. RY*(  13) C   6                  0.00000    22.47320   
   120. RY*(  14) C   6                  0.00001     1.34543   
   121. RY*(  15) C   6                  0.00000     2.07175   
   122. RY*(  16) C   6                  0.00000     1.50821   
   123. RY*(  17) C   6                  0.00000     1.20703   
   124. RY*(   1) H   7                  0.00030     0.72846   
   125. RY*(   2) H   7                  0.00008     1.96359   
   126. RY*(   3) H   7                  0.00009     1.66352   
   127. RY*(   4) H   7                  0.00002     2.33227   
   128. RY*(   5) H   7                  0.00003     2.32172   
   129. RY*(   1) H   8                  0.00049     1.03383   
   130. RY*(   2) H   8                  0.00010     1.69556   
   131. RY*(   3) H   8                  0.00008     1.65062   
   132. RY*(   4) H   8                  0.00004     2.63672   
   133. RY*(   5) H   8                  0.00002     1.94227   
   134. RY*(   1) H   9                  0.00044     1.33600   
   135. RY*(   2) H   9                  0.00014     1.84348   
   136. RY*(   3) H   9                  0.00007     1.93146   
   137. RY*(   4) H   9                  0.00005     1.99116   
   138. RY*(   5) H   9                  0.00003     1.82848   
   139. RY*(   1) H  10                  0.00050     1.02547   
   140. RY*(   2) H  10                  0.00011     1.90815   
   141. RY*(   3) H  10                  0.00006     1.84416   
   142. RY*(   4) H  10                  0.00005     2.30730   
   143. RY*(   5) H  10                  0.00001     2.24384   
   144. RY*(   1) H  11                  0.00050     1.02547   
   145. RY*(   2) H  11                  0.00011     1.90815   
   146. RY*(   3) H  11                  0.00006     1.84416   
   147. RY*(   4) H  11                  0.00005     2.30730   
   148. RY*(   5) H  11                  0.00001     2.24384   
   149. RY*(   1) H  12                  0.00044     1.33600   
   150. RY*(   2) H  12                  0.00014     1.84348   
   151. RY*(   3) H  12                  0.00007     1.93146   
   152. RY*(   4) H  12                  0.00005     1.99116   
   153. RY*(   5) H  12                  0.00003     1.82848   
   154. BD*(   1) C   1 - C   2          0.00356     0.33629   
   155. BD*(   1) C   1 - C   6          0.00356     0.33629   
   156. BD*(   1) C   1 - H   7          0.00544     0.40258   
   157. BD*(   1) C   1 - H   8          0.00796     0.40123   
   158. BD*(   1) C   2 - C   3          0.00663     0.31044   
   159. BD*(   1) C   2 - N   5          0.02770     0.20482   
   160. BD*(   1) C   2 - H   9          0.01920     0.39526   
   161. BD*(   1) C   3 - C   4          0.00640     0.34785   
   162. BD*(   1) C   3 - N   5          0.05784    -0.07023   
   163. BD*(   1) C   3 - C   6          0.00663     0.31044   
   164. BD*(   1) C   4 - N   5          0.02905     0.23900   
   165. BD*(   1) C   4 - H  10          0.00873     0.39708   
   166. BD*(   1) C   4 - H  11          0.00873     0.39708   
   167. BD*(   1) N   5 - C   6          0.02770     0.20482   
   168. BD*(   1) C   6 - H  12          0.01920     0.39526   
       -------------------------------
              Total Lewis   20.72344  ( 98.6831%)
        Valence non-Lewis    0.23831  (  1.1348%)
        Rydberg non-Lewis    0.03825  (  0.1821%)
       -------------------------------
            Total unit  1   21.00000  (100.0000%)
           Charge unit  1    0.50000
 Leave Link  607 at Thu Aug 25 05:20:15 2022, MaxMem=  8053063680 cpu:              48.0 elap:               1.5
 (Enter /public3/home/scg5914/software-scg5914/g16/l9999.exe)
 Unable to Open any file for archive entry.
 1\1\GINC-E1201\SP\UB3LYP\Gen\C5H6N1(2)\SCG5914\25-Aug-2022\0\\#p b3lyp
 /chkbas pop=nbo geom=allcheck guess=tcheck em=gd3bj\\dsgdb9nsd_000696-
 4\\0,2\C,0,-0.0965845024,1.6157839041,0.0120290689\C,0,1.4048891781,1.
 3182593875,0.0324240197\C,0,1.2513004552,0.0806713171,0.9647732487\C,0
 ,2.0256294576,-0.805466724,-0.0083129324\N,0,1.2214029046,0.1095204118
 ,-0.9166628699\C,0,0.0016782073,0.0883231108,0.0358628049\H,0,-0.50343
 94568,2.082464885,0.9090213443\H,0,-0.4929673518,2.0654580264,-0.90056
 21449\H,0,2.2645023757,1.9757250842,-0.0837685026\H,0,3.1036022163,-0.
 6632933714,-0.0943563706\H,0,1.7431875948,-1.8557179798,-0.0910223759\
 H,0,-0.7630807382,-0.6779986237,-0.0763488241\\Version=ES64L-G16RevC.0
 1\State=2-A\HF=-248.7555683\S2=0.75351\S2-1=0.\S2A=0.750005\RMSD=2.561
 e-09\Dipole=-0.0743762,0.0845812,-0.0977205\Quadrupole=2.405115,2.4191
 501,-4.8242651,-0.0483115,-0.2338904,0.246745\PG=C01 [X(C5H6N1)]\\@
 The archive entry for this job was punched.


 THE 2ND LAW OF THERMODYNAMICS HAS THE SAME
 DEGREE OF TRUTH AS THE STATEMENT THAT IF YOU THROW
 A TUMBLERFULL OF WATER INTO THE SEA, YOU CANNOT GET
 THE SAME TUMBLERFULL OF WATER OUT AGAIN.
          - J.C. MAXWELL, LETTER TO LORD RAYLEIGH, DECEMBER 6,1870
 Job cpu time:       0 days  0 hours  1 minutes 27.9 seconds.
 Elapsed time:       0 days  0 hours  0 minutes  3.0 seconds.
 File lengths (MBytes):  RWF=     23 Int=      0 D2E=      0 Chk=      4 Scr=      1
 Normal termination of Gaussian 16 at Thu Aug 25 05:20:15 2022.
