 Entering Gaussian System, Link 0=/public3/home/scg5914/software-scg5914/g16/g16
 Input=dsgdb9nsd_000763-2-.gjf
 Output=dsgdb9nsd_000763-2-.log
 Initial command:
 /public3/home/scg5914/software-scg5914/g16/l1.exe "/public3/home/scg5914/software-scg5914/test/tmp/dsgdb9nsd_000763-2-/Gau-200102.inp" -scrdir="/public3/home/scg5914/software-scg5914/test/tmp/dsgdb9nsd_000763-2-/"
 Entering Link 1 = /public3/home/scg5914/software-scg5914/g16/l1.exe PID=    200106.
  
 Copyright (c) 1988-2019, Gaussian, Inc.  All Rights Reserved.
  
 This is part of the Gaussian(R) 16 program.  It is based on
 the Gaussian(R) 09 system (copyright 2009, Gaussian, Inc.),
 the Gaussian(R) 03 system (copyright 2003, Gaussian, Inc.),
 the Gaussian(R) 98 system (copyright 1998, Gaussian, Inc.),
 the Gaussian(R) 94 system (copyright 1995, Gaussian, Inc.),
 the Gaussian 92(TM) system (copyright 1992, Gaussian, Inc.),
 the Gaussian 90(TM) system (copyright 1990, Gaussian, Inc.),
 the Gaussian 88(TM) system (copyright 1988, Gaussian, Inc.),
 the Gaussian 86(TM) system (copyright 1986, Carnegie Mellon
 University), and the Gaussian 82(TM) system (copyright 1983,
 Carnegie Mellon University). Gaussian is a federally registered
 trademark of Gaussian, Inc.
  
 This software contains proprietary and confidential information,
 including trade secrets, belonging to Gaussian, Inc.
  
 This software is provided under written license and may be
 used, copied, transmitted, or stored only in accord with that
 written license.
  
 The following legend is applicable only to US Government
 contracts under FAR:
  
                    RESTRICTED RIGHTS LEGEND
  
 Use, reproduction and disclosure by the US Government is
 subject to restrictions as set forth in subparagraphs (a)
 and (c) of the Commercial Computer Software - Restricted
 Rights clause in FAR 52.227-19.
  
 Gaussian, Inc.
 340 Quinnipiac St., Bldg. 40, Wallingford CT 06492
  
  
 ---------------------------------------------------------------
 Warning -- This program may not be used in any manner that
 competes with the business of Gaussian, Inc. or will provide
 assistance to any competitor of Gaussian, Inc.  The licensee
 of this program is prohibited from giving any competitor of
 Gaussian, Inc. access to this program.  By using this program,
 the user acknowledges that Gaussian, Inc. is engaged in the
 business of creating and licensing software in the field of
 computational chemistry and represents and warrants to the
 licensee that it is not a competitor of Gaussian, Inc. and that
 it will not use this program in any manner prohibited above.
 ---------------------------------------------------------------
  

 Cite this work as:
 Gaussian 16, Revision C.01,
 M. J. Frisch, G. W. Trucks, H. B. Schlegel, G. E. Scuseria, 
 M. A. Robb, J. R. Cheeseman, G. Scalmani, V. Barone, 
 G. A. Petersson, H. Nakatsuji, X. Li, M. Caricato, A. V. Marenich, 
 J. Bloino, B. G. Janesko, R. Gomperts, B. Mennucci, H. P. Hratchian, 
 J. V. Ortiz, A. F. Izmaylov, J. L. Sonnenberg, D. Williams-Young, 
 F. Ding, F. Lipparini, F. Egidi, J. Goings, B. Peng, A. Petrone, 
 T. Henderson, D. Ranasinghe, V. G. Zakrzewski, J. Gao, N. Rega, 
 G. Zheng, W. Liang, M. Hada, M. Ehara, K. Toyota, R. Fukuda, 
 J. Hasegawa, M. Ishida, T. Nakajima, Y. Honda, O. Kitao, H. Nakai, 
 T. Vreven, K. Throssell, J. A. Montgomery, Jr., J. E. Peralta, 
 F. Ogliaro, M. J. Bearpark, J. J. Heyd, E. N. Brothers, K. N. Kudin, 
 V. N. Staroverov, T. A. Keith, R. Kobayashi, J. Normand, 
 K. Raghavachari, A. P. Rendell, J. C. Burant, S. S. Iyengar, 
 J. Tomasi, M. Cossi, J. M. Millam, M. Klene, C. Adamo, R. Cammi, 
 J. W. Ochterski, R. L. Martin, K. Morokuma, O. Farkas, 
 J. B. Foresman, and D. J. Fox, Gaussian, Inc., Wallingford CT, 2019.
 
 ******************************************
 Gaussian 16:  ES64L-G16RevC.01  3-Jul-2019
                24-Oct-2022 
 ******************************************
 %chk=dsgdb9nsd_000763-2.chk
 %mem=60GB
 %nprocshared=32
 Will use up to   32 processors via shared memory.
 ------------------------------------
 #p opt freq b3lyp/6-311+g** em=gd3bj
 ------------------------------------
 1/18=20,19=15,26=3,38=1/1,3;
 2/9=110,12=2,17=6,18=5,40=1/2;
 3/5=4,6=6,7=111,11=2,25=1,30=1,71=1,74=-5,124=41/1,2,3;
 4//1;
 5/5=2,38=5/2;
 6/7=2,8=2,9=2,10=2,28=1/1;
 7//1,2,3,16;
 1/18=20,19=15,26=3/3(2);
 2/9=110/2;
 99//99;
 2/9=110/2;
 3/5=4,6=6,7=111,11=2,25=1,30=1,71=1,74=-5,124=41/1,2,3;
 4/5=5,16=3,69=1/1;
 5/5=2,38=5/2;
 7//1,2,3,16;
 1/18=20,19=15,26=3/3(-5);
 2/9=110/2;
 6/7=2,8=2,9=2,10=2,19=2,28=1/1;
 99/9=1/99;
 Leave Link    1 at Mon Oct 24 22:53:16 2022, MaxMem=  8053063680 cpu:               0.9 elap:               0.0
 (Enter /public3/home/scg5914/software-scg5914/g16/l101.exe)
 ------------------
 dsgdb9nsd_000763-2
 ------------------
 Symbolic Z-matrix:
 Charge = -1 Multiplicity = 1
 N                     0.00912   1.40021   0.17103 
 C                    -0.06314   0.02067   0.0489 
 C                    -1.11076  -0.84868   0.01774 
 O                    -0.61132  -2.09592  -0.0403 
 N                     0.78141  -1.97905  -0.03619 
 N                     1.07813  -0.74902   0.01232 
 H                     0.92083   1.75151  -0.08998 
 H                    -2.18148  -0.74454   0.02891 
 
 ITRead=  0  0  0  0  0  0  0  0
 MicOpt= -1 -1 -1 -1 -1 -1 -1 -1
 NAtoms=      8 NQM=        8 NQMF=       0 NMMI=      0 NMMIF=      0
                NMic=       0 NMicF=      0.
                    Isotopes and Nuclear Properties:
 (Nuclear quadrupole moments (NQMom) in fm**2, nuclear magnetic moments (NMagM)
  in nuclear magnetons)

  Atom         1           2           3           4           5           6           7           8
 IAtWgt=          14          12          12          16          14          14           1           1
 AtmWgt=  14.0030740  12.0000000  12.0000000  15.9949146  14.0030740  14.0030740   1.0078250   1.0078250
 NucSpn=           2           0           0           0           2           2           1           1
 AtZEff=  -0.0000000  -0.0000000  -0.0000000  -0.0000000  -0.0000000  -0.0000000  -0.0000000  -0.0000000
 NQMom=    2.0440000   0.0000000   0.0000000   0.0000000   2.0440000   2.0440000   0.0000000   0.0000000
 NMagM=    0.4037610   0.0000000   0.0000000   0.0000000   0.4037610   0.4037610   2.7928460   2.7928460
 AtZNuc=   7.0000000   6.0000000   6.0000000   8.0000000   7.0000000   7.0000000   1.0000000   1.0000000
 Leave Link  101 at Mon Oct 24 22:53:16 2022, MaxMem=  8053063680 cpu:               4.4 elap:               0.2
 (Enter /public3/home/scg5914/software-scg5914/g16/l103.exe)

 GradGradGradGradGradGradGradGradGradGradGradGradGradGradGradGradGradGrad
 Berny optimization.
 Initialization pass.
                           ----------------------------
                           !    Initial Parameters    !
                           ! (Angstroms and Degrees)  !
 --------------------------                            --------------------------
 ! Name  Definition              Value          Derivative Info.                !
 --------------------------------------------------------------------------------
 ! R1    R(1,2)                  1.3868         estimate D2E/DX2                !
 ! R2    R(1,7)                  1.0113         estimate D2E/DX2                !
 ! R3    R(2,3)                  1.3617         estimate D2E/DX2                !
 ! R4    R(2,6)                  1.377          estimate D2E/DX2                !
 ! R5    R(3,4)                  1.3448         estimate D2E/DX2                !
 ! R6    R(3,8)                  1.0758         estimate D2E/DX2                !
 ! R7    R(4,5)                  1.3976         estimate D2E/DX2                !
 ! R8    R(5,6)                  1.2662         estimate D2E/DX2                !
 ! A1    A(2,1,7)              111.7027         estimate D2E/DX2                !
 ! A2    A(1,2,3)              132.6233         estimate D2E/DX2                !
 ! A3    A(1,2,6)              121.0087         estimate D2E/DX2                !
 ! A4    A(3,2,6)              106.27           estimate D2E/DX2                !
 ! A5    A(2,3,4)              107.9014         estimate D2E/DX2                !
 ! A6    A(2,3,8)              134.7204         estimate D2E/DX2                !
 ! A7    A(4,3,8)              117.3782         estimate D2E/DX2                !
 ! A8    A(3,4,5)              107.0023         estimate D2E/DX2                !
 ! A9    A(4,5,6)              108.3516         estimate D2E/DX2                !
 ! A10   A(2,6,5)              110.4732         estimate D2E/DX2                !
 ! D1    D(7,1,2,3)           -164.5702         estimate D2E/DX2                !
 ! D2    D(7,1,2,6)             19.5658         estimate D2E/DX2                !
 ! D3    D(1,2,3,4)           -176.5149         estimate D2E/DX2                !
 ! D4    D(1,2,3,8)              3.5243         estimate D2E/DX2                !
 ! D5    D(6,2,3,4)             -0.2071         estimate D2E/DX2                !
 ! D6    D(6,2,3,8)            179.8321         estimate D2E/DX2                !
 ! D7    D(1,2,6,5)            176.7953         estimate D2E/DX2                !
 ! D8    D(3,2,6,5)             -0.0354         estimate D2E/DX2                !
 ! D9    D(2,3,4,5)              0.3536         estimate D2E/DX2                !
 ! D10   D(8,3,4,5)           -179.6777         estimate D2E/DX2                !
 ! D11   D(3,4,5,6)             -0.3811         estimate D2E/DX2                !
 ! D12   D(4,5,6,2)              0.2549         estimate D2E/DX2                !
 --------------------------------------------------------------------------------
 Trust Radius=3.00D-01 FncErr=1.00D-07 GrdErr=1.00D-06 EigMax=2.50D+02 EigMin=1.00D-04
 Number of steps in this run=     40 maximum allowed number of steps=    100.
 GradGradGradGradGradGradGradGradGradGradGradGradGradGradGradGradGradGrad

 Leave Link  103 at Mon Oct 24 22:53:16 2022, MaxMem=  8053063680 cpu:               0.2 elap:               0.0
 (Enter /public3/home/scg5914/software-scg5914/g16/l202.exe)
                          Input orientation:                          
 ---------------------------------------------------------------------
 Center     Atomic      Atomic             Coordinates (Angstroms)
 Number     Number       Type             X           Y           Z
 ---------------------------------------------------------------------
      1          7           0        0.009116    1.400209    0.171034
      2          6           0       -0.063139    0.020672    0.048902
      3          6           0       -1.110761   -0.848681    0.017736
      4          8           0       -0.611321   -2.095915   -0.040302
      5          7           0        0.781413   -1.979045   -0.036187
      6          7           0        1.078129   -0.749017    0.012324
      7          1           0        0.920827    1.751512   -0.089979
      8          1           0       -2.181484   -0.744536    0.028908
 ---------------------------------------------------------------------
                    Distance matrix (angstroms):
                    1          2          3          4          5
     1  N    0.000000
     2  C    1.386816   0.000000
     3  C    2.516968   1.361711   0.000000
     4  O    3.557033   2.188242   1.344768   0.000000
     5  N    3.472569   2.172412   2.204757   1.397634   0.000000
     6  N    2.405649   1.377044   2.191164   2.161283   1.266240
     7  H    1.011316   1.995817   3.301508   4.141575   3.733549
     8  H    3.069016   2.252405   1.075834   2.072782   3.210452
                    6          7          8
     6  N    0.000000
     7  H    2.507559   0.000000
     8  H    3.259658   3.983557   0.000000
 Stoichiometry    C2H2N3O(1-)
 Framework group  C1[X(C2H2N3O)]
 Deg. of freedom    18
 Full point group                 C1      NOp   1
 Largest Abelian subgroup         C1      NOp   1
 Largest concise Abelian subgroup C1      NOp   1
                         Standard orientation:                         
 ---------------------------------------------------------------------
 Center     Atomic      Atomic             Coordinates (Angstroms)
 Number     Number       Type             X           Y           Z
 ---------------------------------------------------------------------
      1          7           0       -2.099018    0.131267   -0.044076
      2          6           0       -0.713486    0.108974    0.011258
      3          6           0        0.225355    1.095298    0.011229
      4          8           0        1.437220    0.512448    0.002830
      5          7           0        1.226173   -0.869094   -0.010637
      6          7           0       -0.022043   -1.081813   -0.002178
      7          1           0       -2.498356   -0.758379    0.223916
      8          1           0        0.193595    2.170649    0.016747
 ---------------------------------------------------------------------
 Rotational constants (GHZ):           9.8584886           3.9198478           2.8071488
 Leave Link  202 at Mon Oct 24 22:53:17 2022, MaxMem=  8053063680 cpu:               0.2 elap:               0.0
 (Enter /public3/home/scg5914/software-scg5914/g16/l301.exe)
 Standard basis: 6-311+G(d,p) (5D, 7F)
 Ernie: Thresh=  0.10000D-02 Tol=  0.10000D-05 Strict=F.
 There are   150 symmetry adapted cartesian basis functions of A   symmetry.
 There are   144 symmetry adapted basis functions of A   symmetry.
   144 basis functions,   232 primitive gaussians,   150 cartesian basis functions
    22 alpha electrons       22 beta electrons
       nuclear repulsion energy       217.6460759048 Hartrees.
 IExCor=  402 DFT=T Ex+Corr=B3LYP ExCW=0 ScaHFX=  0.200000
 ScaDFX=  0.800000  0.720000  1.000000  0.810000 ScalE2=  1.000000  1.000000
 IRadAn=      5 IRanWt=     -1 IRanGd=            0 ICorTp=0 IEmpDi=141
 NAtoms=    8 NActive=    8 NUniq=    8 SFac= 1.00D+00 NAtFMM=   60 NAOKFM=F Big=F
 Integral buffers will be    131072 words long.
 Raffenetti 2 integral format.
 Two-electron integral symmetry is turned on.
 R6Disp:  Grimme-D3(BJ) Dispersion energy=       -0.0107141721 Hartrees.
 Nuclear repulsion after empirical dispersion term =      217.6353617327 Hartrees.
 Leave Link  301 at Mon Oct 24 22:53:17 2022, MaxMem=  8053063680 cpu:               1.0 elap:               0.0
 (Enter /public3/home/scg5914/software-scg5914/g16/l302.exe)
 NPDir=0 NMtPBC=     1 NCelOv=     1 NCel=       1 NClECP=     1 NCelD=      1
         NCelK=      1 NCelE2=     1 NClLst=     1 CellRange=     0.0.
 One-electron integrals computed using PRISM.
 One-electron integral symmetry used in STVInt
 NBasis=   144 RedAO= T EigKep=  3.28D-05  NBF=   144
 NBsUse=   144 1.00D-06 EigRej= -1.00D+00 NBFU=   144
 Precomputing XC quadrature grid using
 IXCGrd= 4 IRadAn=           5 IRanWt=          -1 IRanGd=           0 AccXCQ= 0.00D+00.
 Generated NRdTot=       0 NPtTot=           0 NUsed=           0 NTot=          32
 NSgBfM=   150   150   150   150   150 MxSgAt=     8 MxSgA2=     8.
 Leave Link  302 at Mon Oct 24 22:53:17 2022, MaxMem=  8053063680 cpu:               3.2 elap:               0.1
 (Enter /public3/home/scg5914/software-scg5914/g16/l303.exe)
 DipDrv:  MaxL=1.
 Leave Link  303 at Mon Oct 24 22:53:17 2022, MaxMem=  8053063680 cpu:               1.6 elap:               0.1
 (Enter /public3/home/scg5914/software-scg5914/g16/l401.exe)
 ExpMin= 4.38D-02 ExpMax= 8.59D+03 ExpMxC= 1.30D+03 IAcc=3 IRadAn=         5 AccDes= 0.00D+00
 Harris functional with IExCor=  402 and IRadAn=       5 diagonalized for initial guess.
 HarFok:  IExCor=  402 AccDes= 0.00D+00 IRadAn=         5 IDoV= 1 UseB2=F ITyADJ=14
 ICtDFT=  3500011 ScaDFX=  1.000000  1.000000  1.000000  1.000000
 FoFCou: FMM=F IPFlag=           0 FMFlag=      100000 FMFlg1=           0
         NFxFlg=           0 DoJE=T BraDBF=F KetDBF=T FulRan=T
         wScrn=  0.000000 ICntrl=       500 IOpCl=  0 I1Cent=   200000004 NGrid=           0
         NMat0=    1 NMatS0=      1 NMatT0=    0 NMatD0=    1 NMtDS0=    0 NMtDT0=    0
 Petite list used in FoFCou.
 Harris En= -317.069282656170    
 JPrj=0 DoOrth=F DoCkMO=F.
 Leave Link  401 at Mon Oct 24 22:53:17 2022, MaxMem=  8053063680 cpu:               6.5 elap:               0.2
 (Enter /public3/home/scg5914/software-scg5914/g16/l502.exe)
 Keep R1 ints in memory in canonical form, NReq=85745128.
 FoFCou: FMM=F IPFlag=           0 FMFlag=           0 FMFlg1=           0
         NFxFlg=           0 DoJE=F BraDBF=F KetDBF=F FulRan=T
         wScrn=  0.000000 ICntrl=       600 IOpCl=  0 I1Cent=           0 NGrid=           0
         NMat0=    1 NMatS0=  10440 NMatT0=    0 NMatD0=    1 NMtDS0=    0 NMtDT0=    0
 Symmetry not used in FoFCou.
 Two-electron integral symmetry not used.
 Closed shell SCF:
 Using DIIS extrapolation, IDIIS=  1040.
 NGot=  8053063680 LenX=  7998510190 LenY=  7998487249
 Requested convergence on RMS density matrix=1.00D-08 within 128 cycles.
 Requested convergence on MAX density matrix=1.00D-06.
 Requested convergence on             energy=1.00D-06.
 No special actions if energy rises.

 Cycle   1  Pass 1  IDiag  1:
 E= -316.705645624882    
 DIIS: error= 3.29D-02 at cycle   1 NSaved=   1.
 NSaved= 1 IEnMin= 1 EnMin= -316.705645624882     IErMin= 1 ErrMin= 3.29D-02
 ErrMax= 3.29D-02  0.00D+00 EMaxC= 1.00D-01 BMatC= 2.54D-01 BMatP= 2.54D-01
 IDIUse=3 WtCom= 6.71D-01 WtEn= 3.29D-01
 Coeff-Com:  0.100D+01
 Coeff-En:   0.100D+01
 Coeff:      0.100D+01
 Gap=    -0.032 Goal=   None    Shift=    0.000
 GapD=   -0.032 DampG=0.250 DampE=0.500 DampFc=0.2500 IDamp=-1.
 Damping current iteration by 2.50D-01
 RMSDP=1.71D+00 MaxDP=1.38D+02              OVMax= 9.88D-01

 Cycle   2  Pass 1  IDiag  1:
 E= -316.607809831008     Delta-E=        0.097835793875 Rises=F Damp=T
 DIIS: error= 1.56D-02 at cycle   2 NSaved=   2.
 NSaved= 2 IEnMin= 1 EnMin= -316.705645624882     IErMin= 2 ErrMin= 1.56D-02
 ErrMax= 1.56D-02  0.00D+00 EMaxC= 1.00D-01 BMatC= 5.05D-02 BMatP= 2.54D-01
 IDIUse=3 WtCom= 8.44D-01 WtEn= 1.56D-01
 Coeff-Com:  0.712D-01 0.929D+00
 Coeff-En:   0.666D+00 0.334D+00
 Coeff:      0.164D+00 0.836D+00
 Gap=    -0.114 Goal=   None    Shift=    0.000
 RMSDP=4.23D-01 MaxDP=3.42D+01 DE= 9.78D-02 OVMax= 7.32D-01

 Cycle   3  Pass 1  IDiag  1:
 E= -316.780521074603     Delta-E=       -0.172711243596 Rises=F Damp=F
 DIIS: error= 3.60D-02 at cycle   3 NSaved=   3.
 NSaved= 3 IEnMin= 3 EnMin= -316.780521074603     IErMin= 2 ErrMin= 1.56D-02
 ErrMax= 3.60D-02  0.00D+00 EMaxC= 1.00D-01 BMatC= 1.29D-01 BMatP= 5.05D-02
 IDIUse=2 WtCom= 0.00D+00 WtEn= 1.00D+00
 EnCoef did     1 forward-backward iterations
 Coeff-En:   0.112D-01 0.221D+00 0.768D+00
 Coeff:      0.112D-01 0.221D+00 0.768D+00
 Gap=     0.179 Goal=   None    Shift=    0.000
 RMSDP=3.14D-02 MaxDP=1.66D+00 DE=-1.73D-01 OVMax= 7.24D-01

 Cycle   4  Pass 1  IDiag  1:
 E= -316.165051108098     Delta-E=        0.615469966505 Rises=F Damp=F
 DIIS: error= 8.87D-02 at cycle   4 NSaved=   4.
 NSaved= 4 IEnMin= 3 EnMin= -316.780521074603     IErMin= 2 ErrMin= 1.56D-02
 ErrMax= 8.87D-02  0.00D+00 EMaxC= 1.00D-01 BMatC= 6.52D-01 BMatP= 5.05D-02
 IDIUse=2 WtCom= 0.00D+00 WtEn= 1.00D+00
 Coeff-En:   0.000D+00 0.000D+00 0.770D+00 0.230D+00
 Coeff:      0.000D+00 0.000D+00 0.770D+00 0.230D+00
 Gap=     0.029 Goal=   None    Shift=    0.000
 RMSDP=2.43D-02 MaxDP=1.36D+00 DE= 6.15D-01 OVMax= 6.31D-01

 Cycle   5  Pass 1  IDiag  1:
 E= -316.897122148344     Delta-E=       -0.732071040245 Rises=F Damp=F
 DIIS: error= 1.85D-02 at cycle   5 NSaved=   5.
 NSaved= 5 IEnMin= 5 EnMin= -316.897122148344     IErMin= 2 ErrMin= 1.56D-02
 ErrMax= 1.85D-02  0.00D+00 EMaxC= 1.00D-01 BMatC= 3.28D-02 BMatP= 5.05D-02
 IDIUse=3 WtCom= 8.15D-01 WtEn= 1.85D-01
 Coeff-Com: -0.117D+00 0.297D+00 0.350D+00-0.308D-01 0.501D+00
 Coeff-En:   0.000D+00 0.000D+00 0.196D+00 0.000D+00 0.804D+00
 Coeff:     -0.952D-01 0.242D+00 0.322D+00-0.251D-01 0.557D+00
 Gap=     0.126 Goal=   None    Shift=    0.000
 RMSDP=5.93D-03 MaxDP=2.86D-01 DE=-7.32D-01 OVMax= 1.66D-01

 Cycle   6  Pass 1  IDiag  1:
 E= -316.916978367769     Delta-E=       -0.019856219425 Rises=F Damp=F
 DIIS: error= 8.98D-03 at cycle   6 NSaved=   6.
 NSaved= 6 IEnMin= 6 EnMin= -316.916978367769     IErMin= 6 ErrMin= 8.98D-03
 ErrMax= 8.98D-03  0.00D+00 EMaxC= 1.00D-01 BMatC= 9.93D-03 BMatP= 3.28D-02
 IDIUse=3 WtCom= 9.10D-01 WtEn= 8.98D-02
 Coeff-Com: -0.894D-01 0.130D+00 0.126D+00-0.250D-01 0.399D+00 0.459D+00
 Coeff-En:   0.000D+00 0.000D+00 0.000D+00 0.000D+00 0.293D+00 0.707D+00
 Coeff:     -0.814D-01 0.118D+00 0.115D+00-0.228D-01 0.390D+00 0.482D+00
 Gap=     0.118 Goal=   None    Shift=    0.000
 RMSDP=2.37D-03 MaxDP=1.10D-01 DE=-1.99D-02 OVMax= 4.88D-02

 Cycle   7  Pass 1  IDiag  1:
 E= -316.926635377836     Delta-E=       -0.009657010067 Rises=F Damp=F
 DIIS: error= 3.45D-03 at cycle   7 NSaved=   7.
 NSaved= 7 IEnMin= 7 EnMin= -316.926635377836     IErMin= 7 ErrMin= 3.45D-03
 ErrMax= 3.45D-03  0.00D+00 EMaxC= 1.00D-01 BMatC= 6.99D-04 BMatP= 9.93D-03
 IDIUse=3 WtCom= 9.66D-01 WtEn= 3.45D-02
 Coeff-Com: -0.558D-01 0.740D-01 0.132D-01-0.122D-01 0.137D+00 0.239D+00
 Coeff-Com:  0.604D+00
 Coeff-En:   0.000D+00 0.000D+00 0.000D+00 0.000D+00 0.000D+00 0.000D+00
 Coeff-En:   0.100D+01
 Coeff:     -0.539D-01 0.715D-01 0.127D-01-0.118D-01 0.133D+00 0.231D+00
 Coeff:      0.618D+00
 Gap=     0.117 Goal=   None    Shift=    0.000
 RMSDP=3.42D-04 MaxDP=1.50D-02 DE=-9.66D-03 OVMax= 1.08D-02

 Cycle   8  Pass 1  IDiag  1:
 E= -316.927082601825     Delta-E=       -0.000447223989 Rises=F Damp=F
 DIIS: error= 1.68D-03 at cycle   8 NSaved=   8.
 NSaved= 8 IEnMin= 8 EnMin= -316.927082601825     IErMin= 8 ErrMin= 1.68D-03
 ErrMax= 1.68D-03  0.00D+00 EMaxC= 1.00D-01 BMatC= 3.22D-04 BMatP= 6.99D-04
 IDIUse=3 WtCom= 9.83D-01 WtEn= 1.68D-02
 Coeff-Com: -0.221D-01 0.235D-01-0.266D-01 0.975D-03-0.901D-02 0.919D-02
 Coeff-Com:  0.394D+00 0.630D+00
 Coeff-En:   0.000D+00 0.000D+00 0.000D+00 0.000D+00 0.000D+00 0.000D+00
 Coeff-En:   0.000D+00 0.100D+01
 Coeff:     -0.217D-01 0.231D-01-0.261D-01 0.959D-03-0.886D-02 0.903D-02
 Coeff:      0.388D+00 0.636D+00
 Gap=     0.115 Goal=   None    Shift=    0.000
 RMSDP=4.98D-04 MaxDP=2.45D-02 DE=-4.47D-04 OVMax= 8.65D-03

 Cycle   9  Pass 1  IDiag  1:
 E= -316.927411142507     Delta-E=       -0.000328540683 Rises=F Damp=F
 DIIS: error= 7.15D-04 at cycle   9 NSaved=   9.
 NSaved= 9 IEnMin= 9 EnMin= -316.927411142507     IErMin= 9 ErrMin= 7.15D-04
 ErrMax= 7.15D-04  0.00D+00 EMaxC= 1.00D-01 BMatC= 3.74D-05 BMatP= 3.22D-04
 IDIUse=3 WtCom= 9.93D-01 WtEn= 7.15D-03
 Coeff-Com: -0.302D-02 0.356D-02-0.707D-02 0.138D-02-0.914D-02-0.370D-01
 Coeff-Com: -0.398D-01 0.112D+00 0.980D+00
 Coeff-En:   0.000D+00 0.000D+00 0.000D+00 0.000D+00 0.000D+00 0.000D+00
 Coeff-En:   0.000D+00 0.000D+00 0.100D+01
 Coeff:     -0.300D-02 0.354D-02-0.702D-02 0.137D-02-0.908D-02-0.367D-01
 Coeff:     -0.395D-01 0.111D+00 0.980D+00
 Gap=     0.115 Goal=   None    Shift=    0.000
 RMSDP=2.76D-04 MaxDP=1.42D-02 DE=-3.29D-04 OVMax= 3.00D-03

 Cycle  10  Pass 1  IDiag  1:
 E= -316.927449452497     Delta-E=       -0.000038309989 Rises=F Damp=F
 DIIS: error= 2.46D-04 at cycle  10 NSaved=  10.
 NSaved=10 IEnMin=10 EnMin= -316.927449452497     IErMin=10 ErrMin= 2.46D-04
 ErrMax= 2.46D-04  0.00D+00 EMaxC= 1.00D-01 BMatC= 5.71D-06 BMatP= 3.74D-05
 IDIUse=3 WtCom= 9.98D-01 WtEn= 2.46D-03
 Coeff-Com: -0.498D-03 0.126D-02-0.360D-03 0.240D-03-0.875D-03-0.234D-01
 Coeff-Com: -0.742D-01-0.226D-01 0.638D+00 0.483D+00
 Coeff-En:   0.000D+00 0.000D+00 0.000D+00 0.000D+00 0.000D+00 0.000D+00
 Coeff-En:   0.000D+00 0.000D+00 0.000D+00 0.100D+01
 Coeff:     -0.497D-03 0.126D-02-0.359D-03 0.239D-03-0.872D-03-0.234D-01
 Coeff:     -0.740D-01-0.225D-01 0.636D+00 0.484D+00
 Gap=     0.114 Goal=   None    Shift=    0.000
 RMSDP=5.10D-05 MaxDP=2.52D-03 DE=-3.83D-05 OVMax= 9.61D-04

 Cycle  11  Pass 1  IDiag  1:
 E= -316.927454493379     Delta-E=       -0.000005040882 Rises=F Damp=F
 DIIS: error= 6.97D-05 at cycle  11 NSaved=  11.
 NSaved=11 IEnMin=11 EnMin= -316.927454493379     IErMin=11 ErrMin= 6.97D-05
 ErrMax= 6.97D-05  0.00D+00 EMaxC= 1.00D-01 BMatC= 3.35D-07 BMatP= 5.71D-06
 IDIUse=1 WtCom= 1.00D+00 WtEn= 0.00D+00
 Coeff-Com:  0.829D-04-0.766D-04 0.387D-03 0.956D-04 0.462D-03-0.783D-02
 Coeff-Com: -0.263D-01-0.215D-01 0.167D+00 0.214D+00 0.674D+00
 Coeff:      0.829D-04-0.766D-04 0.387D-03 0.956D-04 0.462D-03-0.783D-02
 Coeff:     -0.263D-01-0.215D-01 0.167D+00 0.214D+00 0.674D+00
 Gap=     0.114 Goal=   None    Shift=    0.000
 RMSDP=2.36D-05 MaxDP=1.22D-03 DE=-5.04D-06 OVMax= 5.50D-04

 Cycle  12  Pass 1  IDiag  1:
 E= -316.927454749027     Delta-E=       -0.000000255648 Rises=F Damp=F
 DIIS: error= 4.22D-05 at cycle  12 NSaved=  12.
 NSaved=12 IEnMin=12 EnMin= -316.927454749027     IErMin=12 ErrMin= 4.22D-05
 ErrMax= 4.22D-05  0.00D+00 EMaxC= 1.00D-01 BMatC= 1.23D-07 BMatP= 3.35D-07
 IDIUse=1 WtCom= 1.00D+00 WtEn= 0.00D+00
 Coeff-Com:  0.580D-04-0.451D-04 0.445D-03-0.256D-04 0.547D-03-0.362D-02
 Coeff-Com: -0.127D-01-0.128D-01 0.619D-01 0.105D+00 0.492D+00 0.369D+00
 Coeff:      0.580D-04-0.451D-04 0.445D-03-0.256D-04 0.547D-03-0.362D-02
 Coeff:     -0.127D-01-0.128D-01 0.619D-01 0.105D+00 0.492D+00 0.369D+00
 Gap=     0.114 Goal=   None    Shift=    0.000
 RMSDP=4.22D-06 MaxDP=1.16D-04 DE=-2.56D-07 OVMax= 1.42D-04

 Cycle  13  Pass 1  IDiag  1:
 E= -316.927454857561     Delta-E=       -0.000000108533 Rises=F Damp=F
 DIIS: error= 6.56D-06 at cycle  13 NSaved=  13.
 NSaved=13 IEnMin=13 EnMin= -316.927454857561     IErMin=13 ErrMin= 6.56D-06
 ErrMax= 6.56D-06  0.00D+00 EMaxC= 1.00D-01 BMatC= 5.24D-09 BMatP= 1.23D-07
 IDIUse=1 WtCom= 1.00D+00 WtEn= 0.00D+00
 Coeff-Com:  0.320D-04-0.508D-04 0.137D-03-0.411D-05 0.511D-04-0.672D-03
 Coeff-Com: -0.171D-02 0.145D-04 0.587D-02 0.159D-01 0.104D+00 0.974D-01
 Coeff-Com:  0.779D+00
 Coeff:      0.320D-04-0.508D-04 0.137D-03-0.411D-05 0.511D-04-0.672D-03
 Coeff:     -0.171D-02 0.145D-04 0.587D-02 0.159D-01 0.104D+00 0.974D-01
 Coeff:      0.779D+00
 Gap=     0.114 Goal=   None    Shift=    0.000
 RMSDP=1.12D-06 MaxDP=4.18D-05 DE=-1.09D-07 OVMax= 2.34D-05

 Cycle  14  Pass 1  IDiag  1:
 E= -316.927454862081     Delta-E=       -0.000000004520 Rises=F Damp=F
 DIIS: error= 3.31D-06 at cycle  14 NSaved=  14.
 NSaved=14 IEnMin=14 EnMin= -316.927454862081     IErMin=14 ErrMin= 3.31D-06
 ErrMax= 3.31D-06  0.00D+00 EMaxC= 1.00D-01 BMatC= 1.14D-09 BMatP= 5.24D-09
 IDIUse=1 WtCom= 1.00D+00 WtEn= 0.00D+00
 Coeff-Com:  0.548D-05-0.351D-05 0.151D-04-0.218D-05-0.127D-04 0.933D-04
 Coeff-Com:  0.241D-03 0.138D-02-0.117D-02-0.138D-02-0.366D-02-0.154D-01
 Coeff-Com:  0.119D+00 0.901D+00
 Coeff:      0.548D-05-0.351D-05 0.151D-04-0.218D-05-0.127D-04 0.933D-04
 Coeff:      0.241D-03 0.138D-02-0.117D-02-0.138D-02-0.366D-02-0.154D-01
 Coeff:      0.119D+00 0.901D+00
 Gap=     0.114 Goal=   None    Shift=    0.000
 RMSDP=1.28D-06 MaxDP=6.68D-05 DE=-4.52D-09 OVMax= 1.50D-05

 Cycle  15  Pass 1  IDiag  1:
 E= -316.927454863300     Delta-E=       -0.000000001219 Rises=F Damp=F
 DIIS: error= 4.43D-07 at cycle  15 NSaved=  15.
 NSaved=15 IEnMin=15 EnMin= -316.927454863300     IErMin=15 ErrMin= 4.43D-07
 ErrMax= 4.43D-07  0.00D+00 EMaxC= 1.00D-01 BMatC= 2.54D-11 BMatP= 1.14D-09
 IDIUse=1 WtCom= 1.00D+00 WtEn= 0.00D+00
 Coeff-Com:  0.114D-05 0.110D-07-0.339D-05-0.484D-06-0.272D-05 0.624D-04
 Coeff-Com:  0.828D-04 0.322D-03-0.335D-03-0.608D-03-0.544D-02-0.109D-01
 Coeff-Com: -0.257D-01 0.196D+00 0.847D+00
 Coeff:      0.114D-05 0.110D-07-0.339D-05-0.484D-06-0.272D-05 0.624D-04
 Coeff:      0.828D-04 0.322D-03-0.335D-03-0.608D-03-0.544D-02-0.109D-01
 Coeff:     -0.257D-01 0.196D+00 0.847D+00
 Gap=     0.114 Goal=   None    Shift=    0.000
 RMSDP=1.69D-07 MaxDP=7.03D-06 DE=-1.22D-09 OVMax= 1.77D-06

 Cycle  16  Pass 1  IDiag  1:
 E= -316.927454863326     Delta-E=       -0.000000000026 Rises=F Damp=F
 DIIS: error= 5.10D-08 at cycle  16 NSaved=  16.
 NSaved=16 IEnMin=16 EnMin= -316.927454863326     IErMin=16 ErrMin= 5.10D-08
 ErrMax= 5.10D-08  0.00D+00 EMaxC= 1.00D-01 BMatC= 5.14D-13 BMatP= 2.54D-11
 IDIUse=1 WtCom= 1.00D+00 WtEn= 0.00D+00
 Coeff-Com:  0.188D-06-0.217D-06-0.165D-05-0.710D-07 0.282D-06 0.131D-04
 Coeff-Com:  0.349D-05 0.736D-05-0.972D-05-0.127D-04-0.126D-02-0.243D-02
 Coeff-Com: -0.146D-01 0.365D-03 0.252D+00 0.766D+00
 Coeff:      0.188D-06-0.217D-06-0.165D-05-0.710D-07 0.282D-06 0.131D-04
 Coeff:      0.349D-05 0.736D-05-0.972D-05-0.127D-04-0.126D-02-0.243D-02
 Coeff:     -0.146D-01 0.365D-03 0.252D+00 0.766D+00
 Gap=     0.114 Goal=   None    Shift=    0.000
 RMSDP=2.15D-08 MaxDP=1.02D-06 DE=-2.57D-11 OVMax= 2.41D-07

 Cycle  17  Pass 1  IDiag  1:
 E= -316.927454863327     Delta-E=       -0.000000000002 Rises=F Damp=F
 DIIS: error= 1.28D-08 at cycle  17 NSaved=  17.
 NSaved=17 IEnMin=17 EnMin= -316.927454863327     IErMin=17 ErrMin= 1.28D-08
 ErrMax= 1.28D-08  0.00D+00 EMaxC= 1.00D-01 BMatC= 2.18D-14 BMatP= 5.14D-13
 IDIUse=1 WtCom= 1.00D+00 WtEn= 0.00D+00
 Coeff-Com: -0.632D-07 0.413D-07-0.483D-08-0.195D-07 0.713D-07-0.554D-06
 Coeff-Com: -0.247D-05-0.127D-04 0.214D-04 0.375D-04 0.349D-04-0.725D-05
 Coeff-Com: -0.129D-02-0.786D-02 0.668D-02 0.152D+00 0.850D+00
 Coeff:     -0.632D-07 0.413D-07-0.483D-08-0.195D-07 0.713D-07-0.554D-06
 Coeff:     -0.247D-05-0.127D-04 0.214D-04 0.375D-04 0.349D-04-0.725D-05
 Coeff:     -0.129D-02-0.786D-02 0.668D-02 0.152D+00 0.850D+00
 Gap=     0.114 Goal=   None    Shift=    0.000
 RMSDP=8.42D-09 MaxDP=3.84D-07 DE=-1.82D-12 OVMax= 6.80D-08

 SCF Done:  E(RB3LYP) =  -316.927454863     A.U. after   17 cycles
            NFock= 17  Conv=0.84D-08     -V/T= 2.0030
 KE= 3.159918932950D+02 PE=-1.186415772838D+03 EE= 3.358610629471D+02
 Leave Link  502 at Mon Oct 24 22:53:20 2022, MaxMem=  8053063680 cpu:              78.8 elap:               3.0
 (Enter /public3/home/scg5914/software-scg5914/g16/l601.exe)
 Copying SCF densities to generalized density rwf, IOpCl= 0 IROHF=0.

 **********************************************************************

            Population analysis using the SCF Density.

 **********************************************************************

 Orbital symmetries:
       Occupied  (A) (A) (A) (A) (A) (A) (A) (A) (A) (A) (A) (A)
                 (A) (A) (A) (A) (A) (A) (A) (A) (A) (A)
       Virtual   (A) (A) (A) (A) (A) (A) (A) (A) (A) (A) (A) (A)
                 (A) (A) (A) (A) (A) (A) (A) (A) (A) (A) (A) (A)
                 (A) (A) (A) (A) (A) (A) (A) (A) (A) (A) (A) (A)
                 (A) (A) (A) (A) (A) (A) (A) (A) (A) (A) (A) (A)
                 (A) (A) (A) (A) (A) (A) (A) (A) (A) (A) (A) (A)
                 (A) (A) (A) (A) (A) (A) (A) (A) (A) (A) (A) (A)
                 (A) (A) (A) (A) (A) (A) (A) (A) (A) (A) (A) (A)
                 (A) (A) (A) (A) (A) (A) (A) (A) (A) (A) (A) (A)
                 (A) (A) (A) (A) (A) (A) (A) (A) (A) (A) (A) (A)
                 (A) (A) (A) (A) (A) (A) (A) (A) (A) (A) (A) (A)
                 (A) (A)
 The electronic state is 1-A.
 Alpha  occ. eigenvalues --  -19.04343 -14.23381 -14.17516 -14.05011 -10.04207
 Alpha  occ. eigenvalues --  -10.03999  -1.00282  -0.80896  -0.67142  -0.57514
 Alpha  occ. eigenvalues --   -0.45407  -0.45067  -0.34307  -0.32242  -0.28423
 Alpha  occ. eigenvalues --   -0.22529  -0.19276  -0.18185  -0.13341  -0.12672
 Alpha  occ. eigenvalues --   -0.05309   0.01286
 Alpha virt. eigenvalues --    0.12722   0.13996   0.16233   0.17721   0.19453
 Alpha virt. eigenvalues --    0.20009   0.22283   0.22524   0.23215   0.25449
 Alpha virt. eigenvalues --    0.26077   0.28210   0.28471   0.30072   0.30426
 Alpha virt. eigenvalues --    0.31887   0.33622   0.34026   0.34987   0.36952
 Alpha virt. eigenvalues --    0.37481   0.38905   0.39228   0.39425   0.42224
 Alpha virt. eigenvalues --    0.42430   0.45636   0.46305   0.46807   0.51017
 Alpha virt. eigenvalues --    0.53563   0.55422   0.61300   0.64323   0.70501
 Alpha virt. eigenvalues --    0.75819   0.77713   0.78523   0.81567   0.84476
 Alpha virt. eigenvalues --    0.89800   0.93984   0.96167   0.97972   0.99995
 Alpha virt. eigenvalues --    1.01223   1.02553   1.04387   1.07629   1.08317
 Alpha virt. eigenvalues --    1.09521   1.13321   1.18052   1.19792   1.26459
 Alpha virt. eigenvalues --    1.28092   1.31510   1.34008   1.40275   1.46646
 Alpha virt. eigenvalues --    1.48680   1.55182   1.60437   1.63452   1.71605
 Alpha virt. eigenvalues --    1.77706   1.81582   1.87734   1.89351   1.92132
 Alpha virt. eigenvalues --    1.98795   2.02616   2.03256   2.15611   2.20258
 Alpha virt. eigenvalues --    2.20737   2.23291   2.43020   2.43991   2.46703
 Alpha virt. eigenvalues --    2.52591   2.60765   2.67271   2.74621   2.79177
 Alpha virt. eigenvalues --    2.81656   2.81866   2.85517   2.91874   2.96132
 Alpha virt. eigenvalues --    3.02583   3.06212   3.11475   3.19685   3.21487
 Alpha virt. eigenvalues --    3.31936   3.34775   3.39189   3.44718   3.56550
 Alpha virt. eigenvalues --    3.58193   3.75646   3.89953   4.07813   4.13438
 Alpha virt. eigenvalues --    4.13687   4.15806   4.17545   4.46676   4.54303
 Alpha virt. eigenvalues --    4.74344   5.08563   5.11094   5.28945   5.59929
 Alpha virt. eigenvalues --    6.05884  23.87432  24.34154  35.51174  35.78903
 Alpha virt. eigenvalues --   35.86100  50.01153
          Condensed to atoms (all electrons):
               1          2          3          4          5          6
     1  N    7.349920   0.668533  -0.496461   0.009046   0.071194  -0.160859
     2  C    0.668533   6.693203  -1.236440  -0.201132   0.200742   0.289288
     3  C   -0.496461  -1.236440   7.458203   0.160497  -0.039378  -0.386812
     4  O    0.009046  -0.201132   0.160497   8.131135  -0.142616   0.060329
     5  N    0.071194   0.200742  -0.039378  -0.142616   7.604590  -0.525910
     6  N   -0.160859   0.289288  -0.386812   0.060329  -0.525910   7.897802
     7  H    0.206509  -0.078231   0.138315  -0.001130   0.009082  -0.057951
     8  H   -0.000360  -0.026348   0.428988  -0.058346   0.008103   0.007763
               7          8
     1  N    0.206509  -0.000360
     2  C   -0.078231  -0.026348
     3  C    0.138315   0.428988
     4  O   -0.001130  -0.058346
     5  N    0.009082   0.008103
     6  N   -0.057951   0.007763
     7  H    0.635732  -0.000062
     8  H   -0.000062   0.536709
 Mulliken charges:
               1
     1  N   -0.647522
     2  C   -0.309614
     3  C   -0.026912
     4  O    0.042217
     5  N   -0.185807
     6  N   -0.123650
     7  H    0.147736
     8  H    0.103553
 Sum of Mulliken charges =  -1.00000
 Mulliken charges with hydrogens summed into heavy atoms:
               1
     1  N   -0.499786
     2  C   -0.309614
     3  C    0.076641
     4  O    0.042217
     5  N   -0.185807
     6  N   -0.123650
 Electronic spatial extent (au):  <R**2>=            444.9665
 Charge=             -1.0000 electrons
 Dipole moment (field-independent basis, Debye):
    X=              3.6537    Y=              0.7544    Z=              0.4532  Tot=              3.7582
 Quadrupole moment (field-independent basis, Debye-Ang):
   XX=            -58.1859   YY=            -40.8835   ZZ=            -39.0108
   XY=              5.6519   XZ=             -1.2758   YZ=             -0.4268
 Traceless Quadrupole moment (field-independent basis, Debye-Ang):
   XX=            -12.1591   YY=              5.1432   ZZ=              7.0159
   XY=              5.6519   XZ=             -1.2758   YZ=             -0.4268
 Octapole moment (field-independent basis, Debye-Ang**2):
  XXX=             37.5630  YYY=             10.2649  ZZZ=              0.3336  XYY=              2.9819
  XXY=            -11.4419  XXZ=              3.4199  XZZ=              7.8243  YZZ=             -2.0572
  YYZ=              0.2117  XYZ=              0.9224
 Hexadecapole moment (field-independent basis, Debye-Ang**3):
 XXXX=           -510.3833 YYYY=           -190.9392 ZZZZ=            -48.6885 XXXY=             45.4285
 XXXZ=             -9.1511 YYYX=             11.7483 YYYZ=             -0.4037 ZZZX=             -1.4786
 ZZZY=             -0.6813 XXYY=           -110.0280 XXZZ=            -85.4743 YYZZ=            -43.0750
 XXYZ=             -2.4659 YYXZ=             -0.5152 ZZXY=              3.0698
 N-N= 2.176353617327D+02 E-N=-1.186415772423D+03  KE= 3.159918932950D+02
 No NMR shielding tensors so no spin-rotation constants.
 Leave Link  601 at Mon Oct 24 22:53:21 2022, MaxMem=  8053063680 cpu:               2.3 elap:               0.1
 (Enter /public3/home/scg5914/software-scg5914/g16/l701.exe)
 ... and contract with generalized density number  0.
 Compute integral first derivatives.
 R6Disp: Adding Grimme-D3(BJ) dispersion energy 1st derivatives to the gradient.
 Leave Link  701 at Mon Oct 24 22:53:21 2022, MaxMem=  8053063680 cpu:               3.0 elap:               0.1
 (Enter /public3/home/scg5914/software-scg5914/g16/l702.exe)
 L702 exits ... SP integral derivatives will be done elsewhere.
 Leave Link  702 at Mon Oct 24 22:53:21 2022, MaxMem=  8053063680 cpu:               0.2 elap:               0.0
 (Enter /public3/home/scg5914/software-scg5914/g16/l703.exe)
 Integral derivatives from FoFJK, PRISM(SPDF).
 Compute integral first derivatives, UseDBF=F ICtDFT=           0.
 Calling FoFJK, ICntrl=      2127 FMM=F ISym2X=0 I1Cent= 0 IOpClX= 0 NMat=1 NMatS=1 NMatT=0.
 FoFJK:  IHMeth= 1 ICntrl=    2127 DoSepK=F KAlg= 0 I1Cent=           0 FoldK=F
 IRaf=         0 NMat=       1 IRICut=       1 DoRegI=T DoRafI=F ISym2E= 0 IDoP0=0 IntGTp=1.
 FoFCou: FMM=F IPFlag=           0 FMFlag=      100000 FMFlg1=         800
         NFxFlg=           0 DoJE=F BraDBF=F KetDBF=F FulRan=T
         wScrn=  0.000000 ICntrl=      2127 IOpCl=  0 I1Cent=           0 NGrid=           0
         NMat0=    1 NMatS0=      1 NMatT0=    0 NMatD0=    1 NMtDS0=    0 NMtDT0=    0
 Symmetry not used in FoFCou.
 Leave Link  703 at Mon Oct 24 22:53:22 2022, MaxMem=  8053063680 cpu:              21.6 elap:               0.7
 (Enter /public3/home/scg5914/software-scg5914/g16/l716.exe)
 Dipole        = 1.43746203D+00 2.96820132D-01 1.78282952D-01
 ***** Axes restored to original set *****
 -------------------------------------------------------------------
 Center     Atomic                   Forces (Hartrees/Bohr)
 Number     Number              X              Y              Z
 -------------------------------------------------------------------
      1        7          -0.028372465   -0.030521047   -0.003963162
      2        6           0.021772558    0.097254541    0.007769854
      3        6          -0.020045689   -0.001629131   -0.000804602
      4        8           0.000763845   -0.023913846    0.002474653
      5        7           0.007464657   -0.009420278   -0.003185680
      6        7           0.009276477   -0.024613672   -0.003138200
      7        1           0.007349375   -0.008306178    0.001265353
      8        1           0.001791242    0.001149611   -0.000418217
 -------------------------------------------------------------------
 Cartesian Forces:  Max     0.097254541 RMS     0.023904730
 Leave Link  716 at Mon Oct 24 22:53:22 2022, MaxMem=  8053063680 cpu:               0.3 elap:               0.0
 (Enter /public3/home/scg5914/software-scg5914/g16/l103.exe)

 GradGradGradGradGradGradGradGradGradGradGradGradGradGradGradGradGradGrad
 Berny optimization.
 FormGI is forming the generalized inverse of G from B-inverse, IUseBI=4.
 Internal  Forces:  Max     0.039956526 RMS     0.013494589
 Search for a local minimum.
 Step number   1 out of a maximum of   40
 All quantities printed in internal units (Hartrees-Bohrs-Radians)
 RMS Force = .13495D-01 SwitMx=.10000D-02 MixMth= 1
 Mixed Optimization -- RFO/linear search
 Second derivative matrix not updated -- first step.
 ITU=  0
     Eigenvalues ---    0.01866   0.02156   0.02317   0.02372   0.02555
     Eigenvalues ---    0.16000   0.16000   0.23613   0.24948   0.24998
     Eigenvalues ---    0.36502   0.43129   0.45753   0.47681   0.47877
     Eigenvalues ---    0.50167   0.54299   0.73919
 RFO step:  Lambda=-1.52499997D-02 EMin= 1.86617935D-02
 Linear search not attempted -- first point.
 Iteration  1 RMS(Cart)=  0.04287440 RMS(Int)=  0.00305940
 Iteration  2 RMS(Cart)=  0.00258656 RMS(Int)=  0.00044072
 Iteration  3 RMS(Cart)=  0.00001416 RMS(Int)=  0.00044052
 Iteration  4 RMS(Cart)=  0.00000000 RMS(Int)=  0.00044052
 ITry= 1 IFail=0 DXMaxC= 1.02D-01 DCOld= 1.00D+10 DXMaxT= 3.00D-01 DXLimC= 3.00D+00 Rises=F
 Variable       Old X    -DE/DX   Delta X   Delta X   Delta X     New X
                                 (Linear)    (Quad)   (Total)
    R1        2.62070  -0.03996   0.00000  -0.08088  -0.08088   2.53982
    R2        1.91111   0.00341   0.00000   0.00722   0.00722   1.91833
    R3        2.57326   0.02532   0.00000   0.04888   0.04915   2.62241
    R4        2.60224   0.02960   0.00000   0.05933   0.05964   2.66188
    R5        2.54124   0.02364   0.00000   0.04084   0.04069   2.58193
    R6        2.03303  -0.00168   0.00000  -0.00441  -0.00441   2.02862
    R7        2.64115   0.00447   0.00000   0.00687   0.00650   2.64764
    R8        2.39285   0.00896   0.00000   0.01053   0.01046   2.40331
    A1        1.94958  -0.01858   0.00000  -0.10600  -0.10600   1.84358
    A2        2.31471  -0.00593   0.00000  -0.02539  -0.02573   2.28899
    A3        2.11200   0.02533   0.00000   0.09266   0.09238   2.20438
    A4        1.85476  -0.01936   0.00000  -0.06587  -0.06553   1.78923
    A5        1.88324   0.00727   0.00000   0.03512   0.03500   1.91823
    A6        2.35131  -0.00495   0.00000  -0.02509  -0.02515   2.32616
    A7        2.04864  -0.00231   0.00000  -0.01002  -0.01008   2.03856
    A8        1.86754  -0.00021   0.00000  -0.00695  -0.00786   1.85969
    A9        1.89109  -0.00014   0.00000  -0.00948  -0.01023   1.88087
   A10        1.92812   0.01246   0.00000   0.04753   0.04764   1.97576
    D1       -2.87229  -0.00366   0.00000  -0.09869  -0.09824  -2.97054
    D2        0.34149  -0.00397   0.00000  -0.12643  -0.12688   0.21461
    D3       -3.08077  -0.00020   0.00000   0.00715   0.00796  -3.07280
    D4        0.06151  -0.00098   0.00000  -0.01788  -0.01734   0.04417
    D5       -0.00361   0.00142   0.00000   0.03673   0.03645   0.03284
    D6        3.13866   0.00064   0.00000   0.01171   0.01115  -3.13337
    D7        3.08566  -0.00009   0.00000   0.01183   0.01270   3.09836
    D8       -0.00062  -0.00034   0.00000  -0.00918  -0.00902  -0.00964
    D9        0.00617  -0.00187   0.00000  -0.04893  -0.04957  -0.04340
   D10       -3.13597  -0.00125   0.00000  -0.02892  -0.02894   3.11827
   D11       -0.00665   0.00173   0.00000   0.04410   0.04320   0.03655
   D12        0.00445  -0.00082   0.00000  -0.02116  -0.02098  -0.01653
         Item               Value     Threshold  Converged?
 Maximum Force            0.039957     0.000450     NO 
 RMS     Force            0.013495     0.000300     NO 
 Maximum Displacement     0.101879     0.001800     NO 
 RMS     Displacement     0.043603     0.001200     NO 
 Predicted change in Energy=-8.204339D-03
 Lowest energy point so far.  Saving SCF results.
 GradGradGradGradGradGradGradGradGradGradGradGradGradGradGradGradGradGrad

 Leave Link  103 at Mon Oct 24 22:53:22 2022, MaxMem=  8053063680 cpu:               0.6 elap:               0.0
 (Enter /public3/home/scg5914/software-scg5914/g16/l202.exe)
                          Input orientation:                          
 ---------------------------------------------------------------------
 Center     Atomic      Atomic             Coordinates (Angstroms)
 Number     Number       Type             X           Y           Z
 ---------------------------------------------------------------------
      1          7           0       -0.043023    1.415132    0.138288
      2          6           0       -0.049170    0.074584    0.041993
      3          6           0       -1.097584   -0.834191    0.015112
      4          8           0       -0.607463   -2.109379   -0.006137
      5          7           0        0.788607   -1.999727   -0.050509
      6          7           0        1.082187   -0.762952   -0.010324
      7          1           0        0.914804    1.698002   -0.043519
      8          1           0       -2.165575   -0.726269    0.027532
 ---------------------------------------------------------------------
                    Distance matrix (angstroms):
                    1          2          3          4          5
     1  N    0.000000
     2  C    1.344016   0.000000
     3  C    2.487313   1.387720   0.000000
     4  O    3.572342   2.254707   1.366300   0.000000
     5  N    3.519732   2.239016   2.218220   1.401073   0.000000
     6  N    2.456060   1.408606   2.181083   2.160510   1.271777
     7  H    1.015137   1.889986   3.234988   4.100591   3.699888
     8  H    3.017133   2.262906   1.073502   2.083709   3.217916
                    6          7          8
     6  N    0.000000
     7  H    2.466863   0.000000
     8  H    3.248190   3.920571   0.000000
 Stoichiometry    C2H2N3O(1-)
 Framework group  C1[X(C2H2N3O)]
 Deg. of freedom    18
 Full point group                 C1      NOp   1
 RotChk:  IX=0 Diff= 4.99D-02
 Largest Abelian subgroup         C1      NOp   1
 Largest concise Abelian subgroup C1      NOp   1
                         Standard orientation:                         
 ---------------------------------------------------------------------
 Center     Atomic      Atomic             Coordinates (Angstroms)
 Number     Number       Type             X           Y           Z
 ---------------------------------------------------------------------
      1          7           0       -2.110635    0.114761   -0.035504
      2          6           0       -0.768015    0.071917    0.008273
      3          6           0        0.178000    1.087104    0.023005
      4          8           0        1.434738    0.552496   -0.016752
      5          7           0        1.277059   -0.839568    0.000574
      6          7           0        0.029953   -1.088851    0.002336
      7          1           0       -2.420359   -0.836686    0.135732
      8          1           0        0.107909    2.158199    0.038774
 ---------------------------------------------------------------------
 Rotational constants (GHZ):           9.8804550           3.8409209           2.7672234
 Leave Link  202 at Mon Oct 24 22:53:22 2022, MaxMem=  8053063680 cpu:               0.2 elap:               0.0
 (Enter /public3/home/scg5914/software-scg5914/g16/l301.exe)
 Standard basis: 6-311+G(d,p) (5D, 7F)
 Ernie: Thresh=  0.10000D-02 Tol=  0.10000D-05 Strict=F.
 There are   150 symmetry adapted cartesian basis functions of A   symmetry.
 There are   144 symmetry adapted basis functions of A   symmetry.
   144 basis functions,   232 primitive gaussians,   150 cartesian basis functions
    22 alpha electrons       22 beta electrons
       nuclear repulsion energy       216.3381752125 Hartrees.
 IExCor=  402 DFT=T Ex+Corr=B3LYP ExCW=0 ScaHFX=  0.200000
 ScaDFX=  0.800000  0.720000  1.000000  0.810000 ScalE2=  1.000000  1.000000
 IRadAn=      5 IRanWt=     -1 IRanGd=            0 ICorTp=0 IEmpDi=141
 NAtoms=    8 NActive=    8 NUniq=    8 SFac= 1.00D+00 NAtFMM=   60 NAOKFM=F Big=F
 Integral buffers will be    131072 words long.
 Raffenetti 2 integral format.
 Two-electron integral symmetry is turned on.
 R6Disp:  Grimme-D3(BJ) Dispersion energy=       -0.0107583582 Hartrees.
 Nuclear repulsion after empirical dispersion term =      216.3274168543 Hartrees.
 Leave Link  301 at Mon Oct 24 22:53:22 2022, MaxMem=  8053063680 cpu:               0.6 elap:               0.0
 (Enter /public3/home/scg5914/software-scg5914/g16/l302.exe)
 NPDir=0 NMtPBC=     1 NCelOv=     1 NCel=       1 NClECP=     1 NCelD=      1
         NCelK=      1 NCelE2=     1 NClLst=     1 CellRange=     0.0.
 One-electron integrals computed using PRISM.
 One-electron integral symmetry used in STVInt
 NBasis=   144 RedAO= T EigKep=  3.89D-05  NBF=   144
 NBsUse=   144 1.00D-06 EigRej= -1.00D+00 NBFU=   144
 Precomputing XC quadrature grid using
 IXCGrd= 4 IRadAn=           5 IRanWt=          -1 IRanGd=           0 AccXCQ= 0.00D+00.
 Generated NRdTot=       0 NPtTot=           0 NUsed=           0 NTot=          32
 NSgBfM=   150   150   150   150   150 MxSgAt=     8 MxSgA2=     8.
 Leave Link  302 at Mon Oct 24 22:53:22 2022, MaxMem=  8053063680 cpu:               3.3 elap:               0.1
 (Enter /public3/home/scg5914/software-scg5914/g16/l303.exe)
 DipDrv:  MaxL=1.
 Leave Link  303 at Mon Oct 24 22:53:22 2022, MaxMem=  8053063680 cpu:               0.7 elap:               0.0
 (Enter /public3/home/scg5914/software-scg5914/g16/l401.exe)
 Initial guess from the checkpoint file:  "dsgdb9nsd_000763-2.chk"
 B after Tr=    -0.000000   -0.000000    0.000000
         Rot=    0.999908   -0.000571   -0.000076   -0.013571 Ang=  -1.56 deg.
 Guess basis will be translated and rotated to current coordinates.
 JPrj=2 DoOrth=T DoCkMO=T.
 Generating alternative initial guess.
 ExpMin= 4.38D-02 ExpMax= 8.59D+03 ExpMxC= 1.30D+03 IAcc=3 IRadAn=         5 AccDes= 0.00D+00
 Harris functional with IExCor=  402 and IRadAn=       5 diagonalized for initial guess.
 HarFok:  IExCor=  402 AccDes= 0.00D+00 IRadAn=         5 IDoV= 1 UseB2=F ITyADJ=14
 ICtDFT=  3500011 ScaDFX=  1.000000  1.000000  1.000000  1.000000
 FoFCou: FMM=F IPFlag=           0 FMFlag=      100000 FMFlg1=           0
         NFxFlg=           0 DoJE=T BraDBF=F KetDBF=T FulRan=T
         wScrn=  0.000000 ICntrl=       500 IOpCl=  0 I1Cent=   200000004 NGrid=           0
         NMat0=    1 NMatS0=      1 NMatT0=    0 NMatD0=    1 NMtDS0=    0 NMtDT0=    0
 Petite list used in FoFCou.
 Harris En= -317.071334805961    
 Leave Link  401 at Mon Oct 24 22:53:22 2022, MaxMem=  8053063680 cpu:               8.3 elap:               0.3
 (Enter /public3/home/scg5914/software-scg5914/g16/l502.exe)
 Keep R1 ints in memory in canonical form, NReq=85745128.
 FoFCou: FMM=F IPFlag=           0 FMFlag=           0 FMFlg1=           0
         NFxFlg=           0 DoJE=F BraDBF=F KetDBF=F FulRan=T
         wScrn=  0.000000 ICntrl=       600 IOpCl=  0 I1Cent=           0 NGrid=           0
         NMat0=    1 NMatS0=  10440 NMatT0=    0 NMatD0=    1 NMtDS0=    0 NMtDT0=    0
 Symmetry not used in FoFCou.
 Two-electron integral symmetry not used.
 Closed shell SCF:
 Using DIIS extrapolation, IDIIS=  1040.
 NGot=  8053063680 LenX=  7998510190 LenY=  7998487249
 Requested convergence on RMS density matrix=1.00D-08 within 128 cycles.
 Requested convergence on MAX density matrix=1.00D-06.
 Requested convergence on             energy=1.00D-06.
 No special actions if energy rises.

 Cycle   1  Pass 1  IDiag  1:
 E= -316.929696445766    
 DIIS: error= 2.71D-03 at cycle   1 NSaved=   1.
 NSaved= 1 IEnMin= 1 EnMin= -316.929696445766     IErMin= 1 ErrMin= 2.71D-03
 ErrMax= 2.71D-03  0.00D+00 EMaxC= 1.00D-01 BMatC= 4.37D-03 BMatP= 4.37D-03
 IDIUse=3 WtCom= 9.73D-01 WtEn= 2.71D-02
 Coeff-Com:  0.100D+01
 Coeff-En:   0.100D+01
 Coeff:      0.100D+01
 Gap=     0.437 Goal=   None    Shift=    0.000
 GapD=    0.437 DampG=2.000 DampE=1.000 DampFc=2.0000 IDamp=-1.
 RMSDP=3.64D-03 MaxDP=1.85D-01              OVMax= 3.50D-02

 Cycle   2  Pass 1  IDiag  1:
 E= -316.934849509856     Delta-E=       -0.005153064090 Rises=F Damp=F
 DIIS: error= 2.59D-03 at cycle   2 NSaved=   2.
 NSaved= 2 IEnMin= 2 EnMin= -316.934849509856     IErMin= 2 ErrMin= 2.59D-03
 ErrMax= 2.59D-03  0.00D+00 EMaxC= 1.00D-01 BMatC= 9.65D-04 BMatP= 4.37D-03
 IDIUse=3 WtCom= 9.74D-01 WtEn= 2.59D-02
 Coeff-Com:  0.219D+00 0.781D+00
 Coeff-En:   0.000D+00 0.100D+01
 Coeff:      0.213D+00 0.787D+00
 Gap=     0.116 Goal=   None    Shift=    0.000
 RMSDP=8.06D-04 MaxDP=3.47D-02 DE=-5.15D-03 OVMax= 3.05D-02

 Cycle   3  Pass 1  IDiag  1:
 E= -316.933904963126     Delta-E=        0.000944546730 Rises=F Damp=F
 DIIS: error= 4.19D-03 at cycle   3 NSaved=   3.
 NSaved= 3 IEnMin= 2 EnMin= -316.934849509856     IErMin= 2 ErrMin= 2.59D-03
 ErrMax= 4.19D-03  0.00D+00 EMaxC= 1.00D-01 BMatC= 1.95D-03 BMatP= 9.65D-04
 IDIUse=3 WtCom= 1.34D-01 WtEn= 8.66D-01
 Coeff-Com: -0.114D-01 0.594D+00 0.417D+00
 Coeff-En:   0.000D+00 0.648D+00 0.352D+00
 Coeff:     -0.152D-02 0.641D+00 0.361D+00
 Gap=     0.120 Goal=   None    Shift=    0.000
 RMSDP=6.37D-04 MaxDP=2.64D-02 DE= 9.45D-04 OVMax= 2.10D-02

 Cycle   4  Pass 1  IDiag  1:
 E= -316.935599063162     Delta-E=       -0.001694100036 Rises=F Damp=F
 DIIS: error= 6.14D-04 at cycle   4 NSaved=   4.
 NSaved= 4 IEnMin= 4 EnMin= -316.935599063162     IErMin= 4 ErrMin= 6.14D-04
 ErrMax= 6.14D-04  0.00D+00 EMaxC= 1.00D-01 BMatC= 5.35D-05 BMatP= 9.65D-04
 IDIUse=3 WtCom= 9.94D-01 WtEn= 6.14D-03
 Coeff-Com: -0.144D-01 0.315D+00 0.174D+00 0.525D+00
 Coeff-En:   0.000D+00 0.000D+00 0.000D+00 0.100D+01
 Coeff:     -0.143D-01 0.313D+00 0.173D+00 0.528D+00
 Gap=     0.122 Goal=   None    Shift=    0.000
 RMSDP=1.97D-04 MaxDP=7.32D-03 DE=-1.69D-03 OVMax= 4.07D-03

 Cycle   5  Pass 1  IDiag  1:
 E= -316.935621185378     Delta-E=       -0.000022122216 Rises=F Damp=F
 DIIS: error= 4.81D-04 at cycle   5 NSaved=   5.
 NSaved= 5 IEnMin= 5 EnMin= -316.935621185378     IErMin= 5 ErrMin= 4.81D-04
 ErrMax= 4.81D-04  0.00D+00 EMaxC= 1.00D-01 BMatC= 2.51D-05 BMatP= 5.35D-05
 IDIUse=3 WtCom= 9.95D-01 WtEn= 4.81D-03
 Coeff-Com: -0.774D-02 0.118D+00 0.530D-01 0.419D+00 0.417D+00
 Coeff-En:   0.000D+00 0.000D+00 0.000D+00 0.363D+00 0.637D+00
 Coeff:     -0.770D-02 0.118D+00 0.528D-01 0.419D+00 0.419D+00
 Gap=     0.121 Goal=   None    Shift=    0.000
 RMSDP=6.06D-05 MaxDP=1.80D-03 DE=-2.21D-05 OVMax= 2.56D-03

 Cycle   6  Pass 1  IDiag  1:
 E= -316.935642914243     Delta-E=       -0.000021728865 Rises=F Damp=F
 DIIS: error= 7.91D-05 at cycle   6 NSaved=   6.
 NSaved= 6 IEnMin= 6 EnMin= -316.935642914243     IErMin= 6 ErrMin= 7.91D-05
 ErrMax= 7.91D-05  0.00D+00 EMaxC= 1.00D-01 BMatC= 6.97D-07 BMatP= 2.51D-05
 IDIUse=1 WtCom= 1.00D+00 WtEn= 0.00D+00
 Coeff-Com: -0.295D-02 0.362D-01 0.145D-01 0.182D+00 0.230D+00 0.540D+00
 Coeff:     -0.295D-02 0.362D-01 0.145D-01 0.182D+00 0.230D+00 0.540D+00
 Gap=     0.121 Goal=   None    Shift=    0.000
 RMSDP=1.57D-05 MaxDP=7.32D-04 DE=-2.17D-05 OVMax= 3.64D-04

 Cycle   7  Pass 1  IDiag  1:
 E= -316.935643250987     Delta-E=       -0.000000336745 Rises=F Damp=F
 DIIS: error= 6.97D-05 at cycle   7 NSaved=   7.
 NSaved= 7 IEnMin= 7 EnMin= -316.935643250987     IErMin= 7 ErrMin= 6.97D-05
 ErrMax= 6.97D-05  0.00D+00 EMaxC= 1.00D-01 BMatC= 2.47D-07 BMatP= 6.97D-07
 IDIUse=1 WtCom= 1.00D+00 WtEn= 0.00D+00
 Coeff-Com: -0.482D-03-0.734D-03-0.970D-03 0.323D-01 0.758D-01 0.402D+00
 Coeff-Com:  0.493D+00
 Coeff:     -0.482D-03-0.734D-03-0.970D-03 0.323D-01 0.758D-01 0.402D+00
 Coeff:      0.493D+00
 Gap=     0.121 Goal=   None    Shift=    0.000
 RMSDP=7.63D-06 MaxDP=3.10D-04 DE=-3.37D-07 OVMax= 1.63D-04

 Cycle   8  Pass 1  IDiag  1:
 E= -316.935643460611     Delta-E=       -0.000000209624 Rises=F Damp=F
 DIIS: error= 1.13D-05 at cycle   8 NSaved=   8.
 NSaved= 8 IEnMin= 8 EnMin= -316.935643460611     IErMin= 8 ErrMin= 1.13D-05
 ErrMax= 1.13D-05  0.00D+00 EMaxC= 1.00D-01 BMatC= 1.55D-08 BMatP= 2.47D-07
 IDIUse=1 WtCom= 1.00D+00 WtEn= 0.00D+00
 Coeff-Com:  0.615D-04-0.427D-02-0.212D-02 0.640D-03 0.262D-01 0.165D+00
 Coeff-Com:  0.265D+00 0.549D+00
 Coeff:      0.615D-04-0.427D-02-0.212D-02 0.640D-03 0.262D-01 0.165D+00
 Coeff:      0.265D+00 0.549D+00
 Gap=     0.121 Goal=   None    Shift=    0.000
 RMSDP=1.73D-06 MaxDP=4.91D-05 DE=-2.10D-07 OVMax= 4.87D-05

 Cycle   9  Pass 1  IDiag  1:
 E= -316.935643473195     Delta-E=       -0.000000012584 Rises=F Damp=F
 DIIS: error= 4.28D-06 at cycle   9 NSaved=   9.
 NSaved= 9 IEnMin= 9 EnMin= -316.935643473195     IErMin= 9 ErrMin= 4.28D-06
 ErrMax= 4.28D-06  0.00D+00 EMaxC= 1.00D-01 BMatC= 1.92D-09 BMatP= 1.55D-08
 IDIUse=1 WtCom= 1.00D+00 WtEn= 0.00D+00
 Coeff-Com:  0.806D-04-0.178D-02-0.701D-03-0.487D-02 0.414D-02 0.159D-01
 Coeff-Com:  0.519D-01 0.275D+00 0.661D+00
 Coeff:      0.806D-04-0.178D-02-0.701D-03-0.487D-02 0.414D-02 0.159D-01
 Coeff:      0.519D-01 0.275D+00 0.661D+00
 Gap=     0.121 Goal=   None    Shift=    0.000
 RMSDP=9.61D-07 MaxDP=3.25D-05 DE=-1.26D-08 OVMax= 1.26D-05

 Cycle  10  Pass 1  IDiag  1:
 E= -316.935643475018     Delta-E=       -0.000000001822 Rises=F Damp=F
 DIIS: error= 1.00D-06 at cycle  10 NSaved=  10.
 NSaved=10 IEnMin=10 EnMin= -316.935643475018     IErMin=10 ErrMin= 1.00D-06
 ErrMax= 1.00D-06  0.00D+00 EMaxC= 1.00D-01 BMatC= 1.24D-10 BMatP= 1.92D-09
 IDIUse=1 WtCom= 1.00D+00 WtEn= 0.00D+00
 Coeff-Com:  0.206D-04-0.260D-03-0.238D-05-0.182D-02 0.127D-03-0.879D-02
 Coeff-Com: -0.778D-03 0.348D-01 0.178D+00 0.799D+00
 Coeff:      0.206D-04-0.260D-03-0.238D-05-0.182D-02 0.127D-03-0.879D-02
 Coeff:     -0.778D-03 0.348D-01 0.178D+00 0.799D+00
 Gap=     0.121 Goal=   None    Shift=    0.000
 RMSDP=2.42D-07 MaxDP=1.17D-05 DE=-1.82D-09 OVMax= 6.49D-06

 Cycle  11  Pass 1  IDiag  1:
 E= -316.935643475110     Delta-E=       -0.000000000093 Rises=F Damp=F
 DIIS: error= 4.99D-07 at cycle  11 NSaved=  11.
 NSaved=11 IEnMin=11 EnMin= -316.935643475110     IErMin=11 ErrMin= 4.99D-07
 ErrMax= 4.99D-07  0.00D+00 EMaxC= 1.00D-01 BMatC= 3.08D-11 BMatP= 1.24D-10
 IDIUse=1 WtCom= 1.00D+00 WtEn= 0.00D+00
 Coeff-Com:  0.541D-05 0.235D-04 0.979D-04-0.758D-03-0.308D-03-0.811D-02
 Coeff-Com: -0.609D-02-0.627D-02 0.475D-01 0.493D+00 0.481D+00
 Coeff:      0.541D-05 0.235D-04 0.979D-04-0.758D-03-0.308D-03-0.811D-02
 Coeff:     -0.609D-02-0.627D-02 0.475D-01 0.493D+00 0.481D+00
 Gap=     0.121 Goal=   None    Shift=    0.000
 RMSDP=7.30D-08 MaxDP=1.71D-06 DE=-9.25D-11 OVMax= 1.68D-06

 Cycle  12  Pass 1  IDiag  1:
 E= -316.935643475138     Delta-E=       -0.000000000028 Rises=F Damp=F
 DIIS: error= 9.69D-08 at cycle  12 NSaved=  12.
 NSaved=12 IEnMin=12 EnMin= -316.935643475138     IErMin=12 ErrMin= 9.69D-08
 ErrMax= 9.69D-08  0.00D+00 EMaxC= 1.00D-01 BMatC= 1.61D-12 BMatP= 3.08D-11
 IDIUse=1 WtCom= 1.00D+00 WtEn= 0.00D+00
 Coeff-Com:  0.121D-06 0.302D-04 0.489D-04-0.119D-03-0.184D-04-0.189D-02
 Coeff-Com: -0.153D-02-0.613D-02-0.170D-02 0.114D+00 0.187D+00 0.710D+00
 Coeff:      0.121D-06 0.302D-04 0.489D-04-0.119D-03-0.184D-04-0.189D-02
 Coeff:     -0.153D-02-0.613D-02-0.170D-02 0.114D+00 0.187D+00 0.710D+00
 Gap=     0.121 Goal=   None    Shift=    0.000
 RMSDP=2.69D-08 MaxDP=6.70D-07 DE=-2.75D-11 OVMax= 6.17D-07

 Cycle  13  Pass 1  IDiag  1:
 E= -316.935643475139     Delta-E=       -0.000000000001 Rises=F Damp=F
 DIIS: error= 5.01D-08 at cycle  13 NSaved=  13.
 NSaved=13 IEnMin=13 EnMin= -316.935643475139     IErMin=13 ErrMin= 5.01D-08
 ErrMax= 5.01D-08  0.00D+00 EMaxC= 1.00D-01 BMatC= 2.75D-13 BMatP= 1.61D-12
 IDIUse=1 WtCom= 1.00D+00 WtEn= 0.00D+00
 Coeff-Com: -0.736D-06 0.155D-04 0.179D-04 0.117D-04 0.152D-04-0.192D-03
 Coeff-Com: -0.283D-03-0.272D-02-0.651D-02 0.369D-04 0.240D-01 0.332D+00
 Coeff-Com:  0.653D+00
 Coeff:     -0.736D-06 0.155D-04 0.179D-04 0.117D-04 0.152D-04-0.192D-03
 Coeff:     -0.283D-03-0.272D-02-0.651D-02 0.369D-04 0.240D-01 0.332D+00
 Coeff:      0.653D+00
 Gap=     0.121 Goal=   None    Shift=    0.000
 RMSDP=1.09D-08 MaxDP=5.28D-07 DE=-1.25D-12 OVMax= 1.50D-07

 Cycle  14  Pass 1  IDiag  1:
 E= -316.935643475139     Delta-E=        0.000000000000 Rises=F Damp=F
 DIIS: error= 8.60D-09 at cycle  14 NSaved=  14.
 NSaved=14 IEnMin=13 EnMin= -316.935643475139     IErMin=14 ErrMin= 8.60D-09
 ErrMax= 8.60D-09  0.00D+00 EMaxC= 1.00D-01 BMatC= 1.08D-14 BMatP= 2.75D-13
 IDIUse=1 WtCom= 1.00D+00 WtEn= 0.00D+00
 Coeff-Com: -0.207D-06 0.207D-05 0.258D-05 0.843D-05 0.143D-04 0.822D-04
 Coeff-Com:  0.439D-04-0.341D-03-0.180D-02-0.757D-02-0.879D-02 0.524D-01
 Coeff-Com:  0.186D+00 0.780D+00
 Coeff:     -0.207D-06 0.207D-05 0.258D-05 0.843D-05 0.143D-04 0.822D-04
 Coeff:      0.439D-04-0.341D-03-0.180D-02-0.757D-02-0.879D-02 0.524D-01
 Coeff:      0.186D+00 0.780D+00
 Gap=     0.121 Goal=   None    Shift=    0.000
 RMSDP=2.17D-09 MaxDP=8.18D-08 DE= 0.00D+00 OVMax= 4.16D-08

 SCF Done:  E(RB3LYP) =  -316.935643475     A.U. after   14 cycles
            NFock= 14  Conv=0.22D-08     -V/T= 2.0033
 KE= 3.158939956687D+02 PE=-1.183817981355D+03 EE= 3.346609253572D+02
 Leave Link  502 at Mon Oct 24 22:53:25 2022, MaxMem=  8053063680 cpu:              70.5 elap:               2.7
 (Enter /public3/home/scg5914/software-scg5914/g16/l701.exe)
 ... and contract with generalized density number  0.
 Compute integral first derivatives.
 R6Disp: Adding Grimme-D3(BJ) dispersion energy 1st derivatives to the gradient.
 Leave Link  701 at Mon Oct 24 22:53:25 2022, MaxMem=  8053063680 cpu:               2.9 elap:               0.1
 (Enter /public3/home/scg5914/software-scg5914/g16/l702.exe)
 L702 exits ... SP integral derivatives will be done elsewhere.
 Leave Link  702 at Mon Oct 24 22:53:25 2022, MaxMem=  8053063680 cpu:               0.4 elap:               0.0
 (Enter /public3/home/scg5914/software-scg5914/g16/l703.exe)
 Integral derivatives from FoFJK, PRISM(SPDF).
 Compute integral first derivatives, UseDBF=F ICtDFT=           0.
 Calling FoFJK, ICntrl=      2127 FMM=F ISym2X=0 I1Cent= 0 IOpClX= 0 NMat=1 NMatS=1 NMatT=0.
 FoFJK:  IHMeth= 1 ICntrl=    2127 DoSepK=F KAlg= 0 I1Cent=           0 FoldK=F
 IRaf=         0 NMat=       1 IRICut=       1 DoRegI=T DoRafI=F ISym2E= 0 IDoP0=0 IntGTp=1.
 FoFCou: FMM=F IPFlag=           0 FMFlag=      100000 FMFlg1=         800
         NFxFlg=           0 DoJE=F BraDBF=F KetDBF=F FulRan=T
         wScrn=  0.000000 ICntrl=      2127 IOpCl=  0 I1Cent=           0 NGrid=           0
         NMat0=    1 NMatS0=      1 NMatT0=    0 NMatD0=    1 NMtDS0=    0 NMtDT0=    0
 Symmetry not used in FoFCou.
 Leave Link  703 at Mon Oct 24 22:53:26 2022, MaxMem=  8053063680 cpu:              20.2 elap:               0.6
 (Enter /public3/home/scg5914/software-scg5914/g16/l716.exe)
 Dipole        = 1.18436860D+00 3.02719152D-01 1.13903800D-01
 ***** Axes restored to original set *****
 -------------------------------------------------------------------
 Center     Atomic                   Forces (Hartrees/Bohr)
 Number     Number              X              Y              Z
 -------------------------------------------------------------------
      1        7          -0.001419264   -0.014897236   -0.005049164
      2        6          -0.004491892    0.017628621    0.003839837
      3        6          -0.006540972   -0.004202868    0.001986924
      4        8          -0.003517160   -0.002711558   -0.002518656
      5        7          -0.000283113    0.008320866    0.002431859
      6        7           0.013293267   -0.007857493   -0.003275740
      7        1           0.003746659    0.003851956    0.002297411
      8        1          -0.000787526   -0.000132288    0.000287528
 -------------------------------------------------------------------
 Cartesian Forces:  Max     0.017628621 RMS     0.006598215
 Leave Link  716 at Mon Oct 24 22:53:26 2022, MaxMem=  8053063680 cpu:               0.9 elap:               0.0
 (Enter /public3/home/scg5914/software-scg5914/g16/l103.exe)

 GradGradGradGradGradGradGradGradGradGradGradGradGradGradGradGradGradGrad
 Berny optimization.
 Using GEDIIS/GDIIS optimizer.
 FormGI is forming the generalized inverse of G from B-inverse, IUseBI=4.
 Internal  Forces:  Max     0.011203991 RMS     0.003912809
 Search for a local minimum.
 Step number   2 out of a maximum of   40
 All quantities printed in internal units (Hartrees-Bohrs-Radians)
 RMS Force = .39128D-02 SwitMx=.10000D-02 MixMth= 1
 Mixed Optimization -- RFO/linear search
 Update second derivatives using D2CorX and points    1    2
 DE= -8.19D-03 DEPred=-8.20D-03 R= 9.98D-01
 TightC=F SS=  1.41D+00  RLast= 2.77D-01 DXNew= 5.0454D-01 8.3207D-01
 Trust test= 9.98D-01 RLast= 2.77D-01 DXMaxT set to 5.05D-01
 ITU=  1  0
 Use linear search instead of GDIIS.
     Eigenvalues ---    0.01805   0.02215   0.02308   0.02392   0.02555
     Eigenvalues ---    0.15995   0.17280   0.23352   0.24460   0.29782
     Eigenvalues ---    0.36542   0.37670   0.43641   0.45976   0.47779
     Eigenvalues ---    0.49368   0.54955   0.74952
 RFO step:  Lambda=-2.18896319D-03 EMin= 1.80505009D-02
 Quartic linear search produced a step of  0.07157.
 Iteration  1 RMS(Cart)=  0.03148640 RMS(Int)=  0.00248379
 Iteration  2 RMS(Cart)=  0.00243029 RMS(Int)=  0.00020260
 Iteration  3 RMS(Cart)=  0.00001147 RMS(Int)=  0.00020246
 Iteration  4 RMS(Cart)=  0.00000000 RMS(Int)=  0.00020246
 ITry= 1 IFail=0 DXMaxC= 1.07D-01 DCOld= 1.00D+10 DXMaxT= 5.05D-01 DXLimC= 3.00D+00 Rises=F
 Variable       Old X    -DE/DX   Delta X   Delta X   Delta X     New X
                                 (Linear)    (Quad)   (Total)
    R1        2.53982  -0.01120  -0.00579  -0.02946  -0.03525   2.50457
    R2        1.91833   0.00420   0.00052   0.01016   0.01068   1.92901
    R3        2.62241   0.00780   0.00352   0.01966   0.02324   2.64565
    R4        2.66188   0.00913   0.00427   0.02345   0.02779   2.68967
    R5        2.58193  -0.00037   0.00291   0.00174   0.00462   2.58655
    R6        2.02862   0.00077  -0.00032   0.00201   0.00169   2.03031
    R7        2.64764   0.00399   0.00047   0.00842   0.00881   2.65645
    R8        2.40331  -0.00404   0.00075  -0.00545  -0.00471   2.39860
    A1        1.84358   0.00576  -0.00759   0.03256   0.02497   1.86856
    A2        2.28899  -0.00045  -0.00184  -0.00503  -0.00697   2.28201
    A3        2.20438  -0.00114   0.00661  -0.00157   0.00494   2.20932
    A4        1.78923   0.00161  -0.00469   0.00746   0.00260   1.79182
    A5        1.91823  -0.00161   0.00250  -0.00230  -0.00007   1.91817
    A6        2.32616   0.00102  -0.00180   0.00243   0.00060   2.32676
    A7        2.03856   0.00061  -0.00072   0.00045  -0.00031   2.03825
    A8        1.85969  -0.00106  -0.00056  -0.00629  -0.00727   1.85242
    A9        1.88087   0.00678  -0.00073   0.02433   0.02320   1.90407
   A10        1.97576  -0.00566   0.00341  -0.02107  -0.01785   1.95792
    D1       -2.97054  -0.00212  -0.00703  -0.11258  -0.11963  -3.09017
    D2        0.21461  -0.00294  -0.00908  -0.14467  -0.15373   0.06088
    D3       -3.07280  -0.00104   0.00057  -0.04502  -0.04421  -3.11702
    D4        0.04417  -0.00033  -0.00124  -0.01407  -0.01526   0.02891
    D5        0.03284  -0.00041   0.00261  -0.01864  -0.01605   0.01679
    D6       -3.13337   0.00030   0.00080   0.01231   0.01290  -3.12047
    D7        3.09836   0.00023   0.00091   0.00831   0.00956   3.10792
    D8       -0.00964  -0.00038  -0.00065  -0.01623  -0.01669  -0.02633
    D9       -0.04340   0.00109  -0.00355   0.04395   0.04002  -0.00338
   D10        3.11827   0.00050  -0.00207   0.01867   0.01641   3.13469
   D11        0.03655  -0.00111   0.00309  -0.05270  -0.05013  -0.01358
   D12       -0.01653   0.00099  -0.00150   0.04331   0.04194   0.02541
         Item               Value     Threshold  Converged?
 Maximum Force            0.011204     0.000450     NO 
 RMS     Force            0.003913     0.000300     NO 
 Maximum Displacement     0.107232     0.001800     NO 
 RMS     Displacement     0.031589     0.001200     NO 
 Predicted change in Energy=-1.190833D-03
 Lowest energy point so far.  Saving SCF results.
 GradGradGradGradGradGradGradGradGradGradGradGradGradGradGradGradGradGrad

 Leave Link  103 at Mon Oct 24 22:53:26 2022, MaxMem=  8053063680 cpu:               0.5 elap:               0.0
 (Enter /public3/home/scg5914/software-scg5914/g16/l202.exe)
                          Input orientation:                          
 ---------------------------------------------------------------------
 Center     Atomic      Atomic             Coordinates (Angstroms)
 Number     Number       Type             X           Y           Z
 ---------------------------------------------------------------------
      1          7           0       -0.048515    1.404258    0.083129
      2          6           0       -0.045885    0.080022    0.028545
      3          6           0       -1.104096   -0.836619    0.025893
      4          8           0       -0.613935   -2.114048   -0.011250
      5          7           0        0.786474   -1.994549   -0.036954
      6          7           0        1.098364   -0.764187   -0.033293
      7          1           0        0.923273    1.708802    0.013226
      8          1           0       -2.172897   -0.728482    0.043139
 ---------------------------------------------------------------------
                    Distance matrix (angstroms):
                    1          2          3          4          5
     1  N    0.000000
     2  C    1.325364   0.000000
     3  C    2.477712   1.400017   0.000000
     4  O    3.564700   2.266761   1.368745   0.000000
     5  N    3.501931   2.236282   2.217883   1.405733   0.000000
     6  N    2.455818   1.423312   2.204445   2.180500   1.269283
     7  H    1.020787   1.895370   3.254159   4.120411   3.706216
     8  H    3.010511   2.275537   1.074396   2.086412   3.219816
                    6          7          8
     6  N    0.000000
     7  H    2.479616   0.000000
     8  H    3.272348   3.940497   0.000000
 Stoichiometry    C2H2N3O(1-)
 Framework group  C1[X(C2H2N3O)]
 Deg. of freedom    18
 Full point group                 C1      NOp   1
 RotChk:  IX=0 Diff= 1.80D-02
 Largest Abelian subgroup         C1      NOp   1
 Largest concise Abelian subgroup C1      NOp   1
                         Standard orientation:                         
 ---------------------------------------------------------------------
 Center     Atomic      Atomic             Coordinates (Angstroms)
 Number     Number       Type             X           Y           Z
 ---------------------------------------------------------------------
      1          7           0       -2.098710    0.127016   -0.015150
      2          6           0       -0.774626    0.071638    0.002833
      3          6           0        0.182788    1.093100    0.007312
      4          8           0        1.440425    0.553009   -0.003324
      5          7           0        1.266507   -0.841907   -0.010194
      6          7           0        0.025137   -1.105695    0.012070
      7          1           0       -2.439384   -0.833765    0.038220
      8          1           0        0.116473    2.165368    0.020419
 ---------------------------------------------------------------------
 Rotational constants (GHZ):           9.7350192           3.8591128           2.7638693
 Leave Link  202 at Mon Oct 24 22:53:26 2022, MaxMem=  8053063680 cpu:               0.3 elap:               0.0
 (Enter /public3/home/scg5914/software-scg5914/g16/l301.exe)
 Standard basis: 6-311+G(d,p) (5D, 7F)
 Ernie: Thresh=  0.10000D-02 Tol=  0.10000D-05 Strict=F.
 There are   150 symmetry adapted cartesian basis functions of A   symmetry.
 There are   144 symmetry adapted basis functions of A   symmetry.
   144 basis functions,   232 primitive gaussians,   150 cartesian basis functions
    22 alpha electrons       22 beta electrons
       nuclear repulsion energy       215.9698379794 Hartrees.
 IExCor=  402 DFT=T Ex+Corr=B3LYP ExCW=0 ScaHFX=  0.200000
 ScaDFX=  0.800000  0.720000  1.000000  0.810000 ScalE2=  1.000000  1.000000
 IRadAn=      5 IRanWt=     -1 IRanGd=            0 ICorTp=0 IEmpDi=141
 NAtoms=    8 NActive=    8 NUniq=    8 SFac= 1.00D+00 NAtFMM=   60 NAOKFM=F Big=F
 Integral buffers will be    131072 words long.
 Raffenetti 2 integral format.
 Two-electron integral symmetry is turned on.
 R6Disp:  Grimme-D3(BJ) Dispersion energy=       -0.0107711721 Hartrees.
 Nuclear repulsion after empirical dispersion term =      215.9590668074 Hartrees.
 Leave Link  301 at Mon Oct 24 22:53:26 2022, MaxMem=  8053063680 cpu:               0.7 elap:               0.0
 (Enter /public3/home/scg5914/software-scg5914/g16/l302.exe)
 NPDir=0 NMtPBC=     1 NCelOv=     1 NCel=       1 NClECP=     1 NCelD=      1
         NCelK=      1 NCelE2=     1 NClLst=     1 CellRange=     0.0.
 One-electron integrals computed using PRISM.
 One-electron integral symmetry used in STVInt
 NBasis=   144 RedAO= T EigKep=  4.11D-05  NBF=   144
 NBsUse=   144 1.00D-06 EigRej= -1.00D+00 NBFU=   144
 Precomputing XC quadrature grid using
 IXCGrd= 4 IRadAn=           5 IRanWt=          -1 IRanGd=           0 AccXCQ= 0.00D+00.
 Generated NRdTot=       0 NPtTot=           0 NUsed=           0 NTot=          32
 NSgBfM=   150   150   150   150   150 MxSgAt=     8 MxSgA2=     8.
 Leave Link  302 at Mon Oct 24 22:53:26 2022, MaxMem=  8053063680 cpu:               4.1 elap:               0.1
 (Enter /public3/home/scg5914/software-scg5914/g16/l303.exe)
 DipDrv:  MaxL=1.
 Leave Link  303 at Mon Oct 24 22:53:26 2022, MaxMem=  8053063680 cpu:               1.9 elap:               0.1
 (Enter /public3/home/scg5914/software-scg5914/g16/l401.exe)
 Initial guess from the checkpoint file:  "dsgdb9nsd_000763-2.chk"
 B after Tr=     0.000000   -0.000000   -0.000000
         Rot=    0.999998   -0.000070    0.000053    0.002033 Ang=  -0.23 deg.
 Guess basis will be translated and rotated to current coordinates.
 JPrj=2 DoOrth=T DoCkMO=T.
 Generating alternative initial guess.
 ExpMin= 4.38D-02 ExpMax= 8.59D+03 ExpMxC= 1.30D+03 IAcc=3 IRadAn=         5 AccDes= 0.00D+00
 Harris functional with IExCor=  402 and IRadAn=       5 diagonalized for initial guess.
 HarFok:  IExCor=  402 AccDes= 0.00D+00 IRadAn=         5 IDoV= 1 UseB2=F ITyADJ=14
 ICtDFT=  3500011 ScaDFX=  1.000000  1.000000  1.000000  1.000000
 FoFCou: FMM=F IPFlag=           0 FMFlag=      100000 FMFlg1=           0
         NFxFlg=           0 DoJE=T BraDBF=F KetDBF=T FulRan=T
         wScrn=  0.000000 ICntrl=       500 IOpCl=  0 I1Cent=   200000004 NGrid=           0
         NMat0=    1 NMatS0=      1 NMatT0=    0 NMatD0=    1 NMtDS0=    0 NMtDT0=    0
 Petite list used in FoFCou.
 Harris En= -317.071335258880    
 Leave Link  401 at Mon Oct 24 22:53:26 2022, MaxMem=  8053063680 cpu:               7.8 elap:               0.3
 (Enter /public3/home/scg5914/software-scg5914/g16/l502.exe)
 Keep R1 ints in memory in canonical form, NReq=85745128.
 FoFCou: FMM=F IPFlag=           0 FMFlag=           0 FMFlg1=           0
         NFxFlg=           0 DoJE=F BraDBF=F KetDBF=F FulRan=T
         wScrn=  0.000000 ICntrl=       600 IOpCl=  0 I1Cent=           0 NGrid=           0
         NMat0=    1 NMatS0=  10440 NMatT0=    0 NMatD0=    1 NMtDS0=    0 NMtDT0=    0
 Symmetry not used in FoFCou.
 Two-electron integral symmetry not used.
 Closed shell SCF:
 Using DIIS extrapolation, IDIIS=  1040.
 NGot=  8053063680 LenX=  7998510190 LenY=  7998487249
 Requested convergence on RMS density matrix=1.00D-08 within 128 cycles.
 Requested convergence on MAX density matrix=1.00D-06.
 Requested convergence on             energy=1.00D-06.
 No special actions if energy rises.

 Cycle   1  Pass 1  IDiag  1:
 E= -316.933611596364    
 DIIS: error= 3.48D-03 at cycle   1 NSaved=   1.
 NSaved= 1 IEnMin= 1 EnMin= -316.933611596364     IErMin= 1 ErrMin= 3.48D-03
 ErrMax= 3.48D-03  0.00D+00 EMaxC= 1.00D-01 BMatC= 2.01D-03 BMatP= 2.01D-03
 IDIUse=3 WtCom= 9.65D-01 WtEn= 3.48D-02
 Coeff-Com:  0.100D+01
 Coeff-En:   0.100D+01
 Coeff:      0.100D+01
 Gap=     0.432 Goal=   None    Shift=    0.000
 GapD=    0.432 DampG=2.000 DampE=1.000 DampFc=2.0000 IDamp=-1.
 RMSDP=2.30D-03 MaxDP=7.62D-02              OVMax= 3.05D-02

 Cycle   2  Pass 1  IDiag  1:
 E= -316.936672182042     Delta-E=       -0.003060585678 Rises=F Damp=F
 DIIS: error= 6.13D-04 at cycle   2 NSaved=   2.
 NSaved= 2 IEnMin= 2 EnMin= -316.936672182042     IErMin= 2 ErrMin= 6.13D-04
 ErrMax= 6.13D-04  0.00D+00 EMaxC= 1.00D-01 BMatC= 5.64D-05 BMatP= 2.01D-03
 IDIUse=3 WtCom= 9.94D-01 WtEn= 6.13D-03
 Coeff-Com: -0.289D-01 0.103D+01
 Coeff-En:   0.000D+00 0.100D+01
 Coeff:     -0.288D-01 0.103D+01
 Gap=     0.122 Goal=   None    Shift=    0.000
 RMSDP=2.10D-04 MaxDP=4.57D-03 DE=-3.06D-03 OVMax= 6.06D-03

 Cycle   3  Pass 1  IDiag  1:
 E= -316.936656255890     Delta-E=        0.000015926152 Rises=F Damp=F
 DIIS: error= 1.49D-03 at cycle   3 NSaved=   3.
 NSaved= 3 IEnMin= 2 EnMin= -316.936672182042     IErMin= 2 ErrMin= 6.13D-04
 ErrMax= 1.49D-03  0.00D+00 EMaxC= 1.00D-01 BMatC= 8.51D-05 BMatP= 5.64D-05
 IDIUse=3 WtCom= 2.06D-01 WtEn= 7.94D-01
 Coeff-Com: -0.330D-01 0.593D+00 0.439D+00
 Coeff-En:   0.000D+00 0.570D+00 0.430D+00
 Coeff:     -0.679D-02 0.575D+00 0.432D+00
 Gap=     0.121 Goal=   None    Shift=    0.000
 RMSDP=1.01D-04 MaxDP=2.56D-03 DE= 1.59D-05 OVMax= 5.36D-03

 Cycle   4  Pass 1  IDiag  1:
 E= -316.936717025099     Delta-E=       -0.000060769210 Rises=F Damp=F
 DIIS: error= 7.45D-04 at cycle   4 NSaved=   4.
 NSaved= 4 IEnMin= 4 EnMin= -316.936717025099     IErMin= 2 ErrMin= 6.13D-04
 ErrMax= 7.45D-04  0.00D+00 EMaxC= 1.00D-01 BMatC= 2.02D-05 BMatP= 5.64D-05
 IDIUse=3 WtCom= 9.93D-01 WtEn= 7.45D-03
 Coeff-Com: -0.137D-01 0.190D+00 0.321D+00 0.503D+00
 Coeff-En:   0.000D+00 0.000D+00 0.237D+00 0.763D+00
 Coeff:     -0.136D-01 0.189D+00 0.320D+00 0.505D+00
 Gap=     0.121 Goal=   None    Shift=    0.000
 RMSDP=3.87D-05 MaxDP=6.73D-04 DE=-6.08D-05 OVMax= 2.59D-03

 Cycle   5  Pass 1  IDiag  1:
 E= -316.936734482157     Delta-E=       -0.000017457058 Rises=F Damp=F
 DIIS: error= 1.52D-04 at cycle   5 NSaved=   5.
 NSaved= 5 IEnMin= 5 EnMin= -316.936734482157     IErMin= 5 ErrMin= 1.52D-04
 ErrMax= 1.52D-04  0.00D+00 EMaxC= 1.00D-01 BMatC= 2.05D-06 BMatP= 2.02D-05
 IDIUse=3 WtCom= 9.98D-01 WtEn= 1.52D-03
 Coeff-Com: -0.727D-02 0.882D-01 0.189D+00 0.343D+00 0.388D+00
 Coeff-En:   0.000D+00 0.000D+00 0.000D+00 0.162D-01 0.984D+00
 Coeff:     -0.726D-02 0.881D-01 0.189D+00 0.342D+00 0.388D+00
 Gap=     0.121 Goal=   None    Shift=    0.000
 RMSDP=1.25D-05 MaxDP=3.80D-04 DE=-1.75D-05 OVMax= 6.50D-04

 Cycle   6  Pass 1  IDiag  1:
 E= -316.936735920006     Delta-E=       -0.000001437849 Rises=F Damp=F
 DIIS: error= 5.02D-05 at cycle   6 NSaved=   6.
 NSaved= 6 IEnMin= 6 EnMin= -316.936735920006     IErMin= 6 ErrMin= 5.02D-05
 ErrMax= 5.02D-05  0.00D+00 EMaxC= 1.00D-01 BMatC= 2.27D-07 BMatP= 2.05D-06
 IDIUse=1 WtCom= 1.00D+00 WtEn= 0.00D+00
 Coeff-Com: -0.165D-02 0.131D-01 0.589D-01 0.134D+00 0.257D+00 0.539D+00
 Coeff:     -0.165D-02 0.131D-01 0.589D-01 0.134D+00 0.257D+00 0.539D+00
 Gap=     0.121 Goal=   None    Shift=    0.000
 RMSDP=7.75D-06 MaxDP=1.94D-04 DE=-1.44D-06 OVMax= 3.10D-04

 Cycle   7  Pass 1  IDiag  1:
 E= -316.936736042840     Delta-E=       -0.000000122834 Rises=F Damp=F
 DIIS: error= 3.09D-05 at cycle   7 NSaved=   7.
 NSaved= 7 IEnMin= 7 EnMin= -316.936736042840     IErMin= 7 ErrMin= 3.09D-05
 ErrMax= 3.09D-05  0.00D+00 EMaxC= 1.00D-01 BMatC= 7.20D-08 BMatP= 2.27D-07
 IDIUse=1 WtCom= 1.00D+00 WtEn= 0.00D+00
 Coeff-Com:  0.101D-03-0.792D-02 0.743D-02 0.354D-01 0.110D+00 0.411D+00
 Coeff-Com:  0.443D+00
 Coeff:      0.101D-03-0.792D-02 0.743D-02 0.354D-01 0.110D+00 0.411D+00
 Coeff:      0.443D+00
 Gap=     0.121 Goal=   None    Shift=    0.000
 RMSDP=3.27D-06 MaxDP=5.69D-05 DE=-1.23D-07 OVMax= 1.19D-04

 Cycle   8  Pass 1  IDiag  1:
 E= -316.936736106659     Delta-E=       -0.000000063819 Rises=F Damp=F
 DIIS: error= 3.10D-06 at cycle   8 NSaved=   8.
 NSaved= 8 IEnMin= 8 EnMin= -316.936736106659     IErMin= 8 ErrMin= 3.10D-06
 ErrMax= 3.10D-06  0.00D+00 EMaxC= 1.00D-01 BMatC= 1.72D-09 BMatP= 7.20D-08
 IDIUse=1 WtCom= 1.00D+00 WtEn= 0.00D+00
 Coeff-Com:  0.200D-03-0.543D-02-0.178D-02 0.593D-02 0.279D-01 0.151D+00
 Coeff-Com:  0.205D+00 0.618D+00
 Coeff:      0.200D-03-0.543D-02-0.178D-02 0.593D-02 0.279D-01 0.151D+00
 Coeff:      0.205D+00 0.618D+00
 Gap=     0.121 Goal=   None    Shift=    0.000
 RMSDP=1.31D-06 MaxDP=3.93D-05 DE=-6.38D-08 OVMax= 2.39D-05

 Cycle   9  Pass 1  IDiag  1:
 E= -316.936736108012     Delta-E=       -0.000000001353 Rises=F Damp=F
 DIIS: error= 1.34D-06 at cycle   9 NSaved=   9.
[...]
   7. BD (   1) C   3 - H   8        /137. BD*(   1) C   2 - C   3            1.38    1.11    0.035
   7. BD (   1) C   3 - H   8        /139. BD*(   1) C   2 - N   6            1.59    0.97    0.036
   7. BD (   1) C   3 - H   8        /142. BD*(   1) O   4 - N   5            2.59    0.76    0.040
   8. BD (   1) O   4 - N   5        / 59. RY*(   3) C   3                    2.71    2.23    0.070
   8. BD (   1) O   4 - N   5        /110. RY*(   3) N   6                    0.75    1.77    0.033
   8. BD (   1) O   4 - N   5        /135. BD*(   1) N   1 - C   2            0.60    1.42    0.026
   8. BD (   1) O   4 - N   5        /141. BD*(   1) C   3 - H   8            2.13    1.24    0.046
   9. BD (   1) N   5 - N   6        / 41. RY*(   2) C   2                    2.04    1.88    0.055
   9. BD (   1) N   5 - N   6        / 43. RY*(   4) C   2                    1.22    2.00    0.044
   9. BD (   1) N   5 - N   6        / 74. RY*(   1) O   4                    0.72    1.96    0.034
   9. BD (   1) N   5 - N   6        /135. BD*(   1) N   1 - C   2            2.88    1.56    0.060
   9. BD (   1) N   5 - N   6        /142. BD*(   1) O   4 - N   5            0.51    1.17    0.022
  10. BD (   2) N   5 - N   6        /138. BD*(   2) C   2 - C   3            9.76    0.40    0.063
  11. CR (   1) N   1                / 40. RY*(   1) C   2                    1.74   15.07    0.145
  11. CR (   1) N   1                / 43. RY*(   4) C   2                    2.58   15.08    0.176
  11. CR (   1) N   1                /137. BD*(   1) C   2 - C   3            1.13   14.60    0.116
  11. CR (   1) N   1                /139. BD*(   1) C   2 - N   6            1.00   14.46    0.109
  12. CR (   1) C   2                / 59. RY*(   3) C   3                    0.97   11.49    0.094
  12. CR (   1) C   2                /137. BD*(   1) C   2 - C   3            0.65   10.64    0.075
  12. CR (   1) C   2                /141. BD*(   1) C   3 - H   8            0.86   10.49    0.085
  13. CR (   1) C   3                / 41. RY*(   2) C   2                    1.85   10.99    0.128
  13. CR (   1) C   3                / 43. RY*(   4) C   2                    0.97   11.12    0.093
  13. CR (   1) C   3                /135. BD*(   1) N   1 - C   2            1.57   10.67    0.116
  13. CR (   1) C   3                /137. BD*(   1) C   2 - C   3            0.78   10.64    0.082
  13. CR (   1) C   3                /140. BD*(   1) C   3 - O   4            0.68   10.43    0.076
  14. CR (   1) O   4                / 58. RY*(   2) C   3                    1.52   19.88    0.156
  14. CR (   1) O   4                / 92. RY*(   2) N   5                    0.72   19.89    0.107
  15. CR (   1) N   5                /108. RY*(   1) N   6                    1.48   14.92    0.133
  15. CR (   1) N   5                /139. BD*(   1) C   2 - N   6            0.84   14.66    0.101
  15. CR (   1) N   5                /140. BD*(   1) C   3 - O   4            0.73   14.60    0.092
  15. CR (   1) N   5                /142. BD*(   1) O   4 - N   5            0.88   14.45    0.103
  16. CR (   1) N   6                / 40. RY*(   1) C   2                    1.84   15.20    0.150
  16. CR (   1) N   6                / 91. RY*(   1) N   5                    1.12   15.18    0.117
  16. CR (   1) N   6                /135. BD*(   1) N   1 - C   2            0.63   14.76    0.086
  17. LP (   1) N   1                / 40. RY*(   1) C   2                    5.39    1.38    0.078
  17. LP (   1) N   1                / 43. RY*(   4) C   2                    2.37    1.38    0.052
  17. LP (   1) N   1                /127. RY*(   3) H   7                    0.99    2.14    0.042
  17. LP (   1) N   1                /139. BD*(   1) C   2 - N   6           15.54    0.76    0.097
  18. LP (   2) N   1                / 23. RY*(   1) N   1                    1.78    0.58    0.032
  18. LP (   2) N   1                / 42. RY*(   3) C   2                    2.82    1.85    0.072
  18. LP (   2) N   1                / 50. RY*(  11) C   2                    0.99    0.80    0.028
  18. LP (   2) N   1                /126. RY*(   2) H   7                    1.43    1.72    0.049
  18. LP (   2) N   1                /138. BD*(   2) C   2 - C   3          111.02    0.17    0.125
  18. LP (   2) N   1                /144. BD*(   2) N   5 - N   6            1.06    0.11    0.010
  19. LP (   1) O   4                / 58. RY*(   2) C   3                    3.88    1.51    0.069
  19. LP (   1) O   4                / 92. RY*(   2) N   5                    1.97    1.52    0.049
  19. LP (   1) O   4                /137. BD*(   1) C   2 - C   3            2.06    1.20    0.045
  19. LP (   1) O   4                /141. BD*(   1) C   3 - H   8            0.75    1.04    0.025
  19. LP (   1) O   4                /143. BD*(   1) N   5 - N   6            2.79    1.18    0.051
  20. LP (   2) O   4                / 57. RY*(   1) C   3                    2.58    0.69    0.041
  20. LP (   2) O   4                / 61. RY*(   5) C   3                    1.32    1.81    0.047
  20. LP (   2) O   4                / 95. RY*(   5) N   5                    1.55    2.14    0.055
  20. LP (   2) O   4                /138. BD*(   2) C   2 - C   3           17.73    0.36    0.076
  20. LP (   2) O   4                /144. BD*(   2) N   5 - N   6           23.36    0.30    0.078
  21. LP (   1) N   5                / 74. RY*(   1) O   4                    0.68    1.48    0.029
  21. LP (   1) N   5                /108. RY*(   1) N   6                    3.09    1.17    0.054
  21. LP (   1) N   5                /139. BD*(   1) C   2 - N   6            6.71    0.90    0.070
  21. LP (   1) N   5                /140. BD*(   1) C   3 - O   4            4.70    0.84    0.056
  22. LP (   1) N   6                / 40. RY*(   1) C   2                    3.22    1.43    0.062
  22. LP (   1) N   6                / 43. RY*(   4) C   2                    0.54    1.44    0.025
  22. LP (   1) N   6                / 51. RY*(  12) C   2                    0.52    2.99    0.036
  22. LP (   1) N   6                / 91. RY*(   1) N   5                    3.07    1.41    0.060
  22. LP (   1) N   6                /137. BD*(   1) C   2 - C   3            3.70    0.96    0.054
  22. LP (   1) N   6                /142. BD*(   1) O   4 - N   5           14.75    0.61    0.085
 138. BD*(   2) C   2 - C   3        / 23. RY*(   1) N   1                    2.41    0.41    0.056
 138. BD*(   2) C   2 - C   3        / 42. RY*(   3) C   2                    0.70    1.68    0.061
 138. BD*(   2) C   2 - C   3        / 50. RY*(  11) C   2                    1.44    0.63    0.054
 138. BD*(   2) C   2 - C   3        / 57. RY*(   1) C   3                    3.43    0.33    0.060
 138. BD*(   2) C   2 - C   3        / 71. RY*(  15) C   3                    0.73    0.63    0.038
 138. BD*(   2) C   2 - C   3        /112. RY*(   5) N   6                    0.58    1.36    0.051
 144. BD*(   2) N   5 - N   6        / 93. RY*(   3) N   5                    3.60    0.94    0.109
 144. BD*(   2) N   5 - N   6        /101. RY*(  11) N   5                    0.63    0.61    0.037
 144. BD*(   2) N   5 - N   6        /111. RY*(   4) N   6                    2.59    1.39    0.113
 144. BD*(   2) N   5 - N   6        /114. RY*(   7) N   6                    0.53    1.20    0.048
 144. BD*(   2) N   5 - N   6        /138. BD*(   2) C   2 - C   3           41.52    0.06    0.066


 Natural Bond Orbitals (Summary):

                                                            Principal Delocalizations
           NBO                        Occupancy    Energy   (geminal,vicinal,remote)
 ====================================================================================
 Molecular unit  1  (C2H2N3O)
     1. BD (   1) N   1 - C   2          1.99141    -0.64812  137(g),139(g),143(v)
     2. BD (   1) N   1 - H   7          1.97181    -0.37683  137(v),139(v),40(v),44(v)
                                                    43(v)
     3. BD (   1) C   2 - C   3          1.98208    -0.53107  135(g),136(v),141(g),108(v)
     4. BD (   2) C   2 - C   3          1.75455    -0.09053  144(v),23(v),75(v),112(v)
     5. BD (   1) C   2 - N   6          1.97071    -0.57357  141(v),142(v),92(v),140(v)
                                                    135(g),24(v)
     6. BD (   1) C   3 - O   4          1.99237    -0.73432  135(v),91(v),94(v),139(v)
     7. BD (   1) C   3 - H   8          1.98109    -0.38967  142(v),139(v),137(g),41(v)
                                                    43(v),40(v)
     8. BD (   1) O   4 - N   5          1.98871    -0.66062  59(v),141(v),110(v),135(r)
     9. BD (   1) N   5 - N   6          1.98947    -0.80019  135(v),41(v),43(v),74(v)
                                                    142(g)
    10. BD (   2) N   5 - N   6          1.95214    -0.20647  138(v)
    11. CR (   1) N   1                  1.99948   -13.87790  43(v),40(v),137(v),139(v)
    12. CR (   1) C   2                  1.99926    -9.91583  59(v),141(v),137(g)
    13. CR (   1) C   3                  1.99907    -9.91355  41(v),135(v),43(v),137(g)
                                                    140(g)
    14. CR (   1) O   4                  1.99977   -18.84106  58(v),92(v)
    15. CR (   1) N   5                  1.99961   -14.07703  108(v),142(g),139(v),140(v)
    16. CR (   1) N   6                  1.99947   -14.00258  40(v),91(v),135(v)
    17. LP (   1) N   1                  1.93495    -0.18131  139(v),40(v),43(v),127(v)
    18. LP (   2) N   1                  1.60572     0.02143  138(v),42(v),23(g),126(v)
                                                    50(v),144(r)
    19. LP (   1) O   4                  1.97938    -0.46980  58(v),143(v),137(v),92(v)
                                                    141(v)
    20. LP (   2) O   4                  1.71805    -0.17255  144(v),138(v),57(v),95(v)
                                                    61(v)
    21. LP (   1) N   5                  1.96063    -0.32348  139(v),140(v),108(v),74(v)
    22. LP (   1) N   6                  1.89763    -0.23811  142(v),137(v),40(v),91(v)
                                                    43(v),51(v)
    23. RY*(   1) N   1                  0.00392     0.59903   
    24. RY*(   2) N   1                  0.00278     0.70886   
    25. RY*(   3) N   1                  0.00130     1.06974   
    26. RY*(   4) N   1                  0.00036     1.40096   
    27. RY*(   5) N   1                  0.00010     1.27678   
    28. RY*(   6) N   1                  0.00004     1.44892   
    29. RY*(   7) N   1                  0.00002     1.51292   
    30. RY*(   8) N   1                  0.00000    35.45514   
    31. RY*(   9) N   1                  0.00000     4.26076   
    32. RY*(  10) N   1                  0.00001     3.80238   
    33. RY*(  11) N   1                  0.00000     0.83391   
    34. RY*(  12) N   1                  0.00000     4.08020   
    35. RY*(  13) N   1                  0.00000     2.29262   
    36. RY*(  14) N   1                  0.00000     2.47052   
    37. RY*(  15) N   1                  0.00001     2.37394   
    38. RY*(  16) N   1                  0.00000     2.72524   
    39. RY*(  17) N   1                  0.00000     2.60382   
    40. RY*(   1) C   2                  0.01238     1.19458   
    41. RY*(   2) C   2                  0.00578     1.08133   
    42. RY*(   3) C   2                  0.00422     1.86906   
    43. RY*(   4) C   2                  0.00402     1.20354   
    44. RY*(   5) C   2                  0.00212     1.78536   
    45. RY*(   6) C   2                  0.00050     1.64707   
    46. RY*(   7) C   2                  0.00043     1.43581   
    47. RY*(   8) C   2                  0.00016     3.93482   
    48. RY*(   9) C   2                  0.00012     2.03543   
    49. RY*(  10) C   2                  0.00007     1.89944   
    50. RY*(  11) C   2                  0.00004     0.81829   
    51. RY*(  12) C   2                  0.00001     2.75228   
    52. RY*(  13) C   2                  0.00001    20.00509   
    53. RY*(  14) C   2                  0.00001     2.20861   
    54. RY*(  15) C   2                  0.00000     0.40745   
    55. RY*(  16) C   2                  0.00000     2.86370   
    56. RY*(  17) C   2                  0.00000     1.98192   
    57. RY*(   1) C   3                  0.00631     0.51622   
    58. RY*(   2) C   3                  0.00585     1.04389   
    59. RY*(   3) C   3                  0.00296     1.57127   
    60. RY*(   4) C   3                  0.00129     0.69815   
    61. RY*(   5) C   3                  0.00124     1.63551   
    62. RY*(   6) C   3                  0.00085     1.29581   
    63. RY*(   7) C   3                  0.00041     1.25384   
    64. RY*(   8) C   3                  0.00014     2.55370   
    65. RY*(   9) C   3                  0.00015     1.71213   
    66. RY*(  10) C   3                  0.00009     1.81306   
    67. RY*(  11) C   3                  0.00003     2.19396   
    68. RY*(  12) C   3                  0.00004     2.54408   
    69. RY*(  13) C   3                  0.00000    21.77960   
    70. RY*(  14) C   3                  0.00001     2.64999   
    71. RY*(  15) C   3                  0.00000     0.81626   
    72. RY*(  16) C   3                  0.00000     2.63105   
    73. RY*(  17) C   3                  0.00000     2.25261   
    74. RY*(   1) O   4                  0.00416     1.15894   
    75. RY*(   2) O   4                  0.00179     0.92259   
    76. RY*(   3) O   4                  0.00149     0.98156   
    77. RY*(   4) O   4                  0.00077     1.70839   
    78. RY*(   5) O   4                  0.00046     2.72006   
    79. RY*(   6) O   4                  0.00038     1.66840   
    80. RY*(   7) O   4                  0.00007     1.83707   
    81. RY*(   8) O   4                  0.00005     1.39466   
    82. RY*(   9) O   4                  0.00002     0.93961   
    83. RY*(  10) O   4                  0.00002     3.80633   
    84. RY*(  11) O   4                  0.00000    49.64950   
    85. RY*(  12) O   4                  0.00000     4.83409   
    86. RY*(  13) O   4                  0.00001     2.33728   
    87. RY*(  14) O   4                  0.00000     2.91523   
    88. RY*(  15) O   4                  0.00000     4.97187   
    89. RY*(  16) O   4                  0.00001     4.93753   
    90. RY*(  17) O   4                  0.00001     3.17434   
    91. RY*(   1) N   5                  0.00717     1.17685   
    92. RY*(   2) N   5                  0.00409     1.04607   
    93. RY*(   3) N   5                  0.00345     1.06613   
    94. RY*(   4) N   5                  0.00134     1.24869   
    95. RY*(   5) N   5                  0.00108     1.96451   
    96. RY*(   6) N   5                  0.00056     1.56015   
    97. RY*(   7) N   5                  0.00013     0.87637   
    98. RY*(   8) N   5                  0.00004     0.71168   
    99. RY*(   9) N   5                  0.00004     2.44471   
   100. RY*(  10) N   5                  0.00000    35.07751   
   101. RY*(  11) N   5                  0.00001     0.73684   
   102. RY*(  12) N   5                  0.00000     3.90242   
   103. RY*(  13) N   5                  0.00001     1.93786   
   104. RY*(  14) N   5                  0.00000     2.09638   
   105. RY*(  15) N   5                  0.00001     4.32933   
   106. RY*(  16) N   5                  0.00000     3.82304   
   107. RY*(  17) N   5                  0.00001     2.69024   
   108. RY*(   1) N   6                  0.00756     0.84467   
   109. RY*(   2) N   6                  0.00224     1.06815   
   110. RY*(   3) N   6                  0.00173     1.10927   
   111. RY*(   4) N   6                  0.00140     1.52146   
   112. RY*(   5) N   6                  0.00055     1.55098   
   113. RY*(   6) N   6                  0.00051     1.74648   
   114. RY*(   7) N   6                  0.00014     1.32594   
   115. RY*(   8) N   6                  0.00011     1.99855   
   116. RY*(   9) N   6                  0.00009     1.29074   
   117. RY*(  10) N   6                  0.00005     3.36554   
   118. RY*(  11) N   6                  0.00004     2.03900   
   119. RY*(  12) N   6                  0.00000     3.96800   
   120. RY*(  13) N   6                  0.00000     4.17323   
   121. RY*(  14) N   6                  0.00000     2.63145   
   122. RY*(  15) N   6                  0.00000     1.67314   
   123. RY*(  16) N   6                  0.00000    35.25276   
   124. RY*(  17) N   6                  0.00001     2.81778   
   125. RY*(   1) H   7                  0.00243     0.94914   
   126. RY*(   2) H   7                  0.00113     1.74477   
   127. RY*(   3) H   7                  0.00096     1.95889   
   128. RY*(   4) H   7                  0.00016     2.38530   
   129. RY*(   5) H   7                  0.00002     2.61192   
   130. RY*(   1) H   8                  0.00087     1.02135   
   131. RY*(   2) H   8                  0.00044     1.75085   
   132. RY*(   3) H   8                  0.00020     2.36084   
   133. RY*(   4) H   8                  0.00011     2.23802   
   134. RY*(   5) H   8                  0.00007     2.24547   
   135. BD*(   1) N   1 - C   2          0.01093     0.75719   
   136. BD*(   1) N   1 - H   7          0.00745     0.64545   
   137. BD*(   1) C   2 - C   3          0.04139     0.72520   
   138. BD*(   2) C   2 - C   3          0.49099     0.18961  144(v),57(g),23(v),50(g)
                                                    71(g),42(g),112(v)
   139. BD*(   1) C   2 - N   6          0.07579     0.57820   
   140. BD*(   1) C   3 - O   4          0.02433     0.51909   
   141. BD*(   1) C   3 - H   8          0.01218     0.57499   
   142. BD*(   1) O   4 - N   5          0.09895     0.36951   
   143. BD*(   1) N   5 - N   6          0.01315     0.71007   
   144. BD*(   2) N   5 - N   6          0.45174     0.12741  138(v),93(g),111(g),101(g)
                                                    114(g)
       -------------------------------
              Total Lewis   42.66737  ( 96.9713%)
        Valence non-Lewis    1.22692  (  2.7885%)
        Rydberg non-Lewis    0.10571  (  0.2402%)
       -------------------------------
            Total unit  1   44.00000  (100.0000%)
           Charge unit  1   -1.00000
 Leave Link  607 at Mon Oct 24 22:54:01 2022, MaxMem=  8053063680 cpu:              48.1 elap:               1.5
 (Enter /public3/home/scg5914/software-scg5914/g16/l9999.exe)
 Unable to Open any file for archive entry.
 1\1\GINC-G0607\SP\RB3LYP\Gen\C2H2N3O1(1-)\SCG5914\24-Oct-2022\0\\#p b3
 lyp/chkbas pop=nbo geom=allcheck guess=tcheck em=gd3bj\\dsgdb9nsd_0007
 63-2\\-1,1\N,0,-0.044037033,1.4063131718,0.0524318643\C,0,-0.053673719
 ,0.0809642671,0.0235544515\C,0,-1.1064337766,-0.8369653427,0.029945960
 6\O,0,-0.6106148267,-2.1120108448,-0.0137182693\N,0,0.7896567711,-1.99
 5431701,-0.0455625347\N,0,1.0960136597,-0.7677368061,-0.0242418184\H,0
 ,0.9271205603,1.7118341438,0.0362274054\H,0,-2.1752503408,-0.731768767
 8,0.0537985183\\Version=ES64L-G16RevC.01\State=1-A\HF=-316.9369532\RMS
 D=7.586e-09\Dipole=-0.2979128,-1.0677907,-0.0188538\Quadrupole=3.67380
 94,-8.6221356,4.9483262,3.4193521,0.1226167,-0.389253\PG=C01 [X(C2H2N3
 O1)]\\@
 The archive entry for this job was punched.


 FAULTILY FAULTLESS, ICILY REGULAR, SPLENDIDLY NULL...
           MAUDE BY TENNYSON
 Job cpu time:       0 days  0 hours  1 minutes 16.8 seconds.
 Elapsed time:       0 days  0 hours  0 minutes  2.6 seconds.
 File lengths (MBytes):  RWF=     11 Int=      0 D2E=      0 Chk=      3 Scr=      1
 Normal termination of Gaussian 16 at Mon Oct 24 22:54:01 2022.
