 Entering Gaussian System, Link 0=/public3/home/scg5914/software-scg5914/g16/g16
 Input=dsgdb9nsd_126828-6.gjf
 Output=dsgdb9nsd_126828-6.log
 Initial command:
 /public3/home/scg5914/software-scg5914/g16/l1.exe "/public3/home/scg5914/software-scg5914/test/tmp/dsgdb9nsd_126828-6/Gau-159927.inp" -scrdir="/public3/home/scg5914/software-scg5914/test/tmp/dsgdb9nsd_126828-6/"
 Entering Link 1 = /public3/home/scg5914/software-scg5914/g16/l1.exe PID=    159928.
  
 Copyright (c) 1988-2019, Gaussian, Inc.  All Rights Reserved.
  
 This is part of the Gaussian(R) 16 program.  It is based on
 the Gaussian(R) 09 system (copyright 2009, Gaussian, Inc.),
 the Gaussian(R) 03 system (copyright 2003, Gaussian, Inc.),
 the Gaussian(R) 98 system (copyright 1998, Gaussian, Inc.),
 the Gaussian(R) 94 system (copyright 1995, Gaussian, Inc.),
 the Gaussian 92(TM) system (copyright 1992, Gaussian, Inc.),
 the Gaussian 90(TM) system (copyright 1990, Gaussian, Inc.),
 the Gaussian 88(TM) system (copyright 1988, Gaussian, Inc.),
 the Gaussian 86(TM) system (copyright 1986, Carnegie Mellon
 University), and the Gaussian 82(TM) system (copyright 1983,
 Carnegie Mellon University). Gaussian is a federally registered
 trademark of Gaussian, Inc.
  
 This software contains proprietary and confidential information,
 including trade secrets, belonging to Gaussian, Inc.
  
 This software is provided under written license and may be
 used, copied, transmitted, or stored only in accord with that
 written license.
  
 The following legend is applicable only to US Government
 contracts under FAR:
  
                    RESTRICTED RIGHTS LEGEND
  
 Use, reproduction and disclosure by the US Government is
 subject to restrictions as set forth in subparagraphs (a)
 and (c) of the Commercial Computer Software - Restricted
 Rights clause in FAR 52.227-19.
  
 Gaussian, Inc.
 340 Quinnipiac St., Bldg. 40, Wallingford CT 06492
  
  
 ---------------------------------------------------------------
 Warning -- This program may not be used in any manner that
 competes with the business of Gaussian, Inc. or will provide
 assistance to any competitor of Gaussian, Inc.  The licensee
 of this program is prohibited from giving any competitor of
 Gaussian, Inc. access to this program.  By using this program,
 the user acknowledges that Gaussian, Inc. is engaged in the
 business of creating and licensing software in the field of
 computational chemistry and represents and warrants to the
 licensee that it is not a competitor of Gaussian, Inc. and that
 it will not use this program in any manner prohibited above.
 ---------------------------------------------------------------
  

 Cite this work as:
 Gaussian 16, Revision C.01,
 M. J. Frisch, G. W. Trucks, H. B. Schlegel, G. E. Scuseria, 
 M. A. Robb, J. R. Cheeseman, G. Scalmani, V. Barone, 
 G. A. Petersson, H. Nakatsuji, X. Li, M. Caricato, A. V. Marenich, 
 J. Bloino, B. G. Janesko, R. Gomperts, B. Mennucci, H. P. Hratchian, 
 J. V. Ortiz, A. F. Izmaylov, J. L. Sonnenberg, D. Williams-Young, 
 F. Ding, F. Lipparini, F. Egidi, J. Goings, B. Peng, A. Petrone, 
 T. Henderson, D. Ranasinghe, V. G. Zakrzewski, J. Gao, N. Rega, 
 G. Zheng, W. Liang, M. Hada, M. Ehara, K. Toyota, R. Fukuda, 
 J. Hasegawa, M. Ishida, T. Nakajima, Y. Honda, O. Kitao, H. Nakai, 
 T. Vreven, K. Throssell, J. A. Montgomery, Jr., J. E. Peralta, 
 F. Ogliaro, M. J. Bearpark, J. J. Heyd, E. N. Brothers, K. N. Kudin, 
 V. N. Staroverov, T. A. Keith, R. Kobayashi, J. Normand, 
 K. Raghavachari, A. P. Rendell, J. C. Burant, S. S. Iyengar, 
 J. Tomasi, M. Cossi, J. M. Millam, M. Klene, C. Adamo, R. Cammi, 
 J. W. Ochterski, R. L. Martin, K. Morokuma, O. Farkas, 
 J. B. Foresman, and D. J. Fox, Gaussian, Inc., Wallingford CT, 2019.
 
 ******************************************
 Gaussian 16:  ES64L-G16RevC.01  3-Jul-2019
                30-Oct-2022 
 ******************************************
 %chk=dsgdb9nsd_126828-6.chk
 %mem=60GB
 %nprocshared=32
 Will use up to   32 processors via shared memory.
 ------------------------------------
 #p opt freq b3lyp/6-311+g** em=gd3bj
 ------------------------------------
 1/18=20,19=15,26=3,38=1/1,3;
 2/9=110,12=2,17=6,18=5,40=1/2;
 3/5=4,6=6,7=111,11=2,25=1,30=1,71=1,74=-5,124=41/1,2,3;
 4//1;
 5/5=2,38=5/2;
 6/7=2,8=2,9=2,10=2,28=1/1;
 7//1,2,3,16;
 1/18=20,19=15,26=3/3(2);
 2/9=110/2;
 99//99;
 2/9=110/2;
 3/5=4,6=6,7=111,11=2,25=1,30=1,71=1,74=-5,124=41/1,2,3;
 4/5=5,16=3,69=1/1;
 5/5=2,38=5/2;
 7//1,2,3,16;
 1/18=20,19=15,26=3/3(-5);
 2/9=110/2;
 6/7=2,8=2,9=2,10=2,19=2,28=1/1;
 99/9=1/99;
 Leave Link    1 at Sun Oct 30 08:04:59 2022, MaxMem=  8053063680 cpu:               0.9 elap:               0.0
 (Enter /public3/home/scg5914/software-scg5914/g16/l101.exe)
 ------------------
 dsgdb9nsd_126828-6
 ------------------
 Symbolic Z-matrix:
 Charge =  0 Multiplicity = 2
 C                     0.057     1.56737   0.03096 
 C                     0.03258   0.03834   0.07865 
 N                     0.70128  -0.50588   1.24271 
 N                     2.07423  -0.60976   1.31009 
 C                     2.30031  -0.98869   2.5111 
 O                     1.18902  -1.1364    3.28329 
 C                     0.11493  -0.77891   2.45919 
 N                    -1.10631  -0.71937   2.76082 
 C                    -1.5303   -1.07776   4.10183 
 H                     1.08594   1.9379    0.01553 
 H                    -0.4511    1.92383  -0.87035 
 H                    -0.45409   1.98639   0.90215 
 H                    -0.99519  -0.33074   0.12259 
 H                     0.5162   -0.38855  -0.80456 
 H                    -0.76504  -0.89851   4.86866 
 H                    -2.42025  -0.49691   4.36251 
 H                    -1.81104  -2.13872   4.1542 
 
 ITRead=  0  0  0  0  0  0  0  0  0  0  0  0  0  0  0  0  0
 MicOpt= -1 -1 -1 -1 -1 -1 -1 -1 -1 -1 -1 -1 -1 -1 -1 -1 -1
 NAtoms=     17 NQM=       17 NQMF=       0 NMMI=      0 NMMIF=      0
                NMic=       0 NMicF=      0.
                    Isotopes and Nuclear Properties:
 (Nuclear quadrupole moments (NQMom) in fm**2, nuclear magnetic moments (NMagM)
  in nuclear magnetons)

  Atom         1           2           3           4           5           6           7           8           9          10
 IAtWgt=          12          12          14          14          12          16          12          14          12           1
 AtmWgt=  12.0000000  12.0000000  14.0030740  14.0030740  12.0000000  15.9949146  12.0000000  14.0030740  12.0000000   1.0078250
 NucSpn=           0           0           2           2           0           0           0           2           0           1
 AtZEff=  -0.0000000  -0.0000000  -0.0000000  -0.0000000  -0.0000000  -0.0000000  -0.0000000  -0.0000000  -0.0000000  -0.0000000
 NQMom=    0.0000000   0.0000000   2.0440000   2.0440000   0.0000000   0.0000000   0.0000000   2.0440000   0.0000000   0.0000000
 NMagM=    0.0000000   0.0000000   0.4037610   0.4037610   0.0000000   0.0000000   0.0000000   0.4037610   0.0000000   2.7928460
 AtZNuc=   6.0000000   6.0000000   7.0000000   7.0000000   6.0000000   8.0000000   6.0000000   7.0000000   6.0000000   1.0000000

  Atom        11          12          13          14          15          16          17
 IAtWgt=           1           1           1           1           1           1           1
 AtmWgt=   1.0078250   1.0078250   1.0078250   1.0078250   1.0078250   1.0078250   1.0078250
 NucSpn=           1           1           1           1           1           1           1
 AtZEff=  -0.0000000  -0.0000000  -0.0000000  -0.0000000  -0.0000000  -0.0000000  -0.0000000
 NQMom=    0.0000000   0.0000000   0.0000000   0.0000000   0.0000000   0.0000000   0.0000000
 NMagM=    2.7928460   2.7928460   2.7928460   2.7928460   2.7928460   2.7928460   2.7928460
 AtZNuc=   1.0000000   1.0000000   1.0000000   1.0000000   1.0000000   1.0000000   1.0000000
 Leave Link  101 at Sun Oct 30 08:04:59 2022, MaxMem=  8053063680 cpu:               4.2 elap:               0.1
 (Enter /public3/home/scg5914/software-scg5914/g16/l103.exe)

 GradGradGradGradGradGradGradGradGradGradGradGradGradGradGradGradGradGrad
 Berny optimization.
 Initialization pass.
                           ----------------------------
                           !    Initial Parameters    !
                           ! (Angstroms and Degrees)  !
 --------------------------                            --------------------------
 ! Name  Definition              Value          Derivative Info.                !
 --------------------------------------------------------------------------------
 ! R1    R(1,2)                  1.53           estimate D2E/DX2                !
 ! R2    R(1,10)                 1.0937         estimate D2E/DX2                !
 ! R3    R(1,11)                 1.0943         estimate D2E/DX2                !
 ! R4    R(1,12)                 1.0935         estimate D2E/DX2                !
 ! R5    R(2,3)                  1.4486         estimate D2E/DX2                !
 ! R6    R(2,13)                 1.0929         estimate D2E/DX2                !
 ! R7    R(2,14)                 1.0937         estimate D2E/DX2                !
 ! R8    R(3,4)                  1.3785         estimate D2E/DX2                !
 ! R9    R(3,7)                  1.3778         estimate D2E/DX2                !
 ! R10   R(4,5)                  1.2795         estimate D2E/DX2                !
 ! R11   R(5,6)                  1.3613         estimate D2E/DX2                !
 ! R12   R(6,7)                  1.4002         estimate D2E/DX2                !
 ! R13   R(7,8)                  1.2593         estimate D2E/DX2                !
 ! R14   R(8,9)                  1.4514         estimate D2E/DX2                !
 ! R15   R(9,15)                 1.0981         estimate D2E/DX2                !
 ! R16   R(9,16)                 1.0942         estimate D2E/DX2                !
 ! R17   R(9,17)                 1.0987         estimate D2E/DX2                !
 ! A1    A(2,1,10)             110.7338         estimate D2E/DX2                !
 ! A2    A(2,1,11)             110.1082         estimate D2E/DX2                !
 ! A3    A(2,1,12)             110.5277         estimate D2E/DX2                !
 ! A4    A(10,1,11)            108.3504         estimate D2E/DX2                !
 ! A5    A(10,1,12)            108.7308         estimate D2E/DX2                !
 ! A6    A(11,1,12)            108.3205         estimate D2E/DX2                !
 ! A7    A(1,2,3)              113.1504         estimate D2E/DX2                !
 ! A8    A(1,2,13)             110.7178         estimate D2E/DX2                !
 ! A9    A(1,2,14)             110.9684         estimate D2E/DX2                !
 ! A10   A(3,2,13)             105.9576         estimate D2E/DX2                !
 ! A11   A(3,2,14)             107.3469         estimate D2E/DX2                !
 ! A12   A(13,2,14)            108.4504         estimate D2E/DX2                !
 ! A13   A(2,3,4)              121.8267         estimate D2E/DX2                !
 ! A14   A(2,3,7)              125.9808         estimate D2E/DX2                !
 ! A15   A(4,3,7)              111.4555         estimate D2E/DX2                !
 ! A16   A(3,4,5)              104.1334         estimate D2E/DX2                !
 ! A17   A(4,5,6)              114.8564         estimate D2E/DX2                !
 ! A18   A(5,6,7)              105.3468         estimate D2E/DX2                !
 ! A19   A(3,7,6)              104.1101         estimate D2E/DX2                !
 ! A20   A(3,7,8)              127.9388         estimate D2E/DX2                !
 ! A21   A(6,7,8)              127.951          estimate D2E/DX2                !
 ! A22   A(7,8,9)              119.5319         estimate D2E/DX2                !
 ! A23   A(8,9,15)             113.6618         estimate D2E/DX2                !
 ! A24   A(8,9,16)             109.0642         estimate D2E/DX2                !
 ! A25   A(8,9,17)             110.9236         estimate D2E/DX2                !
 ! A26   A(15,9,16)            108.2872         estimate D2E/DX2                !
 ! A27   A(15,9,17)            107.6023         estimate D2E/DX2                !
 ! A28   A(16,9,17)            107.0629         estimate D2E/DX2                !
 ! D1    D(10,1,2,3)            59.6231         estimate D2E/DX2                !
 ! D2    D(10,1,2,13)          178.3997         estimate D2E/DX2                !
 ! D3    D(10,1,2,14)          -61.1157         estimate D2E/DX2                !
 ! D4    D(11,1,2,3)           179.4293         estimate D2E/DX2                !
 ! D5    D(11,1,2,13)          -61.7941         estimate D2E/DX2                !
 ! D6    D(11,1,2,14)           58.6905         estimate D2E/DX2                !
 ! D7    D(12,1,2,3)           -60.9328         estimate D2E/DX2                !
 ! D8    D(12,1,2,13)           57.8437         estimate D2E/DX2                !
 ! D9    D(12,1,2,14)          178.3284         estimate D2E/DX2                !
 ! D10   D(1,2,3,4)            -79.1995         estimate D2E/DX2                !
 ! D11   D(1,2,3,7)             90.1065         estimate D2E/DX2                !
 ! D12   D(13,2,3,4)           159.3051         estimate D2E/DX2                !
 ! D13   D(13,2,3,7)           -31.3889         estimate D2E/DX2                !
 ! D14   D(14,2,3,4)            43.5725         estimate D2E/DX2                !
 ! D15   D(14,2,3,7)          -147.1215         estimate D2E/DX2                !
 ! D16   D(2,3,4,5)            173.3309         estimate D2E/DX2                !
 ! D17   D(7,3,4,5)              2.6157         estimate D2E/DX2                !
 ! D18   D(2,3,7,6)           -173.4975         estimate D2E/DX2                !
 ! D19   D(2,3,7,8)              6.4426         estimate D2E/DX2                !
 ! D20   D(4,3,7,6)             -3.2507         estimate D2E/DX2                !
 ! D21   D(4,3,7,8)            176.6895         estimate D2E/DX2                !
 ! D22   D(3,4,5,6)             -0.8687         estimate D2E/DX2                !
 ! D23   D(4,5,6,7)             -1.1072         estimate D2E/DX2                !
 ! D24   D(5,6,7,3)              2.5504         estimate D2E/DX2                !
 ! D25   D(5,6,7,8)           -177.3898         estimate D2E/DX2                !
 ! D26   D(3,7,8,9)            178.6496         estimate D2E/DX2                !
 ! D27   D(6,7,8,9)             -1.424          estimate D2E/DX2                !
 ! D28   D(7,8,9,15)            28.7542         estimate D2E/DX2                !
 ! D29   D(7,8,9,16)           149.6773         estimate D2E/DX2                !
 ! D30   D(7,8,9,17)           -92.6453         estimate D2E/DX2                !
 --------------------------------------------------------------------------------
 Trust Radius=3.00D-01 FncErr=1.00D-07 GrdErr=1.00D-06 EigMax=2.50D+02 EigMin=1.00D-04
 Number of steps in this run=     85 maximum allowed number of steps=    102.
 GradGradGradGradGradGradGradGradGradGradGradGradGradGradGradGradGradGrad

 Leave Link  103 at Sun Oct 30 08:04:59 2022, MaxMem=  8053063680 cpu:               0.2 elap:               0.0
 (Enter /public3/home/scg5914/software-scg5914/g16/l202.exe)
                          Input orientation:                          
 ---------------------------------------------------------------------
 Center     Atomic      Atomic             Coordinates (Angstroms)
 Number     Number       Type             X           Y           Z
 ---------------------------------------------------------------------
      1          6           0        0.057004    1.567367    0.030958
      2          6           0        0.032579    0.038345    0.078647
      3          7           0        0.701285   -0.505885    1.242708
      4          7           0        2.074227   -0.609761    1.310091
      5          6           0        2.300309   -0.988692    2.511098
      6          8           0        1.189020   -1.136396    3.283292
      7          6           0        0.114926   -0.778910    2.459195
      8          7           0       -1.106312   -0.719366    2.760821
      9          6           0       -1.530301   -1.077757    4.101831
     10          1           0        1.085941    1.937896    0.015529
     11          1           0       -0.451098    1.923830   -0.870345
     12          1           0       -0.454089    1.986391    0.902150
     13          1           0       -0.995185   -0.330738    0.122588
     14          1           0        0.516204   -0.388554   -0.804563
     15          1           0       -0.765044   -0.898511    4.868660
     16          1           0       -2.420246   -0.496908    4.362514
     17          1           0       -1.811036   -2.138721    4.154200
 ---------------------------------------------------------------------
                    Distance matrix (angstroms):
                    1          2          3          4          5
     1  C    0.000000
     2  C    1.529961   0.000000
     3  N    2.486325   1.448583   0.000000
     4  N    3.231912   2.470793   1.378514   0.000000
     5  C    4.209151   3.480549   2.097331   1.279500   0.000000
     6  O    4.378296   3.603765   2.190756   2.225861   1.361272
     7  C    3.377085   2.518272   1.377751   2.277698   2.196042
     8  N    3.746279   3.010856   2.370158   3.497493   3.426364
     9  C    5.107664   4.458059   3.671729   4.583171   4.148727
    10  H    1.093728   2.172982   2.761520   3.023765   4.033295
    11  H    1.094340   2.165545   3.420014   4.189350   5.242822
    12  H    1.093514   2.170228   2.768088   3.646753   4.361943
    13  H    2.172165   1.092910   2.040431   3.302924   4.122884
    14  H    2.175911   1.093708   2.058967   2.635931   3.812717
    15  H    5.491783   4.945516   3.930878   4.561606   3.868155
    16  H    5.400035   4.965316   4.413301   5.434180   5.094432
    17  H    5.850281   4.974803   4.177882   5.051925   4.574441
                    6          7          8          9         10
     6  O    0.000000
     7  C    1.400218   0.000000
     8  N    2.390699   1.259344   0.000000
     9  C    2.840449   2.344000   1.451385   0.000000
    10  H    4.487780   3.780926   4.404956   5.712858   0.000000
    11  H    5.413656   4.325624   4.538850   5.907346   1.774109
    12  H    4.256929   3.224137   3.346816   4.559079   1.777679
    13  H    3.925543   2.625440   2.669017   4.083964   3.080463
    14  H    4.209811   3.311422   3.931152   5.360587   2.531704
    15  H    2.527519   2.567912   2.142788   1.098076   5.918127
    16  H    3.821056   3.182648   2.083586   1.094232   6.092446
    17  H    3.280774   2.903698   2.110145   1.098727   6.491524
                   11         12         13         14         15
    11  H    0.000000
    12  H    1.773601   0.000000
    13  H    2.522900   2.503915   0.000000
    14  H    2.507414   3.081348   1.774049   0.000000
    15  H    6.403152   4.914525   4.785450   5.838417   0.000000
    16  H    6.092646   4.691127   4.476090   5.944171   1.776840
    17  H    6.603015   5.425282   4.493140   5.750518   1.772759
                   16         17
    16  H    0.000000
    17  H    1.763542   0.000000
 Stoichiometry    C5H8N3O(2)
 Framework group  C1[X(C5H8N3O)]
 Deg. of freedom    45
 Full point group                 C1      NOp   1
 Largest Abelian subgroup         C1      NOp   1
 Largest concise Abelian subgroup C1      NOp   1
                         Standard orientation:                         
 ---------------------------------------------------------------------
 Center     Atomic      Atomic             Coordinates (Angstroms)
 Number     Number       Type             X           Y           Z
 ---------------------------------------------------------------------
      1          6           0       -2.407724   -1.222044    0.655414
      2          6           0       -1.711527   -0.724059   -0.612695
      3          7           0       -0.687147    0.265580   -0.348777
      4          7           0       -0.998053    1.585776   -0.102365
      5          6           0        0.120819    2.114957    0.222002
      6          8           0        1.177110    1.256406    0.236219
      7          6           0        0.644164    0.007478   -0.105480
      8          7           0        1.243574   -1.097970   -0.173581
      9          6           0        2.668682   -1.156770    0.094991
     10          1           0       -2.887115   -0.393628    1.184708
     11          1           0       -3.176260   -1.957546    0.398569
     12          1           0       -1.687399   -1.697721    1.326709
     13          1           0       -1.208739   -1.547310   -1.126422
     14          1           0       -2.430530   -0.273163   -1.302567
     15          1           0        3.017982   -0.383801    0.792329
     16          1           0        2.912602   -2.136128    0.517726
     17          1           0        3.247490   -1.053028   -0.833136
 ---------------------------------------------------------------------
 Rotational constants (GHZ):           2.4249459           1.4930115           1.0031674
 Leave Link  202 at Sun Oct 30 08:04:59 2022, MaxMem=  8053063680 cpu:               0.2 elap:               0.0
 (Enter /public3/home/scg5914/software-scg5914/g16/l301.exe)
 Standard basis: 6-311+G(d,p) (5D, 7F)
 Ernie: Thresh=  0.10000D-02 Tol=  0.10000D-05 Strict=F.
 There are   255 symmetry adapted cartesian basis functions of A   symmetry.
 There are   246 symmetry adapted basis functions of A   symmetry.
   246 basis functions,   388 primitive gaussians,   255 cartesian basis functions
    34 alpha electrons       33 beta electrons
       nuclear repulsion energy       450.8102809358 Hartrees.
 IExCor=  402 DFT=T Ex+Corr=B3LYP ExCW=0 ScaHFX=  0.200000
 ScaDFX=  0.800000  0.720000  1.000000  0.810000 ScalE2=  1.000000  1.000000
 IRadAn=      5 IRanWt=     -1 IRanGd=            0 ICorTp=0 IEmpDi=141
 NAtoms=   17 NActive=   17 NUniq=   17 SFac= 1.00D+00 NAtFMM=   60 NAOKFM=F Big=F
 Integral buffers will be    131072 words long.
 Raffenetti 2 integral format.
 Two-electron integral symmetry is turned on.
 R6Disp:  Grimme-D3(BJ) Dispersion energy=       -0.0252610866 Hartrees.
 Nuclear repulsion after empirical dispersion term =      450.7850198492 Hartrees.
 Leave Link  301 at Sun Oct 30 08:04:59 2022, MaxMem=  8053063680 cpu:               1.5 elap:               0.1
 (Enter /public3/home/scg5914/software-scg5914/g16/l302.exe)
 NPDir=0 NMtPBC=     1 NCelOv=     1 NCel=       1 NClECP=     1 NCelD=      1
         NCelK=      1 NCelE2=     1 NClLst=     1 CellRange=     0.0.
 One-electron integrals computed using PRISM.
 One-electron integral symmetry used in STVInt
 NBasis=   246 RedAO= T EigKep=  4.33D-05  NBF=   246
 NBsUse=   246 1.00D-06 EigRej= -1.00D+00 NBFU=   246
 Precomputing XC quadrature grid using
 IXCGrd= 4 IRadAn=           5 IRanWt=          -1 IRanGd=           0 AccXCQ= 0.00D+00.
 Generated NRdTot=       0 NPtTot=           0 NUsed=           0 NTot=          32
 NSgBfM=   255   255   255   255   255 MxSgAt=    17 MxSgA2=    17.
 Leave Link  302 at Sun Oct 30 08:05:00 2022, MaxMem=  8053063680 cpu:               4.5 elap:               0.2
 (Enter /public3/home/scg5914/software-scg5914/g16/l303.exe)
 DipDrv:  MaxL=1.
 Leave Link  303 at Sun Oct 30 08:05:00 2022, MaxMem=  8053063680 cpu:               0.6 elap:               0.0
 (Enter /public3/home/scg5914/software-scg5914/g16/l401.exe)
 ExpMin= 4.38D-02 ExpMax= 8.59D+03 ExpMxC= 1.30D+03 IAcc=3 IRadAn=         5 AccDes= 0.00D+00
 Harris functional with IExCor=  402 and IRadAn=       5 diagonalized for initial guess.
 HarFok:  IExCor=  402 AccDes= 0.00D+00 IRadAn=         5 IDoV= 1 UseB2=F ITyADJ=14
 ICtDFT=  3500011 ScaDFX=  1.000000  1.000000  1.000000  1.000000
 FoFCou: FMM=F IPFlag=           0 FMFlag=      100000 FMFlg1=           0
         NFxFlg=           0 DoJE=T BraDBF=F KetDBF=T FulRan=T
         wScrn=  0.000000 ICntrl=       500 IOpCl=  0 I1Cent=   200000004 NGrid=           0
         NMat0=    1 NMatS0=      1 NMatT0=    0 NMatD0=    1 NMtDS0=    0 NMtDT0=    0
 Petite list used in FoFCou.
 Harris En= -434.820324291434    
 JPrj=0 DoOrth=F DoCkMO=F.
 Initial guess <Sx>= 0.0000 <Sy>= 0.0000 <Sz>= 0.5000 <S**2>= 0.7500 S= 0.5000
 Leave Link  401 at Sun Oct 30 08:05:00 2022, MaxMem=  8053063680 cpu:              14.2 elap:               0.5
 (Enter /public3/home/scg5914/software-scg5914/g16/l502.exe)
 Integral symmetry usage will be decided dynamically.
 UHF open shell SCF:
 Using DIIS extrapolation, IDIIS=  1040.
 NGot=  8053063680 LenX=  8052922524 LenY=  8052857058
 Requested convergence on RMS density matrix=1.00D-08 within 128 cycles.
 Requested convergence on MAX density matrix=1.00D-06.
 Requested convergence on             energy=1.00D-06.
 No special actions if energy rises.
 Fock matrices will be formed incrementally for  20 cycles.

 Cycle   1  Pass 1  IDiag  1:
 FoFJK:  IHMeth= 1 ICntrl=       0 DoSepK=F KAlg= 0 I1Cent=           0 FoldK=F
 IRaf= 940000000 NMat=       1 IRICut=       1 DoRegI=T DoRafI=F ISym2E= 0 IDoP0=0 IntGTp=1.
 FoFCou: FMM=F IPFlag=           0 FMFlag=      100000 FMFlg1=           0
         NFxFlg=           0 DoJE=F BraDBF=F KetDBF=F FulRan=T
         wScrn=  0.000000 ICntrl=         0 IOpCl=  1 I1Cent=           0 NGrid=           0
         NMat0=    1 NMatS0=      1 NMatT0=    0 NMatD0=    1 NMtDS0=    0 NMtDT0=    0
 Symmetry not used in FoFCou.
 E= -434.585021972883    
 DIIS: error= 1.93D-02 at cycle   1 NSaved=   1.
 NSaved= 1 IEnMin= 1 EnMin= -434.585021972883     IErMin= 1 ErrMin= 1.93D-02
 ErrMax= 1.93D-02  0.00D+00 EMaxC= 1.00D-01 BMatC= 1.14D+00 BMatP= 1.14D+00
 IDIUse=3 WtCom= 8.07D-01 WtEn= 1.93D-01
 Coeff-Com:  0.100D+01
 Coeff-En:   0.100D+01
 Coeff:      0.100D+01
 Gap=     0.335 Goal=   None    Shift=    0.000
 Gap=    -0.039 Goal=   None    Shift=    0.000
 GapD=   -0.039 DampG=0.250 DampE=0.500 DampFc=0.2500 IDamp=-1.
 Damping current iteration by 2.50D-01
 RMSDP=7.84D-03 MaxDP=2.58D-01              OVMax= 9.29D-01

 Cycle   2  Pass 1  IDiag  1:
 RMSU=  1.96D-03    CP:  1.00D+00
 E= -434.665971606869     Delta-E=       -0.080949633986 Rises=F Damp=T
 DIIS: error= 1.06D-02 at cycle   2 NSaved=   2.
 NSaved= 2 IEnMin= 2 EnMin= -434.665971606869     IErMin= 2 ErrMin= 1.06D-02
 ErrMax= 1.06D-02  0.00D+00 EMaxC= 1.00D-01 BMatC= 2.63D-01 BMatP= 1.14D+00
 IDIUse=3 WtCom= 8.94D-01 WtEn= 1.06D-01
 Coeff-Com: -0.475D+00 0.148D+01
 Coeff-En:   0.000D+00 0.100D+01
 Coeff:     -0.425D+00 0.142D+01
 Gap=     0.268 Goal=   None    Shift=    0.000
 Gap=    -0.039 Goal=   None    Shift=    0.000
 RMSDP=2.35D-03 MaxDP=9.57D-02 DE=-8.09D-02 OVMax= 9.52D-01

 Cycle   3  Pass 1  IDiag  1:
 RMSU=  2.34D-03    CP:  9.93D-01  9.14D-01
 E= -434.734516759022     Delta-E=       -0.068545152153 Rises=F Damp=F
 DIIS: error= 2.32D-02 at cycle   3 NSaved=   3.
 NSaved= 3 IEnMin= 3 EnMin= -434.734516759022     IErMin= 2 ErrMin= 1.06D-02
 ErrMax= 2.32D-02  0.00D+00 EMaxC= 1.00D-01 BMatC= 3.73D-01 BMatP= 2.63D-01
 IDIUse=2 WtCom= 0.00D+00 WtEn= 1.00D+00
 Coeff-En:   0.000D+00 0.186D+00 0.814D+00
 Coeff:      0.000D+00 0.186D+00 0.814D+00
 Gap=     0.283 Goal=   None    Shift=    0.000
 Gap=    -0.057 Goal=   None    Shift=    0.000
 RMSDP=6.09D-03 MaxDP=3.15D-01 DE=-6.85D-02 OVMax= 9.49D-01

 Cycle   4  Pass 1  IDiag  1:
 RMSU=  2.17D-03    CP:  1.01D+00  3.00D+00 -6.48D-01
 E= -434.355188004528     Delta-E=        0.379328754494 Rises=F Damp=F
 DIIS: error= 5.33D-02 at cycle   4 NSaved=   4.
 NSaved= 4 IEnMin= 3 EnMin= -434.734516759022     IErMin= 2 ErrMin= 1.06D-02
 ErrMax= 5.33D-02  0.00D+00 EMaxC= 1.00D-01 BMatC= 1.89D+00 BMatP= 2.63D-01
 IDIUse=2 WtCom= 0.00D+00 WtEn= 1.00D+00
 Coeff-En:   0.000D+00 0.000D+00 0.758D+00 0.242D+00
 Coeff:      0.000D+00 0.000D+00 0.758D+00 0.242D+00
 Gap=     0.216 Goal=   None    Shift=    0.000
 Gap=     0.016 Goal=   None    Shift=    0.000
 RMSDP=3.64D-03 MaxDP=1.93D-01 DE= 3.79D-01 OVMax= 3.16D-01

 Cycle   5  Pass 1  IDiag  1:
 RMSU=  1.97D-03    CP:  9.75D-01  1.91D+00  9.04D-03  3.85D-01
 E= -434.756278723936     Delta-E=       -0.401090719408 Rises=F Damp=F
 DIIS: error= 2.16D-02 at cycle   5 NSaved=   5.
 NSaved= 5 IEnMin= 5 EnMin= -434.756278723936     IErMin= 2 ErrMin= 1.06D-02
 ErrMax= 2.16D-02  0.00D+00 EMaxC= 1.00D-01 BMatC= 2.93D-01 BMatP= 2.63D-01
 IDIUse=2 WtCom= 0.00D+00 WtEn= 1.00D+00
 Coeff-En:   0.000D+00 0.000D+00 0.455D+00 0.000D+00 0.545D+00
 Coeff:      0.000D+00 0.000D+00 0.455D+00 0.000D+00 0.545D+00
 Gap=     0.284 Goal=   None    Shift=    0.000
 Gap=     0.009 Goal=   None    Shift=    0.000
 RMSDP=2.39D-03 MaxDP=1.55D-01 DE=-4.01D-01 OVMax= 5.30D-01

 Cycle   6  Pass 1  IDiag  1:
 RMSU=  9.57D-04    CP:  9.84D-01  1.17D+00  5.54D-01 -2.81D-02  7.30D-01
 E= -434.824400262842     Delta-E=       -0.068121538906 Rises=F Damp=F
 DIIS: error= 4.69D-03 at cycle   6 NSaved=   6.
 NSaved= 6 IEnMin= 6 EnMin= -434.824400262842     IErMin= 6 ErrMin= 4.69D-03
 ErrMax= 4.69D-03  0.00D+00 EMaxC= 1.00D-01 BMatC= 2.46D-02 BMatP= 2.63D-01
 IDIUse=3 WtCom= 9.53D-01 WtEn= 4.69D-02
 Coeff-Com: -0.473D-01 0.102D+00 0.186D+00-0.608D-01 0.389D+00 0.431D+00
 Coeff-En:   0.000D+00 0.000D+00 0.000D+00 0.000D+00 0.981D-01 0.902D+00
 Coeff:     -0.450D-01 0.977D-01 0.177D+00-0.579D-01 0.376D+00 0.453D+00
 Gap=     0.255 Goal=   None    Shift=    0.000
 Gap=     0.033 Goal=   None    Shift=    0.000
 RMSDP=1.10D-03 MaxDP=7.91D-02 DE=-6.81D-02 OVMax= 2.63D-01

 Cycle   7  Pass 1  IDiag  1:
 RMSU=  4.53D-04    CP:  9.69D-01  1.37D+00  3.62D-01  1.55D-01  1.01D+00
                    CP:  5.89D-01
 E= -434.827092444426     Delta-E=       -0.002692181584 Rises=F Damp=F
 DIIS: error= 4.61D-03 at cycle   7 NSaved=   7.
 NSaved= 7 IEnMin= 7 EnMin= -434.827092444426     IErMin= 7 ErrMin= 4.61D-03
 ErrMax= 4.61D-03  0.00D+00 EMaxC= 1.00D-01 BMatC= 2.35D-02 BMatP= 2.46D-02
 IDIUse=3 WtCom= 9.54D-01 WtEn= 4.61D-02
 Coeff-Com: -0.319D-01 0.583D-01 0.194D-01-0.414D-01 0.104D+00 0.446D+00
 Coeff-Com:  0.445D+00
 Coeff-En:   0.000D+00 0.000D+00 0.000D+00 0.000D+00 0.000D+00 0.425D+00
 Coeff-En:   0.575D+00
 Coeff:     -0.304D-01 0.556D-01 0.185D-01-0.395D-01 0.995D-01 0.445D+00
 Coeff:      0.451D+00
 Gap=     0.238 Goal=   None    Shift=    0.000
 Gap=     0.049 Goal=   None    Shift=    0.000
 RMSDP=4.08D-04 MaxDP=1.60D-02 DE=-2.69D-03 OVMax= 5.26D-02

 Cycle   8  Pass 1  IDiag  1:
 RMSU=  2.18D-04    CP:  9.72D-01  1.31D+00  4.17D-01  5.79D-02  9.89D-01
                    CP:  7.46D-01  6.76D-01
 E= -434.832578240061     Delta-E=       -0.005485795636 Rises=F Damp=F
 DIIS: error= 1.74D-03 at cycle   8 NSaved=   8.
 NSaved= 8 IEnMin= 8 EnMin= -434.832578240061     IErMin= 8 ErrMin= 1.74D-03
 ErrMax= 1.74D-03  0.00D+00 EMaxC= 1.00D-01 BMatC= 2.32D-03 BMatP= 2.35D-02
 IDIUse=3 WtCom= 9.83D-01 WtEn= 1.74D-02
 Coeff-Com:  0.653D-02-0.680D-02-0.144D-01 0.122D-01-0.765D-01 0.226D+00
 Coeff-Com:  0.177D+00 0.676D+00
 Coeff-En:   0.000D+00 0.000D+00 0.000D+00 0.000D+00 0.000D+00 0.000D+00
 Coeff-En:   0.000D+00 0.100D+01
 Coeff:      0.641D-02-0.668D-02-0.141D-01 0.119D-01-0.752D-01 0.222D+00
 Coeff:      0.174D+00 0.682D+00
 Gap=     0.238 Goal=   None    Shift=    0.000
 Gap=     0.054 Goal=   None    Shift=    0.000
 RMSDP=1.29D-04 MaxDP=4.49D-03 DE=-5.49D-03 OVMax= 1.09D-02

 Cycle   9  Pass 1  IDiag  1:
 RMSU=  1.09D-04    CP:  9.72D-01  1.30D+00  4.17D-01  4.34D-02  9.96D-01
                    CP:  7.70D-01  7.15D-01  1.18D+00
 E= -434.833050723654     Delta-E=       -0.000472483593 Rises=F Damp=F
 DIIS: error= 1.22D-03 at cycle   9 NSaved=   9.
 NSaved= 9 IEnMin= 9 EnMin= -434.833050723654     IErMin= 9 ErrMin= 1.22D-03
 ErrMax= 1.22D-03  0.00D+00 EMaxC= 1.00D-01 BMatC= 8.63D-04 BMatP= 2.32D-03
 IDIUse=3 WtCom= 9.88D-01 WtEn= 1.22D-02
 Coeff-Com:  0.991D-02-0.101D-01-0.329D-02 0.113D-01-0.654D-01 0.406D-01
 Coeff-Com: -0.491D-01 0.337D+00 0.729D+00
 Coeff-En:   0.000D+00 0.000D+00 0.000D+00 0.000D+00 0.000D+00 0.000D+00
 Coeff-En:   0.000D+00 0.000D+00 0.100D+01
 Coeff:      0.979D-02-0.996D-02-0.325D-02 0.112D-01-0.646D-01 0.402D-01
 Coeff:     -0.485D-01 0.333D+00 0.733D+00
 Gap=     0.238 Goal=   None    Shift=    0.000
 Gap=     0.056 Goal=   None    Shift=    0.000
 RMSDP=1.17D-04 MaxDP=3.29D-03 DE=-4.72D-04 OVMax= 1.84D-02

 Cycle  10  Pass 1  IDiag  1:
 RMSU=  5.81D-05    CP:  9.70D-01  1.28D+00  4.10D-01  2.83D-02  1.02D+00
                    CP:  7.59D-01  7.10D-01  1.47D+00  1.32D+00
 E= -434.833273167556     Delta-E=       -0.000222443902 Rises=F Damp=F
 DIIS: error= 8.94D-04 at cycle  10 NSaved=  10.
 NSaved=10 IEnMin=10 EnMin= -434.833273167556     IErMin=10 ErrMin= 8.94D-04
 ErrMax= 8.94D-04  0.00D+00 EMaxC= 1.00D-01 BMatC= 4.71D-04 BMatP= 8.63D-04
 IDIUse=3 WtCom= 9.91D-01 WtEn= 8.94D-03
 Coeff-Com:  0.648D-02-0.597D-02 0.207D-02 0.274D-02-0.320D-01 0.476D-02
 Coeff-Com: -0.726D-01 0.485D-01 0.331D+00 0.715D+00
 Coeff-En:   0.000D+00 0.000D+00 0.000D+00 0.000D+00 0.000D+00 0.000D+00
 Coeff-En:   0.000D+00 0.000D+00 0.000D+00 0.100D+01
 Coeff:      0.643D-02-0.592D-02 0.206D-02 0.271D-02-0.317D-01 0.472D-02
 Coeff:     -0.719D-01 0.480D-01 0.328D+00 0.717D+00
 Gap=     0.237 Goal=   None    Shift=    0.000
 Gap=     0.057 Goal=   None    Shift=    0.000
 RMSDP=9.28D-05 MaxDP=4.56D-03 DE=-2.22D-04 OVMax= 2.04D-02

 Cycle  11  Pass 1  IDiag  1:
 RMSU=  3.28D-05    CP:  9.68D-01  1.28D+00  4.03D-01  2.44D-02  1.05D+00
                    CP:  7.30D-01  7.24D-01  1.66D+00  1.61D+00  1.47D+00
 E= -434.833384144577     Delta-E=       -0.000110977020 Rises=F Damp=F
 DIIS: error= 8.68D-04 at cycle  11 NSaved=  11.
 NSaved=11 IEnMin=11 EnMin= -434.833384144577     IErMin=11 ErrMin= 8.68D-04
 ErrMax= 8.68D-04  0.00D+00 EMaxC= 1.00D-01 BMatC= 3.89D-04 BMatP= 4.71D-04
 IDIUse=3 WtCom= 9.91D-01 WtEn= 8.68D-03
 Coeff-Com:  0.703D-02-0.927D-02-0.238D-03 0.215D-02-0.216D-01 0.363D-01
 Coeff-Com: -0.265D-01-0.394D-01-0.145D+00 0.266D+00 0.930D+00
 Coeff-En:   0.000D+00 0.000D+00 0.000D+00 0.000D+00 0.000D+00 0.000D+00
 Coeff-En:   0.000D+00 0.000D+00 0.000D+00 0.000D+00 0.100D+01
 Coeff:      0.697D-02-0.918D-02-0.236D-03 0.213D-02-0.214D-01 0.359D-01
 Coeff:     -0.263D-01-0.391D-01-0.143D+00 0.264D+00 0.930D+00
 Gap=     0.236 Goal=   None    Shift=    0.000
 Gap=     0.057 Goal=   None    Shift=    0.000
 RMSDP=1.05D-04 MaxDP=5.01D-03 DE=-1.11D-04 OVMax= 2.18D-02

 Cycle  12  Pass 1  IDiag  1:
 RMSU=  2.26D-05    CP:  9.67D-01  1.28D+00  3.93D-01  1.87D-02  1.07D+00
                    CP:  7.02D-01  7.20D-01  1.87D+00  1.95D+00  2.18D+00
                    CP:  1.80D+00
 E= -434.833498592589     Delta-E=       -0.000114448012 Rises=F Damp=F
 DIIS: error= 7.32D-04 at cycle  12 NSaved=  12.
 NSaved=12 IEnMin=12 EnMin= -434.833498592589     IErMin=12 ErrMin= 7.32D-04
 ErrMax= 7.32D-04  0.00D+00 EMaxC= 1.00D-01 BMatC= 2.91D-04 BMatP= 3.89D-04
 IDIUse=3 WtCom= 9.93D-01 WtEn= 7.32D-03
 Coeff-Com:  0.442D-02-0.519D-02-0.679D-03 0.135D-02-0.187D-01 0.530D-01
 Coeff-Com:  0.256D-02 0.905D-02-0.210D+00-0.117D+00 0.546D+00 0.736D+00
 Coeff-En:   0.000D+00 0.000D+00 0.000D+00 0.000D+00 0.000D+00 0.000D+00
 Coeff-En:   0.000D+00 0.000D+00 0.000D+00 0.000D+00 0.000D+00 0.100D+01
 Coeff:      0.438D-02-0.515D-02-0.674D-03 0.134D-02-0.186D-01 0.527D-01
 Coeff:      0.254D-02 0.899D-02-0.209D+00-0.116D+00 0.542D+00 0.738D+00
 Gap=     0.235 Goal=   None    Shift=    0.000
 Gap=     0.057 Goal=   None    Shift=    0.000
 RMSDP=7.92D-05 MaxDP=3.94D-03 DE=-1.14D-04 OVMax= 1.70D-02

 Cycle  13  Pass 1  IDiag  1:
 RMSU=  8.58D-06    CP:  9.65D-01  1.28D+00  3.85D-01  1.53D-02  1.09D+00
                    CP:  6.74D-01  7.12D-01  1.99D+00  2.17D+00  2.74D+00
                    CP:  2.61D+00  1.66D+00
 E= -434.833579291837     Delta-E=       -0.000080699249 Rises=F Damp=F
 DIIS: error= 6.49D-04 at cycle  13 NSaved=  13.
 NSaved=13 IEnMin=13 EnMin= -434.833579291837     IErMin=13 ErrMin= 6.49D-04
 ErrMax= 6.49D-04  0.00D+00 EMaxC= 1.00D-01 BMatC= 2.33D-04 BMatP= 2.91D-04
 IDIUse=3 WtCom= 9.94D-01 WtEn= 6.49D-03
 Coeff-Com:  0.270D-02-0.273D-02-0.121D-02 0.838D-03-0.168D-01 0.529D-01
 Coeff-Com:  0.139D-01 0.646D-01-0.137D+00-0.316D+00-0.709D-01 0.343D+00
 Coeff-Com:  0.107D+01
 Coeff-En:   0.000D+00 0.000D+00 0.000D+00 0.000D+00 0.000D+00 0.000D+00
 Coeff-En:   0.000D+00 0.000D+00 0.000D+00 0.000D+00 0.000D+00 0.000D+00
 Coeff-En:   0.100D+01
 Coeff:      0.268D-02-0.271D-02-0.120D-02 0.833D-03-0.167D-01 0.525D-01
 Coeff:      0.138D-01 0.642D-01-0.136D+00-0.314D+00-0.705D-01 0.341D+00
 Coeff:      0.107D+01
 Gap=     0.233 Goal=   None    Shift=    0.000
 Gap=     0.057 Goal=   None    Shift=    0.000
 RMSDP=1.25D-04 MaxDP=6.29D-03 DE=-8.07D-05 OVMax= 2.71D-02

 Cycle  14  Pass 1  IDiag  1:
 RMSU=  4.70D-05    CP:  9.63D-01  1.28D+00  3.73D-01  1.01D-02  1.12D+00
                    CP:  6.29D-01  6.97D-01  2.19D+00  2.50D+00  3.00D+00
                    CP:  3.00D+00  2.88D+00  2.23D+00
 E= -434.833691789096     Delta-E=       -0.000112497259 Rises=F Damp=F
 DIIS: error= 5.34D-04 at cycle  14 NSaved=  14.
 NSaved=14 IEnMin=14 EnMin= -434.833691789096     IErMin=14 ErrMin= 5.34D-04
 ErrMax= 5.34D-04  0.00D+00 EMaxC= 1.00D-01 BMatC= 1.55D-04 BMatP= 2.33D-04
 IDIUse=3 WtCom= 9.95D-01 WtEn= 5.34D-03
 Coeff-Com:  0.377D-02-0.538D-02-0.783D-03 0.100D-02-0.107D-01 0.140D-01
 Coeff-Com: -0.116D-01 0.265D-01 0.541D-01 0.132D+00-0.911D-01-0.934D+00
 Coeff-Com: -0.680D+00 0.250D+01
 Coeff-En:   0.000D+00 0.000D+00 0.000D+00 0.000D+00 0.000D+00 0.000D+00
 Coeff-En:   0.000D+00 0.000D+00 0.000D+00 0.000D+00 0.000D+00 0.000D+00
 Coeff-En:   0.000D+00 0.100D+01
 Coeff:      0.375D-02-0.535D-02-0.779D-03 0.996D-03-0.106D-01 0.139D-01
 Coeff:     -0.115D-01 0.264D-01 0.538D-01 0.131D+00-0.906D-01-0.929D+00
 Coeff:     -0.676D+00 0.250D+01
 Gap=     0.229 Goal=   None    Shift=    0.000
 Gap=     0.056 Goal=   None    Shift=    0.000
 RMSDP=2.56D-04 MaxDP=1.28D-02 DE=-1.12D-04 OVMax= 5.73D-02

 Cycle  15  Pass 1  IDiag  1:
 RMSU=  8.02D-05    CP:  9.59D-01  1.28D+00  3.50D-01  2.31D-04  1.18D+00
                    CP:  5.24D-01  6.55D-01  2.60D+00  3.00D+00  3.00D+00
                    CP:  3.00D+00  3.00D+00  3.00D+00  3.00D+00
 E= -434.833878264460     Delta-E=       -0.000186475364 Rises=F Damp=F
 DIIS: error= 2.83D-04 at cycle  15 NSaved=  15.
 NSaved=15 IEnMin=15 EnMin= -434.833878264460     IErMin=15 ErrMin= 2.83D-04
 ErrMax= 2.83D-04  0.00D+00 EMaxC= 1.00D-01 BMatC= 5.05D-05 BMatP= 1.55D-04
 IDIUse=3 WtCom= 9.97D-01 WtEn= 2.83D-03
 Coeff-Com:  0.146D-02-0.222D-02 0.708D-03-0.121D-02 0.283D-02-0.113D-01
 Coeff-Com: -0.138D-01-0.520D-01 0.556D-01 0.481D+00 0.394D+00-0.866D+00
 Coeff-Com: -0.217D+01 0.178D+01 0.140D+01
 Coeff-En:   0.000D+00 0.000D+00 0.000D+00 0.000D+00 0.000D+00 0.000D+00
 Coeff-En:   0.000D+00 0.000D+00 0.000D+00 0.000D+00 0.000D+00 0.000D+00
 Coeff-En:   0.000D+00 0.000D+00 0.100D+01
 Coeff:      0.145D-02-0.221D-02 0.706D-03-0.120D-02 0.282D-02-0.112D-01
 Coeff:     -0.138D-01-0.519D-01 0.554D-01 0.480D+00 0.393D+00-0.863D+00
 Coeff:     -0.217D+01 0.178D+01 0.140D+01
 Gap=     0.224 Goal=   None    Shift=    0.000
 Gap=     0.056 Goal=   None    Shift=    0.000
 RMSDP=2.84D-04 MaxDP=1.38D-02 DE=-1.86D-04 OVMax= 6.65D-02

 Cycle  16  Pass 1  IDiag  1:
 RMSU=  9.85D-05    CP:  9.55D-01  1.29D+00  3.23D-01 -8.58D-03  1.23D+00
                    CP:  3.86D-01  5.91D-01  3.00D+00  3.00D+00  3.00D+00
                    CP:  3.00D+00  3.00D+00  3.00D+00  3.00D+00  3.00D+00
 E= -434.834015360708     Delta-E=       -0.000137096248 Rises=F Damp=F
 DIIS: error= 8.92D-05 at cycle  16 NSaved=  16.
 NSaved=16 IEnMin=16 EnMin= -434.834015360708     IErMin=16 ErrMin= 8.92D-05
 ErrMax= 8.92D-05  0.00D+00 EMaxC= 1.00D-01 BMatC= 6.18D-06 BMatP= 5.05D-05
 IDIUse=1 WtCom= 1.00D+00 WtEn= 0.00D+00
 Coeff-Com: -0.786D-03 0.723D-03 0.819D-03-0.225D-02 0.952D-02 0.496D-02
 Coeff-Com:  0.136D-01-0.431D-01-0.514D-01 0.235D+00 0.301D+00-0.186D-01
 Coeff-Com: -0.110D+01 0.631D-01 0.574D+00 0.102D+01
 Coeff:     -0.786D-03 0.723D-03 0.819D-03-0.225D-02 0.952D-02 0.496D-02
 Coeff:      0.136D-01-0.431D-01-0.514D-01 0.235D+00 0.301D+00-0.186D-01
 Coeff:     -0.110D+01 0.631D-01 0.574D+00 0.102D+01
 Gap=     0.222 Goal=   None    Shift=    0.000
 Gap=     0.056 Goal=   None    Shift=    0.000
 RMSDP=1.69D-04 MaxDP=8.06D-03 DE=-1.37D-04 OVMax= 4.20D-02

 Cycle  17  Pass 1  IDiag  1:
 RMSU=  1.04D-04    CP:  9.53D-01  1.29D+00  3.07D-01 -1.12D-02  1.25D+00
                    CP:  2.91D-01  5.43D-01  3.00D+00  3.00D+00  3.00D+00
                    CP:  3.00D+00  3.00D+00  3.00D+00  3.00D+00  3.00D+00
                    CP:  1.66D+00
 E= -434.834067668006     Delta-E=       -0.000052307297 Rises=F Damp=F
 DIIS: error= 6.15D-05 at cycle  17 NSaved=  17.
 NSaved=17 IEnMin=17 EnMin= -434.834067668006     IErMin=17 ErrMin= 6.15D-05
 ErrMax= 6.15D-05  0.00D+00 EMaxC= 1.00D-01 BMatC= 2.83D-06 BMatP= 6.18D-06
 IDIUse=1 WtCom= 1.00D+00 WtEn= 0.00D+00
 Coeff-Com: -0.116D-02 0.147D-02 0.398D-04-0.135D-02 0.517D-02 0.961D-02
 Coeff-Com:  0.137D-01 0.481D-02-0.332D-01-0.114D-01-0.679D-01 0.211D-01
 Coeff-Com:  0.143D-01 0.743D-01-0.346D+00-0.193D+00 0.151D+01
 Coeff:     -0.116D-02 0.147D-02 0.398D-04-0.135D-02 0.517D-02 0.961D-02
 Coeff:      0.137D-01 0.481D-02-0.332D-01-0.114D-01-0.679D-01 0.211D-01
 Coeff:      0.143D-01 0.743D-01-0.346D+00-0.193D+00 0.151D+01
 Gap=     0.219 Goal=   None    Shift=    0.000
 Gap=     0.056 Goal=   None    Shift=    0.000
 RMSDP=1.94D-04 MaxDP=8.39D-03 DE=-5.23D-05 OVMax= 4.86D-02

 Cycle  18  Pass 1  IDiag  1:
 RMSU=  8.46D-06    CP:  9.50D-01  1.30D+00  2.90D-01 -1.53D-02  1.27D+00
                    CP:  1.76D-01  4.79D-01  3.00D+00  3.00D+00  3.00D+00
                    CP:  3.00D+00  3.00D+00  3.00D+00  3.00D+00  3.00D+00
                    CP:  2.44D+00  2.15D+00
 E= -434.834106384679     Delta-E=       -0.000038716674 Rises=F Damp=F
 DIIS: error= 5.75D-05 at cycle  18 NSaved=  18.
 NSaved=18 IEnMin=18 EnMin= -434.834106384679     IErMin=18 ErrMin= 5.75D-05
 ErrMax= 5.75D-05  0.00D+00 EMaxC= 1.00D-01 BMatC= 2.21D-06 BMatP= 2.83D-06
 IDIUse=1 WtCom= 1.00D+00 WtEn= 0.00D+00
 Coeff-Com: -0.158D-03-0.540D-04-0.614D-04-0.559D-03 0.230D-02 0.405D-02
 Coeff-Com:  0.604D-02 0.163D-01 0.137D-01-0.139D-01-0.162D+00-0.214D+00
 Coeff-Com:  0.331D-01 0.658D+00-0.196D+00-0.800D+00 0.451D+00 0.120D+01
 Coeff:     -0.158D-03-0.540D-04-0.614D-04-0.559D-03 0.230D-02 0.405D-02
 Coeff:      0.604D-02 0.163D-01 0.137D-01-0.139D-01-0.162D+00-0.214D+00
 Coeff:      0.331D-01 0.658D+00-0.196D+00-0.800D+00 0.451D+00 0.120D+01
 Gap=     0.218 Goal=   None    Shift=    0.000
 Gap=     0.056 Goal=   None    Shift=    0.000
 RMSDP=1.01D-04 MaxDP=4.29D-03 DE=-3.87D-05 OVMax= 2.68D-02

 Cycle  19  Pass 1  IDiag  1:
 RMSU=  5.92D-06    CP:  9.49D-01  1.30D+00  2.81D-01 -1.50D-02  1.28D+00
                    CP:  1.08D-01  4.40D-01  3.00D+00  3.00D+00  3.00D+00
                    CP:  3.00D+00  3.00D+00  3.00D+00  3.00D+00  3.00D+00
                    CP:  2.84D+00  2.70D+00  1.81D+00
 E= -434.834120388718     Delta-E=       -0.000014004039 Rises=F Damp=F
 DIIS: error= 3.17D-05 at cycle  19 NSaved=  19.
 NSaved=19 IEnMin=19 EnMin= -434.834120388718     IErMin=19 ErrMin= 3.17D-05
 ErrMax= 3.17D-05  0.00D+00 EMaxC= 1.00D-01 BMatC= 3.80D-07 BMatP= 2.21D-06
 IDIUse=1 WtCom= 1.00D+00 WtEn= 0.00D+00
 Coeff-Com:  0.187D-03-0.385D-03-0.708D-04-0.205D-03 0.746D-03-0.213D-02
 Coeff-Com: -0.653D-03 0.239D-02 0.229D-01 0.469D-01-0.344D-01-0.235D+00
 Coeff-Com: -0.237D+00 0.558D+00 0.143D+00-0.415D+00-0.451D+00 0.471D+00
 Coeff-Com:  0.113D+01
 Coeff:      0.187D-03-0.385D-03-0.708D-04-0.205D-03 0.746D-03-0.213D-02
 Coeff:     -0.653D-03 0.239D-02 0.229D-01 0.469D-01-0.344D-01-0.235D+00
 Coeff:     -0.237D+00 0.558D+00 0.143D+00-0.415D+00-0.451D+00 0.471D+00
 Coeff:      0.113D+01
 Gap=     0.217 Goal=   None    Shift=    0.000
 Gap=     0.056 Goal=   None    Shift=    0.000
 RMSDP=1.12D-04 MaxDP=4.21D-03 DE=-1.40D-05 OVMax= 2.89D-02

 Cycle  20  Pass 1  IDiag  1:
 RMSU=  4.42D-05    CP:  9.48D-01  1.30D+00  2.72D-01 -1.67D-02  1.28D+00
                    CP:  3.55D-02  3.96D-01  3.00D+00  3.00D+00  3.00D+00
                    CP:  3.00D+00  3.00D+00  3.00D+00  3.00D+00  3.00D+00
                    CP:  3.00D+00  3.00D+00  2.91D+00  1.59D+00
 E= -434.834129677904     Delta-E=       -0.000009289185 Rises=F Damp=F
 DIIS: error= 4.18D-05 at cycle  20 NSaved=  20.
 NSaved=20 IEnMin=20 EnMin= -434.834129677904     IErMin=19 ErrMin= 3.17D-05
 ErrMax= 4.18D-05  0.00D+00 EMaxC= 1.00D-01 BMatC= 1.24D-06 BMatP= 3.80D-07
 IDIUse=1 WtCom= 1.00D+00 WtEn= 0.00D+00
 Coeff-Com: -0.149D-03 0.169D-03 0.125D-03-0.336D-03 0.149D-02-0.154D-03
 Coeff-Com:  0.221D-02-0.328D-02 0.237D-02 0.370D-01 0.211D-01-0.721D-01
 Coeff-Com: -0.178D+00 0.184D+00 0.126D+00-0.147D-01-0.256D+00-0.323D+00
 Coeff-Com:  0.469D+00 0.100D+01
 Coeff:     -0.149D-03 0.169D-03 0.125D-03-0.336D-03 0.149D-02-0.154D-03
 Coeff:      0.221D-02-0.328D-02 0.237D-02 0.370D-01 0.211D-01-0.721D-01
 Coeff:     -0.178D+00 0.184D+00 0.126D+00-0.147D-01-0.256D+00-0.323D+00
 Coeff:      0.469D+00 0.100D+01
 Gap=     0.216 Goal=   None    Shift=    0.000
 Gap=     0.055 Goal=   None    Shift=    0.000
 RMSDP=4.81D-05 MaxDP=1.88D-03 DE=-9.29D-06 OVMax= 1.32D-02

 Cycle  21  Pass 1  IDiag  1:
 Restarting incremental Fock formation.
 E= -434.834132834354     Delta-E=       -0.000003156450 Rises=F Damp=F
 DIIS: error= 1.40D-05 at cycle  21 NSaved=  20.
 NSaved=20 IEnMin=20 EnMin= -434.834132834354     IErMin=20 ErrMin= 1.40D-05
 ErrMax= 1.40D-05  0.00D+00 EMaxC= 1.00D-01 BMatC= 1.69D-07 BMatP= 3.80D-07
 IDIUse=1 WtCom= 1.00D+00 WtEn= 0.00D+00
 Coeff-Com: -0.891D-06-0.137D-04-0.103D-03-0.956D-04-0.343D-03-0.315D-03
 Coeff-Com: -0.240D-02-0.133D-02 0.128D-01 0.280D-01-0.106D-02-0.645D-01
 Coeff-Com: -0.359D-01 0.360D-01 0.884D-01-0.332D-01-0.329D+00-0.128D+00
 Coeff-Com:  0.316D+00 0.112D+01
 Coeff:     -0.891D-06-0.137D-04-0.103D-03-0.956D-04-0.343D-03-0.315D-03
 Coeff:     -0.240D-02-0.133D-02 0.128D-01 0.280D-01-0.106D-02-0.645D-01
 Coeff:     -0.359D-01 0.360D-01 0.884D-01-0.332D-01-0.329D+00-0.128D+00
 Coeff:      0.316D+00 0.112D+01
 Gap=     0.215 Goal=   None    Shift=    0.000
 Gap=     0.056 Goal=   None    Shift=    0.000
 RMSDP=8.99D-05 MaxDP=3.02D-03 DE=-3.16D-06 OVMax= 2.33D-02

 Cycle  22  Pass 1  IDiag  1:
 RMSU=  8.97D-05    CP:  1.00D+00
 E= -434.834135122865     Delta-E=       -0.000002288511 Rises=F Damp=F
 DIIS: error= 6.11D-05 at cycle  22 NSaved=  20.
 NSaved=20 IEnMin=20 EnMin= -434.834135122865     IErMin=19 ErrMin= 1.40D-05
 ErrMax= 6.11D-05  0.00D+00 EMaxC= 1.00D-01 BMatC= 2.24D-06 BMatP= 1.69D-07
 IDIUse=1 WtCom= 1.00D+00 WtEn= 0.00D+00
 Coeff-Com: -0.524D-04-0.358D-04 0.110D-03 0.668D-03 0.510D-03-0.463D-03
 Coeff-Com: -0.339D-02-0.184D-02 0.819D-02 0.251D-01 0.729D-02-0.634D-01
 Coeff-Com: -0.870D-02 0.714D-01 0.849D-01-0.212D+00-0.281D+00-0.273D+00
 Coeff-Com:  0.109D+01 0.558D+00
 Coeff:     -0.524D-04-0.358D-04 0.110D-03 0.668D-03 0.510D-03-0.463D-03
 Coeff:     -0.339D-02-0.184D-02 0.819D-02 0.251D-01 0.729D-02-0.634D-01
 Coeff:     -0.870D-02 0.714D-01 0.849D-01-0.212D+00-0.281D+00-0.273D+00
 Coeff:      0.109D+01 0.558D+00
 Gap=     0.215 Goal=   None    Shift=    0.000
 Gap=     0.055 Goal=   None    Shift=    0.000
 RMSDP=2.49D-05 MaxDP=9.10D-04 DE=-2.29D-06 OVMax= 6.93D-03

 Cycle  23  Pass 1  IDiag  1:
 RMSU=  7.68D-06    CP:  1.00D+00  1.26D+00
 E= -434.834136147413     Delta-E=       -0.000001024548 Rises=F Damp=F
 DIIS: error= 1.36D-05 at cycle  23 NSaved=  20.
 NSaved=20 IEnMin=20 EnMin= -434.834136147413     IErMin=20 ErrMin= 1.36D-05
 ErrMax= 1.36D-05  0.00D+00 EMaxC= 1.00D-01 BMatC= 1.17D-07 BMatP= 1.69D-07
 IDIUse=1 WtCom= 1.00D+00 WtEn= 0.00D+00
 Coeff-Com: -0.308D-04-0.155D-04 0.134D-03 0.771D-04 0.140D-02 0.160D-02
 Coeff-Com: -0.402D-02-0.116D-01-0.134D-01 0.128D-01 0.276D-01-0.907D-02
 Coeff-Com: -0.478D-01 0.294D-01 0.108D+00 0.126D-01-0.417D+00 0.131D+00
 Coeff-Com: -0.393D-01 0.122D+01
 Coeff:     -0.308D-04-0.155D-04 0.134D-03 0.771D-04 0.140D-02 0.160D-02
 Coeff:     -0.402D-02-0.116D-01-0.134D-01 0.128D-01 0.276D-01-0.907D-02
 Coeff:     -0.478D-01 0.294D-01 0.108D+00 0.126D-01-0.417D+00 0.131D+00
 Coeff:     -0.393D-01 0.122D+01
 Gap=     0.215 Goal=   None    Shift=    0.000
 Gap=     0.055 Goal=   None    Shift=    0.000
 RMSDP=2.29D-05 MaxDP=8.29D-04 DE=-1.02D-06 OVMax= 6.21D-03

 Cycle  24  Pass 1  IDiag  1:
 RMSU=  8.30D-07    CP:  9.99D-01  1.52D+00  1.41D+00
 E= -434.834136346415     Delta-E=       -0.000000199002 Rises=F Damp=F
 DIIS: error= 8.61D-06 at cycle  24 NSaved=  20.
 NSaved=20 IEnMin=20 EnMin= -434.834136346415     IErMin=20 ErrMin= 8.61D-06
 ErrMax= 8.61D-06  0.00D+00 EMaxC= 1.00D-01 BMatC= 4.43D-08 BMatP= 1.17D-07
 IDIUse=1 WtCom= 1.00D+00 WtEn= 0.00D+00
 Coeff-Com:  0.141D-04-0.700D-04-0.159D-05 0.155D-03 0.518D-03 0.835D-03
 Coeff-Com: -0.212D-02-0.754D-02-0.532D-02 0.178D-01 0.647D-03-0.175D-01
 Coeff-Com: -0.777D-02 0.281D-01 0.455D-01-0.382D-01-0.523D-01-0.202D+00
 Coeff-Com:  0.222D+00 0.102D+01
 Coeff:      0.141D-04-0.700D-04-0.159D-05 0.155D-03 0.518D-03 0.835D-03
 Coeff:     -0.212D-02-0.754D-02-0.532D-02 0.178D-01 0.647D-03-0.175D-01
 Coeff:     -0.777D-02 0.281D-01 0.455D-01-0.382D-01-0.523D-01-0.202D+00
 Coeff:      0.222D+00 0.102D+01
 Gap=     0.215 Goal=   None    Shift=    0.000
 Gap=     0.055 Goal=   None    Shift=    0.000
 RMSDP=7.67D-06 MaxDP=2.80D-04 DE=-1.99D-07 OVMax= 2.09D-03

 Cycle  25  Pass 1  IDiag  1:
 RMSU=  1.62D-07    CP:  9.99D-01  1.60D+00  1.56D+00  1.30D+00
 E= -434.834136377470     Delta-E=       -0.000000031056 Rises=F Damp=F
 DIIS: error= 5.47D-06 at cycle  25 NSaved=  20.
 NSaved=20 IEnMin=20 EnMin= -434.834136377470     IErMin=20 ErrMin= 5.47D-06
 ErrMax= 5.47D-06  0.00D+00 EMaxC= 1.00D-01 BMatC= 1.75D-08 BMatP= 4.43D-08
 IDIUse=1 WtCom= 1.00D+00 WtEn= 0.00D+00
 Coeff-Com: -0.540D-04-0.519D-04-0.114D-03 0.613D-04 0.135D-02 0.832D-03
 Coeff-Com: -0.172D-02-0.553D-02 0.460D-02 0.203D-02-0.658D-03-0.698D-02
 Coeff-Com: -0.109D-01 0.164D-01 0.382D-01 0.168D-02-0.117D+00-0.702D-01
 Coeff-Com:  0.154D+00 0.994D+00
 Coeff:     -0.540D-04-0.519D-04-0.114D-03 0.613D-04 0.135D-02 0.832D-03
 Coeff:     -0.172D-02-0.553D-02 0.460D-02 0.203D-02-0.658D-03-0.698D-02
 Coeff:     -0.109D-01 0.164D-01 0.382D-01 0.168D-02-0.117D+00-0.702D-01
 Coeff:      0.154D+00 0.994D+00
 Gap=     0.215 Goal=   None    Shift=    0.000
 Gap=     0.055 Goal=   None    Shift=    0.000
 RMSDP=2.95D-06 MaxDP=1.09D-04 DE=-3.11D-08 OVMax= 8.16D-04

 Cycle  26  Pass 1  IDiag  1:
 RMSU=  5.36D-08    CP:  9.99D-01  1.63D+00  1.66D+00  1.41D+00  1.20D+00
 E= -434.834136386080     Delta-E=       -0.000000008609 Rises=F Damp=F
 DIIS: error= 1.95D-06 at cycle  26 NSaved=  20.
 NSaved=20 IEnMin=20 EnMin= -434.834136386080     IErMin=20 ErrMin= 1.95D-06
 ErrMax= 1.95D-06  0.00D+00 EMaxC= 1.00D-01 BMatC= 2.28D-09 BMatP= 1.75D-08
 IDIUse=1 WtCom= 1.00D+00 WtEn= 0.00D+00
 Coeff-Com: -0.720D-05-0.222D-04-0.471D-04-0.346D-04 0.308D-03 0.852D-03
 Coeff-Com:  0.130D-03-0.242D-02-0.119D-03 0.247D-02 0.935D-03-0.813D-02
 Coeff-Com: -0.569D-02 0.466D-02 0.270D-01-0.645D-02-0.274D-01-0.181D+00
 Coeff-Com:  0.661D-01 0.113D+01
 Coeff:     -0.720D-05-0.222D-04-0.471D-04-0.346D-04 0.308D-03 0.852D-03
 Coeff:      0.130D-03-0.242D-02-0.119D-03 0.247D-02 0.935D-03-0.813D-02
 Coeff:     -0.569D-02 0.466D-02 0.270D-01-0.645D-02-0.274D-01-0.181D+00
 Coeff:      0.661D-01 0.113D+01
 Gap=     0.215 Goal=   None    Shift=    0.000
 Gap=     0.055 Goal=   None    Shift=    0.000
 RMSDP=2.20D-06 MaxDP=8.07D-05 DE=-8.61D-09 OVMax= 6.01D-04

 Cycle  27  Pass 1  IDiag  1:
 RMSU=  2.29D-08    CP:  9.99D-01  1.66D+00  1.70D+00  1.51D+00  1.48D+00
                    CP:  1.33D+00
 E= -434.834136387862     Delta-E=       -0.000000001782 Rises=F Damp=F
 DIIS: error= 1.18D-06 at cycle  27 NSaved=  20.
 NSaved=20 IEnMin=20 EnMin= -434.834136387862     IErMin=20 ErrMin= 1.18D-06
 ErrMax= 1.18D-06  0.00D+00 EMaxC= 1.00D-01 BMatC= 8.31D-10 BMatP= 2.28D-09
 IDIUse=1 WtCom= 1.00D+00 WtEn= 0.00D+00
 Coeff-Com: -0.474D-05 0.224D-04-0.187D-04 0.673D-04 0.153D-03 0.249D-04
 Coeff-Com: -0.740D-03 0.177D-03 0.844D-03 0.704D-04-0.240D-02-0.694D-03
 Coeff-Com: -0.752D-03 0.958D-02-0.653D-02 0.123D-02-0.461D-01-0.111D+00
 Coeff-Com:  0.247D+00 0.908D+00
 Coeff:     -0.474D-05 0.224D-04-0.187D-04 0.673D-04 0.153D-03 0.249D-04
 Coeff:     -0.740D-03 0.177D-03 0.844D-03 0.704D-04-0.240D-02-0.694D-03
 Coeff:     -0.752D-03 0.958D-02-0.653D-02 0.123D-02-0.461D-01-0.111D+00
 Coeff:      0.247D+00 0.908D+00
 Gap=     0.215 Goal=   None    Shift=    0.000
 Gap=     0.055 Goal=   None    Shift=    0.000
 RMSDP=5.88D-07 MaxDP=2.19D-05 DE=-1.78D-09 OVMax= 1.63D-04

 Cycle  28  Pass 1  IDiag  1:
 RMSU=  7.27D-09    CP:  9.99D-01  1.66D+00  1.72D+00  1.53D+00  1.52D+00
                    CP:  1.47D+00  1.13D+00
 E= -434.834136388212     Delta-E=       -0.000000000351 Rises=F Damp=F
 DIIS: error= 2.90D-07 at cycle  28 NSaved=  20.
 NSaved=20 IEnMin=20 EnMin= -434.834136388212     IErMin=20 ErrMin= 2.90D-07
 ErrMax= 2.90D-07  0.00D+00 EMaxC= 1.00D-01 BMatC= 5.04D-11 BMatP= 8.31D-10
 IDIUse=1 WtCom= 1.00D+00 WtEn= 0.00D+00
 Coeff-Com:  0.181D-04 0.160D-05-0.228D-04-0.115D-03-0.952D-05 0.112D-03
 Coeff-Com:  0.220D-06-0.147D-03 0.105D-03 0.395D-03 0.528D-03-0.287D-02
 Coeff-Com:  0.175D-02-0.448D-02 0.929D-02 0.138D-01-0.638D-01-0.862D-01
 Coeff-Com:  0.351D+00 0.781D+00
 Coeff:      0.181D-04 0.160D-05-0.228D-04-0.115D-03-0.952D-05 0.112D-03
 Coeff:      0.220D-06-0.147D-03 0.105D-03 0.395D-03 0.528D-03-0.287D-02
 Coeff:      0.175D-02-0.448D-02 0.929D-02 0.138D-01-0.638D-01-0.862D-01
 Coeff:      0.351D+00 0.781D+00
 Gap=     0.215 Goal=   None    Shift=    0.000
 Gap=     0.055 Goal=   None    Shift=    0.000
 RMSDP=2.20D-07 MaxDP=8.13D-06 DE=-3.51D-10 OVMax= 6.07D-05

 Cycle  29  Pass 1  IDiag  1:
 RMSU=  3.25D-09    CP:  9.99D-01  1.66D+00  1.73D+00  1.54D+00  1.54D+00
                    CP:  1.50D+00  1.24D+00  1.31D+00
 E= -434.834136388246     Delta-E=       -0.000000000034 Rises=F Damp=F
 DIIS: error= 8.46D-08 at cycle  29 NSaved=  20.
 NSaved=20 IEnMin=20 EnMin= -434.834136388246     IErMin=20 ErrMin= 8.46D-08
 ErrMax= 8.46D-08  0.00D+00 EMaxC= 1.00D-01 BMatC= 4.33D-12 BMatP= 5.04D-11
 IDIUse=1 WtCom= 1.00D+00 WtEn= 0.00D+00
 Coeff-Com:  0.237D-04-0.947D-05-0.105D-03-0.101D-03 0.294D-03 0.713D-04
 Coeff-Com: -0.236D-03-0.361D-03 0.558D-03 0.905D-03 0.223D-03-0.278D-02
 Coeff-Com: -0.170D-02 0.255D-02 0.220D-01-0.351D-02-0.106D+00-0.996D-01
 Coeff-Com:  0.330D+00 0.858D+00
 Coeff:      0.237D-04-0.947D-05-0.105D-03-0.101D-03 0.294D-03 0.713D-04
 Coeff:     -0.236D-03-0.361D-03 0.558D-03 0.905D-03 0.223D-03-0.278D-02
 Coeff:     -0.170D-02 0.255D-02 0.220D-01-0.351D-02-0.106D+00-0.996D-01
 Coeff:      0.330D+00 0.858D+00
 Gap=     0.215 Goal=   None    Shift=    0.000
 Gap=     0.055 Goal=   None    Shift=    0.000
 RMSDP=1.46D-07 MaxDP=5.38D-06 DE=-3.35D-11 OVMax= 4.01D-05

 Cycle  30  Pass 1  IDiag  1:
 RMSU=  1.52D-09    CP:  9.99D-01  1.67D+00  1.73D+00  1.55D+00  1.55D+00
                    CP:  1.53D+00  1.33D+00  1.50D+00  1.07D+00
 E= -434.834136388249     Delta-E=       -0.000000000003 Rises=F Damp=F
 DIIS: error= 4.49D-08 at cycle  30 NSaved=  20.
 NSaved=20 IEnMin=20 EnMin= -434.834136388249     IErMin=20 ErrMin= 4.49D-08
 ErrMax= 4.49D-08  0.00D+00 EMaxC= 1.00D-01 BMatC= 1.11D-12 BMatP= 4.33D-12
 IDIUse=1 WtCom= 1.00D+00 WtEn= 0.00D+00
 Coeff-Com: -0.967D-05 0.514D-05 0.241D-04-0.975D-05-0.153D-04 0.276D-05
 Coeff-Com: -0.511D-05 0.338D-04-0.307D-04 0.202D-03-0.753D-03 0.444D-03
 Coeff-Com:  0.436D-04 0.398D-02 0.153D-02-0.233D-01-0.463D-01 0.646D-01
 Coeff-Com:  0.282D+00 0.718D+00
 Coeff:     -0.967D-05 0.514D-05 0.241D-04-0.975D-05-0.153D-04 0.276D-05
 Coeff:     -0.511D-05 0.338D-04-0.307D-04 0.202D-03-0.753D-03 0.444D-03
 Coeff:      0.436D-04 0.398D-02 0.153D-02-0.233D-01-0.463D-01 0.646D-01
 Coeff:      0.282D+00 0.718D+00
 Gap=     0.215 Goal=   None    Shift=    0.000
 Gap=     0.055 Goal=   None    Shift=    0.000
 RMSDP=3.19D-08 MaxDP=1.09D-06 DE=-2.73D-12 OVMax= 8.10D-06

 Cycle  31  Pass 1  IDiag  1:
 RMSU=  6.48D-10    CP:  9.99D-01  1.67D+00  1.73D+00  1.55D+00  1.55D+00
                    CP:  1.53D+00  1.34D+00  1.51D+00  1.17D+00  1.19D+00
 E= -434.834136388249     Delta-E=        0.000000000000 Rises=F Damp=F
 DIIS: error= 6.20D-09 at cycle  31 NSaved=  20.
 NSaved=20 IEnMin=19 EnMin= -434.834136388249     IErMin=20 ErrMin= 6.20D-09
 ErrMax= 6.20D-09  0.00D+00 EMaxC= 1.00D-01 BMatC= 2.87D-14 BMatP= 1.11D-12
 IDIUse=1 WtCom= 1.00D+00 WtEn= 0.00D+00
 Coeff-Com:  0.632D-05-0.719D-06-0.386D-05-0.154D-05 0.401D-05 0.380D-05
 Coeff-Com: -0.209D-04-0.189D-04 0.258D-03-0.234D-03 0.285D-03-0.625D-03
 Coeff-Com: -0.601D-03 0.555D-02 0.722D-02-0.301D-01-0.456D-01 0.629D-02
 Coeff-Com:  0.348D+00 0.710D+00
 Coeff:      0.632D-05-0.719D-06-0.386D-05-0.154D-05 0.401D-05 0.380D-05
 Coeff:     -0.209D-04-0.189D-04 0.258D-03-0.234D-03 0.285D-03-0.625D-03
 Coeff:     -0.601D-03 0.555D-02 0.722D-02-0.301D-01-0.456D-01 0.629D-02
 Coeff:      0.348D+00 0.710D+00
 Gap=     0.215 Goal=   None    Shift=    0.000
 Gap=     0.055 Goal=   None    Shift=    0.000
 RMSDP=1.62D-08 MaxDP=5.76D-07 DE= 2.27D-13 OVMax= 4.25D-06

 Cycle  32  Pass 1  IDiag  1:
 RMSU=  2.41D-10    CP:  9.99D-01  1.67D+00  1.73D+00  1.55D+00  1.55D+00
                    CP:  1.53D+00  1.33D+00  1.55D+00  1.20D+00  1.26D+00
                    CP:  6.94D-01
 E= -434.834136388248     Delta-E=        0.000000000000 Rises=F Damp=F
 DIIS: error= 8.68D-09 at cycle  32 NSaved=  20.
 NSaved=20 IEnMin=18 EnMin= -434.834136388249     IErMin=19 ErrMin= 6.20D-09
 ErrMax= 8.68D-09  0.00D+00 EMaxC= 1.00D-01 BMatC= 4.78D-14 BMatP= 2.87D-14
 IDIUse=1 WtCom= 1.00D+00 WtEn= 0.00D+00
 Large coefficients: NSaved= 20 BigCof=    0.00 CofMax=   10.00 Det=-4.29D-15
 Inversion failed.  Reducing to 19 matrices.
 Large coefficients: NSaved= 19 BigCof=    0.00 CofMax=   10.00 Det=-4.39D-15
 Inversion failed.  Reducing to 18 matrices.
 Large coefficients: NSaved= 18 BigCof=    0.00 CofMax=   10.00 Det=-4.54D-15
 Inversion failed.  Reducing to 17 matrices.
 Large coefficients: NSaved= 17 BigCof=    0.00 CofMax=   10.00 Det=-4.55D-15
 Inversion failed.  Reducing to 16 matrices.
 Large coefficients: NSaved= 16 BigCof=    0.00 CofMax=   10.00 Det=-4.59D-15
 Inversion failed.  Reducing to 15 matrices.
 Coeff-Com:  0.102D-04 0.965D-05 0.468D-04-0.527D-04 0.786D-04-0.150D-03
 Coeff-Com: -0.862D-04 0.141D-02 0.271D-02-0.328D-02-0.171D-01-0.175D-01
 Coeff-Com:  0.106D+00 0.340D+00 0.588D+00
 Coeff:      0.102D-04 0.965D-05 0.468D-04-0.527D-04 0.786D-04-0.150D-03
 Coeff:     -0.862D-04 0.141D-02 0.271D-02-0.328D-02-0.171D-01-0.175D-01
 Coeff:      0.106D+00 0.340D+00 0.588D+00
 Gap=     0.215 Goal=   None    Shift=    0.000
 Gap=     0.055 Goal=   None    Shift=    0.000
 RMSDP=7.49D-09 MaxDP=2.75D-07 DE= 4.55D-13 OVMax= 2.05D-06

 SCF Done:  E(UB3LYP) =  -434.834136388     A.U. after   32 cycles
            NFock= 32  Conv=0.75D-08     -V/T= 2.0040
 <Sx>= 0.0000 <Sy>= 0.0000 <Sz>= 0.5000 <S**2>= 0.7594 S= 0.5047
 <L.S>=  0.00000000000    
 KE= 4.331154469320D+02 PE=-1.915429846939D+03 EE= 5.966952437697D+02
 Annihilation of the first spin contaminant:
 S**2 before annihilation     0.7594,   after     0.7501
 Leave Link  502 at Sun Oct 30 08:05:33 2022, MaxMem=  8053063680 cpu:            1058.2 elap:              33.1
 (Enter /public3/home/scg5914/software-scg5914/g16/l601.exe)
 Copying SCF densities to generalized density rwf, IOpCl= 1 IROHF=0.

 **********************************************************************

            Population analysis using the SCF Density.

 **********************************************************************

 Orbital symmetries:
 Alpha Orbitals:
       Occupied  (A) (A) (A) (A) (A) (A) (A) (A) (A) (A) (A) (A)
                 (A) (A) (A) (A) (A) (A) (A) (A) (A) (A) (A) (A)
                 (A) (A) (A) (A) (A) (A) (A) (A) (A) (A)
       Virtual   (A) (A) (A) (A) (A) (A) (A) (A) (A) (A) (A) (A)
                 (A) (A) (A) (A) (A) (A) (A) (A) (A) (A) (A) (A)
                 (A) (A) (A) (A) (A) (A) (A) (A) (A) (A) (A) (A)
                 (A) (A) (A) (A) (A) (A) (A) (A) (A) (A) (A) (A)
                 (A) (A) (A) (A) (A) (A) (A) (A) (A) (A) (A) (A)
                 (A) (A) (A) (A) (A) (A) (A) (A) (A) (A) (A) (A)
                 (A) (A) (A) (A) (A) (A) (A) (A) (A) (A) (A) (A)
                 (A) (A) (A) (A) (A) (A) (A) (A) (A) (A) (A) (A)
                 (A) (A) (A) (A) (A) (A) (A) (A) (A) (A) (A) (A)
                 (A) (A) (A) (A) (A) (A) (A) (A) (A) (A) (A) (A)
                 (A) (A) (A) (A) (A) (A) (A) (A) (A) (A) (A) (A)
                 (A) (A) (A) (A) (A) (A) (A) (A) (A) (A) (A) (A)
                 (A) (A) (A) (A) (A) (A) (A) (A) (A) (A) (A) (A)
                 (A) (A) (A) (A) (A) (A) (A) (A) (A) (A) (A) (A)
                 (A) (A) (A) (A) (A) (A) (A) (A) (A) (A) (A) (A)
                 (A) (A) (A) (A) (A) (A) (A) (A) (A) (A) (A) (A)
                 (A) (A) (A) (A) (A) (A) (A) (A) (A) (A) (A) (A)
                 (A) (A) (A) (A) (A) (A) (A) (A)
 Beta  Orbitals:
       Occupied  (A) (A) (A) (A) (A) (A) (A) (A) (A) (A) (A) (A)
                 (A) (A) (A) (A) (A) (A) (A) (A) (A) (A) (A) (A)
                 (A) (A) (A) (A) (A) (A) (A) (A) (A)
       Virtual   (A) (A) (A) (A) (A) (A) (A) (A) (A) (A) (A) (A)
                 (A) (A) (A) (A) (A) (A) (A) (A) (A) (A) (A) (A)
                 (A) (A) (A) (A) (A) (A) (A) (A) (A) (A) (A) (A)
                 (A) (A) (A) (A) (A) (A) (A) (A) (A) (A) (A) (A)
                 (A) (A) (A) (A) (A) (A) (A) (A) (A) (A) (A) (A)
                 (A) (A) (A) (A) (A) (A) (A) (A) (A) (A) (A) (A)
                 (A) (A) (A) (A) (A) (A) (A) (A) (A) (A) (A) (A)
                 (A) (A) (A) (A) (A) (A) (A) (A) (A) (A) (A) (A)
                 (A) (A) (A) (A) (A) (A) (A) (A) (A) (A) (A) (A)
                 (A) (A) (A) (A) (A) (A) (A) (A) (A) (A) (A) (A)
                 (A) (A) (A) (A) (A) (A) (A) (A) (A) (A) (A) (A)
                 (A) (A) (A) (A) (A) (A) (A) (A) (A) (A) (A) (A)
                 (A) (A) (A) (A) (A) (A) (A) (A) (A) (A) (A) (A)
                 (A) (A) (A) (A) (A) (A) (A) (A) (A) (A) (A) (A)
                 (A) (A) (A) (A) (A) (A) (A) (A) (A) (A) (A) (A)
                 (A) (A) (A) (A) (A) (A) (A) (A) (A) (A) (A) (A)
                 (A) (A) (A) (A) (A) (A) (A) (A) (A) (A) (A) (A)
                 (A) (A) (A) (A) (A) (A) (A) (A) (A)
 The electronic state is 2-A.
 Alpha  occ. eigenvalues --  -19.22087 -14.40221 -14.37167 -14.30847 -10.31337
 Alpha  occ. eigenvalues --  -10.29920 -10.22709 -10.19983 -10.17536  -1.17388
 Alpha  occ. eigenvalues --   -1.02953  -0.94943  -0.86669  -0.77723  -0.71096
 Alpha  occ. eigenvalues --   -0.67879  -0.65352  -0.61653  -0.53494  -0.51893
 Alpha  occ. eigenvalues --   -0.49200  -0.46868  -0.44875  -0.43643  -0.42970
 Alpha  occ. eigenvalues --   -0.42106  -0.39411  -0.37606  -0.36029  -0.35813
 Alpha  occ. eigenvalues --   -0.34009  -0.33126  -0.28122  -0.22943
 Alpha virt. eigenvalues --   -0.01468   0.00026   0.01313   0.02235   0.02431
 Alpha virt. eigenvalues --    0.03249   0.03954   0.05069   0.05136   0.05662
 Alpha virt. eigenvalues --    0.06525   0.06858   0.08271   0.08678   0.08901
 Alpha virt. eigenvalues --    0.09461   0.09773   0.11013   0.12108   0.13227
 Alpha virt. eigenvalues --    0.14066   0.14946   0.15223   0.16012   0.16051
 Alpha virt. eigenvalues --    0.16376   0.17185   0.19273   0.19562   0.20540
 Alpha virt. eigenvalues --    0.20969   0.21535   0.22125   0.22780   0.22982
 Alpha virt. eigenvalues --    0.24188   0.24403   0.25983   0.26264   0.26482
 Alpha virt. eigenvalues --    0.27025   0.28177   0.28633   0.29914   0.30306
 Alpha virt. eigenvalues --    0.31259   0.32653   0.33060   0.35507   0.35682
 Alpha virt. eigenvalues --    0.36660   0.38442   0.38690   0.40825   0.43281
 Alpha virt. eigenvalues --    0.44563   0.47023   0.48314   0.49030   0.50887
 Alpha virt. eigenvalues --    0.52973   0.54951   0.56217   0.56688   0.58245
 Alpha virt. eigenvalues --    0.60622   0.62691   0.62965   0.63344   0.64662
 Alpha virt. eigenvalues --    0.66822   0.67290   0.69054   0.70745   0.71664
 Alpha virt. eigenvalues --    0.72228   0.73827   0.76942   0.80886   0.83504
 Alpha virt. eigenvalues --    0.85682   0.86386   0.87409   0.88151   0.90957
 Alpha virt. eigenvalues --    0.91883   0.92933   0.97293   0.99875   1.01368
 Alpha virt. eigenvalues --    1.02371   1.04959   1.09087   1.09982   1.12319
 Alpha virt. eigenvalues --    1.14163   1.18402   1.21705   1.23206   1.24735
 Alpha virt. eigenvalues --    1.26404   1.30722   1.32065   1.34482   1.37534
 Alpha virt. eigenvalues --    1.41455   1.43033   1.43984   1.46846   1.47200
 Alpha virt. eigenvalues --    1.50974   1.52609   1.53596   1.56337   1.57878
 Alpha virt. eigenvalues --    1.58546   1.60010   1.62248   1.63836   1.65598
 Alpha virt. eigenvalues --    1.66356   1.68365   1.70938   1.73318   1.75735
 Alpha virt. eigenvalues --    1.78350   1.78852   1.82996   1.84257   1.87803
 Alpha virt. eigenvalues --    1.91993   1.98333   2.00241   2.01671   2.03417
 Alpha virt. eigenvalues --    2.06072   2.08458   2.13062   2.15996   2.18950
 Alpha virt. eigenvalues --    2.21868   2.28248   2.31398   2.34072   2.35742
 Alpha virt. eigenvalues --    2.39178   2.42085   2.44371   2.45384   2.48573
 Alpha virt. eigenvalues --    2.48870   2.51023   2.52539   2.54174   2.55879
 Alpha virt. eigenvalues --    2.56930   2.58037   2.61570   2.64249   2.65692
 Alpha virt. eigenvalues --    2.66221   2.69638   2.69790   2.73789   2.78170
 Alpha virt. eigenvalues --    2.80494   2.82478   2.84901   2.87271   2.87550
 Alpha virt. eigenvalues --    2.92241   2.95328   3.02488   3.07032   3.10459
 Alpha virt. eigenvalues --    3.12488   3.16866   3.21030   3.24703   3.39259
 Alpha virt. eigenvalues --    3.53124   3.61158   3.66441   3.74304   3.77070
 Alpha virt. eigenvalues --    3.78556   3.80009   3.82648   3.83964   3.87781
 Alpha virt. eigenvalues --    3.95267   3.97198   3.98811   4.10320   4.22771
 Alpha virt. eigenvalues --    4.39816   4.51030   4.82421   4.94027   5.06065
 Alpha virt. eigenvalues --    5.22775   5.39948   5.77077  23.77336  23.83850
 Alpha virt. eigenvalues --   23.86592  23.92185  23.95849  35.46996  35.52098
 Alpha virt. eigenvalues --   35.69649  49.85627
  Beta  occ. eigenvalues --  -19.21865 -14.40044 -14.37077 -14.30655 -10.31319
  Beta  occ. eigenvalues --  -10.28323 -10.22712 -10.19969 -10.17534  -1.16827
  Beta  occ. eigenvalues --   -1.02546  -0.94527  -0.86131  -0.77432  -0.70865
  Beta  occ. eigenvalues --   -0.66966  -0.64698  -0.60957  -0.53072  -0.51333
  Beta  occ. eigenvalues --   -0.48953  -0.46688  -0.44553  -0.43428  -0.42750
  Beta  occ. eigenvalues --   -0.41872  -0.39320  -0.37241  -0.35967  -0.34532
  Beta  occ. eigenvalues --   -0.33481  -0.28645  -0.22296
  Beta virt. eigenvalues --   -0.16767   0.00120   0.00545   0.01425   0.02268
  Beta virt. eigenvalues --    0.02580   0.03519   0.03993   0.05119   0.05173
  Beta virt. eigenvalues --    0.06219   0.06613   0.06947   0.08322   0.08732
  Beta virt. eigenvalues --    0.08944   0.09637   0.09938   0.11067   0.12193
  Beta virt. eigenvalues --    0.13695   0.14133   0.15041   0.15395   0.16117
  Beta virt. eigenvalues --    0.16279   0.16564   0.17361   0.19339   0.19858
  Beta virt. eigenvalues --    0.20616   0.20979   0.21637   0.22306   0.22826
  Beta virt. eigenvalues --    0.23080   0.24237   0.24480   0.26051   0.26469
  Beta virt. eigenvalues --    0.26645   0.27060   0.28383   0.28750   0.30029
  Beta virt. eigenvalues --    0.30479   0.31463   0.32950   0.33423   0.35846
  Beta virt. eigenvalues --    0.35900   0.36828   0.38912   0.39003   0.40864
  Beta virt. eigenvalues --    0.44277   0.44688   0.47278   0.48579   0.49170
  Beta virt. eigenvalues --    0.51379   0.53626   0.55414   0.56494   0.57594
  Beta virt. eigenvalues --    0.59290   0.60952   0.62903   0.63159   0.63482
  Beta virt. eigenvalues --    0.64704   0.66980   0.67392   0.69441   0.70848
  Beta virt. eigenvalues --    0.71794   0.72378   0.74294   0.77258   0.81129
  Beta virt. eigenvalues --    0.83652   0.85752   0.86565   0.87533   0.88428
  Beta virt. eigenvalues --    0.91134   0.92904   0.93472   0.97545   1.00229
  Beta virt. eigenvalues --    1.02028   1.02604   1.05218   1.09856   1.10620
  Beta virt. eigenvalues --    1.12522   1.14296   1.18704   1.21901   1.24046
  Beta virt. eigenvalues --    1.24875   1.26953   1.30865   1.34958   1.35480
  Beta virt. eigenvalues --    1.37994   1.41748   1.43183   1.44470   1.46916
  Beta virt. eigenvalues --    1.47305   1.51874   1.52644   1.53815   1.56403
  Beta virt. eigenvalues --    1.57932   1.58695   1.60302   1.62572   1.63994
  Beta virt. eigenvalues --    1.65816   1.66763   1.68538   1.71252   1.73669
  Beta virt. eigenvalues --    1.75898   1.78585   1.79731   1.83163   1.84978
  Beta virt. eigenvalues --    1.88669   1.94075   1.99118   2.00803   2.02306
  Beta virt. eigenvalues --    2.03550   2.06270   2.08514   2.13515   2.16146
  Beta virt. eigenvalues --    2.19264   2.22232   2.28509   2.31658   2.35072
  Beta virt. eigenvalues --    2.35926   2.39344   2.42237   2.44516   2.45459
  Beta virt. eigenvalues --    2.48648   2.49165   2.51200   2.52654   2.54292
  Beta virt. eigenvalues --    2.55941   2.57009   2.58180   2.61608   2.64406
  Beta virt. eigenvalues --    2.66052   2.66389   2.69905   2.70165   2.74839
  Beta virt. eigenvalues --    2.78917   2.80673   2.83827   2.85477   2.87509
  Beta virt. eigenvalues --    2.87844   2.92589   2.95583   3.02840   3.07648
  Beta virt. eigenvalues --    3.10770   3.13234   3.17637   3.22499   3.24987
  Beta virt. eigenvalues --    3.39999   3.53474   3.61328   3.66612   3.74374
  Beta virt. eigenvalues --    3.77110   3.78616   3.80003   3.82633   3.84037
  Beta virt. eigenvalues --    3.88233   3.95443   3.97684   3.99228   4.10500
  Beta virt. eigenvalues --    4.22889   4.40278   4.51512   4.82669   4.94220
  Beta virt. eigenvalues --    5.06276   5.23173   5.40231   5.77753  23.79123
  Beta virt. eigenvalues --   23.83885  23.86606  23.92202  23.95854  35.47186
  Beta virt. eigenvalues --   35.52229  35.69847  49.85865
          Condensed to atoms (all electrons):
               1          2          3          4          5          6
     1  C    5.399800   0.002491   0.025365   0.040709   0.038394  -0.005710
     2  C    0.002491   5.424414  -0.072300   0.014467  -0.075485   0.023136
     3  N    0.025365  -0.072300   7.543313   0.018472   0.162859  -0.153238
     4  N    0.040709   0.014467   0.018472   6.700765   0.268429  -0.014337
     5  C    0.038394  -0.075485   0.162859   0.268429   5.809618   0.063135
     6  O   -0.005710   0.023136  -0.153238  -0.014337   0.063135   8.069420
     7  C   -0.131979   0.050005  -0.046560   0.042336  -0.235670   0.151722
     8  N   -0.043404   0.042486  -0.327613   0.003767  -0.009191  -0.055163
     9  C   -0.027890   0.019070  -0.077089   0.016826  -0.042391  -0.028319
    10  H    0.408961  -0.013536  -0.033788   0.020002  -0.003691   0.000033
    11  H    0.416567  -0.059924   0.023655  -0.005435   0.000757   0.000065
    12  H    0.408636  -0.024627  -0.013412  -0.005190  -0.000062  -0.000410
    13  H   -0.053056   0.438991  -0.027200  -0.013922  -0.000437   0.001094
    14  H   -0.052955   0.448118  -0.069667   0.013890  -0.001162  -0.000551
    15  H    0.000612  -0.002216  -0.003394   0.001878  -0.010067   0.012987
    16  H    0.000155   0.001946   0.002945  -0.000743   0.002487  -0.000147
    17  H   -0.000132   0.000515   0.001083  -0.000255   0.000331   0.000798
               7          8          9         10         11         12
     1  C   -0.131979  -0.043404  -0.027890   0.408961   0.416567   0.408636
     2  C    0.050005   0.042486   0.019070  -0.013536  -0.059924  -0.024627
     3  N   -0.046560  -0.327613  -0.077089  -0.033788   0.023655  -0.013412
     4  N    0.042336   0.003767   0.016826   0.020002  -0.005435  -0.005190
     5  C   -0.235670  -0.009191  -0.042391  -0.003691   0.000757  -0.000062
     6  O    0.151722  -0.055163  -0.028319   0.000033   0.000065  -0.000410
     7  C    5.715510   0.567229  -0.193109  -0.003457   0.002695   0.005314
     8  N    0.567229   6.883423   0.327560  -0.000957   0.000982   0.005128
     9  C   -0.193109   0.327560   5.084213  -0.000137   0.000364  -0.000131
    10  H   -0.003457  -0.000957  -0.000137   0.526381  -0.024946  -0.029598
    11  H    0.002695   0.000982   0.000364  -0.024946   0.530417  -0.024186
    12  H    0.005314   0.005128  -0.000131  -0.029598  -0.024186   0.528060
    13  H    0.004876   0.002833  -0.002985   0.006155  -0.003282  -0.006428
    14  H    0.005695   0.003481   0.000784  -0.006474  -0.003867   0.006547
    15  H   -0.029690  -0.010263   0.416104  -0.000003   0.000000   0.000004
    16  H    0.020336  -0.085842   0.414704  -0.000004   0.000001  -0.000055
    17  H   -0.007258  -0.049309   0.412370   0.000001  -0.000000   0.000014
              13         14         15         16         17
     1  C   -0.053056  -0.052955   0.000612   0.000155  -0.000132
     2  C    0.438991   0.448118  -0.002216   0.001946   0.000515
     3  N   -0.027200  -0.069667  -0.003394   0.002945   0.001083
     4  N   -0.013922   0.013890   0.001878  -0.000743  -0.000255
     5  C   -0.000437  -0.001162  -0.010067   0.002487   0.000331
     6  O    0.001094  -0.000551   0.012987  -0.000147   0.000798
     7  C    0.004876   0.005695  -0.029690   0.020336  -0.007258
     8  N    0.002833   0.003481  -0.010263  -0.085842  -0.049309
     9  C   -0.002985   0.000784   0.416104   0.414704   0.412370
    10  H    0.006155  -0.006474  -0.000003  -0.000004   0.000001
    11  H   -0.003282  -0.003867   0.000000   0.000001  -0.000000
    12  H   -0.006428   0.006547   0.000004  -0.000055   0.000014
    13  H    0.510383  -0.031390   0.000021   0.000009  -0.000019
    14  H   -0.031390   0.524689   0.000009  -0.000003  -0.000005
    15  H    0.000021   0.000009   0.555808  -0.035882  -0.036875
    16  H    0.000009  -0.000003  -0.035882   0.567638  -0.033849
    17  H   -0.000019  -0.000005  -0.036875  -0.033849   0.564012
          Atomic-Atomic Spin Densities.
               1          2          3          4          5          6
     1  C    0.005753  -0.001975  -0.000677   0.000146  -0.002653  -0.001176
     2  C   -0.001975  -0.004300  -0.007315   0.005105   0.001406   0.003638
     3  N   -0.000677  -0.007315   0.049141  -0.019481   0.011055   0.000032
     4  N    0.000146   0.005105  -0.019481   0.083173  -0.149466   0.025956
     5  C   -0.002653   0.001406   0.011055  -0.149466   1.202592  -0.164038
     6  O   -0.001176   0.003638   0.000032   0.025956  -0.164038   0.117442
     7  C   -0.002854   0.007044   0.017138  -0.001240  -0.009735   0.025656
     8  N    0.001003   0.000717   0.016265   0.002631  -0.001748  -0.007005
     9  C    0.001039  -0.001080   0.005614  -0.000275   0.000674  -0.005498
    10  H   -0.000059  -0.000433   0.000482  -0.000301   0.000149  -0.000008
    11  H    0.000245  -0.000051   0.000118   0.000137   0.000059   0.000005
    12  H    0.000415  -0.000441  -0.000135   0.000181   0.000018   0.000004
    13  H   -0.001209   0.001021  -0.001214  -0.000015   0.000910  -0.000164
    14  H    0.001237  -0.001388   0.002441  -0.000097   0.000991  -0.000124
    15  H   -0.000151   0.000285   0.001002  -0.000018   0.002036  -0.002112
    16  H    0.000032  -0.000073  -0.000295   0.000022  -0.000062   0.000174
    17  H    0.000055  -0.000138  -0.000447  -0.000031  -0.000770   0.000742
               7          8          9         10         11         12
     1  C   -0.002854   0.001003   0.001039  -0.000059   0.000245   0.000415
     2  C    0.007044   0.000717  -0.001080  -0.000433  -0.000051  -0.000441
     3  N    0.017138   0.016265   0.005614   0.000482   0.000118  -0.000135
     4  N   -0.001240   0.002631  -0.000275  -0.000301   0.000137   0.000181
     5  C   -0.009735  -0.001748   0.000674   0.000149   0.000059   0.000018
     6  O    0.025656  -0.007005  -0.005498  -0.000008   0.000005   0.000004
     7  C   -0.062100   0.019043   0.008272  -0.000014   0.000002   0.000011
     8  N    0.019043   0.072215  -0.017164  -0.000024  -0.000067  -0.000001
     9  C    0.008272  -0.017164   0.003489  -0.000005  -0.000023  -0.000002
    10  H   -0.000014  -0.000024  -0.000005   0.000192   0.000027   0.000005
    11  H    0.000002  -0.000067  -0.000023   0.000027  -0.000493  -0.000051
    12  H    0.000011  -0.000001  -0.000002   0.000005  -0.000051  -0.000053
    13  H   -0.000177   0.000702  -0.000786   0.000092  -0.000027   0.000013
    14  H   -0.001257  -0.000519  -0.000162   0.000048  -0.000139  -0.000006
    15  H    0.008625  -0.004294  -0.005539   0.000001   0.000000  -0.000000
    16  H   -0.001448   0.001244   0.001145  -0.000000  -0.000000  -0.000001
    17  H   -0.005112   0.000612   0.005561  -0.000000   0.000000   0.000000
              13         14         15         16         17
     1  C   -0.001209   0.001237  -0.000151   0.000032   0.000055
     2  C    0.001021  -0.001388   0.000285  -0.000073  -0.000138
     3  N   -0.001214   0.002441   0.001002  -0.000295  -0.000447
     4  N   -0.000015  -0.000097  -0.000018   0.000022  -0.000031
     5  C    0.000910   0.000991   0.002036  -0.000062  -0.000770
     6  O   -0.000164  -0.000124  -0.002112   0.000174   0.000742
     7  C   -0.000177  -0.001257   0.008625  -0.001448  -0.005112
     8  N    0.000702  -0.000519  -0.004294   0.001244   0.000612
     9  C   -0.000786  -0.000162  -0.005539   0.001145   0.005561
    10  H    0.000092   0.000048   0.000001  -0.000000  -0.000000
    11  H   -0.000027  -0.000139   0.000000  -0.000000   0.000000
    12  H    0.000013  -0.000006  -0.000000  -0.000001   0.000000
    13  H    0.007999   0.000047   0.000016  -0.000007  -0.000011
    14  H    0.000047  -0.001925  -0.000001  -0.000000   0.000001
    15  H    0.000016  -0.000001   0.007866  -0.000013  -0.000784
    16  H   -0.000007  -0.000000  -0.000013  -0.001308   0.000062
    17  H   -0.000011   0.000001  -0.000784   0.000062   0.000678
 Mulliken charges and spin densities:
               1          2
     1  C   -0.426564  -0.000830
     2  C   -0.217552   0.002022
     3  N    0.046569   0.073723
     4  N   -0.101656  -0.053573
     5  C    0.032146   0.891417
     6  O   -0.064514  -0.006477
     7  C    0.082004   0.001853
     8  N   -0.255146   0.083610
     9  C   -0.319945  -0.004739
    10  H    0.155059   0.000153
    11  H    0.146136  -0.000258
    12  H    0.150397  -0.000044
    13  H    0.174359   0.007189
    14  H    0.162860  -0.000855
    15  H    0.140966   0.006918
    16  H    0.146303  -0.000529
    17  H    0.148578   0.000420
 Sum of Mulliken charges =  -0.00000   1.00000
 Mulliken charges and spin densities with hydrogens summed into heavy atoms:
               1          2
     1  C    0.025028  -0.000979
     2  C    0.119667   0.008356
     3  N    0.046569   0.073723
     4  N   -0.101656  -0.053573
     5  C    0.032146   0.891417
     6  O   -0.064514  -0.006477
     7  C    0.082004   0.001853
     8  N   -0.255146   0.083610
     9  C    0.115902   0.002069
 Electronic spatial extent (au):  <R**2>=           1200.6930
 Charge=             -0.0000 electrons
 Dipole moment (field-independent basis, Debye):
    X=             -0.2045    Y=             -1.1427    Z=             -0.1858  Tot=              1.1756
 Quadrupole moment (field-independent basis, Debye-Ang):
   XX=            -50.1583   YY=            -57.5675   ZZ=            -53.6369
[...]
 Molecular unit  1  (C5H8N3O)
     1. BD (   1) C   1 - C   2          0.98362    -0.64792  236(v),70(v),237(v),233(g)
                                                    234(g)
     2. BD (   1) C   1 - H  10          0.99405    -0.52375  233(v),232(v)
     3. BD (   1) C   1 - H  11          0.99060    -0.52517  232(v)
     4. BD (   1) C   1 - H  12          0.99414    -0.52580  234(v)
     5. BD (   1) C   2 - N   3          0.99319    -0.80176  238(v),240(v),237(g),230(v)
                                                    235(g)
     6. BD (   1) C   2 - H  13          0.98816    -0.54287  235(v),229(v),236(v)
     7. BD (   1) C   2 - H  14          0.98510    -0.54092  237(v),231(v),236(v),70(v)
     8. BD (   1) N   3 - N   4          0.99347    -0.91508  241(v),239(v),52(v),232(g)
                                                    237(g),240(v),104(v),103(v)
                                                    138(v)
     9. BD (   2) N   3 - N   4          0.92369    -0.38462  31(v),242(v),228(v),236(g)
                                                    107(v),143(v),234(v),53(v)
    10. BD (   1) N   3 - C   7          0.99326    -0.86943  243(v),241(g),232(g),52(v)
                                                    86(v)
    11. BD (   1) N   4 - C   5          0.98838    -0.80896  232(v),239(g),69(v),71(v)
                                                    241(r),120(v)
    12. BD (   1) C   5 - O   6          0.99037    -0.85951  241(v),139(v),237(v),137(v)
                                                    238(g),235(v)
    13. BD (   1) O   6 - C   7          0.99471    -0.94019  232(v),103(v),241(g),238(v)
    14. BD (   1) C   7 - N   8          0.99337    -0.93768  237(g),240(g),172(v),235(v)
                                                    239(v),72(v),243(g)
    15. BD (   2) C   7 - N   8          0.85994    -0.35245  236(v),246(v),245(v),122(v)
                                                    242(g),173(v),70(v)
    16. BD (   1) N   8 - C   9          0.99028    -0.75004  237(v),139(v),138(v),241(g)
                                                    147(v)
    17. BD (   1) C   9 - H  15          0.99836    -0.53838  237(r)
    18. BD (   1) C   9 - H  16          0.97961    -0.52739  242(v),241(v),155(v)
    19. BD (   1) C   9 - H  17          0.97881    -0.52722  242(v),241(v),155(v)
    20. CR (   1) C   1                  0.99967   -10.05220  55(v),188(v)
    21. CR (   1) C   2                  0.99964   -10.11142  237(v),235(v),38(v)
    22. CR (   1) N   3                  0.99962   -14.27324  54(v),139(v),241(v),140(v)
                                                    87(v),141(v)
    23. CR (   1) N   4                  0.99976   -14.19375  103(v),232(v),71(v),237(v)
    24. CR (   1) C   5                  0.99982   -10.13247  240(v),86(v),239(g)
    25. CR (   1) O   6                  0.99986   -18.99900  138(v),103(v),241(v),104(v)
    26. CR (   1) C   7                  0.99954   -10.20225  243(v),232(v),156(v),239(v)
                                                    71(v),241(g)
    27. CR (   1) N   8                  0.99965   -14.16537  240(v),142(v),137(v),138(v)
                                                    237(v),172(v),141(v),140(v)
                                                    144(v)
    28. CR (   1) C   9                  0.99966   -10.08648  241(v)
    29. LP (   1) N   4                  0.97005    -0.43221  237(v),239(v),103(v),69(v)
                                                    104(v),71(v)
    30. LP (   1) C   5                  0.96477    -0.31860  240(v),235(v),86(v),120(v)
    31. LP*(   2) C   5                  0.20079    -0.07279  236(v),107(g)
    32. LP (   1) O   6                  0.98367    -0.60854  237(v),138(v),104(v),238(v)
                                                    103(v)
    33. LP (   2) O   6                  0.84601    -0.35563  31(v),242(v),141(v),140(v)
                                                    105(v),107(v)
    34. LP (   1) N   8                  0.94219    -0.38000  240(v),244(v),237(v),137(v)
                                                    138(v),171(v),139(v),153(v)
                                                    245(v),246(v)
    35. RY*(   1) C   1                  0.00059     0.74371   
    36. RY*(   2) C   1                  0.00051     0.72166   
    37. RY*(   3) C   1                  0.00021     1.45002   
    38. RY*(   4) C   1                  0.00013     0.76584   
    39. RY*(   5) C   1                  0.00007     1.00268   
    40. RY*(   6) C   1                  0.00005     0.98484   
    41. RY*(   7) C   1                  0.00002     1.21009   
    42. RY*(   8) C   1                  0.00000    23.20285   
    43. RY*(   9) C   1                  0.00000     2.77345   
    44. RY*(  10) C   1                  0.00000     2.80721   
    45. RY*(  11) C   1                  0.00001     0.92174   
    46. RY*(  12) C   1                  0.00000     1.77365   
    47. RY*(  13) C   1                  0.00000     1.97408   
    48. RY*(  14) C   1                  0.00000     1.68622   
    49. RY*(  15) C   1                  0.00000     1.71723   
    50. RY*(  16) C   1                  0.00000     1.76784   
    51. RY*(  17) C   1                  0.00000     0.97094   
    52. RY*(   1) C   2                  0.00286     0.72615   
    53. RY*(   2) C   2                  0.00079     0.78509   
    54. RY*(   3) C   2                  0.00056     1.02129   
    55. RY*(   4) C   2                  0.00036     1.05594   
    56. RY*(   5) C   2                  0.00031     1.33145   
    57. RY*(   6) C   2                  0.00019     1.55885   
    58. RY*(   7) C   2                  0.00016     1.18944   
    59. RY*(   8) C   2                  0.00012     0.73332   
    60. RY*(   9) C   2                  0.00011     2.30485   
    61. RY*(  10) C   2                  0.00005     2.84707   
    62. RY*(  11) C   2                  0.00001     1.26125   
    63. RY*(  12) C   2                  0.00001     2.62069   
    64. RY*(  13) C   2                  0.00001     2.22884   
    65. RY*(  14) C   2                  0.00000    21.43351   
    66. RY*(  15) C   2                  0.00000     2.82274   
    67. RY*(  16) C   2                  0.00001     1.08450   
    68. RY*(  17) C   2                  0.00001     1.76880   
    69. RY*(   1) N   3                  0.00660     0.67007   
    70. RY*(   2) N   3                  0.00211     0.98283   
    71. RY*(   3) N   3                  0.00139     1.05404   
    72. RY*(   4) N   3                  0.00099     1.25341   
    73. RY*(   5) N   3                  0.00054     1.53982   
    74. RY*(   6) N   3                  0.00035     1.99850   
    75. RY*(   7) N   3                  0.00023     2.58748   
    76. RY*(   8) N   3                  0.00010     1.79568   
    77. RY*(   9) N   3                  0.00008     2.33458   
    78. RY*(  10) N   3                  0.00006     1.59670   
    79. RY*(  11) N   3                  0.00003     4.15726   
    80. RY*(  12) N   3                  0.00000     3.56874   
    81. RY*(  13) N   3                  0.00001     1.06259   
    82. RY*(  14) N   3                  0.00000     4.19090   
    83. RY*(  15) N   3                  0.00001     1.19395   
    84. RY*(  16) N   3                  0.00000    34.68544   
    85. RY*(  17) N   3                  0.00001     2.39398   
    86. RY*(   1) N   4                  0.00263     1.00531   
    87. RY*(   2) N   4                  0.00070     1.13208   
    88. RY*(   3) N   4                  0.00047     1.01303   
    89. RY*(   4) N   4                  0.00026     1.39921   
    90. RY*(   5) N   4                  0.00012     1.35235   
    91. RY*(   6) N   4                  0.00009     0.97875   
    92. RY*(   7) N   4                  0.00005     0.91712   
    93. RY*(   8) N   4                  0.00003     2.03278   
    94. RY*(   9) N   4                  0.00001     3.96327   
    95. RY*(  10) N   4                  0.00000     4.02801   
    96. RY*(  11) N   4                  0.00001     0.71802   
    97. RY*(  12) N   4                  0.00000     3.83069   
    98. RY*(  13) N   4                  0.00000     2.38700   
    99. RY*(  14) N   4                  0.00001     1.63603   
   100. RY*(  15) N   4                  0.00001     1.85601   
   101. RY*(  16) N   4                  0.00000    35.02862   
   102. RY*(  17) N   4                  0.00001     2.36278   
   103. RY*(   1) C   5                  0.00344     1.00590   
   104. RY*(   2) C   5                  0.00235     1.06095   
   105. RY*(   3) C   5                  0.00044     1.51036   
   106. RY*(   4) C   5                  0.00033     0.87745   
   107. RY*(   5) C   5                  0.00020     0.78695   
   108. RY*(   6) C   5                  0.00018     0.93279   
   109. RY*(   7) C   5                  0.00007     1.37770   
   110. RY*(   8) C   5                  0.00002     1.31210   
   111. RY*(   9) C   5                  0.00002     0.83269   
   112. RY*(  10) C   5                  0.00000     2.76044   
   113. RY*(  11) C   5                  0.00000     0.30998   
   114. RY*(  12) C   5                  0.00000     2.64351   
   115. RY*(  13) C   5                  0.00000     1.51917   
   116. RY*(  14) C   5                  0.00000     1.95967   
   117. RY*(  15) C   5                  0.00000     1.38276   
   118. RY*(  16) C   5                  0.00000    22.94263   
   119. RY*(  17) C   5                  0.00000     1.87792   
   120. RY*(   1) O   6                  0.00151     1.17278   
   121. RY*(   2) O   6                  0.00083     1.13144   
   122. RY*(   3) O   6                  0.00053     0.87907   
   123. RY*(   4) O   6                  0.00021     1.21217   
   124. RY*(   5) O   6                  0.00011     1.86976   
   125. RY*(   6) O   6                  0.00007     1.96921   
   126. RY*(   7) O   6                  0.00005     2.34090   
   127. RY*(   8) O   6                  0.00004     1.38453   
   128. RY*(   9) O   6                  0.00002     2.99974   
   129. RY*(  10) O   6                  0.00000    49.62966   
   130. RY*(  11) O   6                  0.00000     1.22739   
   131. RY*(  12) O   6                  0.00000     4.87128   
   132. RY*(  13) O   6                  0.00000     3.22586   
   133. RY*(  14) O   6                  0.00000     4.15634   
   134. RY*(  15) O   6                  0.00000     2.77827   
   135. RY*(  16) O   6                  0.00001     3.99593   
   136. RY*(  17) O   6                  0.00000     2.95595   
   137. RY*(   1) C   7                  0.00575     0.73637   
   138. RY*(   2) C   7                  0.00451     1.43648   
   139. RY*(   3) C   7                  0.00217     1.61995   
   140. RY*(   4) C   7                  0.00154     1.41094   
   141. RY*(   5) C   7                  0.00144     1.38752   
   142. RY*(   6) C   7                  0.00069     0.79717   
   143. RY*(   7) C   7                  0.00066     1.12786   
   144. RY*(   8) C   7                  0.00039     2.25446   
   145. RY*(   9) C   7                  0.00027     0.91284   
   146. RY*(  10) C   7                  0.00010     2.07316   
   147. RY*(  11) C   7                  0.00006     4.73017   
   148. RY*(  12) C   7                  0.00004     8.18174   
   149. RY*(  13) C   7                  0.00003     1.10416   
   150. RY*(  14) C   7                  0.00000    11.73326   
   151. RY*(  15) C   7                  0.00001     1.59431   
   152. RY*(  16) C   7                  0.00000     2.62046   
   153. RY*(  17) C   7                  0.00000     1.84404   
   154. RY*(   1) N   8                  0.00179     0.64857   
   155. RY*(   2) N   8                  0.00059     0.96481   
   156. RY*(   3) N   8                  0.00048     1.32424   
   157. RY*(   4) N   8                  0.00019     1.32676   
   158. RY*(   5) N   8                  0.00016     2.02699   
   159. RY*(   6) N   8                  0.00010     1.13885   
   160. RY*(   7) N   8                  0.00010     0.99638   
   161. RY*(   8) N   8                  0.00006     2.37449   
   162. RY*(   9) N   8                  0.00004     1.46053   
   163. RY*(  10) N   8                  0.00002     1.27789   
   164. RY*(  11) N   8                  0.00001     2.24402   
   165. RY*(  12) N   8                  0.00000     3.85686   
   166. RY*(  13) N   8                  0.00001     3.87615   
   167. RY*(  14) N   8                  0.00000    34.89478   
   168. RY*(  15) N   8                  0.00000     2.17554   
   169. RY*(  16) N   8                  0.00001     3.77688   
   170. RY*(  17) N   8                  0.00001     2.41641   
   171. RY*(   1) C   9                  0.00215     0.97216   
   172. RY*(   2) C   9                  0.00090     1.04505   
   173. RY*(   3) C   9                  0.00043     0.96456   
   174. RY*(   4) C   9                  0.00015     1.19552   
   175. RY*(   5) C   9                  0.00009     0.81828   
   176. RY*(   6) C   9                  0.00004     0.49451   
   177. RY*(   7) C   9                  0.00000     0.74916   
   178. RY*(   8) C   9                  0.00001     1.86722   
   179. RY*(   9) C   9                  0.00001     0.96958   
   180. RY*(  10) C   9                  0.00000     1.99739   
   181. RY*(  11) C   9                  0.00000    23.17010   
   182. RY*(  12) C   9                  0.00000     3.05357   
   183. RY*(  13) C   9                  0.00001     0.34272   
   184. RY*(  14) C   9                  0.00000     2.55162   
   185. RY*(  15) C   9                  0.00000     1.92922   
   186. RY*(  16) C   9                  0.00001     2.06330   
   187. RY*(  17) C   9                  0.00000     1.97637   
   188. RY*(   1) H  10                  0.00046     0.97590   
   189. RY*(   2) H  10                  0.00009     1.81936   
   190. RY*(   3) H  10                  0.00007     1.68898   
   191. RY*(   4) H  10                  0.00004     1.78130   
   192. RY*(   5) H  10                  0.00002     2.61009   
   193. RY*(   1) H  11                  0.00026     0.83680   
   194. RY*(   2) H  11                  0.00007     1.59721   
   195. RY*(   3) H  11                  0.00005     1.79177   
   196. RY*(   4) H  11                  0.00003     1.99282   
   197. RY*(   5) H  11                  0.00001     2.60733   
   198. RY*(   1) H  12                  0.00054     0.75075   
   199. RY*(   2) H  12                  0.00009     1.88270   
   200. RY*(   3) H  12                  0.00005     1.79081   
   201. RY*(   4) H  12                  0.00005     1.75696   
   202. RY*(   5) H  12                  0.00002     2.67679   
   203. RY*(   1) H  13                  0.00084     0.91733   
   204. RY*(   2) H  13                  0.00007     1.92708   
   205. RY*(   3) H  13                  0.00006     1.83123   
   206. RY*(   4) H  13                  0.00004     1.71082   
   207. RY*(   5) H  13                  0.00002     2.59689   
   208. RY*(   1) H  14                  0.00046     1.03211   
   209. RY*(   2) H  14                  0.00011     1.76362   
   210. RY*(   3) H  14                  0.00006     1.78557   
   211. RY*(   4) H  14                  0.00004     1.77365   
   212. RY*(   5) H  14                  0.00002     2.61361   
   213. RY*(   1) H  15                  0.00062     0.84642   
   214. RY*(   2) H  15                  0.00007     1.91721   
   215. RY*(   3) H  15                  0.00008     1.83387   
   216. RY*(   4) H  15                  0.00005     1.69435   
   217. RY*(   5) H  15                  0.00001     2.51682   
   218. RY*(   1) H  16                  0.00021     0.81722   
   219. RY*(   2) H  16                  0.00009     1.84259   
   220. RY*(   3) H  16                  0.00009     1.75173   
   221. RY*(   4) H  16                  0.00004     2.03269   
   222. RY*(   5) H  16                  0.00001     2.37567   
   223. RY*(   1) H  17                  0.00022     0.76547   
   224. RY*(   2) H  17                  0.00010     1.88108   
   225. RY*(   3) H  17                  0.00009     1.76135   
   226. RY*(   4) H  17                  0.00004     2.03421   
   227. RY*(   5) H  17                  0.00001     2.38744   
   228. BD*(   1) C   1 - C   2          0.00346     0.34981   
   229. BD*(   1) C   1 - H  10          0.00341     0.38323   
   230. BD*(   1) C   1 - H  11          0.00204     0.37484   
   231. BD*(   1) C   1 - H  12          0.00351     0.37721   
   232. BD*(   1) C   2 - N   3          0.01731     0.29798   
   233. BD*(   1) C   2 - H  13          0.00703     0.36856   
   234. BD*(   1) C   2 - H  14          0.00669     0.36394   
   235. BD*(   1) N   3 - N   4          0.02054     0.37587   
   236. BD*(   2) N   3 - N   4          0.14401    -0.08267  31(v),242(v),88(g),228(v)
   237. BD*(   1) N   3 - C   7          0.03938     0.39007   
   238. BD*(   1) N   4 - C   5          0.00668     0.48274   
   239. BD*(   1) C   5 - O   6          0.01491     0.31876   
   240. BD*(   1) O   6 - C   7          0.04718     0.30904   
   241. BD*(   1) C   7 - N   8          0.00869     0.58750   
   242. BD*(   2) C   7 - N   8          0.07257    -0.00830   
   243. BD*(   1) N   8 - C   9          0.00362     0.34978   
   244. BD*(   1) C   9 - H  15          0.00799     0.37360   
   245. BD*(   1) C   9 - H  16          0.00421     0.36643   
   246. BD*(   1) C   9 - H  17          0.00417     0.36637   
       -------------------------------
              Total Lewis   32.31700  ( 97.9303%)
        Valence non-Lewis    0.61817  (  1.8732%)
        Rydberg non-Lewis    0.06483  (  0.1964%)
       -------------------------------
            Total unit  1   33.00000  (100.0000%)
           Charge unit  1    0.50000
 Leave Link  607 at Sun Oct 30 08:17:35 2022, MaxMem=  8053063680 cpu:              54.9 elap:               1.7
 (Enter /public3/home/scg5914/software-scg5914/g16/l9999.exe)
 Unable to Open any file for archive entry.
 1\1\GINC-G0801\SP\UB3LYP\Gen\C5H8N3O1(2)\SCG5914\30-Oct-2022\0\\#p b3l
 yp/chkbas pop=nbo geom=allcheck guess=tcheck em=gd3bj\\dsgdb9nsd_12682
 8-6\\0,2\C,0,0.0431746851,1.5545890531,-0.0122609185\C,0,0.0028189292,
 0.0324155165,0.1062765695\N,0,0.7215717028,-0.4248599161,1.2899716712\
 N,0,2.0561723279,-0.4830617299,1.3439247006\C,0,2.4165992826,-0.909767
 0787,2.589533972\O,0,1.2155465242,-1.0586053086,3.3023003238\C,0,0.160
 3284784,-0.7615441886,2.4996808574\N,0,-1.091876319,-0.782037262,2.747
 2209214\C,0,-1.5349105104,-1.1325364245,4.0841125026\H,0,1.0742414507,
 1.9069464323,-0.0677283399\H,0,-0.4813847972,1.8633424035,-0.918946259
 8\H,0,-0.4462507577,2.0211204942,0.8449775125\H,0,-1.0187867829,-0.334
 0288246,0.2044210511\H,0,0.4812022367,-0.4452735789,-0.7493065933\H,0,
 -0.7223535671,-1.3283974809,4.7875492266\H,0,-2.1604455275,-0.31910449
 8,4.4636405562\H,0,-2.1774640264,-2.0155689158,4.014005366\\Version=ES
 64L-G16RevC.01\State=2-A\HF=-434.8403574\S2=0.765463\S2-1=0.\S2A=0.750
 088\RMSD=3.947e-09\Dipole=-1.9432096,0.4444952,-0.5734307\Quadrupole=-
 8.062194,2.5591973,5.5029967,2.2678361,-3.2175561,-1.0127618\PG=C01 [X
 (C5H8N3O1)]\\@
 The archive entry for this job was punched.


 AN OPTIMIST IS A GUY
 THAT HAS NEVER HAD
 MUCH EXPERIENCE
   (CERTAIN MAXIMS OF ARCHY  -- DON MARQUIS)
 Job cpu time:       0 days  0 hours  2 minutes  2.6 seconds.
 Elapsed time:       0 days  0 hours  0 minutes  4.0 seconds.
 File lengths (MBytes):  RWF=     61 Int=      0 D2E=      0 Chk=      7 Scr=      1
 Normal termination of Gaussian 16 at Sun Oct 30 08:17:35 2022.
