 Entering Gaussian System, Link 0=/public3/home/scg5914/software-scg5914/g16/g16
 Input=dsgdb9nsd_000180-9-.gjf
 Output=dsgdb9nsd_000180-9-.log
 Initial command:
 /public3/home/scg5914/software-scg5914/g16/l1.exe "/public3/home/scg5914/software-scg5914/test/tmp/dsgdb9nsd_000180-9-/Gau-53677.inp" -scrdir="/public3/home/scg5914/software-scg5914/test/tmp/dsgdb9nsd_000180-9-/"
 Entering Link 1 = /public3/home/scg5914/software-scg5914/g16/l1.exe PID=     53679.
  
 Copyright (c) 1988-2019, Gaussian, Inc.  All Rights Reserved.
  
 This is part of the Gaussian(R) 16 program.  It is based on
 the Gaussian(R) 09 system (copyright 2009, Gaussian, Inc.),
 the Gaussian(R) 03 system (copyright 2003, Gaussian, Inc.),
 the Gaussian(R) 98 system (copyright 1998, Gaussian, Inc.),
 the Gaussian(R) 94 system (copyright 1995, Gaussian, Inc.),
 the Gaussian 92(TM) system (copyright 1992, Gaussian, Inc.),
 the Gaussian 90(TM) system (copyright 1990, Gaussian, Inc.),
 the Gaussian 88(TM) system (copyright 1988, Gaussian, Inc.),
 the Gaussian 86(TM) system (copyright 1986, Carnegie Mellon
 University), and the Gaussian 82(TM) system (copyright 1983,
 Carnegie Mellon University). Gaussian is a federally registered
 trademark of Gaussian, Inc.
  
 This software contains proprietary and confidential information,
 including trade secrets, belonging to Gaussian, Inc.
  
 This software is provided under written license and may be
 used, copied, transmitted, or stored only in accord with that
 written license.
  
 The following legend is applicable only to US Government
 contracts under FAR:
  
                    RESTRICTED RIGHTS LEGEND
  
 Use, reproduction and disclosure by the US Government is
 subject to restrictions as set forth in subparagraphs (a)
 and (c) of the Commercial Computer Software - Restricted
 Rights clause in FAR 52.227-19.
  
 Gaussian, Inc.
 340 Quinnipiac St., Bldg. 40, Wallingford CT 06492
  
  
 ---------------------------------------------------------------
 Warning -- This program may not be used in any manner that
 competes with the business of Gaussian, Inc. or will provide
 assistance to any competitor of Gaussian, Inc.  The licensee
 of this program is prohibited from giving any competitor of
 Gaussian, Inc. access to this program.  By using this program,
 the user acknowledges that Gaussian, Inc. is engaged in the
 business of creating and licensing software in the field of
 computational chemistry and represents and warrants to the
 licensee that it is not a competitor of Gaussian, Inc. and that
 it will not use this program in any manner prohibited above.
 ---------------------------------------------------------------
  

 Cite this work as:
 Gaussian 16, Revision C.01,
 M. J. Frisch, G. W. Trucks, H. B. Schlegel, G. E. Scuseria, 
 M. A. Robb, J. R. Cheeseman, G. Scalmani, V. Barone, 
 G. A. Petersson, H. Nakatsuji, X. Li, M. Caricato, A. V. Marenich, 
 J. Bloino, B. G. Janesko, R. Gomperts, B. Mennucci, H. P. Hratchian, 
 J. V. Ortiz, A. F. Izmaylov, J. L. Sonnenberg, D. Williams-Young, 
 F. Ding, F. Lipparini, F. Egidi, J. Goings, B. Peng, A. Petrone, 
 T. Henderson, D. Ranasinghe, V. G. Zakrzewski, J. Gao, N. Rega, 
 G. Zheng, W. Liang, M. Hada, M. Ehara, K. Toyota, R. Fukuda, 
 J. Hasegawa, M. Ishida, T. Nakajima, Y. Honda, O. Kitao, H. Nakai, 
 T. Vreven, K. Throssell, J. A. Montgomery, Jr., J. E. Peralta, 
 F. Ogliaro, M. J. Bearpark, J. J. Heyd, E. N. Brothers, K. N. Kudin, 
 V. N. Staroverov, T. A. Keith, R. Kobayashi, J. Normand, 
 K. Raghavachari, A. P. Rendell, J. C. Burant, S. S. Iyengar, 
 J. Tomasi, M. Cossi, J. M. Millam, M. Klene, C. Adamo, R. Cammi, 
 J. W. Ochterski, R. L. Martin, K. Morokuma, O. Farkas, 
 J. B. Foresman, and D. J. Fox, Gaussian, Inc., Wallingford CT, 2019.
 
 ******************************************
 Gaussian 16:  ES64L-G16RevC.01  3-Jul-2019
                24-Oct-2022 
 ******************************************
 %chk=dsgdb9nsd_000180-9.chk
 %mem=60GB
 %nprocshared=32
 Will use up to   32 processors via shared memory.
 ------------------------------------
 #p opt freq b3lyp/6-311+g** em=gd3bj
 ------------------------------------
 1/18=20,19=15,26=3,38=1/1,3;
 2/9=110,12=2,17=6,18=5,40=1/2;
 3/5=4,6=6,7=111,11=2,25=1,30=1,71=1,74=-5,124=41/1,2,3;
 4//1;
 5/5=2,38=5/2;
 6/7=2,8=2,9=2,10=2,28=1/1;
 7//1,2,3,16;
 1/18=20,19=15,26=3/3(2);
 2/9=110/2;
 99//99;
 2/9=110/2;
 3/5=4,6=6,7=111,11=2,25=1,30=1,71=1,74=-5,124=41/1,2,3;
 4/5=5,16=3,69=1/1;
 5/5=2,38=5/2;
 7//1,2,3,16;
 1/18=20,19=15,26=3/3(-5);
 2/9=110/2;
 6/7=2,8=2,9=2,10=2,19=2,28=1/1;
 99/9=1/99;
 Leave Link    1 at Mon Oct 24 15:16:01 2022, MaxMem=  8053063680 cpu:               1.8 elap:               0.1
 (Enter /public3/home/scg5914/software-scg5914/g16/l101.exe)
 ------------------
 dsgdb9nsd_000180-9
 ------------------
 Symbolic Z-matrix:
 Charge = -1 Multiplicity = 1
 C                    -0.02713   1.52212   0.05213 
 C                     0.03237  -0.01247  -0.03041 
 C                     0.72827  -0.50929  -1.27111 
 C                     0.11972  -0.26183  -2.62643 
 N                     1.83264  -1.12828  -1.09134 
 O                     2.40563  -1.53113  -2.31248 
 H                     0.98033   1.94815   0.08275 
 H                    -0.54839   1.95408  -0.80822 
 H                    -0.55803   1.83839   0.95499 
 H                     0.55623  -0.4149    0.84078 
 H                    -0.99013  -0.41393  -0.01366 
 H                     0.73404   0.43563  -3.20641 
 H                     0.08487  -1.19288  -3.19957 
 H                    -0.88855   0.14908  -2.54286 
 
 ITRead=  0  0  0  0  0  0  0  0  0  0  0  0  0  0
 MicOpt= -1 -1 -1 -1 -1 -1 -1 -1 -1 -1 -1 -1 -1 -1
 NAtoms=     14 NQM=       14 NQMF=       0 NMMI=      0 NMMIF=      0
                NMic=       0 NMicF=      0.
                    Isotopes and Nuclear Properties:
 (Nuclear quadrupole moments (NQMom) in fm**2, nuclear magnetic moments (NMagM)
  in nuclear magnetons)

  Atom         1           2           3           4           5           6           7           8           9          10
 IAtWgt=          12          12          12          12          14          16           1           1           1           1
 AtmWgt=  12.0000000  12.0000000  12.0000000  12.0000000  14.0030740  15.9949146   1.0078250   1.0078250   1.0078250   1.0078250
 NucSpn=           0           0           0           0           2           0           1           1           1           1
 AtZEff=  -0.0000000  -0.0000000  -0.0000000  -0.0000000  -0.0000000  -0.0000000  -0.0000000  -0.0000000  -0.0000000  -0.0000000
 NQMom=    0.0000000   0.0000000   0.0000000   0.0000000   2.0440000   0.0000000   0.0000000   0.0000000   0.0000000   0.0000000
 NMagM=    0.0000000   0.0000000   0.0000000   0.0000000   0.4037610   0.0000000   2.7928460   2.7928460   2.7928460   2.7928460
 AtZNuc=   6.0000000   6.0000000   6.0000000   6.0000000   7.0000000   8.0000000   1.0000000   1.0000000   1.0000000   1.0000000

  Atom        11          12          13          14
 IAtWgt=           1           1           1           1
 AtmWgt=   1.0078250   1.0078250   1.0078250   1.0078250
 NucSpn=           1           1           1           1
 AtZEff=  -0.0000000  -0.0000000  -0.0000000  -0.0000000
 NQMom=    0.0000000   0.0000000   0.0000000   0.0000000
 NMagM=    2.7928460   2.7928460   2.7928460   2.7928460
 AtZNuc=   1.0000000   1.0000000   1.0000000   1.0000000
 Leave Link  101 at Mon Oct 24 15:16:01 2022, MaxMem=  8053063680 cpu:               3.9 elap:               0.1
 (Enter /public3/home/scg5914/software-scg5914/g16/l103.exe)

 GradGradGradGradGradGradGradGradGradGradGradGradGradGradGradGradGradGrad
 Berny optimization.
 Initialization pass.
                           ----------------------------
                           !    Initial Parameters    !
                           ! (Angstroms and Degrees)  !
 --------------------------                            --------------------------
 ! Name  Definition              Value          Derivative Info.                !
 --------------------------------------------------------------------------------
 ! R1    R(1,2)                  1.538          estimate D2E/DX2                !
 ! R2    R(1,7)                  1.0943         estimate D2E/DX2                !
 ! R3    R(1,8)                  1.0948         estimate D2E/DX2                !
 ! R4    R(1,9)                  1.0941         estimate D2E/DX2                !
 ! R5    R(2,3)                  1.5068         estimate D2E/DX2                !
 ! R6    R(2,10)                 1.0933         estimate D2E/DX2                !
 ! R7    R(2,11)                 1.0986         estimate D2E/DX2                !
 ! R8    R(3,4)                  1.5061         estimate D2E/DX2                !
 ! R9    R(3,5)                  1.2787         estimate D2E/DX2                !
 ! R10   R(4,12)                 1.0955         estimate D2E/DX2                !
 ! R11   R(4,13)                 1.0939         estimate D2E/DX2                !
 ! R12   R(4,14)                 1.092          estimate D2E/DX2                !
 ! R13   R(5,6)                  1.4078         estimate D2E/DX2                !
 ! A1    A(2,1,7)              110.7538         estimate D2E/DX2                !
 ! A2    A(2,1,8)              111.7122         estimate D2E/DX2                !
 ! A3    A(2,1,9)              110.5793         estimate D2E/DX2                !
 ! A4    A(7,1,8)              107.8631         estimate D2E/DX2                !
 ! A5    A(7,1,9)              108.1265         estimate D2E/DX2                !
 ! A6    A(8,1,9)              107.6631         estimate D2E/DX2                !
 ! A7    A(1,2,3)              113.02           estimate D2E/DX2                !
 ! A8    A(1,2,10)             110.0625         estimate D2E/DX2                !
 ! A9    A(1,2,11)             109.1346         estimate D2E/DX2                !
 ! A10   A(3,2,10)             108.2676         estimate D2E/DX2                !
 ! A11   A(3,2,11)             108.779          estimate D2E/DX2                !
 ! A12   A(10,2,11)            107.4155         estimate D2E/DX2                !
 ! A13   A(2,3,4)              120.0116         estimate D2E/DX2                !
 ! A14   A(2,3,5)              116.2779         estimate D2E/DX2                !
 ! A15   A(4,3,5)              123.7102         estimate D2E/DX2                !
 ! A16   A(3,4,12)             110.7579         estimate D2E/DX2                !
 ! A17   A(3,4,13)             110.1525         estimate D2E/DX2                !
 ! A18   A(3,4,14)             111.4702         estimate D2E/DX2                !
 ! A19   A(12,4,13)            106.4011         estimate D2E/DX2                !
 ! A20   A(12,4,14)            108.5847         estimate D2E/DX2                !
 ! A21   A(13,4,14)            109.3275         estimate D2E/DX2                !
 ! A22   A(3,5,6)              111.5988         estimate D2E/DX2                !
 ! D1    D(7,1,2,3)            -61.3707         estimate D2E/DX2                !
 ! D2    D(7,1,2,10)            59.8108         estimate D2E/DX2                !
 ! D3    D(7,1,2,11)           177.455          estimate D2E/DX2                !
 ! D4    D(8,1,2,3)             58.8925         estimate D2E/DX2                !
 ! D5    D(8,1,2,10)          -179.9261         estimate D2E/DX2                !
 ! D6    D(8,1,2,11)           -62.2819         estimate D2E/DX2                !
 ! D7    D(9,1,2,3)            178.7839         estimate D2E/DX2                !
 ! D8    D(9,1,2,10)           -60.0346         estimate D2E/DX2                !
 ! D9    D(9,1,2,11)            57.6096         estimate D2E/DX2                !
 ! D10   D(1,2,3,4)            -65.7864         estimate D2E/DX2                !
 ! D11   D(1,2,3,5)            114.0071         estimate D2E/DX2                !
 ! D12   D(10,2,3,4)           172.0215         estimate D2E/DX2                !
 ! D13   D(10,2,3,5)            -8.185          estimate D2E/DX2                !
 ! D14   D(11,2,3,4)            55.5891         estimate D2E/DX2                !
 ! D15   D(11,2,3,5)          -124.6174         estimate D2E/DX2                !
 ! D16   D(2,3,4,12)           112.3344         estimate D2E/DX2                !
 ! D17   D(2,3,4,13)          -130.2301         estimate D2E/DX2                !
 ! D18   D(2,3,4,14)            -8.6843         estimate D2E/DX2                !
 ! D19   D(5,3,4,12)           -67.443          estimate D2E/DX2                !
 ! D20   D(5,3,4,13)            49.9925         estimate D2E/DX2                !
 ! D21   D(5,3,4,14)           171.5383         estimate D2E/DX2                !
 ! D22   D(2,3,5,6)           -179.1683         estimate D2E/DX2                !
 ! D23   D(4,3,5,6)              0.6167         estimate D2E/DX2                !
 --------------------------------------------------------------------------------
 Trust Radius=3.00D-01 FncErr=1.00D-07 GrdErr=1.00D-06 EigMax=2.50D+02 EigMin=1.00D-04
 Number of steps in this run=     68 maximum allowed number of steps=    100.
 GradGradGradGradGradGradGradGradGradGradGradGradGradGradGradGradGradGrad

 Leave Link  103 at Mon Oct 24 15:16:01 2022, MaxMem=  8053063680 cpu:               0.3 elap:               0.0
 (Enter /public3/home/scg5914/software-scg5914/g16/l202.exe)
                          Input orientation:                          
 ---------------------------------------------------------------------
 Center     Atomic      Atomic             Coordinates (Angstroms)
 Number     Number       Type             X           Y           Z
 ---------------------------------------------------------------------
      1          6           0       -0.027135    1.522120    0.052131
      2          6           0        0.032369   -0.012475   -0.030412
      3          6           0        0.728269   -0.509287   -1.271108
      4          6           0        0.119724   -0.261832   -2.626435
      5          7           0        1.832644   -1.128280   -1.091342
      6          8           0        2.405629   -1.531127   -2.312479
      7          1           0        0.980332    1.948148    0.082749
      8          1           0       -0.548394    1.954076   -0.808224
      9          1           0       -0.558032    1.838392    0.954988
     10          1           0        0.556235   -0.414904    0.840776
     11          1           0       -0.990125   -0.413926   -0.013658
     12          1           0        0.734038    0.435626   -3.206409
     13          1           0        0.084870   -1.192880   -3.199574
     14          1           0       -0.888547    0.149082   -2.542858
 ---------------------------------------------------------------------
                    Distance matrix (angstroms):
                    1          2          3          4          5
     1  C    0.000000
     2  C    1.537965   0.000000
     3  C    2.539333   1.506793   0.000000
     4  C    3.221609   2.609434   1.506145   0.000000
     5  N    3.433792   2.368878   1.278715   2.457913   0.000000
     6  O    4.564212   3.625809   2.223094   2.633446   1.407754
     7  H    1.094270   2.180707   2.816993   3.600602   3.401373
     8  H    1.094764   2.193080   2.812879   2.943216   3.905179
     9  H    1.094089   2.178370   3.481619   4.206767   4.324806
    10  H    2.171254   1.093322   2.120980   3.497931   2.423058
    11  H    2.163320   1.098608   2.131468   2.842799   3.104792
    12  H    3.518228   3.283304   2.153667   1.095536   2.850656
    13  H    4.237612   3.382263   2.144818   1.093871   2.739256
    14  H    3.059613   2.680778   2.159837   1.091992   3.338178
                    6          7          8          9         10
     6  O    0.000000
     7  H    4.458020   0.000000
     8  H    4.809956   1.769427   0.000000
     9  H    5.550971   1.771838   1.767029   0.000000
    10  H    3.822202   2.517634   3.090546   2.516342   0.000000
    11  H    4.250161   3.077563   2.536513   2.489561   1.766716
    12  H    2.731564   3.628628   3.114741   4.577600   4.139410
    13  H    2.507442   4.630503   4.002864   5.182887   4.141480
    14  H    3.705101   3.690957   2.526394   3.898453   3.722157
                   11         12         13         14
    11  H    0.000000
    12  H    3.726679   0.000000
    13  H    3.451441   1.753140   0.000000
    14  H    2.593097   1.776286   1.783166   0.000000
 Stoichiometry    C4H8NO(1-)
 Framework group  C1[X(C4H8NO)]
 Deg. of freedom    36
 Full point group                 C1      NOp   1
 Largest Abelian subgroup         C1      NOp   1
 Largest concise Abelian subgroup C1      NOp   1
                         Standard orientation:                         
 ---------------------------------------------------------------------
 Center     Atomic      Atomic             Coordinates (Angstroms)
 Number     Number       Type             X           Y           Z
 ---------------------------------------------------------------------
      1          6           0        2.258541   -0.105375   -0.516181
      2          6           0        1.225045   -0.438554    0.572954
      3          6           0       -0.169929    0.006523    0.217457
      4          6           0       -0.482935    1.474283    0.090250
      5          7           0       -1.031017   -0.921116    0.035458
      6          8           0       -2.291593   -0.397690   -0.309135
      7          1           0        2.011668   -0.613400   -1.453406
      8          1           0        2.301720    0.969716   -0.718228
      9          1           0        3.258394   -0.425745   -0.208469
     10          1           0        1.205147   -1.516615    0.753901
     11          1           0        1.522601    0.047100    1.512389
     12          1           0       -0.708805    1.734420   -0.949707
     13          1           0       -1.376303    1.720847    0.671331
     14          1           0        0.351111    2.091748    0.430179
 ---------------------------------------------------------------------
 Rotational constants (GHZ):           6.8935876           2.2614788           1.9150392
 Leave Link  202 at Mon Oct 24 15:16:01 2022, MaxMem=  8053063680 cpu:               1.5 elap:               0.1
 (Enter /public3/home/scg5914/software-scg5914/g16/l301.exe)
 Standard basis: 6-311+G(d,p) (5D, 7F)
 Ernie: Thresh=  0.10000D-02 Tol=  0.10000D-05 Strict=F.
 There are   186 symmetry adapted cartesian basis functions of A   symmetry.
 There are   180 symmetry adapted basis functions of A   symmetry.
   180 basis functions,   280 primitive gaussians,   186 cartesian basis functions
    24 alpha electrons       24 beta electrons
       nuclear repulsion energy       230.8586702193 Hartrees.
 IExCor=  402 DFT=T Ex+Corr=B3LYP ExCW=0 ScaHFX=  0.200000
 ScaDFX=  0.800000  0.720000  1.000000  0.810000 ScalE2=  1.000000  1.000000
 IRadAn=      5 IRanWt=     -1 IRanGd=            0 ICorTp=0 IEmpDi=141
 NAtoms=   14 NActive=   14 NUniq=   14 SFac= 1.00D+00 NAtFMM=   60 NAOKFM=F Big=F
 Integral buffers will be    131072 words long.
 Raffenetti 2 integral format.
 Two-electron integral symmetry is turned on.
 R6Disp:  Grimme-D3(BJ) Dispersion energy=       -0.0178641533 Hartrees.
 Nuclear repulsion after empirical dispersion term =      230.8408060660 Hartrees.
 Leave Link  301 at Mon Oct 24 15:16:01 2022, MaxMem=  8053063680 cpu:               1.0 elap:               0.0
 (Enter /public3/home/scg5914/software-scg5914/g16/l302.exe)
 NPDir=0 NMtPBC=     1 NCelOv=     1 NCel=       1 NClECP=     1 NCelD=      1
         NCelK=      1 NCelE2=     1 NClLst=     1 CellRange=     0.0.
 One-electron integrals computed using PRISM.
 One-electron integral symmetry used in STVInt
 NBasis=   180 RedAO= T EigKep=  3.24D-05  NBF=   180
 NBsUse=   180 1.00D-06 EigRej= -1.00D+00 NBFU=   180
 Precomputing XC quadrature grid using
 IXCGrd= 4 IRadAn=           5 IRanWt=          -1 IRanGd=           0 AccXCQ= 0.00D+00.
 Generated NRdTot=       0 NPtTot=           0 NUsed=           0 NTot=          32
 NSgBfM=   186   186   186   186   186 MxSgAt=    14 MxSgA2=    14.
 Leave Link  302 at Mon Oct 24 15:16:02 2022, MaxMem=  8053063680 cpu:               3.6 elap:               0.1
 (Enter /public3/home/scg5914/software-scg5914/g16/l303.exe)
 DipDrv:  MaxL=1.
 Leave Link  303 at Mon Oct 24 15:16:02 2022, MaxMem=  8053063680 cpu:               0.5 elap:               0.0
 (Enter /public3/home/scg5914/software-scg5914/g16/l401.exe)
 ExpMin= 4.38D-02 ExpMax= 8.59D+03 ExpMxC= 1.30D+03 IAcc=3 IRadAn=         5 AccDes= 0.00D+00
 Harris functional with IExCor=  402 and IRadAn=       5 diagonalized for initial guess.
 HarFok:  IExCor=  402 AccDes= 0.00D+00 IRadAn=         5 IDoV= 1 UseB2=F ITyADJ=14
 ICtDFT=  3500011 ScaDFX=  1.000000  1.000000  1.000000  1.000000
 FoFCou: FMM=F IPFlag=           0 FMFlag=      100000 FMFlg1=           0
         NFxFlg=           0 DoJE=T BraDBF=F KetDBF=T FulRan=T
         wScrn=  0.000000 ICntrl=       500 IOpCl=  0 I1Cent=   200000004 NGrid=           0
         NMat0=    1 NMatS0=      1 NMatT0=    0 NMatD0=    1 NMtDS0=    0 NMtDT0=    0
 Petite list used in FoFCou.
 Harris En= -287.516245118699    
 JPrj=0 DoOrth=F DoCkMO=F.
 Leave Link  401 at Mon Oct 24 15:16:02 2022, MaxMem=  8053063680 cpu:               9.9 elap:               0.3
 (Enter /public3/home/scg5914/software-scg5914/g16/l502.exe)
 Integral symmetry usage will be decided dynamically.
 Closed shell SCF:
 Using DIIS extrapolation, IDIIS=  1040.
 NGot=  8053063680 LenX=  8052986250 LenY=  8052951213
 Requested convergence on RMS density matrix=1.00D-08 within 128 cycles.
 Requested convergence on MAX density matrix=1.00D-06.
 Requested convergence on             energy=1.00D-06.
 No special actions if energy rises.
 Fock matrices will be formed incrementally for  20 cycles.

 Cycle   1  Pass 1  IDiag  1:
 FoFJK:  IHMeth= 1 ICntrl=       0 DoSepK=F KAlg= 0 I1Cent=           0 FoldK=F
 IRaf= 980000000 NMat=       1 IRICut=       1 DoRegI=T DoRafI=F ISym2E= 0 IDoP0=0 IntGTp=1.
 FoFCou: FMM=F IPFlag=           0 FMFlag=      100000 FMFlg1=           0
         NFxFlg=           0 DoJE=F BraDBF=F KetDBF=F FulRan=T
         wScrn=  0.000000 ICntrl=         0 IOpCl=  0 I1Cent=           0 NGrid=           0
         NMat0=    1 NMatS0=      1 NMatT0=    0 NMatD0=    1 NMtDS0=    0 NMtDT0=    0
 Symmetry not used in FoFCou.
 E= -286.968823530737    
 DIIS: error= 3.54D-02 at cycle   1 NSaved=   1.
 NSaved= 1 IEnMin= 1 EnMin= -286.968823530737     IErMin= 1 ErrMin= 3.54D-02
 ErrMax= 3.54D-02  0.00D+00 EMaxC= 1.00D-01 BMatC= 3.20D-01 BMatP= 3.20D-01
 IDIUse=3 WtCom= 6.46D-01 WtEn= 3.54D-01
 Coeff-Com:  0.100D+01
 Coeff-En:   0.100D+01
 Coeff:      0.100D+01
 Gap=     0.089 Goal=   None    Shift=    0.000
 GapD=    0.089 DampG=0.500 DampE=0.500 DampFc=0.2500 IDamp=-1.
 Damping current iteration by 2.50D-01
 RMSDP=8.48D-01 MaxDP=6.03D+01              OVMax= 9.92D-01

 Cycle   2  Pass 1  IDiag  1:
 RMSU=  2.11D-01    CP:  2.38D+00
 E= -286.886700690949     Delta-E=        0.082122839788 Rises=F Damp=T
 DIIS: error= 2.10D-02 at cycle   2 NSaved=   2.
 NSaved= 2 IEnMin= 1 EnMin= -286.968823530737     IErMin= 2 ErrMin= 2.10D-02
 ErrMax= 2.10D-02  0.00D+00 EMaxC= 1.00D-01 BMatC= 8.05D-02 BMatP= 3.20D-01
 IDIUse=3 WtCom= 7.90D-01 WtEn= 2.10D-01
 Coeff-Com:  0.788D-01 0.921D+00
 Coeff-En:   0.612D+00 0.388D+00
 Coeff:      0.191D+00 0.809D+00
 Gap=     0.006 Goal=   None    Shift=    0.000
 RMSDP=2.12D-01 MaxDP=1.51D+01 DE= 8.21D-02 OVMax= 6.40D-01

 Cycle   3  Pass 1  IDiag  1:
 RMSU=  4.32D-03    CP:  9.90D-01  1.65D-03
 E= -286.960430469370     Delta-E=       -0.073729778421 Rises=F Damp=F
 DIIS: error= 3.93D-02 at cycle   3 NSaved=   3.
 NSaved= 3 IEnMin= 1 EnMin= -286.968823530737     IErMin= 2 ErrMin= 2.10D-02
 ErrMax= 3.93D-02  0.00D+00 EMaxC= 1.00D-01 BMatC= 3.15D-01 BMatP= 8.05D-02
 IDIUse=2 WtCom= 0.00D+00 WtEn= 1.00D+00
 EnCoef did     2 forward-backward iterations
 Coeff-En:   0.188D+00 0.356D+00 0.457D+00
 Coeff:      0.188D+00 0.356D+00 0.457D+00
 Gap=     0.174 Goal=   None    Shift=    0.000
 RMSDP=8.73D-02 MaxDP=8.41D+00 DE=-7.37D-02 OVMax= 7.30D-01

 Cycle   4  Pass 1  IDiag  1:
 RMSU=  8.43D-02    CP:  1.61D+00  6.82D-02  3.00D+00
 E= -286.441478172020     Delta-E=        0.518952297350 Rises=F Damp=F
 DIIS: error= 6.93D-02 at cycle   4 NSaved=   4.
 NSaved= 4 IEnMin= 1 EnMin= -286.968823530737     IErMin= 2 ErrMin= 2.10D-02
 ErrMax= 6.93D-02  0.00D+00 EMaxC= 1.00D-01 BMatC= 8.20D-01 BMatP= 8.05D-02
 IDIUse=2 WtCom= 0.00D+00 WtEn= 1.00D+00
 EnCoef did     2 forward-backward iterations
 Coeff-En:   0.207D+00 0.000D+00 0.499D+00 0.294D+00
 Coeff:      0.207D+00 0.000D+00 0.499D+00 0.294D+00
 Gap=     0.007 Goal=   None    Shift=    0.000
 RMSDP=8.01D-02 MaxDP=7.95D+00 DE= 5.19D-01 OVMax= 6.84D-01

 Cycle   5  Pass 1  IDiag  1:
 RMSU=  8.41D-03    CP:  1.12D+00  4.46D-03  1.27D+00  8.76D-02
 E= -287.271542934382     Delta-E=       -0.830064762362 Rises=F Damp=F
 DIIS: error= 5.02D-03 at cycle   5 NSaved=   5.
 NSaved= 5 IEnMin= 5 EnMin= -287.271542934382     IErMin= 5 ErrMin= 5.02D-03
 ErrMax= 5.02D-03  0.00D+00 EMaxC= 1.00D-01 BMatC= 7.27D-03 BMatP= 8.05D-02
 IDIUse=3 WtCom= 9.50D-01 WtEn= 5.02D-02
 Coeff-Com: -0.717D-01 0.182D+00 0.165D+00 0.521D-03 0.725D+00
 Coeff-En:   0.000D+00 0.000D+00 0.000D+00 0.000D+00 0.100D+01
 Coeff:     -0.681D-01 0.173D+00 0.156D+00 0.495D-03 0.739D+00
 Gap=     0.116 Goal=   None    Shift=    0.000
 RMSDP=4.60D-03 MaxDP=3.49D-01 DE=-8.30D-01 OVMax= 4.53D-02

 Cycle   6  Pass 1  IDiag  1:
 RMSU=  1.38D-03    CP:  1.08D+00  4.13D-03  9.91D-01  4.86D-02  6.98D-01
 E= -287.273613521096     Delta-E=       -0.002070586715 Rises=F Damp=F
 DIIS: error= 4.31D-03 at cycle   6 NSaved=   6.
 NSaved= 6 IEnMin= 6 EnMin= -287.273613521096     IErMin= 6 ErrMin= 4.31D-03
 ErrMax= 4.31D-03  0.00D+00 EMaxC= 1.00D-01 BMatC= 4.28D-03 BMatP= 7.27D-03
 IDIUse=3 WtCom= 9.57D-01 WtEn= 4.31D-02
 Coeff-Com: -0.727D-01 0.127D+00 0.557D-01-0.580D-02 0.394D+00 0.501D+00
 Coeff-En:   0.000D+00 0.000D+00 0.000D+00 0.000D+00 0.385D+00 0.615D+00
 Coeff:     -0.696D-01 0.122D+00 0.533D-01-0.555D-02 0.394D+00 0.506D+00
 Gap=     0.106 Goal=   None    Shift=    0.000
 RMSDP=1.72D-03 MaxDP=1.44D-01 DE=-2.07D-03 OVMax= 1.39D-02

 Cycle   7  Pass 1  IDiag  1:
 RMSU=  4.42D-04    CP:  1.09D+00  4.63D-03  1.14D+00  6.15D-02  8.19D-01
                    CP:  7.84D-01
 E= -287.276684742239     Delta-E=       -0.003071221143 Rises=F Damp=F
 DIIS: error= 3.37D-03 at cycle   7 NSaved=   7.
 NSaved= 7 IEnMin= 7 EnMin= -287.276684742239     IErMin= 7 ErrMin= 3.37D-03
 ErrMax= 3.37D-03  0.00D+00 EMaxC= 1.00D-01 BMatC= 1.71D-03 BMatP= 4.28D-03
 IDIUse=3 WtCom= 9.66D-01 WtEn= 3.37D-02
 Coeff-Com: -0.479D-01 0.626D-01-0.240D-01 0.456D-02 0.327D-01 0.160D+00
 Coeff-Com:  0.812D+00
 Coeff-En:   0.000D+00 0.000D+00 0.000D+00 0.000D+00 0.515D-01 0.000D+00
 Coeff-En:   0.949D+00
 Coeff:     -0.463D-01 0.605D-01-0.231D-01 0.440D-02 0.333D-01 0.154D+00
 Coeff:      0.817D+00
 Gap=     0.104 Goal=   None    Shift=    0.000
 RMSDP=5.66D-04 MaxDP=5.24D-02 DE=-3.07D-03 OVMax= 1.07D-02

 Cycle   8  Pass 1  IDiag  1:
 RMSU=  2.58D-04    CP:  1.10D+00  4.84D-03  1.16D+00  6.48D-02  8.67D-01
                    CP:  8.00D-01  1.02D+00
 E= -287.277845697251     Delta-E=       -0.001160955012 Rises=F Damp=F
 DIIS: error= 1.86D-03 at cycle   8 NSaved=   8.
 NSaved= 8 IEnMin= 8 EnMin= -287.277845697251     IErMin= 8 ErrMin= 1.86D-03
 ErrMax= 1.86D-03  0.00D+00 EMaxC= 1.00D-01 BMatC= 5.03D-04 BMatP= 1.71D-03
 IDIUse=3 WtCom= 9.81D-01 WtEn= 1.86D-02
 Coeff-Com: -0.238D-01 0.269D-01-0.190D-01 0.458D-02-0.239D-02-0.428D-01
 Coeff-Com:  0.204D+00 0.853D+00
 Coeff-En:   0.000D+00 0.000D+00 0.000D+00 0.000D+00 0.000D+00 0.000D+00
 Coeff-En:   0.000D+00 0.100D+01
 Coeff:     -0.234D-01 0.264D-01-0.186D-01 0.450D-02-0.235D-02-0.420D-01
 Coeff:      0.200D+00 0.856D+00
 Gap=     0.098 Goal=   None    Shift=    0.000
 RMSDP=1.03D-03 MaxDP=8.97D-02 DE=-1.16D-03 OVMax= 1.09D-02

 Cycle   9  Pass 1  IDiag  1:
 RMSU=  1.41D-04    CP:  1.11D+00  5.24D-03  1.23D+00  7.28D-02  9.41D-01
                    CP:  7.03D-01  1.36D+00  1.22D+00
 E= -287.278323442771     Delta-E=       -0.000477745520 Rises=F Damp=F
 DIIS: error= 1.06D-03 at cycle   9 NSaved=   9.
 NSaved= 9 IEnMin= 9 EnMin= -287.278323442771     IErMin= 9 ErrMin= 1.06D-03
 ErrMax= 1.06D-03  0.00D+00 EMaxC= 1.00D-01 BMatC= 1.39D-04 BMatP= 5.03D-04
 IDIUse=3 WtCom= 9.89D-01 WtEn= 1.06D-02
 Coeff-Com: -0.278D-03 0.263D-02-0.878D-03 0.728D-03-0.204D-01-0.156D+00
 Coeff-Com: -0.386D+00 0.790D+00 0.771D+00
 Coeff-En:   0.000D+00 0.000D+00 0.000D+00 0.000D+00 0.000D+00 0.000D+00
 Coeff-En:   0.000D+00 0.000D+00 0.100D+01
 Coeff:     -0.275D-03 0.260D-02-0.868D-03 0.720D-03-0.202D-01-0.155D+00
 Coeff:     -0.382D+00 0.782D+00 0.773D+00
 Gap=     0.095 Goal=   None    Shift=    0.000
 RMSDP=6.05D-04 MaxDP=5.81D-02 DE=-4.78D-04 OVMax= 6.14D-03

 Cycle  10  Pass 1  IDiag  1:
 RMSU=  6.71D-05    CP:  1.11D+00  5.46D-03  1.27D+00  7.70D-02  9.88D-01
                    CP:  6.66D-01  1.51D+00  1.95D+00  1.26D+00
 E= -287.278454764269     Delta-E=       -0.000131321498 Rises=F Damp=F
 DIIS: error= 6.37D-05 at cycle  10 NSaved=  10.
 NSaved=10 IEnMin=10 EnMin= -287.278454764269     IErMin=10 ErrMin= 6.37D-05
 ErrMax= 6.37D-05  0.00D+00 EMaxC= 1.00D-01 BMatC= 1.54D-06 BMatP= 1.39D-04
 IDIUse=1 WtCom= 1.00D+00 WtEn= 0.00D+00
 Coeff-Com:  0.448D-03 0.689D-04 0.143D-02 0.575D-04-0.348D-02-0.507D-01
 Coeff-Com: -0.149D+00 0.215D+00 0.289D+00 0.697D+00
 Coeff:      0.448D-03 0.689D-04 0.143D-02 0.575D-04-0.348D-02-0.507D-01
 Coeff:     -0.149D+00 0.215D+00 0.289D+00 0.697D+00
 Gap=     0.095 Goal=   None    Shift=    0.000
 RMSDP=9.98D-05 MaxDP=7.80D-03 DE=-1.31D-04 OVMax= 8.35D-04

 Cycle  11  Pass 1  IDiag  1:
 RMSU=  1.76D-05    CP:  1.12D+00  5.50D-03  1.28D+00  7.78D-02  9.94D-01
                    CP:  6.50D-01  1.55D+00  1.96D+00  1.36D+00  9.55D-01
 E= -287.278456279053     Delta-E=       -0.000001514784 Rises=F Damp=F
 DIIS: error= 2.37D-05 at cycle  11 NSaved=  11.
 NSaved=11 IEnMin=11 EnMin= -287.278456279053     IErMin=11 ErrMin= 2.37D-05
 ErrMax= 2.37D-05  0.00D+00 EMaxC= 1.00D-01 BMatC= 1.98D-07 BMatP= 1.54D-06
 IDIUse=1 WtCom= 1.00D+00 WtEn= 0.00D+00
 Coeff-Com:  0.152D-03-0.147D-03 0.685D-03 0.160D-04-0.118D-04-0.116D-01
 Coeff-Com: -0.361D-01 0.455D-01 0.728D-01 0.301D+00 0.628D+00
 Coeff:      0.152D-03-0.147D-03 0.685D-03 0.160D-04-0.118D-04-0.116D-01
 Coeff:     -0.361D-01 0.455D-01 0.728D-01 0.301D+00 0.628D+00
 Gap=     0.095 Goal=   None    Shift=    0.000
 RMSDP=1.09D-05 MaxDP=7.38D-04 DE=-1.51D-06 OVMax= 1.07D-04

 Cycle  12  Pass 1  IDiag  1:
 RMSU=  3.93D-06    CP:  1.12D+00  5.50D-03  1.28D+00  7.79D-02  9.95D-01
                    CP:  6.49D-01  1.55D+00  1.97D+00  1.36D+00  1.01D+00
                    CP:  1.03D+00
 E= -287.278456433586     Delta-E=       -0.000000154533 Rises=F Damp=F
 DIIS: error= 1.62D-05 at cycle  12 NSaved=  12.
 NSaved=12 IEnMin=12 EnMin= -287.278456433586     IErMin=12 ErrMin= 1.62D-05
 ErrMax= 1.62D-05  0.00D+00 EMaxC= 1.00D-01 BMatC= 4.77D-08 BMatP= 1.98D-07
 IDIUse=1 WtCom= 1.00D+00 WtEn= 0.00D+00
 Coeff-Com:  0.781D-04-0.132D-03 0.109D-03 0.530D-05 0.520D-04-0.213D-03
 Coeff-Com:  0.121D-02 0.989D-03 0.228D-02 0.507D-01 0.242D+00 0.703D+00
 Coeff:      0.781D-04-0.132D-03 0.109D-03 0.530D-05 0.520D-04-0.213D-03
 Coeff:      0.121D-02 0.989D-03 0.228D-02 0.507D-01 0.242D+00 0.703D+00
 Gap=     0.095 Goal=   None    Shift=    0.000
 RMSDP=2.68D-06 MaxDP=1.29D-04 DE=-1.55D-07 OVMax= 4.93D-05

 Cycle  13  Pass 1  IDiag  1:
 RMSU=  1.24D-06    CP:  1.12D+00  5.50D-03  1.28D+00  7.79D-02  9.94D-01
                    CP:  6.49D-01  1.55D+00  1.97D+00  1.37D+00  1.03D+00
                    CP:  1.08D+00  1.27D+00
 E= -287.278456470411     Delta-E=       -0.000000036825 Rises=F Damp=F
 DIIS: error= 7.08D-06 at cycle  13 NSaved=  13.
 NSaved=13 IEnMin=13 EnMin= -287.278456470411     IErMin=13 ErrMin= 7.08D-06
 ErrMax= 7.08D-06  0.00D+00 EMaxC= 1.00D-01 BMatC= 9.52D-09 BMatP= 4.77D-08
 IDIUse=1 WtCom= 1.00D+00 WtEn= 0.00D+00
 Coeff-Com:  0.352D-04-0.432D-04-0.120D-04 0.146D-05-0.374D-04 0.474D-03
 Coeff-Com:  0.318D-02-0.802D-03-0.307D-02-0.302D-02 0.236D-01 0.186D+00
 Coeff-Com:  0.793D+00
 Coeff:      0.352D-04-0.432D-04-0.120D-04 0.146D-05-0.374D-04 0.474D-03
 Coeff:      0.318D-02-0.802D-03-0.307D-02-0.302D-02 0.236D-01 0.186D+00
 Coeff:      0.793D+00
 Gap=     0.095 Goal=   None    Shift=    0.000
 RMSDP=3.59D-06 MaxDP=3.69D-04 DE=-3.68D-08 OVMax= 3.13D-05

 Cycle  14  Pass 1  IDiag  1:
 RMSU=  4.10D-07    CP:  1.12D+00  5.50D-03  1.28D+00  7.79D-02  9.94D-01
                    CP:  6.49D-01  1.55D+00  1.97D+00  1.36D+00  1.04D+00
                    CP:  1.11D+00  1.38D+00  1.21D+00
 E= -287.278456479135     Delta-E=       -0.000000008724 Rises=F Damp=F
 DIIS: error= 2.23D-06 at cycle  14 NSaved=  14.
 NSaved=14 IEnMin=14 EnMin= -287.278456479135     IErMin=14 ErrMin= 2.23D-06
 ErrMax= 2.23D-06  0.00D+00 EMaxC= 1.00D-01 BMatC= 8.12D-10 BMatP= 9.52D-09
 IDIUse=1 WtCom= 1.00D+00 WtEn= 0.00D+00
 Coeff-Com:  0.113D-04-0.109D-04-0.112D-04 0.190D-06-0.273D-04 0.809D-04
 Coeff-Com:  0.100D-02 0.247D-03-0.884D-03-0.349D-02-0.106D-01-0.313D-03
 Coeff-Com:  0.232D+00 0.782D+00
 Coeff:      0.113D-04-0.109D-04-0.112D-04 0.190D-06-0.273D-04 0.809D-04
 Coeff:      0.100D-02 0.247D-03-0.884D-03-0.349D-02-0.106D-01-0.313D-03
 Coeff:      0.232D+00 0.782D+00
 Gap=     0.095 Goal=   None    Shift=    0.000
 RMSDP=1.37D-06 MaxDP=1.38D-04 DE=-8.72D-09 OVMax= 9.73D-06

 Cycle  15  Pass 1  IDiag  1:
 RMSU=  9.98D-08    CP:  1.12D+00  5.50D-03  1.28D+00  7.79D-02  9.94D-01
                    CP:  6.49D-01  1.55D+00  1.97D+00  1.36D+00  1.04D+00
                    CP:  1.12D+00  1.42D+00  1.33D+00  1.16D+00
 E= -287.278456479911     Delta-E=       -0.000000000776 Rises=F Damp=F
 DIIS: error= 4.88D-07 at cycle  15 NSaved=  15.
 NSaved=15 IEnMin=15 EnMin= -287.278456479911     IErMin=15 ErrMin= 4.88D-07
 ErrMax= 4.88D-07  0.00D+00 EMaxC= 1.00D-01 BMatC= 5.35D-11 BMatP= 8.12D-10
 IDIUse=1 WtCom= 1.00D+00 WtEn= 0.00D+00
 Coeff-Com:  0.185D-05-0.107D-05-0.301D-05 0.315D-07-0.113D-04-0.458D-04
 Coeff-Com:  0.983D-04 0.386D-03-0.199D-04-0.847D-03-0.689D-02-0.219D-01
 Coeff-Com:  0.696D-02 0.376D+00 0.646D+00
 Coeff:      0.185D-05-0.107D-05-0.301D-05 0.315D-07-0.113D-04-0.458D-04
 Coeff:      0.983D-04 0.386D-03-0.199D-04-0.847D-03-0.689D-02-0.219D-01
 Coeff:      0.696D-02 0.376D+00 0.646D+00
 Gap=     0.095 Goal=   None    Shift=    0.000
 RMSDP=4.68D-07 MaxDP=4.49D-05 DE=-7.76D-10 OVMax= 2.79D-06

 Cycle  16  Pass 1  IDiag  1:
 RMSU=  3.32D-08    CP:  1.12D+00  5.50D-03  1.28D+00  7.79D-02  9.94D-01
                    CP:  6.49D-01  1.55D+00  1.97D+00  1.36D+00  1.04D+00
                    CP:  1.12D+00  1.43D+00  1.37D+00  1.25D+00  1.11D+00
 E= -287.278456479962     Delta-E=       -0.000000000051 Rises=F Damp=F
 DIIS: error= 6.45D-08 at cycle  16 NSaved=  16.
 NSaved=16 IEnMin=16 EnMin= -287.278456479962     IErMin=16 ErrMin= 6.45D-08
 ErrMax= 6.45D-08  0.00D+00 EMaxC= 1.00D-01 BMatC= 1.12D-12 BMatP= 5.35D-11
 IDIUse=1 WtCom= 1.00D+00 WtEn= 0.00D+00
 Coeff-Com: -0.660D-06 0.722D-06 0.608D-06-0.540D-07-0.121D-05-0.264D-04
 Coeff-Com: -0.567D-04 0.123D-03 0.341D-04 0.196D-03-0.567D-03-0.571D-02
 Coeff-Com: -0.203D-01 0.377D-01 0.189D+00 0.800D+00
 Coeff:     -0.660D-06 0.722D-06 0.608D-06-0.540D-07-0.121D-05-0.264D-04
 Coeff:     -0.567D-04 0.123D-03 0.341D-04 0.196D-03-0.567D-03-0.571D-02
 Coeff:     -0.203D-01 0.377D-01 0.189D+00 0.800D+00
 Gap=     0.095 Goal=   None    Shift=    0.000
 RMSDP=1.23D-07 MaxDP=1.14D-05 DE=-5.07D-11 OVMax= 5.07D-07

 Cycle  17  Pass 1  IDiag  1:
 RMSU=  9.31D-09    CP:  1.12D+00  5.50D-03  1.28D+00  7.79D-02  9.94D-01
                    CP:  6.49D-01  1.55D+00  1.97D+00  1.36D+00  1.04D+00
                    CP:  1.12D+00  1.43D+00  1.37D+00  1.29D+00  1.16D+00
                    CP:  1.22D+00
 E= -287.278456479964     Delta-E=       -0.000000000002 Rises=F Damp=F
 DIIS: error= 2.54D-08 at cycle  17 NSaved=  17.
 NSaved=17 IEnMin=17 EnMin= -287.278456479964     IErMin=17 ErrMin= 2.54D-08
 ErrMax= 2.54D-08  0.00D+00 EMaxC= 1.00D-01 BMatC= 1.29D-13 BMatP= 1.12D-12
 IDIUse=1 WtCom= 1.00D+00 WtEn= 0.00D+00
 Coeff-Com: -0.211D-06 0.146D-06 0.214D-06-0.118D-07 0.451D-07-0.468D-05
 Coeff-Com: -0.138D-04 0.104D-04-0.596D-05 0.553D-04 0.961D-04-0.484D-03
 Coeff-Com: -0.380D-02-0.395D-02 0.196D-01 0.173D+00 0.816D+00
 Coeff:     -0.211D-06 0.146D-06 0.214D-06-0.118D-07 0.451D-07-0.468D-05
 Coeff:     -0.138D-04 0.104D-04-0.596D-05 0.553D-04 0.961D-04-0.484D-03
 Coeff:     -0.380D-02-0.395D-02 0.196D-01 0.173D+00 0.816D+00
 Gap=     0.095 Goal=   None    Shift=    0.000
 RMSDP=5.37D-09 MaxDP=2.05D-07 DE=-1.59D-12 OVMax= 2.01D-07

 SCF Done:  E(RB3LYP) =  -287.278456480     A.U. after   17 cycles
            NFock= 17  Conv=0.54D-08     -V/T= 2.0042
 KE= 2.860794526070D+02 PE=-1.141783865338D+03 EE= 3.375851501855D+02
 Leave Link  502 at Mon Oct 24 15:16:09 2022, MaxMem=  8053063680 cpu:             209.0 elap:               6.6
 (Enter /public3/home/scg5914/software-scg5914/g16/l601.exe)
 Copying SCF densities to generalized density rwf, IOpCl= 0 IROHF=0.

 **********************************************************************

            Population analysis using the SCF Density.

 **********************************************************************

 Orbital symmetries:
       Occupied  (A) (A) (A) (A) (A) (A) (A) (A) (A) (A) (A) (A)
                 (A) (A) (A) (A) (A) (A) (A) (A) (A) (A) (A) (A)
       Virtual   (A) (A) (A) (A) (A) (A) (A) (A) (A) (A) (A) (A)
                 (A) (A) (A) (A) (A) (A) (A) (A) (A) (A) (A) (A)
                 (A) (A) (A) (A) (A) (A) (A) (A) (A) (A) (A) (A)
                 (A) (A) (A) (A) (A) (A) (A) (A) (A) (A) (A) (A)
                 (A) (A) (A) (A) (A) (A) (A) (A) (A) (A) (A) (A)
                 (A) (A) (A) (A) (A) (A) (A) (A) (A) (A) (A) (A)
                 (A) (A) (A) (A) (A) (A) (A) (A) (A) (A) (A) (A)
                 (A) (A) (A) (A) (A) (A) (A) (A) (A) (A) (A) (A)
                 (A) (A) (A) (A) (A) (A) (A) (A) (A) (A) (A) (A)
                 (A) (A) (A) (A) (A) (A) (A) (A) (A) (A) (A) (A)
                 (A) (A) (A) (A) (A) (A) (A) (A) (A) (A) (A) (A)
                 (A) (A) (A) (A) (A) (A) (A) (A) (A) (A) (A) (A)
                 (A) (A) (A) (A) (A) (A) (A) (A) (A) (A) (A) (A)
 The electronic state is 1-A.
 Alpha  occ. eigenvalues --  -18.84847 -14.13627 -10.02925 -10.01732  -9.99890
 Alpha  occ. eigenvalues --   -9.99159  -0.77836  -0.64334  -0.57934  -0.53407
 Alpha  occ. eigenvalues --   -0.47474  -0.33773  -0.30712  -0.28147  -0.26011
 Alpha  occ. eigenvalues --   -0.24498  -0.23924  -0.22202  -0.19418  -0.18176
 Alpha  occ. eigenvalues --   -0.14144  -0.09788   0.00541   0.01690
 Alpha virt. eigenvalues --    0.11204   0.13502   0.13803   0.15886   0.17183
 Alpha virt. eigenvalues --    0.17755   0.18833   0.19584   0.20182   0.20701
 Alpha virt. eigenvalues --    0.22258   0.22805   0.23433   0.24893   0.26104
 Alpha virt. eigenvalues --    0.27176   0.28754   0.29802   0.31041   0.33055
 Alpha virt. eigenvalues --    0.33674   0.34642   0.35147   0.36450   0.37002
 Alpha virt. eigenvalues --    0.37705   0.38542   0.39662   0.41237   0.42322
 Alpha virt. eigenvalues --    0.43329   0.43640   0.44744   0.46213   0.47635
 Alpha virt. eigenvalues --    0.53169   0.54754   0.55367   0.56627   0.59281
 Alpha virt. eigenvalues --    0.60847   0.61841   0.66046   0.67650   0.69407
 Alpha virt. eigenvalues --    0.73177   0.75568   0.76337   0.77752   0.78466
 Alpha virt. eigenvalues --    0.80026   0.81164   0.82194   0.83478   0.86529
 Alpha virt. eigenvalues --    0.87857   0.89001   0.91861   0.96591   1.02587
 Alpha virt. eigenvalues --    1.06462   1.10250   1.11096   1.14427   1.16027
 Alpha virt. eigenvalues --    1.19005   1.25784   1.32392   1.35271   1.37632
 Alpha virt. eigenvalues --    1.39401   1.41564   1.44691   1.48969   1.56704
 Alpha virt. eigenvalues --    1.58827   1.62056   1.64272   1.65937   1.67421
 Alpha virt. eigenvalues --    1.70902   1.72952   1.73882   1.74818   1.76755
 Alpha virt. eigenvalues --    1.78598   1.79933   1.83870   1.84132   1.86199
 Alpha virt. eigenvalues --    1.92153   1.95836   2.00270   2.00556   2.02309
 Alpha virt. eigenvalues --    2.09957   2.15487   2.19013   2.22901   2.24842
 Alpha virt. eigenvalues --    2.26662   2.29160   2.33963   2.40239   2.46986
 Alpha virt. eigenvalues --    2.50577   2.51254   2.57187   2.59700   2.61088
 Alpha virt. eigenvalues --    2.61939   2.64169   2.68272   2.69773   2.71362
 Alpha virt. eigenvalues --    2.74063   2.76457   2.77403   2.81326   2.82655
 Alpha virt. eigenvalues --    2.83918   2.89823   2.92919   2.93992   2.95634
 Alpha virt. eigenvalues --    3.04463   3.09455   3.11765   3.17243   3.18032
 Alpha virt. eigenvalues --    3.28009   3.34834   3.38011   3.49075   3.55254
 Alpha virt. eigenvalues --    3.71221   3.92729   3.93718   3.95463   4.00221
 Alpha virt. eigenvalues --    4.02410   4.10988   4.12942   4.34123   4.44241
 Alpha virt. eigenvalues --    4.55964   4.88497   5.26664   5.36699   5.88248
 Alpha virt. eigenvalues --   24.02378  24.08564  24.10514  24.14435  35.76807
 Alpha virt. eigenvalues --   50.16552
          Condensed to atoms (all electrons):
               1          2          3          4          5          6
     1  C    5.493459   0.355321  -0.524247   0.027023   0.034811   0.028386
     2  C    0.355321   5.863485  -0.745282  -0.029770  -0.063487   0.166664
     3  C   -0.524247  -0.745282   9.555849  -2.035124   0.111102  -0.578524
     4  C    0.027023  -0.029770  -2.035124   7.285131   0.142059   0.227637
     5  N    0.034811  -0.063487   0.111102   0.142059   6.934050   0.072929
     6  O    0.028386   0.166664  -0.578524   0.227637   0.072929   8.639761
     7  H    0.439407  -0.041341  -0.044073   0.011078   0.004949  -0.000145
     8  H    0.407569  -0.018933  -0.010156  -0.008538  -0.001457  -0.000441
     9  H    0.385888  -0.080934   0.067493  -0.004933  -0.001980   0.000021
    10  H   -0.058106   0.447160  -0.002795  -0.002197  -0.019627  -0.002962
    11  H   -0.089089   0.463723  -0.133780   0.043856   0.008167   0.000839
    12  H   -0.017816  -0.015594   0.031522   0.382950  -0.003194  -0.019328
    13  H   -0.001577  -0.034677   0.016091   0.396913   0.000354  -0.018944
    14  H    0.023834   0.065516  -0.113927   0.349992   0.004245   0.014666
               7          8          9         10         11         12
     1  C    0.439407   0.407569   0.385888  -0.058106  -0.089089  -0.017816
     2  C   -0.041341  -0.018933  -0.080934   0.447160   0.463723  -0.015594
     3  C   -0.044073  -0.010156   0.067493  -0.002795  -0.133780   0.031522
     4  C    0.011078  -0.008538  -0.004933  -0.002197   0.043856   0.382950
     5  N    0.004949  -0.001457  -0.001980  -0.019627   0.008167  -0.003194
     6  O   -0.000145  -0.000441   0.000021  -0.002962   0.000839  -0.019328
     7  H    0.554278  -0.032502  -0.032165  -0.005741   0.008886   0.000616
     8  H   -0.032502   0.585989  -0.038185   0.007457  -0.009545   0.000256
     9  H   -0.032165  -0.038185   0.620736  -0.007209  -0.004319  -0.000021
    10  H   -0.005741   0.007457  -0.007209   0.535573  -0.037597  -0.000163
    11  H    0.008886  -0.009545  -0.004319  -0.037597   0.653473  -0.000856
    12  H    0.000616   0.000256  -0.000021  -0.000163  -0.000856   0.564338
    13  H   -0.000059  -0.000160   0.000044  -0.000407   0.002422  -0.021173
    14  H   -0.000039  -0.000562  -0.000279   0.000459  -0.001713  -0.046949
              13         14
     1  C   -0.001577   0.023834
     2  C   -0.034677   0.065516
     3  C    0.016091  -0.113927
     4  C    0.396913   0.349992
     5  N    0.000354   0.004245
     6  O   -0.018944   0.014666
     7  H   -0.000059  -0.000039
     8  H   -0.000160  -0.000562
     9  H    0.000044  -0.000279
    10  H   -0.000407   0.000459
    11  H    0.002422  -0.001713
    12  H   -0.021173  -0.046949
    13  H    0.542645  -0.038978
    14  H   -0.038978   0.669828
 Mulliken charges:
               1
     1  C   -0.504863
     2  C   -0.331848
     3  C    0.405850
     4  C   -0.786077
     5  N   -0.222921
     6  O   -0.530559
     7  H    0.136850
     8  H    0.119210
     9  H    0.095843
    10  H    0.146157
    11  H    0.095532
    12  H    0.145412
    13  H    0.157505
    14  H    0.073907
 Sum of Mulliken charges =  -1.00000
 Mulliken charges with hydrogens summed into heavy atoms:
               1
     1  C   -0.152959
     2  C   -0.090159
     3  C    0.405850
     4  C   -0.409253
     5  N   -0.222921
     6  O   -0.530559
 Electronic spatial extent (au):  <R**2>=            701.9080
 Charge=             -1.0000 electrons
 Dipole moment (field-independent basis, Debye):
    X=              7.2486    Y=              2.6964    Z=              0.8293  Tot=              7.7782
 Quadrupole moment (field-independent basis, Debye-Ang):
   XX=            -65.0862   YY=            -47.1065   ZZ=            -43.0267
   XY=             -4.9880   XZ=             -2.3036   YZ=             -0.2416
 Traceless Quadrupole moment (field-independent basis, Debye-Ang):
   XX=            -13.3464   YY=              4.6333   ZZ=              8.7131
   XY=             -4.9880   XZ=             -2.3036   YZ=             -0.2416
 Octapole moment (field-independent basis, Debye-Ang**2):
  XXX=             31.5249  YYY=              0.8572  ZZZ=             -0.9138  XYY=              4.2420
  XXY=             10.0391  XXZ=              7.7243  XZZ=             -1.2121  YZZ=              0.3474
  YYZ=             -0.5445  XYZ=              1.0888
 Hexadecapole moment (field-independent basis, Debye-Ang**3):
 XXXX=           -820.5125 YYYY=           -269.1994 ZZZZ=           -115.0610 XXXY=            -23.9780
 XXXZ=             -7.4028 YYYX=             -3.7651 YYYZ=             -0.7589 ZZZX=             -1.0973
 ZZZY=              0.9229 XXYY=           -160.9595 XXZZ=           -140.2092 YYZZ=            -61.2044
 XXYZ=             -2.0045 YYXZ=             -0.2355 ZZXY=             -0.9796
 N-N= 2.308408060660D+02 E-N=-1.141783862113D+03  KE= 2.860794526070D+02
 No NMR shielding tensors so no spin-rotation constants.
 Leave Link  601 at Mon Oct 24 15:16:09 2022, MaxMem=  8053063680 cpu:               2.4 elap:               0.1
 (Enter /public3/home/scg5914/software-scg5914/g16/l701.exe)
 ... and contract with generalized density number  0.
 Compute integral first derivatives.
 R6Disp: Adding Grimme-D3(BJ) dispersion energy 1st derivatives to the gradient.
 Leave Link  701 at Mon Oct 24 15:16:09 2022, MaxMem=  8053063680 cpu:               2.8 elap:               0.1
 (Enter /public3/home/scg5914/software-scg5914/g16/l702.exe)
 L702 exits ... SP integral derivatives will be done elsewhere.
 Leave Link  702 at Mon Oct 24 15:16:09 2022, MaxMem=  8053063680 cpu:               0.3 elap:               0.0
 (Enter /public3/home/scg5914/software-scg5914/g16/l703.exe)
 Integral derivatives from FoFJK, PRISM(SPDF).
 Compute integral first derivatives, UseDBF=F ICtDFT=           0.
 Calling FoFJK, ICntrl=      2127 FMM=F ISym2X=0 I1Cent= 0 IOpClX= 0 NMat=1 NMatS=1 NMatT=0.
 FoFJK:  IHMeth= 1 ICntrl=    2127 DoSepK=F KAlg= 0 I1Cent=           0 FoldK=F
 IRaf=         0 NMat=       1 IRICut=       1 DoRegI=T DoRafI=F ISym2E= 0 IDoP0=0 IntGTp=1.
 FoFCou: FMM=F IPFlag=           0 FMFlag=      100000 FMFlg1=         800
         NFxFlg=           0 DoJE=F BraDBF=F KetDBF=F FulRan=T
         wScrn=  0.000000 ICntrl=      2127 IOpCl=  0 I1Cent=           0 NGrid=           0
         NMat0=    1 NMatS0=      1 NMatT0=    0 NMatD0=    1 NMtDS0=    0 NMtDT0=    0
 Symmetry not used in FoFCou.
 Leave Link  703 at Mon Oct 24 15:16:10 2022, MaxMem=  8053063680 cpu:              24.5 elap:               0.8
 (Enter /public3/home/scg5914/software-scg5914/g16/l716.exe)
 Dipole        = 2.85183622D+00 1.06083571D+00 3.26279487D-01
 ***** Axes restored to original set *****
 -------------------------------------------------------------------
 Center     Atomic                   Forces (Hartrees/Bohr)
 Number     Number              X              Y              Z
 -------------------------------------------------------------------
      1        6          -0.001665823   -0.000621500    0.002838246
      2        6          -0.001799494    0.002448746   -0.007247816
      3        6          -0.017586300    0.010317295    0.012483548
      4        6           0.001139609   -0.000569500    0.002903195
      5        7           0.031237151   -0.021441857   -0.052033770
      6        8          -0.006232758    0.006361710    0.038280625
      7        1           0.000332016   -0.000899876   -0.000604557
      8        1           0.000330326   -0.000511842   -0.000412190
      9        1          -0.001580931    0.002758740    0.002307740
     10        1           0.000941879   -0.000032487   -0.000566950
     11        1          -0.004409166    0.001367107    0.002846260
     12        1           0.000948487   -0.000522950   -0.001717512
     13        1           0.001981025   -0.000692340   -0.000372380
     14        1          -0.003636020    0.002038755    0.001295562
 -------------------------------------------------------------------
 Cartesian Forces:  Max     0.052033770 RMS     0.012361569
 Leave Link  716 at Mon Oct 24 15:16:10 2022, MaxMem=  8053063680 cpu:               0.6 elap:               0.0
 (Enter /public3/home/scg5914/software-scg5914/g16/l103.exe)

 GradGradGradGradGradGradGradGradGradGradGradGradGradGradGradGradGradGrad
 Berny optimization.
 FormGI is forming the generalized inverse of G from B-inverse, IUseBI=4.
 Internal  Forces:  Max     0.037563230 RMS     0.007599808
 Search for a local minimum.
 Step number   1 out of a maximum of   68
 All quantities printed in internal units (Hartrees-Bohrs-Radians)
 RMS Force = .75998D-02 SwitMx=.10000D-02 MixMth= 1
 Mixed Optimization -- RFO/linear search
 Second derivative matrix not updated -- first step.
 ITU=  0
     Eigenvalues ---    0.00264   0.00676   0.00685   0.01055   0.03296
     Eigenvalues ---    0.04046   0.05349   0.05399   0.05504   0.07096
     Eigenvalues ---    0.07357   0.09454   0.12870   0.16000   0.16000
     Eigenvalues ---    0.16000   0.16000   0.16000   0.16000   0.21979
     Eigenvalues ---    0.25000   0.25000   0.25000   0.28700   0.31675
     Eigenvalues ---    0.31741   0.33837   0.34181   0.34268   0.34324
     Eigenvalues ---    0.34344   0.34369   0.34432   0.34583   0.44359
     Eigenvalues ---    0.73469
 RFO step:  Lambda=-9.08333579D-03 EMin= 2.63742100D-03
 Linear search not attempted -- first point.
 Iteration  1 RMS(Cart)=  0.03999546 RMS(Int)=  0.00159309
 Iteration  2 RMS(Cart)=  0.00179194 RMS(Int)=  0.00011396
 Iteration  3 RMS(Cart)=  0.00000373 RMS(Int)=  0.00011395
 Iteration  4 RMS(Cart)=  0.00000000 RMS(Int)=  0.00011395
 ITry= 1 IFail=0 DXMaxC= 1.93D-01 DCOld= 1.00D+10 DXMaxT= 3.00D-01 DXLimC= 3.00D+00 Rises=F
 Variable       Old X    -DE/DX   Delta X   Delta X   Delta X     New X
                                 (Linear)    (Quad)   (Total)
    R1        2.90633   0.00105   0.00000   0.00353   0.00353   2.90986
    R2        2.06787  -0.00006   0.00000  -0.00017  -0.00017   2.06770
    R3        2.06880  -0.00004   0.00000  -0.00010  -0.00010   2.06870
    R4        2.06753   0.00347   0.00000   0.00984   0.00984   2.07737
    R5        2.84743   0.00442   0.00000   0.01357   0.01357   2.86099
    R6        2.06608   0.00001   0.00000   0.00003   0.00003   2.06611
    R7        2.07607   0.00365   0.00000   0.01050   0.01050   2.08657
    R8        2.84620  -0.00203   0.00000  -0.00622  -0.00622   2.83998
    R9        2.41642   0.02696   0.00000   0.03625   0.03625   2.45267
   R10        2.07026   0.00111   0.00000   0.00316   0.00316   2.07342
   R11        2.06712   0.00072   0.00000   0.00204   0.00204   2.06916
   R12        2.06357   0.00422   0.00000   0.01190   0.01190   2.07547
   R13        2.66027  -0.03756   0.00000  -0.08298  -0.08298   2.57729
    A1        1.93302  -0.00184   0.00000  -0.01292  -0.01299   1.92003
    A2        1.94975  -0.00119   0.00000  -0.00899  -0.00908   1.94066
    A3        1.92997   0.00330   0.00000   0.02355   0.02358   1.95355
    A4        1.88257   0.00064   0.00000  -0.00371  -0.00389   1.87868
    A5        1.88716  -0.00027   0.00000   0.00217   0.00222   1.88938
    A6        1.87908  -0.00065   0.00000  -0.00005  -0.00004   1.87904
    A7        1.97257   0.00404   0.00000   0.01943   0.01935   1.99193
    A8        1.92095  -0.00076   0.00000  -0.01138  -0.01140   1.90955
    A9        1.90476  -0.00372   0.00000  -0.01917  -0.01966   1.88510
   A10        1.88963  -0.00259   0.00000  -0.01896  -0.01878   1.87085
   A11        1.89855   0.00220   0.00000   0.03184   0.03191   1.93046
   A12        1.87475   0.00075   0.00000  -0.00216  -0.00225   1.87250
   A13        2.09460  -0.00499   0.00000  -0.01924  -0.01924   2.07536
   A14        2.02943   0.00855   0.00000   0.03302   0.03302   2.06245
   A15        2.15915  -0.00357   0.00000  -0.01377  -0.01377   2.14538
   A16        1.93309   0.00122   0.00000   0.00605   0.00603   1.93912
   A17        1.92252  -0.00144   0.00000  -0.01023  -0.01024   1.91229
   A18        1.94552  -0.00085   0.00000  -0.00203  -0.00203   1.94349
   A19        1.85705  -0.00109   0.00000  -0.01245  -0.01247   1.84458
   A20        1.89516   0.00047   0.00000   0.00605   0.00604   1.90120
   A21        1.90812   0.00172   0.00000   0.01253   0.01253   1.92065
   A22        1.94777   0.03075   0.00000   0.11867   0.11867   2.06644
    D1       -1.07112   0.00192   0.00000   0.02795   0.02783  -1.04329
    D2        1.04389   0.00081   0.00000   0.00874   0.00859   1.05249
    D3        3.09717  -0.00093   0.00000  -0.01190  -0.01180   3.08537
    D4        1.02787   0.00068   0.00000   0.00840   0.00839   1.03625
    D5       -3.14030  -0.00042   0.00000  -0.01081  -0.01085   3.13203
    D6       -1.08702  -0.00217   0.00000  -0.03145  -0.03124  -1.11827
    D7        3.12037   0.00130   0.00000   0.01828   0.01823   3.13860
    D8       -1.04780   0.00020   0.00000  -0.00093  -0.00101  -1.04881
    D9        1.00548  -0.00155   0.00000  -0.02157  -0.02140   0.98407
   D10       -1.14819  -0.00010   0.00000  -0.02268  -0.02293  -1.17112
   D11        1.98980  -0.00005   0.00000  -0.01962  -0.01983   1.96996
   D12        3.00234   0.00004   0.00000  -0.00755  -0.00762   2.99472
   D13       -0.14286   0.00009   0.00000  -0.00449  -0.00452  -0.14738
   D14        0.97021  -0.00061   0.00000  -0.01180  -0.01154   0.95868
   D15       -2.17498  -0.00056   0.00000  -0.00874  -0.00844  -2.18342
   D16        1.96060   0.00090   0.00000   0.01609   0.01607   1.97667
   D17       -2.27294  -0.00058   0.00000  -0.00187  -0.00188  -2.27483
   D18       -0.15157   0.00004   0.00000   0.00562   0.00559  -0.14598
   D19       -1.17710   0.00082   0.00000   0.01269   0.01272  -1.16439
   D20        0.87253  -0.00066   0.00000  -0.00527  -0.00524   0.86730
   D21        2.99391  -0.00004   0.00000   0.00222   0.00224   2.99615
   D22       -3.12708   0.00043   0.00000   0.00925   0.00923  -3.11785
   D23        0.01076   0.00048   0.00000   0.01243   0.01245   0.02322
         Item               Value     Threshold  Converged?
 Maximum Force            0.037563     0.000450     NO 
 RMS     Force            0.007600     0.000300     NO 
 Maximum Displacement     0.193066     0.001800     NO 
 RMS     Displacement     0.038980     0.001200     NO 
 Predicted change in Energy=-4.689736D-03
 Lowest energy point so far.  Saving SCF results.
 GradGradGradGradGradGradGradGradGradGradGradGradGradGradGradGradGradGrad

 Leave Link  103 at Mon Oct 24 15:16:10 2022, MaxMem=  8053063680 cpu:               0.8 elap:               0.0
 (Enter /public3/home/scg5914/software-scg5914/g16/l202.exe)
                          Input orientation:                          
 ---------------------------------------------------------------------
 Center     Atomic      Atomic             Coordinates (Angstroms)
 Number     Number       Type             X           Y           Z
 ---------------------------------------------------------------------
      1          6           0       -0.033486    1.527212    0.067983
      2          6           0        0.021309   -0.007305   -0.047536
      3          6           0        0.727922   -0.509685   -1.288676
      4          6           0        0.102269   -0.260106   -2.632119
      5          7           0        1.853216   -1.139227   -1.140603
      6          8           0        2.507795   -1.569083   -2.257213
      7          1           0        0.980630    1.937478    0.089832
      8          1           0       -0.552202    1.970243   -0.788199
      9          1           0       -0.556002    1.851959    0.979009
     10          1           0        0.552612   -0.417878    0.815330
     11          1           0       -1.013736   -0.389785   -0.007943
     12          1           0        0.711141    0.430125   -3.229380
     13          1           0        0.070423   -1.195029   -3.201178
     14          1           0       -0.910013    0.153815   -2.531160
 ---------------------------------------------------------------------
                    Distance matrix (angstroms):
                    1          2          3          4          5
     1  C    0.000000
     2  C    1.539834   0.000000
     3  C    2.563047   1.513973   0.000000
     4  C    3.240908   2.598179   1.502854   0.000000
     5  N    3.482846   2.414939   1.297897   2.462375   0.000000
     6  O    4.631596   3.674838   2.286556   2.764151   1.363843
     7  H    1.094178   2.172866   2.820062   3.606925   3.426586
     8  H    1.094710   2.188193   2.835354   2.966957   3.947028
     9  H    1.099296   2.200896   3.516847   4.234901   4.386830
    10  H    2.164581   1.093339   2.113291   3.480317   2.457151
    11  H    2.154421   1.104163   2.165184   2.854573   3.172380
    12  H    3.553966   3.285018   2.156353   1.097208   2.851348
    13  H    4.255443   3.370246   2.135337   1.094953   2.725332
    14  H    3.067582   2.657388   2.160285   1.098290   3.352767
                    6          7          8          9         10
     6  O    0.000000
     7  H    4.487407   0.000000
     8  H    4.903918   1.766801   0.000000
     9  H    5.618141   1.777410   1.771166   0.000000
    10  H    3.819494   2.501449   3.081402   2.531398   0.000000
    11  H    4.341790   3.066464   2.528150   2.491788   1.769749
    12  H    2.858304   3.655394   3.150773   4.619286   4.135688
    13  H    2.640411   4.633769   4.028532   5.210614   4.119320
    14  H    3.837296   3.691285   2.542705   3.915393   3.696634
                   11         12         13         14
    11  H    0.000000
    12  H    3.745011   0.000000
    13  H    3.467069   1.747123   0.000000
    14  H    2.583193   1.786617   1.797097   0.000000
 Stoichiometry    C4H8NO(1-)
 Framework group  C1[X(C4H8NO)]
 Deg. of freedom    36
 Full point group                 C1      NOp   1
 RotChk:  IX=0 Diff= 5.99D-02
 Largest Abelian subgroup         C1      NOp   1
 Largest concise Abelian subgroup C1      NOp   1
                         Standard orientation:                         
 ---------------------------------------------------------------------
 Center     Atomic      Atomic             Coordinates (Angstroms)
 Number     Number       Type             X           Y           Z
 ---------------------------------------------------------------------
      1          6           0        2.278798   -0.185100   -0.515366
      2          6           0        1.226613   -0.426189    0.582756
      3          6           0       -0.166611    0.040867    0.218203
      4          6           0       -0.420827    1.513514    0.059281
      5          7           0       -1.090693   -0.855992    0.056173
      6          8           0       -2.340618   -0.442488   -0.299873
      7          1           0        1.993722   -0.714229   -1.429685
      8          1           0        2.359479    0.879022   -0.759343
      9          1           0        3.276089   -0.534293   -0.212169
     10          1           0        1.163059   -1.496579    0.796336
     11          1           0        1.574813    0.072184    1.504471
     12          1           0       -0.656316    1.763567   -0.982776
     13          1           0       -1.305189    1.797629    0.639026
     14          1           0        0.446301    2.106000    0.380666
 ---------------------------------------------------------------------
 Rotational constants (GHZ):           6.7975903           2.2019581           1.8654429
 Leave Link  202 at Mon Oct 24 15:16:10 2022, MaxMem=  8053063680 cpu:               0.1 elap:               0.0
 (Enter /public3/home/scg5914/software-scg5914/g16/l301.exe)
 Standard basis: 6-311+G(d,p) (5D, 7F)
 Ernie: Thresh=  0.10000D-02 Tol=  0.10000D-05 Strict=F.
 There are   186 symmetry adapted cartesian basis functions of A   symmetry.
 There are   180 symmetry adapted basis functions of A   symmetry.
   180 basis functions,   280 primitive gaussians,   186 cartesian basis functions
    24 alpha electrons       24 beta electrons
       nuclear repulsion energy       229.4980581269 Hartrees.
 IExCor=  402 DFT=T Ex+Corr=B3LYP ExCW=0 ScaHFX=  0.200000
 ScaDFX=  0.800000  0.720000  1.000000  0.810000 ScalE2=  1.000000  1.000000
 IRadAn=      5 IRanWt=     -1 IRanGd=            0 ICorTp=0 IEmpDi=141
 NAtoms=   14 NActive=   14 NUniq=   14 SFac= 1.00D+00 NAtFMM=   60 NAOKFM=F Big=F
 Integral buffers will be    131072 words long.
 Raffenetti 2 integral format.
 Two-electron integral symmetry is turned on.
 R6Disp:  Grimme-D3(BJ) Dispersion energy=       -0.0177082120 Hartrees.
 Nuclear repulsion after empirical dispersion term =      229.4803499149 Hartrees.
 Leave Link  301 at Mon Oct 24 15:16:10 2022, MaxMem=  8053063680 cpu:               0.6 elap:               0.0
 (Enter /public3/home/scg5914/software-scg5914/g16/l302.exe)
 NPDir=0 NMtPBC=     1 NCelOv=     1 NCel=       1 NClECP=     1 NCelD=      1
         NCelK=      1 NCelE2=     1 NClLst=     1 CellRange=     0.0.
 One-electron integrals computed using PRISM.
 One-electron integral symmetry used in STVInt
 NBasis=   180 RedAO= T EigKep=  3.21D-05  NBF=   180
 NBsUse=   180 1.00D-06 EigRej= -1.00D+00 NBFU=   180
 Precomputing XC quadrature grid using
 IXCGrd= 4 IRadAn=           5 IRanWt=          -1 IRanGd=           0 AccXCQ= 0.00D+00.
 Generated NRdTot=       0 NPtTot=           0 NUsed=           0 NTot=          32
 NSgBfM=   186   186   186   186   186 MxSgAt=    14 MxSgA2=    14.
 Leave Link  302 at Mon Oct 24 15:16:10 2022, MaxMem=  8053063680 cpu:               3.5 elap:               0.1
 (Enter /public3/home/scg5914/software-scg5914/g16/l303.exe)
 DipDrv:  MaxL=1.
 Leave Link  303 at Mon Oct 24 15:16:10 2022, MaxMem=  8053063680 cpu:               0.3 elap:               0.0
 (Enter /public3/home/scg5914/software-scg5914/g16/l401.exe)
 Initial guess from the checkpoint file:  "dsgdb9nsd_000180-9.chk"
 B after Tr=     0.000000   -0.000000    0.000000
         Rot=    0.999805    0.016751   -0.001039    0.010441 Ang=   2.27 deg.
 Guess basis will be translated and rotated to current coordinates.
 JPrj=2 DoOrth=T DoCkMO=T.
 Generating alternative initial guess.
 ExpMin= 4.38D-02 ExpMax= 8.59D+03 ExpMxC= 1.30D+03 IAcc=3 IRadAn=         5 AccDes= 0.00D+00
 Harris functional with IExCor=  402 and IRadAn=       5 diagonalized for initial guess.
 HarFok:  IExCor=  402 AccDes= 0.00D+00 IRadAn=         5 IDoV= 1 UseB2=F ITyADJ=14
 ICtDFT=  3500011 ScaDFX=  1.000000  1.000000  1.000000  1.000000
 FoFCou: FMM=F IPFlag=           0 FMFlag=      100000 FMFlg1=           0
         NFxFlg=           0 DoJE=T BraDBF=F KetDBF=T FulRan=T
         wScrn=  0.000000 ICntrl=       500 IOpCl=  0 I1Cent=   200000004 NGrid=           0
         NMat0=    1 NMatS0=      1 NMatT0=    0 NMatD0=    1 NMtDS0=    0 NMtDT0=    0
 Petite list used in FoFCou.
 Harris En= -287.515071257182    
 Leave Link  401 at Mon Oct 24 15:16:11 2022, MaxMem=  8053063680 cpu:              11.7 elap:               0.4
 (Enter /public3/home/scg5914/software-scg5914/g16/l502.exe)
 Integral symmetry usage will be decided dynamically.
 Closed shell SCF:
 Using DIIS extrapolation, IDIIS=  1040.
 NGot=  8053063680 LenX=  8052986250 LenY=  8052951213
 Requested convergence on RMS density matrix=1.00D-08 within 128 cycles.
 Requested convergence on MAX density matrix=1.00D-06.
 Requested convergence on             energy=1.00D-06.
 No special actions if energy rises.
 Fock matrices will be formed incrementally for  20 cycles.

 Cycle   1  Pass 1  IDiag  1:
 FoFJK:  IHMeth= 1 ICntrl=       0 DoSepK=F KAlg= 0 I1Cent=           0 FoldK=F
 IRaf= 980000000 NMat=       1 IRICut=       1 DoRegI=T DoRafI=F ISym2E= 0 IDoP0=0 IntGTp=1.
 FoFCou: FMM=F IPFlag=           0 FMFlag=      100000 FMFlg1=           0
         NFxFlg=           0 DoJE=F BraDBF=F KetDBF=F FulRan=T
         wScrn=  0.000000 ICntrl=         0 IOpCl=  0 I1Cent=           0 NGrid=           0
         NMat0=    1 NMatS0=      1 NMatT0=    0 NMatD0=    1 NMtDS0=    0 NMtDT0=    0
 Symmetry not used in FoFCou.
 E= -287.276361634148    
 DIIS: error= 3.27D-03 at cycle   1 NSaved=   1.
 NSaved= 1 IEnMin= 1 EnMin= -287.276361634148     IErMin= 1 ErrMin= 3.27D-03
 ErrMax= 3.27D-03  0.00D+00 EMaxC= 1.00D-01 BMatC= 4.29D-03 BMatP= 4.29D-03
 IDIUse=3 WtCom= 9.67D-01 WtEn= 3.27D-02
 Coeff-Com:  0.100D+01
 Coeff-En:   0.100D+01
 Coeff:      0.100D+01
 Gap=     0.338 Goal=   None    Shift=    0.000
 GapD=    0.338 DampG=1.000 DampE=1.000 DampFc=1.0000 IDamp=-1.
 RMSDP=4.95D-03 MaxDP=4.13D-01              OVMax= 4.10D-02

 Cycle   2  Pass 1  IDiag  1:
 RMSU=  3.74D-03    CP:  1.15D+00
 E= -287.282999667014     Delta-E=       -0.006638032866 Rises=F Damp=F
 DIIS: error= 1.67D-03 at cycle   2 NSaved=   2.
 NSaved= 2 IEnMin= 2 EnMin= -287.282999667014     IErMin= 2 ErrMin= 1.67D-03
 ErrMax= 1.67D-03  0.00D+00 EMaxC= 1.00D-01 BMatC= 3.72D-04 BMatP= 4.29D-03
 IDIUse=3 WtCom= 9.83D-01 WtEn= 1.67D-02
 Coeff-Com:  0.363D-01 0.964D+00
 Coeff-En:   0.000D+00 0.100D+01
 Coeff:      0.357D-01 0.964D+00
 Gap=     0.101 Goal=   None    Shift=    0.000
 RMSDP=2.85D-03 MaxDP=2.46D-01 DE=-6.64D-03 OVMax= 2.69D-02

 Cycle   3  Pass 1  IDiag  1:
 RMSU=  1.50D-03    CP:  1.06D+00  6.06D-01
 E= -287.281889012890     Delta-E=        0.001110654123 Rises=F Damp=F
 DIIS: error= 3.96D-03 at cycle   3 NSaved=   3.
 NSaved= 3 IEnMin= 2 EnMin= -287.282999667014     IErMin= 2 ErrMin= 1.67D-03
 ErrMax= 3.96D-03  0.00D+00 EMaxC= 1.00D-01 BMatC= 1.62D-03 BMatP= 3.72D-04
 IDIUse=3 WtCom= 1.37D-01 WtEn= 8.63D-01
 Coeff-Com: -0.251D-01 0.705D+00 0.320D+00
 Coeff-En:   0.000D+00 0.754D+00 0.246D+00
 Coeff:     -0.344D-02 0.747D+00 0.256D+00
 Gap=     0.094 Goal=   None    Shift=    0.000
 RMSDP=1.59D-03 MaxDP=1.40D-01 DE= 1.11D-03 OVMax= 1.74D-02

 Cycle   4  Pass 1  IDiag  1:
 RMSU=  1.35D-04    CP:  1.11D+00  8.43D-01  5.17D-01
 E= -287.283347693773     Delta-E=       -0.001458680883 Rises=F Damp=F
 DIIS: error= 5.13D-04 at cycle   4 NSaved=   4.
 NSaved= 4 IEnMin= 4 EnMin= -287.283347693773     IErMin= 4 ErrMin= 5.13D-04
 ErrMax= 5.13D-04  0.00D+00 EMaxC= 1.00D-01 BMatC= 5.14D-05 BMatP= 3.72D-04
 IDIUse=3 WtCom= 9.95D-01 WtEn= 5.13D-03
 Coeff-Com: -0.207D-01 0.320D+00 0.488D-01 0.652D+00
 Coeff-En:   0.000D+00 0.358D-01 0.000D+00 0.964D+00
 Coeff:     -0.206D-01 0.318D+00 0.486D-01 0.654D+00
 Gap=     0.093 Goal=   None    Shift=    0.000
 RMSDP=4.52D-04 MaxDP=3.44D-02 DE=-1.46D-03 OVMax= 2.95D-03

 Cycle   5  Pass 1  IDiag  1:
 RMSU=  1.83D-04    CP:  1.13D+00  9.03D-01  3.73D-01  1.62D+00
 E= -287.283384227767     Delta-E=       -0.000036533994 Rises=F Damp=F
 DIIS: error= 3.66D-04 at cycle   5 NSaved=   5.
 NSaved= 5 IEnMin= 5 EnMin= -287.283384227767     IErMin= 5 ErrMin= 3.66D-04
 ErrMax= 3.66D-04  0.00D+00 EMaxC= 1.00D-01 BMatC= 1.58D-05 BMatP= 5.14D-05
 IDIUse=3 WtCom= 9.96D-01 WtEn= 3.66D-03
 Coeff-Com: -0.763D-02 0.788D-01-0.409D-01 0.487D+00 0.482D+00
 Coeff-En:   0.000D+00 0.000D+00 0.000D+00 0.147D+00 0.853D+00
 Coeff:     -0.760D-02 0.785D-01-0.407D-01 0.486D+00 0.484D+00
 Gap=     0.093 Goal=   None    Shift=    0.000
 RMSDP=1.39D-04 MaxDP=1.26D-02 DE=-3.65D-05 OVMax= 1.32D-03

 Cycle   6  Pass 1  IDiag  1:
 RMSU=  4.21D-05    CP:  1.13D+00  9.16D-01  3.71D-01  1.57D+00  4.10D-01
 E= -287.283396079851     Delta-E=       -0.000011852085 Rises=F Damp=F
 DIIS: error= 8.36D-05 at cycle   6 NSaved=   6.
 NSaved= 6 IEnMin= 6 EnMin= -287.283396079851     IErMin= 6 ErrMin= 8.36D-05
 ErrMax= 8.36D-05  0.00D+00 EMaxC= 1.00D-01 BMatC= 1.13D-06 BMatP= 1.58D-05
 IDIUse=1 WtCom= 1.00D+00 WtEn= 0.00D+00
 Coeff-Com: -0.243D-02 0.152D-01-0.292D-01 0.228D+00 0.296D+00 0.493D+00
 Coeff:     -0.243D-02 0.152D-01-0.292D-01 0.228D+00 0.296D+00 0.493D+00
 Gap=     0.093 Goal=   None    Shift=    0.000
 RMSDP=3.39D-05 MaxDP=3.20D-03 DE=-1.19D-05 OVMax= 2.59D-04

 Cycle   7  Pass 1  IDiag  1:
 RMSU=  6.37D-06    CP:  1.13D+00  9.11D-01  3.79D-01  1.64D+00  4.77D-01
                    CP:  8.27D-01
 E= -287.283396944399     Delta-E=       -0.000000864548 Rises=F Damp=F
 DIIS: error= 1.19D-05 at cycle   7 NSaved=   7.
 NSaved= 7 IEnMin= 7 EnMin= -287.283396944399     IErMin= 7 ErrMin= 1.19D-05
 ErrMax= 1.19D-05  0.00D+00 EMaxC= 1.00D-01 BMatC= 4.09D-08 BMatP= 1.13D-06
 IDIUse=1 WtCom= 1.00D+00 WtEn= 0.00D+00
 Coeff-Com:  0.198D-03-0.740D-02-0.491D-02 0.197D-01 0.618D-01 0.171D+00
 Coeff-Com:  0.759D+00
 Coeff:      0.198D-03-0.740D-02-0.491D-02 0.197D-01 0.618D-01 0.171D+00
 Coeff:      0.759D+00
 Gap=     0.093 Goal=   None    Shift=    0.000
 RMSDP=6.61D-06 MaxDP=4.31D-04 DE=-8.65D-07 OVMax= 6.10D-05

 Cycle   8  Pass 1  IDiag  1:
 RMSU=  1.95D-06    CP:  1.13D+00  9.12D-01  3.78D-01  1.67D+00  4.89D-01
                    CP:  8.76D-01  9.71D-01
 E= -287.283396983044     Delta-E=       -0.000000038645 Rises=F Damp=F
 DIIS: error= 3.29D-06 at cycle   8 NSaved=   8.
 NSaved= 8 IEnMin= 8 EnMin= -287.283396983044     IErMin= 8 ErrMin= 3.29D-06
 ErrMax= 3.29D-06  0.00D+00 EMaxC= 1.00D-01 BMatC= 1.95D-09 BMatP= 4.09D-08
 IDIUse=1 WtCom= 1.00D+00 WtEn= 0.00D+00
 Coeff-Com:  0.132D-03-0.313D-02-0.407D-03-0.555D-03 0.147D-01 0.380D-01
 Coeff-Com:  0.244D+00 0.707D+00
 Coeff:      0.132D-03-0.313D-02-0.407D-03-0.555D-03 0.147D-01 0.380D-01
 Coeff:      0.244D+00 0.707D+00
 Gap=     0.093 Goal=   None    Shift=    0.000
 RMSDP=3.22D-06 MaxDP=2.53D-04 DE=-3.86D-08 OVMax= 1.90D-05

 Cycle   9  Pass 1  IDiag  1:
 RMSU=  5.10D-07    CP:  1.13D+00  9.12D-01  3.79D-01  1.67D+00  4.90D-01
                    CP:  8.80D-01  1.03D+00  1.12D+00
 E= -287.283396984760     Delta-E=       -0.000000001716 Rises=F Damp=F
 DIIS: error= 9.60D-07 at cycle   9 NSaved=   9.
 NSaved= 9 IEnMin= 9 EnMin= -287.283396984760     IErMin= 9 ErrMin= 9.60D-07
 ErrMax= 9.60D-07  0.00D+00 EMaxC= 1.00D-01 BMatC= 2.13D-10 BMatP= 1.95D-09
 IDIUse=1 WtCom= 1.00D+00 WtEn= 0.00D+00
 Coeff-Com:  0.477D-04-0.788D-03 0.326D-03-0.224D-02 0.124D-02-0.264D-03
 Coeff-Com:  0.343D-01 0.346D+00 0.622D+00
 Coeff:      0.477D-04-0.788D-03 0.326D-03-0.224D-02 0.124D-02-0.264D-03
 Coeff:      0.343D-01 0.346D+00 0.622D+00
 Gap=     0.093 Goal=   None    Shift=    0.000
 RMSDP=4.22D-07 MaxDP=3.31D-05 DE=-1.72D-09 OVMax= 5.14D-06

 Cycle  10  Pass 1  IDiag  1:
 RMSU=  1.51D-07    CP:  1.13D+00  9.12D-01  3.79D-01  1.67D+00  4.90D-01
                    CP:  8.86D-01  1.03D+00  1.19D+00  1.12D+00
 E= -287.283396984983     Delta-E=       -0.000000000223 Rises=F Damp=F
 DIIS: error= 1.80D-07 at cycle  10 NSaved=  10.
 NSaved=10 IEnMin=10 EnMin= -287.283396984983     IErMin=10 ErrMin= 1.80D-07
 ErrMax= 1.80D-07  0.00D+00 EMaxC= 1.00D-01 BMatC= 8.61D-12 BMatP= 2.13D-10
 IDIUse=1 WtCom= 1.00D+00 WtEn= 0.00D+00
 Coeff-Com:  0.218D-05 0.510D-04 0.570D-04-0.287D-03-0.662D-03-0.277D-02
 Coeff-Com: -0.126D-01 0.365D-01 0.186D+00 0.793D+00
 Coeff:      0.218D-05 0.510D-04 0.570D-04-0.287D-03-0.662D-03-0.277D-02
 Coeff:     -0.126D-01 0.365D-01 0.186D+00 0.793D+00
 Gap=     0.093 Goal=   None    Shift=    0.000
 RMSDP=2.47D-07 MaxDP=1.87D-05 DE=-2.23D-10 OVMax= 1.70D-06

 Cycle  11  Pass 1  IDiag  1:
 RMSU=  4.24D-08    CP:  1.13D+00  9.12D-01  3.79D-01  1.67D+00  4.89D-01
                    CP:  8.87D-01  1.03D+00  1.21D+00  1.25D+00  1.15D+00
 E= -287.283396984993     Delta-E=       -0.000000000010 Rises=F Damp=F
 DIIS: error= 6.92D-08 at cycle  11 NSaved=  11.
 NSaved=11 IEnMin=11 EnMin= -287.283396984993     IErMin=11 ErrMin= 6.92D-08
 ErrMax= 6.92D-08  0.00D+00 EMaxC= 1.00D-01 BMatC= 9.12D-13 BMatP= 8.61D-12
 IDIUse=1 WtCom= 1.00D+00 WtEn= 0.00D+00
 Coeff-Com: -0.117D-05 0.618D-04 0.535D-05-0.132D-04-0.381D-03-0.135D-02
 Coeff-Com: -0.825D-02 0.672D-03 0.604D-01 0.381D+00 0.568D+00
 Coeff:     -0.117D-05 0.618D-04 0.535D-05-0.132D-04-0.381D-03-0.135D-02
 Coeff:     -0.825D-02 0.672D-03 0.604D-01 0.381D+00 0.568D+00
 Gap=     0.093 Goal=   None    Shift=    0.000
 RMSDP=3.91D-08 MaxDP=2.33D-06 DE=-9.55D-12 OVMax= 3.19D-07

 Cycle  12  Pass 1  IDiag  1:
 RMSU=  9.08D-09    CP:  1.13D+00  9.12D-01  3.79D-01  1.67D+00  4.89D-01
                    CP:  8.87D-01  1.04D+00  1.22D+00  1.28D+00  1.22D+00
                    CP:  1.06D+00
 E= -287.283396984992     Delta-E=        0.000000000001 Rises=F Damp=F
 DIIS: error= 1.41D-08 at cycle  12 NSaved=  12.
 NSaved=12 IEnMin=11 EnMin= -287.283396984993     IErMin=12 ErrMin= 1.41D-08
 ErrMax= 1.41D-08  0.00D+00 EMaxC= 1.00D-01 BMatC= 4.02D-14 BMatP= 9.12D-13
 IDIUse=1 WtCom= 1.00D+00 WtEn= 0.00D+00
 Coeff-Com: -0.550D-06 0.164D-04-0.311D-05 0.203D-04-0.775D-04-0.238D-03
 Coeff-Com: -0.189D-02-0.344D-02 0.192D-02 0.489D-01 0.197D+00 0.758D+00
 Coeff:     -0.550D-06 0.164D-04-0.311D-05 0.203D-04-0.775D-04-0.238D-03
 Coeff:     -0.189D-02-0.344D-02 0.192D-02 0.489D-01 0.197D+00 0.758D+00
 Gap=     0.093 Goal=   None    Shift=    0.000
 RMSDP=3.09D-08 MaxDP=2.21D-06 DE= 6.82D-13 OVMax= 1.82D-07

 Cycle  13  Pass 1  IDiag  1:
 RMSU=  2.94D-09    CP:  1.13D+00  9.12D-01  3.79D-01  1.67D+00  4.89D-01
                    CP:  8.88D-01  1.04D+00  1.22D+00  1.30D+00  1.25D+00
                    CP:  1.15D+00  1.22D+00
 E= -287.283396984992     Delta-E=        0.000000000000 Rises=F Damp=F
 DIIS: error= 2.47D-09 at cycle  13 NSaved=  13.
 NSaved=13 IEnMin=11 EnMin= -287.283396984993     IErMin=13 ErrMin= 2.47D-09
 ErrMax= 2.47D-09  0.00D+00 EMaxC= 1.00D-01 BMatC= 2.90D-15 BMatP= 4.02D-14
 IDIUse=1 WtCom= 1.00D+00 WtEn= 0.00D+00
 Coeff-Com: -0.903D-07 0.519D-06-0.954D-06 0.792D-05 0.681D-05 0.192D-04
 Coeff-Com:  0.184D-05-0.849D-03-0.326D-02-0.114D-01 0.225D-01 0.248D+00
 Coeff-Com:  0.745D+00
 Coeff:     -0.903D-07 0.519D-06-0.954D-06 0.792D-05 0.681D-05 0.192D-04
 Coeff:      0.184D-05-0.849D-03-0.326D-02-0.114D-01 0.225D-01 0.248D+00
 Coeff:      0.745D+00
 Gap=     0.093 Goal=   None    Shift=    0.000
 RMSDP=1.12D-08 MaxDP=8.69D-07 DE= 2.27D-13 OVMax= 4.76D-08

 Cycle  14  Pass 1  IDiag  1:
 RMSU=  7.04D-10    CP:  1.13D+00  9.12D-01  3.79D-01  1.67D+00  4.89D-01
                    CP:  8.88D-01  1.04D+00  1.22D+00  1.30D+00  1.26D+00
                    CP:  1.19D+00  1.26D+00  1.01D+00
 E= -287.283396984993     Delta-E=       -0.000000000002 Rises=F Damp=F
 DIIS: error= 8.22D-10 at cycle  14 NSaved=  14.
 NSaved=14 IEnMin=14 EnMin= -287.283396984993     IErMin=14 ErrMin= 8.22D-10
 ErrMax= 8.22D-10  0.00D+00 EMaxC= 1.00D-01 BMatC= 1.54D-16 BMatP= 2.90D-15
 IDIUse=1 WtCom= 1.00D+00 WtEn= 0.00D+00
 Coeff-Com:  0.138D-07-0.992D-06 0.346D-07 0.864D-06 0.839D-05 0.224D-04
 Coeff-Com:  0.135D-03 0.288D-04-0.102D-02-0.625D-02-0.617D-02 0.245D-01
 Coeff-Com:  0.182D+00 0.806D+00
 Coeff:      0.138D-07-0.992D-06 0.346D-07 0.864D-06 0.839D-05 0.224D-04
 Coeff:      0.135D-03 0.288D-04-0.102D-02-0.625D-02-0.617D-02 0.245D-01
 Coeff:      0.182D+00 0.806D+00
 Gap=     0.093 Goal=   None    Shift=    0.000
 RMSDP=3.02D-09 MaxDP=2.33D-07 DE=-1.82D-12 OVMax= 1.75D-08

 SCF Done:  E(RB3LYP) =  -287.283396985     A.U. after   14 cycles
            NFock= 14  Conv=0.30D-08     -V/T= 2.0045
 KE= 2.860068273636D+02 PE=-1.138896268584D+03 EE= 3.361256943204D+02
 Leave Link  502 at Mon Oct 24 15:16:16 2022, MaxMem=  8053063680 cpu:             171.5 elap:               5.4
 (Enter /public3/home/scg5914/software-scg5914/g16/l701.exe)
 ... and contract with generalized density number  0.
 Compute integral first derivatives.
 R6Disp: Adding Grimme-D3(BJ) dispersion energy 1st derivatives to the gradient.
 Leave Link  701 at Mon Oct 24 15:16:16 2022, MaxMem=  8053063680 cpu:               3.3 elap:               0.1
 (Enter /public3/home/scg5914/software-scg5914/g16/l702.exe)
 L702 exits ... SP integral derivatives will be done elsewhere.
 Leave Link  702 at Mon Oct 24 15:16:16 2022, MaxMem=  8053063680 cpu:               0.3 elap:               0.0
 (Enter /public3/home/scg5914/software-scg5914/g16/l703.exe)
 Integral derivatives from FoFJK, PRISM(SPDF).
 Compute integral first derivatives, UseDBF=F ICtDFT=           0.
 Calling FoFJK, ICntrl=      2127 FMM=F ISym2X=0 I1Cent= 0 IOpClX= 0 NMat=1 NMatS=1 NMatT=0.
 FoFJK:  IHMeth= 1 ICntrl=    2127 DoSepK=F KAlg= 0 I1Cent=           0 FoldK=F
 IRaf=         0 NMat=       1 IRICut=       1 DoRegI=T DoRafI=F ISym2E= 0 IDoP0=0 IntGTp=1.
 FoFCou: FMM=F IPFlag=           0 FMFlag=      100000 FMFlg1=         800
         NFxFlg=           0 DoJE=F BraDBF=F KetDBF=F FulRan=T
         wScrn=  0.000000 ICntrl=      2127 IOpCl=  0 I1Cent=           0 NGrid=           0
         NMat0=    1 NMatS0=      1 NMatT0=    0 NMatD0=    1 NMtDS0=    0 NMtDT0=    0
 Symmetry not used in FoFCou.
 Leave Link  703 at Mon Oct 24 15:16:17 2022, MaxMem=  8053063680 cpu:              29.7 elap:               1.0
 (Enter /public3/home/scg5914/software-scg5914/g16/l716.exe)
 Dipole        = 2.78912070D+00 1.03242964D+00 2.65769462D-01
 ***** Axes restored to original set *****
 -------------------------------------------------------------------
 Center     Atomic                   Forces (Hartrees/Bohr)
 Number     Number              X              Y              Z
 -------------------------------------------------------------------
      1        6           0.000420440    0.000077594    0.000392391
      2        6           0.002437493   -0.001975889   -0.003377521
      3        6          -0.003788208    0.002407667    0.002700084
      4        6           0.000368058    0.000246746   -0.000532261
      5        7           0.019251167   -0.011239797   -0.018436616
      6        8          -0.019087919    0.011478845    0.022851005
      7        1           0.000148528    0.000179065   -0.000112766
      8        1          -0.000092950    0.000296340   -0.000392246
      9        1          -0.000088613   -0.000352399   -0.000263427
     10        1           0.000410618   -0.000495463    0.000613534
     11        1          -0.000123733   -0.000106604    0.000044567
     12        1          -0.000341532    0.000659433   -0.001287422
     13        1          -0.000290780   -0.000661005   -0.001261570
     14        1           0.000777431   -0.000514533   -0.000937752
 -------------------------------------------------------------------
 Cartesian Forces:  Max     0.022851005 RMS     0.006747214
 Leave Link  716 at Mon Oct 24 15:16:17 2022, MaxMem=  8053063680 cpu:               0.2 elap:               0.0
 (Enter /public3/home/scg5914/software-scg5914/g16/l103.exe)

[...]
  11. BD (   1) C   4 - H  12        /176. BD*(   2) C   3 - N   5            3.79    0.55    0.044
  12. BD (   1) C   4 - H  13        /171. BD*(   1) C   2 - C   3            3.78    0.94    0.053
  12. BD (   1) C   4 - H  13        /174. BD*(   1) C   3 - C   4            0.87    0.93    0.026
  12. BD (   1) C   4 - H  13        /176. BD*(   2) C   3 - N   5            1.21    0.54    0.025
  13. BD (   1) C   4 - H  14        / 61. RY*(   3) C   3                    0.94    1.64    0.035
  13. BD (   1) C   4 - H  14        /175. BD*(   1) C   3 - N   5            3.93    1.13    0.060
  13. BD (   1) C   4 - H  14        /176. BD*(   2) C   3 - N   5            1.06    0.56    0.024
  14. BD (   1) N   5 - O   6        / 61. RY*(   3) C   3                    2.59    1.97    0.064
  14. BD (   1) N   5 - O   6        / 94. RY*(   2) N   5                    0.68    1.70    0.030
  14. BD (   1) N   5 - O   6        /171. BD*(   1) C   2 - C   3            3.63    1.28    0.061
  15. CR (   1) C   1                /127. RY*(   1) H   7                    0.60   11.14    0.073
  15. CR (   1) C   1                /133. RY*(   2) H   8                    0.53   12.19    0.072
  15. CR (   1) C   1                /137. RY*(   1) H   9                    0.52   11.21    0.068
  16. CR (   1) C   2                / 29. RY*(   5) C   1                    0.54   10.83    0.068
  16. CR (   1) C   2                / 61. RY*(   3) C   3                    1.00   11.18    0.095
  16. CR (   1) C   2                /174. BD*(   1) C   3 - C   4            0.61   10.48    0.072
  17. CR (   1) C   3                / 44. RY*(   3) C   2                    0.67   10.55    0.075
  17. CR (   1) C   3                / 96. RY*(   4) N   5                    0.54   11.44    0.070
  17. CR (   1) C   3                /180. BD*(   1) N   5 - O   6            0.81   10.46    0.082
  18. CR (   1) C   4                / 61. RY*(   3) C   3                    1.37   11.16    0.110
  18. CR (   1) C   4                /157. RY*(   1) H  13                    0.51   10.71    0.066
  19. CR (   1) N   5                / 59. RY*(   1) C   3                    3.26   14.97    0.198
  19. CR (   1) N   5                / 62. RY*(   4) C   3                    0.51   15.26    0.079
  19. CR (   1) N   5                /171. BD*(   1) C   2 - C   3            0.60   14.60    0.084
  19. CR (   1) N   5                /174. BD*(   1) C   3 - C   4            1.01   14.58    0.110
  19. CR (   1) N   5                /175. BD*(   1) C   3 - N   5            0.64   14.77    0.087
  19. CR (   1) N   5                /180. BD*(   1) N   5 - O   6            0.94   14.58    0.105
  20. CR (   1) O   6                / 94. RY*(   2) N   5                    2.40   19.72    0.194
  20. CR (   1) O   6                /175. BD*(   1) C   3 - N   5            0.85   19.48    0.116
  21. LP (   1) N   5                / 59. RY*(   1) C   3                    6.23    1.16    0.077
  21. LP (   1) N   5                / 62. RY*(   4) C   3                    0.99    1.45    0.034
  21. LP (   1) N   5                /110. RY*(   1) O   6                    1.74    1.05    0.039
  21. LP (   1) N   5                /171. BD*(   1) C   2 - C   3            1.34    0.79    0.029
  21. LP (   1) N   5                /174. BD*(   1) C   3 - C   4           13.09    0.78    0.091
  22. LP (   1) O   6                / 94. RY*(   2) N   5                    4.72    1.58    0.077
  22. LP (   1) O   6                /174. BD*(   1) C   3 - C   4            0.55    1.15    0.023
  22. LP (   1) O   6                /175. BD*(   1) C   3 - N   5            2.73    1.33    0.054
  23. LP (   2) O   6                / 93. RY*(   1) N   5                    3.07    1.01    0.050
  23. LP (   2) O   6                / 97. RY*(   5) N   5                    0.78    1.29    0.029
  23. LP (   2) O   6                /171. BD*(   1) C   2 - C   3            1.12    0.65    0.024
  23. LP (   2) O   6                /175. BD*(   1) C   3 - N   5            6.03    0.82    0.063
  23. LP (   2) O   6                /179. BD*(   1) C   4 - H  14            0.85    0.57    0.020
  24. LP (   3) O   6                / 95. RY*(   3) N   5                    1.81    2.37    0.064
  24. LP (   3) O   6                /176. BD*(   2) C   3 - N   5           56.70    0.24    0.104
 176. BD*(   2) C   3 - N   5        / 64. RY*(   6) C   3                    0.92    1.31    0.078
 176. BD*(   2) C   3 - N   5        / 95. RY*(   3) N   5                    0.56    2.13    0.077
 176. BD*(   2) C   3 - N   5        / 99. RY*(   7) N   5                    0.59    1.08    0.056
 176. BD*(   2) C   3 - N   5        /111. RY*(   2) O   6                    0.57    0.61    0.042
 176. BD*(   2) C   3 - N   5        /167. BD*(   1) C   1 - C   2            1.36    0.30    0.043
 176. BD*(   2) C   3 - N   5        /173. BD*(   1) C   2 - H  11            1.23    0.31    0.042
 176. BD*(   2) C   3 - N   5        /177. BD*(   1) C   4 - H  12            2.07    0.33    0.057


 Natural Bond Orbitals (Summary):

                                                            Principal Delocalizations
           NBO                        Occupancy    Energy   (geminal,vicinal,remote)
 ====================================================================================
 Molecular unit  1  (C4H8NO)
     1. BD (   1) C   1 - C   2          1.98576    -0.44874  176(v),60(v),175(v),171(g)
     2. BD (   1) C   1 - H   7          1.98948    -0.35761  173(v),43(v)
     3. BD (   1) C   1 - H   8          1.98981    -0.36121  172(v)
     4. BD (   1) C   1 - H   9          1.99092    -0.36301  171(v)
     5. BD (   1) C   2 - C   3          1.97654    -0.44462  180(v),170(v),175(g),26(v)
                                                    167(g),178(v),93(v),174(g)
                                                    78(v),172(g)
     6. BD (   1) C   2 - H  10          1.97655    -0.32462  174(v),169(v),175(v),171(g)
     7. BD (   1) C   2 - H  11          1.97533    -0.32875  168(v),176(v),175(v),60(v)
     8. BD (   1) C   3 - C   4          1.98759    -0.44326  172(v),175(g),43(v),171(g)
                                                    94(v),93(v),178(g),177(g)
     9. BD (   1) C   3 - N   5          1.98993    -0.65101  174(g),171(g),110(v),179(v)
    10. BD (   2) C   3 - N   5          1.92796    -0.10223  177(v),176(g),167(v),173(v)
                                                    111(v),179(v),178(v),77(v)
    11. BD (   1) C   4 - H  12          1.98101    -0.33067  176(v),60(v)
    12. BD (   1) C   4 - H  13          1.98436    -0.32166  171(v),176(v),174(g)
    13. BD (   1) C   4 - H  14          1.98710    -0.33777  175(v),176(v),61(v)
    14. BD (   1) N   5 - O   6          1.98908    -0.65997  171(v),61(v),94(g)
    15. CR (   1) C   1                  1.99936    -9.88681  127(v),133(v),137(v)
    16. CR (   1) C   2                  1.99923    -9.87255  61(v),174(v),29(v)
    17. CR (   1) C   3                  1.99922    -9.85571  180(v),44(v),96(v)
    18. CR (   1) C   4                  1.99930    -9.85437  61(v),157(v)
    19. CR (   1) N   5                  1.99921   -13.97468  59(v),174(v),180(g),175(g)
                                                    171(v),62(v)
    20. CR (   1) O   6                  1.99986   -18.68464  94(v),175(v)
    21. LP (   1) N   5                  1.93574    -0.17144  174(v),59(v),110(v),171(v)
                                                    62(v)
    22. LP (   1) O   6                  1.98785    -0.53852  94(v),175(v),174(r)
    23. LP (   2) O   6                  1.95301    -0.02519  175(v),93(v),171(r),179(r)
                                                    97(v)
    24. LP (   3) O   6                  1.68093    -0.01722  176(v),95(v)
    25. RY*(   1) C   1                  0.00782     0.57952   
    26. RY*(   2) C   1                  0.00194     0.80333   
    27. RY*(   3) C   1                  0.00097     0.92194   
    28. RY*(   4) C   1                  0.00025     1.90746   
    29. RY*(   5) C   1                  0.00020     0.95455   
    30. RY*(   6) C   1                  0.00014     1.31734   
    31. RY*(   7) C   1                  0.00006     0.87970   
    32. RY*(   8) C   1                  0.00004     1.14391   
    33. RY*(   9) C   1                  0.00000     3.25534   
    34. RY*(  10) C   1                  0.00000    23.25721   
    35. RY*(  11) C   1                  0.00000     2.56417   
    36. RY*(  12) C   1                  0.00000     2.23739   
    37. RY*(  13) C   1                  0.00000     1.76209   
    38. RY*(  14) C   1                  0.00000     1.85461   
    39. RY*(  15) C   1                  0.00000     2.01516   
    40. RY*(  16) C   1                  0.00001     1.90072   
    41. RY*(  17) C   1                  0.00001     1.74063   
    42. RY*(   1) C   2                  0.00608     0.70616   
    43. RY*(   2) C   2                  0.00511     0.92707   
    44. RY*(   3) C   2                  0.00217     0.69764   
    45. RY*(   4) C   2                  0.00077     1.17943   
    46. RY*(   5) C   2                  0.00043     1.29428   
    47. RY*(   6) C   2                  0.00038     1.78473   
    48. RY*(   7) C   2                  0.00022     2.00852   
    49. RY*(   8) C   2                  0.00013     1.80942   
    50. RY*(   9) C   2                  0.00008     1.83288   
    51. RY*(  10) C   2                  0.00006     2.14456   
    52. RY*(  11) C   2                  0.00004     2.82718   
    53. RY*(  12) C   2                  0.00001     2.75865   
    54. RY*(  13) C   2                  0.00001     3.37306   
    55. RY*(  14) C   2                  0.00000     1.36597   
    56. RY*(  15) C   2                  0.00001     1.81068   
    57. RY*(  16) C   2                  0.00001     2.02242   
    58. RY*(  17) C   2                  0.00000    21.31910   
    59. RY*(   1) C   3                  0.01446     0.99051   
    60. RY*(   2) C   3                  0.00625     0.78006   
    61. RY*(   3) C   3                  0.00431     1.30587   
    62. RY*(   4) C   3                  0.00176     1.28114   
    63. RY*(   5) C   3                  0.00144     1.05473   
    64. RY*(   6) C   3                  0.00083     1.53578   
    65. RY*(   7) C   3                  0.00041     2.14568   
    66. RY*(   8) C   3                  0.00028     2.21372   
    67. RY*(   9) C   3                  0.00019     2.63587   
    68. RY*(  10) C   3                  0.00010     2.06017   
    69. RY*(  11) C   3                  0.00007     1.78064   
    70. RY*(  12) C   3                  0.00001     1.36881   
    71. RY*(  13) C   3                  0.00001     2.46946   
    72. RY*(  14) C   3                  0.00001    22.06245   
    73. RY*(  15) C   3                  0.00001     1.92030   
    74. RY*(  16) C   3                  0.00000     2.89463   
    75. RY*(  17) C   3                  0.00001     1.77721   
    76. RY*(   1) C   4                  0.00785     0.62985   
    77. RY*(   2) C   4                  0.00378     0.59480   
    78. RY*(   3) C   4                  0.00201     0.76821   
    79. RY*(   4) C   4                  0.00034     1.43834   
    80. RY*(   5) C   4                  0.00013     0.98378   
    81. RY*(   6) C   4                  0.00011     3.25078   
    82. RY*(   7) C   4                  0.00008     1.20499   
    83. RY*(   8) C   4                  0.00007     1.85652   
    84. RY*(   9) C   4                  0.00004     1.42481   
    85. RY*(  10) C   4                  0.00002     2.01627   
    86. RY*(  11) C   4                  0.00000    22.67443   
    87. RY*(  12) C   4                  0.00000     3.18901   
    88. RY*(  13) C   4                  0.00000     2.84292   
    89. RY*(  14) C   4                  0.00000     1.88582   
    90. RY*(  15) C   4                  0.00001     1.05274   
    91. RY*(  16) C   4                  0.00001     1.55932   
    92. RY*(  17) C   4                  0.00000     2.13795   
    93. RY*(   1) N   5                  0.01091     0.98355   
    94. RY*(   2) N   5                  0.00495     1.03696   
    95. RY*(   3) N   5                  0.00243     2.35134   
    96. RY*(   4) N   5                  0.00158     1.57931   
    97. RY*(   5) N   5                  0.00043     1.26475   
    98. RY*(   6) N   5                  0.00018     1.14354   
    99. RY*(   7) N   5                  0.00012     1.29784   
   100. RY*(   8) N   5                  0.00007     2.24374   
   101. RY*(   9) N   5                  0.00003     1.34583   
   102. RY*(  10) N   5                  0.00002     2.06228   
   103. RY*(  11) N   5                  0.00001     2.35735   
   104. RY*(  12) N   5                  0.00000     4.03065   
   105. RY*(  13) N   5                  0.00001     1.46991   
   106. RY*(  14) N   5                  0.00000     3.79840   
   107. RY*(  15) N   5                  0.00000     2.23777   
   108. RY*(  16) N   5                  0.00001     4.20566   
   109. RY*(  17) N   5                  0.00000    35.35417   
   110. RY*(   1) O   6                  0.00622     0.87753   
   111. RY*(   2) O   6                  0.00318     0.83498   
   112. RY*(   3) O   6                  0.00062     0.77835   
   113. RY*(   4) O   6                  0.00019     1.04990   
   114. RY*(   5) O   6                  0.00011     1.59622   
   115. RY*(   6) O   6                  0.00002     2.26806   
   116. RY*(   7) O   6                  0.00001     1.10803   
   117. RY*(   8) O   6                  0.00000    50.01349   
   118. RY*(   9) O   6                  0.00000     5.17757   
   119. RY*(  10) O   6                  0.00000     5.18050   
   120. RY*(  11) O   6                  0.00000     1.09667   
   121. RY*(  12) O   6                  0.00000     5.11974   
   122. RY*(  13) O   6                  0.00001     3.27198   
   123. RY*(  14) O   6                  0.00000     3.07343   
   124. RY*(  15) O   6                  0.00000     3.08016   
   125. RY*(  16) O   6                  0.00000     3.05346   
   126. RY*(  17) O   6                  0.00000     3.09441   
   127. RY*(   1) H   7                  0.00226     1.25412   
   128. RY*(   2) H   7                  0.00053     1.70493   
   129. RY*(   3) H   7                  0.00013     1.90263   
   130. RY*(   4) H   7                  0.00012     1.87735   
   131. RY*(   5) H   7                  0.00004     2.77620   
   132. RY*(   1) H   8                  0.00114     0.60857   
   133. RY*(   2) H   8                  0.00069     2.30643   
   134. RY*(   3) H   8                  0.00015     1.92261   
   135. RY*(   4) H   8                  0.00007     1.88792   
   136. RY*(   5) H   8                  0.00003     2.82414   
   137. RY*(   1) H   9                  0.00188     1.31942   
   138. RY*(   2) H   9                  0.00075     1.56243   
   139. RY*(   3) H   9                  0.00014     1.89670   
   140. RY*(   4) H   9                  0.00010     1.86907   
   141. RY*(   5) H   9                  0.00003     2.75564   
   142. RY*(   1) H  10                  0.00681     0.58108   
   143. RY*(   2) H  10                  0.00025     2.31782   
   144. RY*(   3) H  10                  0.00016     1.96136   
   145. RY*(   4) H  10                  0.00009     2.15089   
   146. RY*(   5) H  10                  0.00003     2.79641   
   147. RY*(   1) H  11                  0.00305     0.68131   
   148. RY*(   2) H  11                  0.00031     2.33193   
   149. RY*(   3) H  11                  0.00019     1.98700   
   150. RY*(   4) H  11                  0.00010     2.20655   
   151. RY*(   5) H  11                  0.00004     2.62725   
   152. RY*(   1) H  12                  0.00209     0.78024   
   153. RY*(   2) H  12                  0.00022     1.98474   
   154. RY*(   3) H  12                  0.00013     1.99060   
   155. RY*(   4) H  12                  0.00010     2.11182   
   156. RY*(   5) H  12                  0.00003     2.84719   
   157. RY*(   1) H  13                  0.00353     0.85229   
   158. RY*(   2) H  13                  0.00029     2.11133   
   159. RY*(   3) H  13                  0.00017     1.93640   
   160. RY*(   4) H  13                  0.00008     2.00525   
   161. RY*(   5) H  13                  0.00004     2.80619   
   162. RY*(   1) H  14                  0.00158     0.72935   
   163. RY*(   2) H  14                  0.00019     2.21942   
   164. RY*(   3) H  14                  0.00012     2.02005   
   165. RY*(   4) H  14                  0.00009     1.93701   
   166. RY*(   5) H  14                  0.00004     2.75558   
   167. BD*(   1) C   1 - C   2          0.02340     0.51989   
   168. BD*(   1) C   1 - H   7          0.01096     0.53625   
   169. BD*(   1) C   1 - H   8          0.00958     0.53062   
   170. BD*(   1) C   1 - H   9          0.00979     0.52228   
   171. BD*(   1) C   2 - C   3          0.02506     0.62230   
   172. BD*(   1) C   2 - H  10          0.01919     0.56513   
   173. BD*(   1) C   2 - H  11          0.03222     0.53209   
   174. BD*(   1) C   3 - C   4          0.04608     0.60711   
   175. BD*(   1) C   3 - N   5          0.03162     0.79419   
   176. BD*(   2) C   3 - N   5          0.31954     0.22121  177(v),167(v),173(v),64(g)
                                                    99(g),111(v),95(g)
   177. BD*(   1) C   4 - H  12          0.01791     0.54832   
   178. BD*(   1) C   4 - H  13          0.01813     0.58035   
   179. BD*(   1) C   4 - H  14          0.01089     0.54802   
   180. BD*(   1) N   5 - O   6          0.01009     0.60905   
       -------------------------------
              Total Lewis   47.28512  ( 98.5107%)
        Valence non-Lewis    0.58446  (  1.2176%)
        Rydberg non-Lewis    0.13042  (  0.2717%)
       -------------------------------
            Total unit  1   48.00000  (100.0000%)
           Charge unit  1   -1.00000
 Leave Link  607 at Mon Oct 24 15:18:16 2022, MaxMem=  8053063680 cpu:              45.6 elap:               1.4
 (Enter /public3/home/scg5914/software-scg5914/g16/l9999.exe)
 Unable to Open any file for archive entry.
 1\1\GINC-I1007\SP\RB3LYP\Gen\C4H8N1O1(1-)\SCG5914\24-Oct-2022\0\\#p b3
 lyp/chkbas pop=nbo geom=allcheck guess=tcheck em=gd3bj\\dsgdb9nsd_0001
 80-9\\-1,1\C,0,0.0130975015,1.5443509345,0.058396089\C,0,0.0189503657,
 0.0065361876,-0.05274784\C,0,0.699186473,-0.5204466084,-1.2821571342\C
 ,0,0.0949610265,-0.2616654171,-2.6365009854\N,0,1.8069685263,-1.202487
 7069,-1.1268083122\O,0,2.4272373403,-1.6389361756,-2.1978208857\H,0,1.
 0394858424,1.9240184301,0.085595865\H,0,-0.4854757088,2.0001751497,-0.
 8040769683\H,0,-0.5076108043,1.8862204097,0.9638668136\H,0,0.538458956
 1,-0.4187099761,0.8127186909\H,0,-1.0314049946,-0.3366010031,-0.005069
 8848\H,0,0.4606740613,0.6666104879,-3.1034796301\H,0,0.3878851407,-1.0
 782484896,-3.3044705243\H,0,-1.0005357791,-0.1880823976,-2.5792994352\
 \Version=ES64L-G16RevC.01\State=1-A\HF=-287.2853919\RMSD=2.831e-09\Dip
 ole=-2.0434637,1.7032765,0.6893874\Quadrupole=-2.1097224,0.0183761,2.0
 913464,7.2816965,3.2942461,-3.2321386\PG=C01 [X(C4H8N1O1)]\\@
 The archive entry for this job was punched.


 What some people mistake for the high cost
 of living is really the cost of living high.
                              -- Doug Larson
 Job cpu time:       0 days  0 hours  3 minutes 52.6 seconds.
 Elapsed time:       0 days  0 hours  0 minutes  7.5 seconds.
 File lengths (MBytes):  RWF=     20 Int=      0 D2E=      0 Chk=      4 Scr=      1
 Normal termination of Gaussian 16 at Mon Oct 24 15:18:17 2022.
