 Entering Gaussian System, Link 0=/public3/home/scg5914/software-scg5914/g16/g16
 Input=dsgdb9nsd_003051-3.gjf
 Output=dsgdb9nsd_003051-3.log
 Initial command:
 /public3/home/scg5914/software-scg5914/g16/l1.exe "/public3/home/scg5914/software-scg5914/test/tmp/dsgdb9nsd_003051-3/Gau-127660.inp" -scrdir="/public3/home/scg5914/software-scg5914/test/tmp/dsgdb9nsd_003051-3/"
 Entering Link 1 = /public3/home/scg5914/software-scg5914/g16/l1.exe PID=    127661.
  
 Copyright (c) 1988-2019, Gaussian, Inc.  All Rights Reserved.
  
 This is part of the Gaussian(R) 16 program.  It is based on
 the Gaussian(R) 09 system (copyright 2009, Gaussian, Inc.),
 the Gaussian(R) 03 system (copyright 2003, Gaussian, Inc.),
 the Gaussian(R) 98 system (copyright 1998, Gaussian, Inc.),
 the Gaussian(R) 94 system (copyright 1995, Gaussian, Inc.),
 the Gaussian 92(TM) system (copyright 1992, Gaussian, Inc.),
 the Gaussian 90(TM) system (copyright 1990, Gaussian, Inc.),
 the Gaussian 88(TM) system (copyright 1988, Gaussian, Inc.),
 the Gaussian 86(TM) system (copyright 1986, Carnegie Mellon
 University), and the Gaussian 82(TM) system (copyright 1983,
 Carnegie Mellon University). Gaussian is a federally registered
 trademark of Gaussian, Inc.
  
 This software contains proprietary and confidential information,
 including trade secrets, belonging to Gaussian, Inc.
  
 This software is provided under written license and may be
 used, copied, transmitted, or stored only in accord with that
 written license.
  
 The following legend is applicable only to US Government
 contracts under FAR:
  
                    RESTRICTED RIGHTS LEGEND
  
 Use, reproduction and disclosure by the US Government is
 subject to restrictions as set forth in subparagraphs (a)
 and (c) of the Commercial Computer Software - Restricted
 Rights clause in FAR 52.227-19.
  
 Gaussian, Inc.
 340 Quinnipiac St., Bldg. 40, Wallingford CT 06492
  
  
 ---------------------------------------------------------------
 Warning -- This program may not be used in any manner that
 competes with the business of Gaussian, Inc. or will provide
 assistance to any competitor of Gaussian, Inc.  The licensee
 of this program is prohibited from giving any competitor of
 Gaussian, Inc. access to this program.  By using this program,
 the user acknowledges that Gaussian, Inc. is engaged in the
 business of creating and licensing software in the field of
 computational chemistry and represents and warrants to the
 licensee that it is not a competitor of Gaussian, Inc. and that
 it will not use this program in any manner prohibited above.
 ---------------------------------------------------------------
  

 Cite this work as:
 Gaussian 16, Revision C.01,
 M. J. Frisch, G. W. Trucks, H. B. Schlegel, G. E. Scuseria, 
 M. A. Robb, J. R. Cheeseman, G. Scalmani, V. Barone, 
 G. A. Petersson, H. Nakatsuji, X. Li, M. Caricato, A. V. Marenich, 
 J. Bloino, B. G. Janesko, R. Gomperts, B. Mennucci, H. P. Hratchian, 
 J. V. Ortiz, A. F. Izmaylov, J. L. Sonnenberg, D. Williams-Young, 
 F. Ding, F. Lipparini, F. Egidi, J. Goings, B. Peng, A. Petrone, 
 T. Henderson, D. Ranasinghe, V. G. Zakrzewski, J. Gao, N. Rega, 
 G. Zheng, W. Liang, M. Hada, M. Ehara, K. Toyota, R. Fukuda, 
 J. Hasegawa, M. Ishida, T. Nakajima, Y. Honda, O. Kitao, H. Nakai, 
 T. Vreven, K. Throssell, J. A. Montgomery, Jr., J. E. Peralta, 
 F. Ogliaro, M. J. Bearpark, J. J. Heyd, E. N. Brothers, K. N. Kudin, 
 V. N. Staroverov, T. A. Keith, R. Kobayashi, J. Normand, 
 K. Raghavachari, A. P. Rendell, J. C. Burant, S. S. Iyengar, 
 J. Tomasi, M. Cossi, J. M. Millam, M. Klene, C. Adamo, R. Cammi, 
 J. W. Ochterski, R. L. Martin, K. Morokuma, O. Farkas, 
 J. B. Foresman, and D. J. Fox, Gaussian, Inc., Wallingford CT, 2019.
 
 ******************************************
 Gaussian 16:  ES64L-G16RevC.01  3-Jul-2019
                26-Aug-2022 
 ******************************************
 %chk=dsgdb9nsd_003051-3.chk
 %mem=60GB
 %nprocshared=32
 Will use up to   32 processors via shared memory.
 ------------------------------------
 #p opt freq b3lyp/6-311+g** em=gd3bj
 ------------------------------------
 1/18=20,19=15,26=3,38=1/1,3;
 2/9=110,12=2,17=6,18=5,40=1/2;
 3/5=4,6=6,7=111,11=2,25=1,30=1,71=1,74=-5,124=41/1,2,3;
 4//1;
 5/5=2,38=5/2;
 6/7=2,8=2,9=2,10=2,28=1/1;
 7//1,2,3,16;
 1/18=20,19=15,26=3/3(2);
 2/9=110/2;
 99//99;
 2/9=110/2;
 3/5=4,6=6,7=111,11=2,25=1,30=1,71=1,74=-5,124=41/1,2,3;
 4/5=5,16=3,69=1/1;
 5/5=2,38=5/2;
 7//1,2,3,16;
 1/18=20,19=15,26=3/3(-5);
 2/9=110/2;
 6/7=2,8=2,9=2,10=2,19=2,28=1/1;
 99/9=1/99;
 Leave Link    1 at Fri Aug 26 14:23:33 2022, MaxMem=  8053063680 cpu:               0.8 elap:               0.0
 (Enter /public3/home/scg5914/software-scg5914/g16/l101.exe)
 ------------------
 dsgdb9nsd_003051-3
 ------------------
 Symbolic Z-matrix:
 Charge =  0 Multiplicity = 2
 O                    -0.11562   0.33327   0.70637 
 C                     0.0479    1.28236  -0.03066 
 N                     1.23011   1.6382   -0.60205 
 C                     2.4729    0.92458  -0.3645 
 C                     3.51939   1.8329    0.23243 
 C                     4.92838   1.75598  -0.16617 
 O                     4.08458   2.79378  -0.66925 
 H                    -0.77025   1.9697   -0.32259 
 H                     1.26228   2.46303  -1.18072 
 H                     2.8526    0.49916  -1.30145 
 H                     3.27799   2.23803   1.21571 
 H                     5.70277   2.07669   0.52837 
 H                     5.24065   1.01195  -0.89794 
 
 ITRead=  0  0  0  0  0  0  0  0  0  0  0  0  0
 MicOpt= -1 -1 -1 -1 -1 -1 -1 -1 -1 -1 -1 -1 -1
 NAtoms=     13 NQM=       13 NQMF=       0 NMMI=      0 NMMIF=      0
                NMic=       0 NMicF=      0.
                    Isotopes and Nuclear Properties:
 (Nuclear quadrupole moments (NQMom) in fm**2, nuclear magnetic moments (NMagM)
  in nuclear magnetons)

  Atom         1           2           3           4           5           6           7           8           9          10
 IAtWgt=          16          12          14          12          12          12          16           1           1           1
 AtmWgt=  15.9949146  12.0000000  14.0030740  12.0000000  12.0000000  12.0000000  15.9949146   1.0078250   1.0078250   1.0078250
 NucSpn=           0           0           2           0           0           0           0           1           1           1
 AtZEff=  -0.0000000  -0.0000000  -0.0000000  -0.0000000  -0.0000000  -0.0000000  -0.0000000  -0.0000000  -0.0000000  -0.0000000
 NQMom=    0.0000000   0.0000000   2.0440000   0.0000000   0.0000000   0.0000000   0.0000000   0.0000000   0.0000000   0.0000000
 NMagM=    0.0000000   0.0000000   0.4037610   0.0000000   0.0000000   0.0000000   0.0000000   2.7928460   2.7928460   2.7928460
 AtZNuc=   8.0000000   6.0000000   7.0000000   6.0000000   6.0000000   6.0000000   8.0000000   1.0000000   1.0000000   1.0000000

  Atom        11          12          13
 IAtWgt=           1           1           1
 AtmWgt=   1.0078250   1.0078250   1.0078250
 NucSpn=           1           1           1
 AtZEff=  -0.0000000  -0.0000000  -0.0000000
 NQMom=    0.0000000   0.0000000   0.0000000
 NMagM=    2.7928460   2.7928460   2.7928460
 AtZNuc=   1.0000000   1.0000000   1.0000000
 Leave Link  101 at Fri Aug 26 14:23:33 2022, MaxMem=  8053063680 cpu:               4.2 elap:               0.1
 (Enter /public3/home/scg5914/software-scg5914/g16/l103.exe)

 GradGradGradGradGradGradGradGradGradGradGradGradGradGradGradGradGradGrad
 Berny optimization.
 Initialization pass.
                           ----------------------------
                           !    Initial Parameters    !
                           ! (Angstroms and Degrees)  !
 --------------------------                            --------------------------
 ! Name  Definition              Value          Derivative Info.                !
 --------------------------------------------------------------------------------
 ! R1    R(1,2)                  1.2127         estimate D2E/DX2                !
 ! R2    R(2,3)                  1.3604         estimate D2E/DX2                !
 ! R3    R(2,8)                  1.1077         estimate D2E/DX2                !
 ! R4    R(3,4)                  1.4527         estimate D2E/DX2                !
 ! R5    R(3,9)                  1.0081         estimate D2E/DX2                !
 ! R6    R(4,5)                  1.5088         estimate D2E/DX2                !
 ! R7    R(4,10)                 1.0968         estimate D2E/DX2                !
 ! R8    R(5,6)                  1.4663         estimate D2E/DX2                !
 ! R9    R(5,7)                  1.4338         estimate D2E/DX2                !
 ! R10   R(5,11)                 1.0905         estimate D2E/DX2                !
 ! R11   R(6,7)                  1.429          estimate D2E/DX2                !
 ! R12   R(6,12)                 1.0885         estimate D2E/DX2                !
 ! R13   R(6,13)                 1.0893         estimate D2E/DX2                !
 ! A1    A(1,2,3)              125.2496         estimate D2E/DX2                !
 ! A2    A(1,2,8)              123.1058         estimate D2E/DX2                !
 ! A3    A(3,2,8)              111.6442         estimate D2E/DX2                !
 ! A4    A(2,3,4)              123.1121         estimate D2E/DX2                !
 ! A5    A(2,3,9)              118.8713         estimate D2E/DX2                !
 ! A6    A(4,3,9)              117.9385         estimate D2E/DX2                !
 ! A7    A(3,4,5)              111.244          estimate D2E/DX2                !
 ! A8    A(3,4,10)             110.3048         estimate D2E/DX2                !
 ! A9    A(5,4,10)             109.351          estimate D2E/DX2                !
 ! A10   A(4,5,6)              121.8263         estimate D2E/DX2                !
 ! A11   A(4,5,7)              115.3442         estimate D2E/DX2                !
 ! A12   A(4,5,11)             115.2671         estimate D2E/DX2                !
 ! A13   A(6,5,11)             118.5093         estimate D2E/DX2                !
 ! A14   A(7,5,11)             113.9112         estimate D2E/DX2                !
 ! A15   A(5,6,12)             119.6496         estimate D2E/DX2                !
 ! A16   A(5,6,13)             119.5979         estimate D2E/DX2                !
 ! A17   A(7,6,12)             115.513          estimate D2E/DX2                !
 ! A18   A(7,6,13)             115.3922         estimate D2E/DX2                !
 ! A19   A(12,6,13)            115.2093         estimate D2E/DX2                !
 ! D1    D(1,2,3,4)             -1.5952         estimate D2E/DX2                !
 ! D2    D(1,2,3,9)           -178.3126         estimate D2E/DX2                !
 ! D3    D(8,2,3,4)            178.6118         estimate D2E/DX2                !
 ! D4    D(8,2,3,9)              1.8944         estimate D2E/DX2                !
 ! D5    D(2,3,4,5)           -120.488          estimate D2E/DX2                !
 ! D6    D(2,3,4,10)           117.9843         estimate D2E/DX2                !
 ! D7    D(9,3,4,5)             56.2582         estimate D2E/DX2                !
 ! D8    D(9,3,4,10)           -65.2695         estimate D2E/DX2                !
 ! D9    D(3,4,5,6)           -140.6442         estimate D2E/DX2                !
 ! D10   D(3,4,5,7)            -72.7407         estimate D2E/DX2                !
 ! D11   D(3,4,5,11)            63.2715         estimate D2E/DX2                !
 ! D12   D(10,4,5,6)           -18.5619         estimate D2E/DX2                !
 ! D13   D(10,4,5,7)            49.3416         estimate D2E/DX2                !
 ! D14   D(10,4,5,11)         -174.6462         estimate D2E/DX2                !
 ! D15   D(4,5,6,12)          -153.7651         estimate D2E/DX2                !
 ! D16   D(4,5,6,13)            -1.2687         estimate D2E/DX2                !
 ! D17   D(11,5,6,12)            1.5772         estimate D2E/DX2                !
 ! D18   D(11,5,6,13)          154.0736         estimate D2E/DX2                !
 --------------------------------------------------------------------------------
 Trust Radius=3.00D-01 FncErr=1.00D-07 GrdErr=1.00D-06 EigMax=2.50D+02 EigMin=1.00D-04
 Number of steps in this run=     60 maximum allowed number of steps=    100.
 GradGradGradGradGradGradGradGradGradGradGradGradGradGradGradGradGradGrad

 Leave Link  103 at Fri Aug 26 14:23:33 2022, MaxMem=  8053063680 cpu:               0.2 elap:               0.0
 (Enter /public3/home/scg5914/software-scg5914/g16/l202.exe)
                          Input orientation:                          
 ---------------------------------------------------------------------
 Center     Atomic      Atomic             Coordinates (Angstroms)
 Number     Number       Type             X           Y           Z
 ---------------------------------------------------------------------
      1          8           0       -0.115621    0.333268    0.706368
      2          6           0        0.047903    1.282356   -0.030658
      3          7           0        1.230114    1.638197   -0.602053
      4          6           0        2.472904    0.924576   -0.364500
      5          6           0        3.519391    1.832897    0.232430
      6          6           0        4.928377    1.755977   -0.166168
      7          8           0        4.084584    2.793782   -0.669248
      8          1           0       -0.770248    1.969702   -0.322593
      9          1           0        1.262278    2.463034   -1.180724
     10          1           0        2.852603    0.499157   -1.301445
     11          1           0        3.277992    2.238028    1.215707
     12          1           0        5.702771    2.076688    0.528373
     13          1           0        5.240645    1.011949   -0.897939
 ---------------------------------------------------------------------
                    Distance matrix (angstroms):
                    1          2          3          4          5
     1  O    0.000000
     2  C    1.212730   0.000000
     3  N    2.286002   1.360418   0.000000
     4  C    2.863016   2.473880   1.452657   0.000000
     5  C    3.960658   3.524704   2.444394   1.508810   0.000000
     6  C    5.312940   4.905273   3.725724   2.599983   1.466301
     7  O    5.058475   4.357408   3.080243   2.486828   1.433794
     8  H    2.040886   1.107720   2.046812   3.407650   4.327560
     9  H    3.161586   2.047281   1.008093   2.121011   2.736538
    10  H    3.587365   3.177207   2.102149   1.096822   2.139215
    11  H    3.924812   3.591686   2.803187   2.206894   1.090523
    12  H    6.076584   5.737683   4.634091   3.543533   2.216791
    13  H    5.632405   5.271609   4.069901   2.820032   2.216845
                    6          7          8          9         10
     6  C    0.000000
     7  O    1.429026   0.000000
     8  H    5.704777   4.936464   0.000000
     9  H    3.869049   2.887285   2.260736   0.000000
    10  H    2.679046   2.680066   4.030596   2.529925   0.000000
    11  H    2.205838   2.124267   4.338965   3.139525   3.088800
    12  H    1.088544   2.137065   6.529591   4.773704   3.736347
    13  H    1.089301   2.136283   6.113849   4.244175   2.475584
                   11         12         13
    11  H    0.000000
    12  H    2.525472   0.000000
    13  H    3.134131   1.838910   0.000000
 Stoichiometry    C4H6NO2(2)
 Framework group  C1[X(C4H6NO2)]
 Deg. of freedom    33
 Full point group                 C1      NOp   1
 Largest Abelian subgroup         C1      NOp   1
 Largest concise Abelian subgroup C1      NOp   1
                         Standard orientation:                         
 ---------------------------------------------------------------------
 Center     Atomic      Atomic             Coordinates (Angstroms)
 Number     Number       Type             X           Y           Z
 ---------------------------------------------------------------------
      1          8           0        2.753858   -0.754895   -0.179428
      2          6           0        2.273833    0.356402   -0.106554
      3          7           0        0.987852    0.635086    0.238877
      4          6           0        0.005560   -0.392870    0.536571
      5          6           0       -1.175374   -0.307811   -0.398667
      6          6           0       -2.548367   -0.525471    0.067756
      7          8           0       -2.060818    0.796548   -0.170312
      8          1           0        2.849844    1.279171   -0.315720
      9          1           0        0.682517    1.595812    0.244062
     10          1           0       -0.343283   -0.297514    1.572058
     11          1           0       -0.949260   -0.482777   -1.451045
     12          1           0       -3.304671   -0.879134   -0.630709
     13          1           0       -2.728338   -0.775877    1.112497
 ---------------------------------------------------------------------
 Rotational constants (GHZ):           9.6979482           1.2585882           1.1858873
 Leave Link  202 at Fri Aug 26 14:23:33 2022, MaxMem=  8053063680 cpu:               0.2 elap:               0.0
 (Enter /public3/home/scg5914/software-scg5914/g16/l301.exe)
 Standard basis: 6-311+G(d,p) (5D, 7F)
 Ernie: Thresh=  0.10000D-02 Tol=  0.10000D-05 Strict=F.
 There are   197 symmetry adapted cartesian basis functions of A   symmetry.
 There are   190 symmetry adapted basis functions of A   symmetry.
   190 basis functions,   300 primitive gaussians,   197 cartesian basis functions
    27 alpha electrons       26 beta electrons
       nuclear repulsion energy       283.3981787560 Hartrees.
 IExCor=  402 DFT=T Ex+Corr=B3LYP ExCW=0 ScaHFX=  0.200000
 ScaDFX=  0.800000  0.720000  1.000000  0.810000 ScalE2=  1.000000  1.000000
 IRadAn=      5 IRanWt=     -1 IRanGd=            0 ICorTp=0 IEmpDi=141
 NAtoms=   13 NActive=   13 NUniq=   13 SFac= 1.00D+00 NAtFMM=   60 NAOKFM=F Big=F
 Integral buffers will be    131072 words long.
 Raffenetti 2 integral format.
 Two-electron integral symmetry is turned on.
 R6Disp:  Grimme-D3(BJ) Dispersion energy=       -0.0160753484 Hartrees.
 Nuclear repulsion after empirical dispersion term =      283.3821034076 Hartrees.
 Leave Link  301 at Fri Aug 26 14:23:33 2022, MaxMem=  8053063680 cpu:               1.1 elap:               0.0
 (Enter /public3/home/scg5914/software-scg5914/g16/l302.exe)
 NPDir=0 NMtPBC=     1 NCelOv=     1 NCel=       1 NClECP=     1 NCelD=      1
         NCelK=      1 NCelE2=     1 NClLst=     1 CellRange=     0.0.
 One-electron integrals computed using PRISM.
 One-electron integral symmetry used in STVInt
 NBasis=   190 RedAO= T EigKep=  4.54D-05  NBF=   190
 NBsUse=   190 1.00D-06 EigRej= -1.00D+00 NBFU=   190
 Precomputing XC quadrature grid using
 IXCGrd= 4 IRadAn=           5 IRanWt=          -1 IRanGd=           0 AccXCQ= 0.00D+00.
 Generated NRdTot=       0 NPtTot=           0 NUsed=           0 NTot=          32
 NSgBfM=   197   197   197   197   197 MxSgAt=    13 MxSgA2=    13.
 Leave Link  302 at Fri Aug 26 14:23:33 2022, MaxMem=  8053063680 cpu:               3.7 elap:               0.1
 (Enter /public3/home/scg5914/software-scg5914/g16/l303.exe)
 DipDrv:  MaxL=1.
 Leave Link  303 at Fri Aug 26 14:23:33 2022, MaxMem=  8053063680 cpu:               0.5 elap:               0.0
 (Enter /public3/home/scg5914/software-scg5914/g16/l401.exe)
 ExpMin= 4.38D-02 ExpMax= 8.59D+03 ExpMxC= 1.30D+03 IAcc=3 IRadAn=         5 AccDes= 0.00D+00
 Harris functional with IExCor=  402 and IRadAn=       5 diagonalized for initial guess.
 HarFok:  IExCor=  402 AccDes= 0.00D+00 IRadAn=         5 IDoV= 1 UseB2=F ITyADJ=14
 ICtDFT=  3500011 ScaDFX=  1.000000  1.000000  1.000000  1.000000
 FoFCou: FMM=F IPFlag=           0 FMFlag=      100000 FMFlg1=           0
         NFxFlg=           0 DoJE=T BraDBF=F KetDBF=T FulRan=T
         wScrn=  0.000000 ICntrl=       500 IOpCl=  0 I1Cent=   200000004 NGrid=           0
         NMat0=    1 NMatS0=      1 NMatT0=    0 NMatD0=    1 NMtDS0=    0 NMtDT0=    0
 Petite list used in FoFCou.
 Harris En= -361.215650657527    
 JPrj=0 DoOrth=F DoCkMO=F.
 Initial guess <Sx>= 0.0000 <Sy>= 0.0000 <Sz>= 0.5000 <S**2>= 0.7500 S= 0.5000
 Leave Link  401 at Fri Aug 26 14:23:34 2022, MaxMem=  8053063680 cpu:               8.8 elap:               0.3
 (Enter /public3/home/scg5914/software-scg5914/g16/l502.exe)
 Integral symmetry usage will be decided dynamically.
 UHF open shell SCF:
 Using DIIS extrapolation, IDIIS=  1040.
 NGot=  8053063680 LenX=  8052977452 LenY=  8052938202
 Requested convergence on RMS density matrix=1.00D-08 within 128 cycles.
 Requested convergence on MAX density matrix=1.00D-06.
 Requested convergence on             energy=1.00D-06.
 No special actions if energy rises.
 Fock matrices will be formed incrementally for  20 cycles.

 Cycle   1  Pass 1  IDiag  1:
 FoFJK:  IHMeth= 1 ICntrl=       0 DoSepK=F KAlg= 0 I1Cent=           0 FoldK=F
 IRaf= 950000000 NMat=       1 IRICut=       1 DoRegI=T DoRafI=F ISym2E= 0 IDoP0=0 IntGTp=1.
 FoFCou: FMM=F IPFlag=           0 FMFlag=      100000 FMFlg1=           0
         NFxFlg=           0 DoJE=F BraDBF=F KetDBF=F FulRan=T
         wScrn=  0.000000 ICntrl=         0 IOpCl=  1 I1Cent=           0 NGrid=           0
         NMat0=    1 NMatS0=      1 NMatT0=    0 NMatD0=    1 NMtDS0=    0 NMtDT0=    0
 Symmetry not used in FoFCou.
 E= -361.086298769091    
 DIIS: error= 2.37D-02 at cycle   1 NSaved=   1.
 NSaved= 1 IEnMin= 1 EnMin= -361.086298769091     IErMin= 1 ErrMin= 2.37D-02
 ErrMax= 2.37D-02  0.00D+00 EMaxC= 1.00D-01 BMatC= 8.42D-01 BMatP= 8.42D-01
 IDIUse=3 WtCom= 7.63D-01 WtEn= 2.37D-01
 Coeff-Com:  0.100D+01
 Coeff-En:   0.100D+01
 Coeff:      0.100D+01
 Gap=     0.311 Goal=   None    Shift=    0.000
 Gap=     0.114 Goal=   None    Shift=    0.000
 GapD=    0.114 DampG=1.000 DampE=0.500 DampFc=0.5000 IDamp=-1.
 Damping current iteration by 5.00D-01
 RMSDP=1.13D-02 MaxDP=7.43D-01              OVMax= 6.36D-01

 Cycle   2  Pass 1  IDiag  1:
 RMSU=  5.63D-03    CP:  1.03D+00
 E= -361.048969112883     Delta-E=        0.037329656208 Rises=F Damp=T
 DIIS: error= 1.81D-02 at cycle   2 NSaved=   2.
 NSaved= 2 IEnMin= 1 EnMin= -361.086298769091     IErMin= 2 ErrMin= 1.81D-02
 ErrMax= 1.81D-02  0.00D+00 EMaxC= 1.00D-01 BMatC= 3.22D-01 BMatP= 8.42D-01
 IDIUse=3 WtCom= 8.19D-01 WtEn= 1.81D-01
 Coeff-Com:  0.344D+00 0.656D+00
 Coeff-En:   0.580D+00 0.420D+00
 Coeff:      0.387D+00 0.613D+00
 Gap=     0.280 Goal=   None    Shift=    0.000
 Gap=     0.074 Goal=   None    Shift=    0.000
 RMSDP=4.66D-03 MaxDP=3.47D-01 DE= 3.73D-02 OVMax= 5.25D-01

 Cycle   3  Pass 1  IDiag  1:
 RMSU=  2.23D-03    CP:  9.97D-01  2.78D-01
 E= -361.199392512875     Delta-E=       -0.150423399992 Rises=F Damp=F
 DIIS: error= 1.65D-02 at cycle   3 NSaved=   3.
 NSaved= 3 IEnMin= 3 EnMin= -361.199392512875     IErMin= 3 ErrMin= 1.65D-02
 ErrMax= 1.65D-02  0.00D+00 EMaxC= 1.00D-01 BMatC= 1.94D-01 BMatP= 3.22D-01
 IDIUse=3 WtCom= 8.35D-01 WtEn= 1.65D-01
 Coeff-Com:  0.104D+00 0.423D+00 0.473D+00
 Coeff-En:   0.000D+00 0.000D+00 0.100D+01
 Coeff:      0.872D-01 0.353D+00 0.560D+00
 Gap=     0.275 Goal=   None    Shift=    0.000
 Gap=     0.158 Goal=   None    Shift=    0.000
 RMSDP=1.64D-03 MaxDP=4.64D-02 DE=-1.50D-01 OVMax= 1.19D-01

 Cycle   4  Pass 1  IDiag  1:
 RMSU=  1.24D-03    CP:  1.02D+00  3.94D-01  6.45D-01
 E= -361.234097433432     Delta-E=       -0.034704920557 Rises=F Damp=F
 DIIS: error= 5.46D-03 at cycle   4 NSaved=   4.
 NSaved= 4 IEnMin= 4 EnMin= -361.234097433432     IErMin= 4 ErrMin= 5.46D-03
 ErrMax= 5.46D-03  0.00D+00 EMaxC= 1.00D-01 BMatC= 4.25D-02 BMatP= 1.94D-01
 IDIUse=3 WtCom= 9.45D-01 WtEn= 5.46D-02
 Coeff-Com:  0.116D-02 0.125D+00 0.343D+00 0.531D+00
 Coeff-En:   0.000D+00 0.000D+00 0.180D+00 0.820D+00
 Coeff:      0.110D-02 0.119D+00 0.334D+00 0.546D+00
 Gap=     0.270 Goal=   None    Shift=    0.000
 Gap=     0.142 Goal=   None    Shift=    0.000
 RMSDP=5.86D-04 MaxDP=2.48D-02 DE=-3.47D-02 OVMax= 3.65D-02

 Cycle   5  Pass 1  IDiag  1:
 RMSU=  3.56D-04    CP:  1.01D+00  3.61D-01  7.52D-01  7.31D-01
 E= -361.241859655299     Delta-E=       -0.007762221867 Rises=F Damp=F
 DIIS: error= 1.58D-03 at cycle   5 NSaved=   5.
 NSaved= 5 IEnMin= 5 EnMin= -361.241859655299     IErMin= 5 ErrMin= 1.58D-03
 ErrMax= 1.58D-03  0.00D+00 EMaxC= 1.00D-01 BMatC= 3.17D-03 BMatP= 4.25D-02
 IDIUse=3 WtCom= 9.84D-01 WtEn= 1.58D-02
 Coeff-Com: -0.117D-01 0.346D-01 0.125D+00 0.294D+00 0.558D+00
 Coeff-En:   0.000D+00 0.000D+00 0.000D+00 0.000D+00 0.100D+01
 Coeff:     -0.115D-01 0.341D-01 0.123D+00 0.289D+00 0.565D+00
 Gap=     0.266 Goal=   None    Shift=    0.000
 Gap=     0.147 Goal=   None    Shift=    0.000
 RMSDP=1.79D-04 MaxDP=6.45D-03 DE=-7.76D-03 OVMax= 8.36D-03

 Cycle   6  Pass 1  IDiag  1:
 RMSU=  1.47D-04    CP:  1.01D+00  3.65D-01  7.48D-01  7.71D-01  7.74D-01
 E= -361.242486601249     Delta-E=       -0.000626945949 Rises=F Damp=F
 DIIS: error= 8.06D-04 at cycle   6 NSaved=   6.
 NSaved= 6 IEnMin= 6 EnMin= -361.242486601249     IErMin= 6 ErrMin= 8.06D-04
 ErrMax= 8.06D-04  0.00D+00 EMaxC= 1.00D-01 BMatC= 3.99D-04 BMatP= 3.17D-03
 IDIUse=3 WtCom= 9.92D-01 WtEn= 8.06D-03
 Coeff-Com: -0.690D-02 0.468D-02 0.217D-01 0.770D-01 0.309D+00 0.594D+00
 Coeff-En:   0.000D+00 0.000D+00 0.000D+00 0.000D+00 0.183D-01 0.982D+00
 Coeff:     -0.684D-02 0.464D-02 0.215D-01 0.764D-01 0.307D+00 0.598D+00
 Gap=     0.266 Goal=   None    Shift=    0.000
 Gap=     0.149 Goal=   None    Shift=    0.000
 RMSDP=8.93D-05 MaxDP=4.58D-03 DE=-6.27D-04 OVMax= 3.81D-03

 Cycle   7  Pass 1  IDiag  1:
 RMSU=  6.00D-05    CP:  1.01D+00  3.68D-01  7.57D-01  7.85D-01  8.40D-01
                    CP:  6.66D-01
 E= -361.242555533993     Delta-E=       -0.000068932745 Rises=F Damp=F
 DIIS: error= 2.67D-04 at cycle   7 NSaved=   7.
 NSaved= 7 IEnMin= 7 EnMin= -361.242555533993     IErMin= 7 ErrMin= 2.67D-04
 ErrMax= 2.67D-04  0.00D+00 EMaxC= 1.00D-01 BMatC= 8.04D-05 BMatP= 3.99D-04
 IDIUse=3 WtCom= 9.97D-01 WtEn= 2.67D-03
 Coeff-Com: -0.235D-02-0.292D-02-0.684D-02-0.507D-03 0.109D+00 0.364D+00
 Coeff-Com:  0.539D+00
 Coeff-En:   0.000D+00 0.000D+00 0.000D+00 0.000D+00 0.000D+00 0.385D-01
 Coeff-En:   0.962D+00
 Coeff:     -0.234D-02-0.291D-02-0.682D-02-0.506D-03 0.109D+00 0.364D+00
 Coeff:      0.540D+00
 Gap=     0.266 Goal=   None    Shift=    0.000
 Gap=     0.149 Goal=   None    Shift=    0.000
 RMSDP=2.68D-05 MaxDP=1.00D-03 DE=-6.89D-05 OVMax= 2.05D-03

 Cycle   8  Pass 1  IDiag  1:
 RMSU=  1.93D-05    CP:  1.01D+00  3.67D-01  7.55D-01  7.88D-01  8.55D-01
                    CP:  7.63D-01  9.70D-01
 E= -361.242572054969     Delta-E=       -0.000016520976 Rises=F Damp=F
 DIIS: error= 6.15D-05 at cycle   8 NSaved=   8.
 NSaved= 8 IEnMin= 8 EnMin= -361.242572054969     IErMin= 8 ErrMin= 6.15D-05
 ErrMax= 6.15D-05  0.00D+00 EMaxC= 1.00D-01 BMatC= 4.94D-06 BMatP= 8.04D-05
 IDIUse=1 WtCom= 1.00D+00 WtEn= 0.00D+00
 Coeff-Com:  0.703D-03-0.966D-03-0.419D-02-0.132D-01-0.229D-01-0.151D-01
 Coeff-Com:  0.181D+00 0.875D+00
 Coeff:      0.703D-03-0.966D-03-0.419D-02-0.132D-01-0.229D-01-0.151D-01
 Coeff:      0.181D+00 0.875D+00
 Gap=     0.266 Goal=   None    Shift=    0.000
 Gap=     0.150 Goal=   None    Shift=    0.000
 RMSDP=1.29D-05 MaxDP=4.21D-04 DE=-1.65D-05 OVMax= 1.46D-03

 Cycle   9  Pass 1  IDiag  1:
 RMSU=  8.02D-06    CP:  1.01D+00  3.66D-01  7.56D-01  7.87D-01  8.65D-01
                    CP:  7.65D-01  1.11D+00  1.11D+00
 E= -361.242573748113     Delta-E=       -0.000001693144 Rises=F Damp=F
 DIIS: error= 2.03D-05 at cycle   9 NSaved=   9.
 NSaved= 9 IEnMin= 9 EnMin= -361.242573748113     IErMin= 9 ErrMin= 2.03D-05
 ErrMax= 2.03D-05  0.00D+00 EMaxC= 1.00D-01 BMatC= 5.15D-07 BMatP= 4.94D-06
 IDIUse=1 WtCom= 1.00D+00 WtEn= 0.00D+00
 Coeff-Com:  0.282D-03-0.425D-04-0.808D-03-0.380D-02-0.159D-01-0.343D-01
 Coeff-Com:  0.122D-01 0.292D+00 0.750D+00
 Coeff:      0.282D-03-0.425D-04-0.808D-03-0.380D-02-0.159D-01-0.343D-01
 Coeff:      0.122D-01 0.292D+00 0.750D+00
 Gap=     0.266 Goal=   None    Shift=    0.000
 Gap=     0.150 Goal=   None    Shift=    0.000
 RMSDP=3.56D-06 MaxDP=1.44D-04 DE=-1.69D-06 OVMax= 2.81D-04

 Cycle  10  Pass 1  IDiag  1:
 RMSU=  2.80D-06    CP:  1.01D+00  3.67D-01  7.56D-01  7.87D-01  8.65D-01
                    CP:  7.74D-01  1.12D+00  1.15D+00  9.09D-01
 E= -361.242573906626     Delta-E=       -0.000000158513 Rises=F Damp=F
 DIIS: error= 1.18D-05 at cycle  10 NSaved=  10.
 NSaved=10 IEnMin=10 EnMin= -361.242573906626     IErMin=10 ErrMin= 1.18D-05
 ErrMax= 1.18D-05  0.00D+00 EMaxC= 1.00D-01 BMatC= 1.41D-07 BMatP= 5.15D-07
 IDIUse=1 WtCom= 1.00D+00 WtEn= 0.00D+00
 Coeff-Com: -0.309D-04 0.209D-03 0.299D-03 0.656D-03-0.343D-02-0.132D-01
 Coeff-Com: -0.302D-01-0.419D-01 0.358D+00 0.730D+00
 Coeff:     -0.309D-04 0.209D-03 0.299D-03 0.656D-03-0.343D-02-0.132D-01
 Coeff:     -0.302D-01-0.419D-01 0.358D+00 0.730D+00
 Gap=     0.266 Goal=   None    Shift=    0.000
 Gap=     0.150 Goal=   None    Shift=    0.000
 RMSDP=1.85D-06 MaxDP=8.85D-05 DE=-1.59D-07 OVMax= 8.93D-05

 Cycle  11  Pass 1  IDiag  1:
 RMSU=  9.94D-07    CP:  1.01D+00  3.67D-01  7.56D-01  7.88D-01  8.65D-01
                    CP:  7.73D-01  1.14D+00  1.18D+00  9.81D-01  9.29D-01
 E= -361.242573950408     Delta-E=       -0.000000043781 Rises=F Damp=F
 DIIS: error= 2.38D-06 at cycle  11 NSaved=  11.
 NSaved=11 IEnMin=11 EnMin= -361.242573950408     IErMin=11 ErrMin= 2.38D-06
 ErrMax= 2.38D-06  0.00D+00 EMaxC= 1.00D-01 BMatC= 4.16D-09 BMatP= 1.41D-07
 IDIUse=1 WtCom= 1.00D+00 WtEn= 0.00D+00
 Coeff-Com: -0.291D-04 0.528D-04 0.598D-04 0.339D-03 0.979D-03 0.175D-02
 Coeff-Com: -0.307D-02-0.287D-01-0.326D-01 0.549D-01 0.101D+01
 Coeff:     -0.291D-04 0.528D-04 0.598D-04 0.339D-03 0.979D-03 0.175D-02
 Coeff:     -0.307D-02-0.287D-01-0.326D-01 0.549D-01 0.101D+01
 Gap=     0.266 Goal=   None    Shift=    0.000
 Gap=     0.150 Goal=   None    Shift=    0.000
 RMSDP=4.23D-07 MaxDP=1.47D-05 DE=-4.38D-08 OVMax= 2.48D-05

 Cycle  12  Pass 1  IDiag  1:
 RMSU=  2.45D-07    CP:  1.01D+00  3.67D-01  7.56D-01  7.88D-01  8.65D-01
                    CP:  7.73D-01  1.14D+00  1.18D+00  1.00D+00  1.01D+00
                    CP:  1.08D+00
 E= -361.242573952565     Delta-E=       -0.000000002158 Rises=F Damp=F
 DIIS: error= 9.17D-07 at cycle  12 NSaved=  12.
 NSaved=12 IEnMin=12 EnMin= -361.242573952565     IErMin=12 ErrMin= 9.17D-07
 ErrMax= 9.17D-07  0.00D+00 EMaxC= 1.00D-01 BMatC= 6.96D-10 BMatP= 4.16D-09
 IDIUse=1 WtCom= 1.00D+00 WtEn= 0.00D+00
 Coeff-Com: -0.646D-05-0.455D-05-0.670D-05 0.689D-04 0.593D-03 0.154D-02
 Coeff-Com:  0.130D-02-0.641D-02-0.359D-01-0.364D-01 0.306D+00 0.769D+00
 Coeff:     -0.646D-05-0.455D-05-0.670D-05 0.689D-04 0.593D-03 0.154D-02
 Coeff:      0.130D-02-0.641D-02-0.359D-01-0.364D-01 0.306D+00 0.769D+00
 Gap=     0.266 Goal=   None    Shift=    0.000
 Gap=     0.150 Goal=   None    Shift=    0.000
 RMSDP=1.52D-07 MaxDP=6.22D-06 DE=-2.16D-09 OVMax= 9.92D-06

 Cycle  13  Pass 1  IDiag  1:
 RMSU=  9.66D-08    CP:  1.01D+00  3.67D-01  7.56D-01  7.88D-01  8.65D-01
                    CP:  7.73D-01  1.14D+00  1.18D+00  9.97D-01  1.02D+00
                    CP:  1.15D+00  1.02D+00
 E= -361.242573952845     Delta-E=       -0.000000000279 Rises=F Damp=F
 DIIS: error= 4.88D-07 at cycle  13 NSaved=  13.
 NSaved=13 IEnMin=13 EnMin= -361.242573952845     IErMin=13 ErrMin= 4.88D-07
 ErrMax= 4.88D-07  0.00D+00 EMaxC= 1.00D-01 BMatC= 2.11D-10 BMatP= 6.96D-10
 IDIUse=1 WtCom= 1.00D+00 WtEn= 0.00D+00
 Coeff-Com:  0.390D-05-0.751D-05-0.453D-05-0.258D-04 0.686D-04 0.268D-03
 Coeff-Com:  0.103D-02 0.249D-02-0.877D-02-0.244D-01-0.562D-01 0.348D+00
 Coeff-Com:  0.738D+00
 Coeff:      0.390D-05-0.751D-05-0.453D-05-0.258D-04 0.686D-04 0.268D-03
 Coeff:      0.103D-02 0.249D-02-0.877D-02-0.244D-01-0.562D-01 0.348D+00
 Coeff:      0.738D+00
 Gap=     0.266 Goal=   None    Shift=    0.000
 Gap=     0.150 Goal=   None    Shift=    0.000
 RMSDP=7.38D-08 MaxDP=3.50D-06 DE=-2.79D-10 OVMax= 5.10D-06

 Cycle  14  Pass 1  IDiag  1:
 RMSU=  4.62D-08    CP:  1.01D+00  3.67D-01  7.56D-01  7.88D-01  8.65D-01
                    CP:  7.73D-01  1.14D+00  1.18D+00  9.99D-01  1.02D+00
                    CP:  1.15D+00  1.16D+00  9.33D-01
 E= -361.242573952936     Delta-E=       -0.000000000092 Rises=F Damp=F
 DIIS: error= 2.03D-07 at cycle  14 NSaved=  14.
 NSaved=14 IEnMin=14 EnMin= -361.242573952936     IErMin=14 ErrMin= 2.03D-07
 ErrMax= 2.03D-07  0.00D+00 EMaxC= 1.00D-01 BMatC= 1.78D-11 BMatP= 2.11D-10
 IDIUse=1 WtCom= 1.00D+00 WtEn= 0.00D+00
 Coeff-Com:  0.115D-05-0.164D-05 0.163D-05-0.109D-04-0.727D-04-0.177D-03
 Coeff-Com: -0.917D-04 0.121D-02 0.438D-02 0.324D-02-0.613D-01-0.886D-01
 Coeff-Com:  0.934D-01 0.105D+01
 Coeff:      0.115D-05-0.164D-05 0.163D-05-0.109D-04-0.727D-04-0.177D-03
 Coeff:     -0.917D-04 0.121D-02 0.438D-02 0.324D-02-0.613D-01-0.886D-01
 Coeff:      0.934D-01 0.105D+01
 Gap=     0.266 Goal=   None    Shift=    0.000
 Gap=     0.150 Goal=   None    Shift=    0.000
 RMSDP=3.12D-08 MaxDP=1.06D-06 DE=-9.15D-11 OVMax= 2.68D-06

 Cycle  15  Pass 1  IDiag  1:
 RMSU=  2.02D-08    CP:  1.01D+00  3.67D-01  7.56D-01  7.88D-01  8.65D-01
                    CP:  7.73D-01  1.14D+00  1.18D+00  9.99D-01  1.02D+00
                    CP:  1.16D+00  1.22D+00  1.12D+00  1.13D+00
 E= -361.242573952951     Delta-E=       -0.000000000015 Rises=F Damp=F
 DIIS: error= 8.35D-08 at cycle  15 NSaved=  15.
 NSaved=15 IEnMin=15 EnMin= -361.242573952951     IErMin=15 ErrMin= 8.35D-08
 ErrMax= 8.35D-08  0.00D+00 EMaxC= 1.00D-01 BMatC= 4.70D-12 BMatP= 1.78D-11
 IDIUse=1 WtCom= 1.00D+00 WtEn= 0.00D+00
 Coeff-Com: -0.704D-07 0.159D-06 0.154D-05-0.510D-06-0.337D-04-0.917D-04
 Coeff-Com: -0.162D-03 0.176D-03 0.267D-02 0.404D-02-0.175D-01-0.763D-01
 Coeff-Com: -0.492D-01 0.417D+00 0.719D+00
 Coeff:     -0.704D-07 0.159D-06 0.154D-05-0.510D-06-0.337D-04-0.917D-04
 Coeff:     -0.162D-03 0.176D-03 0.267D-02 0.404D-02-0.175D-01-0.763D-01
 Coeff:     -0.492D-01 0.417D+00 0.719D+00
 Gap=     0.266 Goal=   None    Shift=    0.000
 Gap=     0.150 Goal=   None    Shift=    0.000
 RMSDP=1.39D-08 MaxDP=8.77D-07 DE=-1.47D-11 OVMax= 9.14D-07

 Cycle  16  Pass 1  IDiag  1:
 RMSU=  8.62D-09    CP:  1.01D+00  3.67D-01  7.56D-01  7.88D-01  8.65D-01
                    CP:  7.73D-01  1.14D+00  1.18D+00  9.99D-01  1.02D+00
                    CP:  1.16D+00  1.22D+00  1.13D+00  1.28D+00  9.35D-01
 E= -361.242573952955     Delta-E=       -0.000000000005 Rises=F Damp=F
 DIIS: error= 4.06D-08 at cycle  16 NSaved=  16.
 NSaved=16 IEnMin=16 EnMin= -361.242573952955     IErMin=16 ErrMin= 4.06D-08
 ErrMax= 4.06D-08  0.00D+00 EMaxC= 1.00D-01 BMatC= 1.19D-12 BMatP= 4.70D-12
 IDIUse=1 WtCom= 1.00D+00 WtEn= 0.00D+00
 Coeff-Com: -0.253D-06 0.538D-06 0.574D-07 0.154D-05 0.199D-05 0.295D-05
 Coeff-Com: -0.415D-04-0.205D-03 0.865D-06 0.732D-03 0.865D-02-0.101D-01
 Coeff-Com: -0.457D-01-0.100D+00 0.330D+00 0.817D+00
 Coeff:     -0.253D-06 0.538D-06 0.574D-07 0.154D-05 0.199D-05 0.295D-05
 Coeff:     -0.415D-04-0.205D-03 0.865D-06 0.732D-03 0.865D-02-0.101D-01
 Coeff:     -0.457D-01-0.100D+00 0.330D+00 0.817D+00
 Gap=     0.266 Goal=   None    Shift=    0.000
 Gap=     0.150 Goal=   None    Shift=    0.000
 RMSDP=7.47D-09 MaxDP=4.58D-07 DE=-4.66D-12 OVMax= 6.06D-07

 SCF Done:  E(UB3LYP) =  -361.242573953     A.U. after   16 cycles
            NFock= 16  Conv=0.75D-08     -V/T= 2.0038
 <Sx>= 0.0000 <Sy>= 0.0000 <Sz>= 0.5000 <S**2>= 0.7537 S= 0.5018
 <L.S>=  0.00000000000    
 KE= 3.598661797394D+02 PE=-1.412074038150D+03 EE= 4.075831810504D+02
 Annihilation of the first spin contaminant:
 S**2 before annihilation     0.7537,   after     0.7500
 Leave Link  502 at Fri Aug 26 14:23:44 2022, MaxMem=  8053063680 cpu:             330.0 elap:              10.3
 (Enter /public3/home/scg5914/software-scg5914/g16/l601.exe)
 Copying SCF densities to generalized density rwf, IOpCl= 1 IROHF=0.

 **********************************************************************

            Population analysis using the SCF Density.

 **********************************************************************

 Orbital symmetries:
 Alpha Orbitals:
       Occupied  (A) (A) (A) (A) (A) (A) (A) (A) (A) (A) (A) (A)
                 (A) (A) (A) (A) (A) (A) (A) (A) (A) (A) (A) (A)
                 (A) (A) (A)
       Virtual   (A) (A) (A) (A) (A) (A) (A) (A) (A) (A) (A) (A)
                 (A) (A) (A) (A) (A) (A) (A) (A) (A) (A) (A) (A)
                 (A) (A) (A) (A) (A) (A) (A) (A) (A) (A) (A) (A)
                 (A) (A) (A) (A) (A) (A) (A) (A) (A) (A) (A) (A)
                 (A) (A) (A) (A) (A) (A) (A) (A) (A) (A) (A) (A)
                 (A) (A) (A) (A) (A) (A) (A) (A) (A) (A) (A) (A)
                 (A) (A) (A) (A) (A) (A) (A) (A) (A) (A) (A) (A)
                 (A) (A) (A) (A) (A) (A) (A) (A) (A) (A) (A) (A)
                 (A) (A) (A) (A) (A) (A) (A) (A) (A) (A) (A) (A)
                 (A) (A) (A) (A) (A) (A) (A) (A) (A) (A) (A) (A)
                 (A) (A) (A) (A) (A) (A) (A) (A) (A) (A) (A) (A)
                 (A) (A) (A) (A) (A) (A) (A) (A) (A) (A) (A) (A)
                 (A) (A) (A) (A) (A) (A) (A) (A) (A) (A) (A) (A)
                 (A) (A) (A) (A) (A) (A) (A)
 Beta  Orbitals:
       Occupied  (A) (A) (A) (A) (A) (A) (A) (A) (A) (A) (A) (A)
                 (A) (A) (A) (A) (A) (A) (A) (A) (A) (A) (A) (A)
                 (A) (A)
       Virtual   (A) (A) (A) (A) (A) (A) (A) (A) (A) (A) (A) (A)
                 (A) (A) (A) (A) (A) (A) (A) (A) (A) (A) (A) (A)
                 (A) (A) (A) (A) (A) (A) (A) (A) (A) (A) (A) (A)
                 (A) (A) (A) (A) (A) (A) (A) (A) (A) (A) (A) (A)
                 (A) (A) (A) (A) (A) (A) (A) (A) (A) (A) (A) (A)
                 (A) (A) (A) (A) (A) (A) (A) (A) (A) (A) (A) (A)
                 (A) (A) (A) (A) (A) (A) (A) (A) (A) (A) (A) (A)
                 (A) (A) (A) (A) (A) (A) (A) (A) (A) (A) (A) (A)
                 (A) (A) (A) (A) (A) (A) (A) (A) (A) (A) (A) (A)
                 (A) (A) (A) (A) (A) (A) (A) (A) (A) (A) (A) (A)
                 (A) (A) (A) (A) (A) (A) (A) (A) (A) (A) (A) (A)
                 (A) (A) (A) (A) (A) (A) (A) (A) (A) (A) (A) (A)
                 (A) (A) (A) (A) (A) (A) (A) (A) (A) (A) (A) (A)
                 (A) (A) (A) (A) (A) (A) (A) (A)
 The electronic state is 2-A.
 Alpha  occ. eigenvalues --  -19.16825 -19.10224 -14.36184 -10.28136 -10.25887
 Alpha  occ. eigenvalues --  -10.25428 -10.24783  -1.11047  -1.05207  -0.94820
 Alpha  occ. eigenvalues --   -0.76675  -0.69439  -0.64072  -0.60116  -0.57234
 Alpha  occ. eigenvalues --   -0.52598  -0.50705  -0.47301  -0.44409  -0.42637
 Alpha  occ. eigenvalues --   -0.42317  -0.39659  -0.34860  -0.31774  -0.28082
 Alpha  occ. eigenvalues --   -0.27734  -0.27028
 Alpha virt. eigenvalues --   -0.00408   0.00027   0.00442   0.01644   0.02165
 Alpha virt. eigenvalues --    0.03533   0.04571   0.05518   0.06104   0.06858
 Alpha virt. eigenvalues --    0.08199   0.08570   0.08884   0.10803   0.12438
 Alpha virt. eigenvalues --    0.12787   0.14132   0.15748   0.16167   0.16940
 Alpha virt. eigenvalues --    0.17671   0.18193   0.19011   0.19963   0.20298
 Alpha virt. eigenvalues --    0.20723   0.21815   0.22462   0.23609   0.24072
 Alpha virt. eigenvalues --    0.25188   0.26233   0.26712   0.27779   0.28649
 Alpha virt. eigenvalues --    0.30069   0.30777   0.33607   0.34674   0.37388
 Alpha virt. eigenvalues --    0.39192   0.42397   0.43022   0.43960   0.47583
 Alpha virt. eigenvalues --    0.51408   0.54099   0.54905   0.57222   0.59289
 Alpha virt. eigenvalues --    0.59569   0.62406   0.62965   0.63549   0.65059
 Alpha virt. eigenvalues --    0.65295   0.67766   0.68803   0.70841   0.73936
 Alpha virt. eigenvalues --    0.80898   0.81311   0.85312   0.86882   0.91629
 Alpha virt. eigenvalues --    0.93193   0.99000   1.01250   1.07937   1.09646
 Alpha virt. eigenvalues --    1.11925   1.12421   1.14795   1.16194   1.19084
 Alpha virt. eigenvalues --    1.19711   1.21229   1.27939   1.30614   1.32804
 Alpha virt. eigenvalues --    1.36171   1.41012   1.47468   1.48977   1.51387
 Alpha virt. eigenvalues --    1.51890   1.53868   1.56014   1.57991   1.61232
 Alpha virt. eigenvalues --    1.64120   1.66646   1.69742   1.72784   1.76713
 Alpha virt. eigenvalues --    1.78551   1.80123   1.82424   1.84551   1.87192
 Alpha virt. eigenvalues --    1.88658   1.96018   1.99742   2.01979   2.08265
 Alpha virt. eigenvalues --    2.11390   2.18530   2.21193   2.25225   2.35158
 Alpha virt. eigenvalues --    2.37080   2.40926   2.43080   2.51156   2.53564
 Alpha virt. eigenvalues --    2.54799   2.60559   2.62360   2.65124   2.68686
 Alpha virt. eigenvalues --    2.69238   2.73676   2.75416   2.76414   2.79907
 Alpha virt. eigenvalues --    2.84254   2.85571   2.91874   2.92633   2.99353
 Alpha virt. eigenvalues --    3.05622   3.07103   3.16171   3.19704   3.23575
 Alpha virt. eigenvalues --    3.31768   3.36425   3.39265   3.53645   3.59443
 Alpha virt. eigenvalues --    3.65194   3.68255   3.70808   3.85660   3.87245
 Alpha virt. eigenvalues --    3.92338   4.05025   4.45628   4.76496   4.88875
 Alpha virt. eigenvalues --    5.01045   5.03196   5.16818   5.46718   5.54344
 Alpha virt. eigenvalues --    5.74649  23.68629  23.80533  23.86722  23.88311
 Alpha virt. eigenvalues --   35.54811  49.86522  49.98037
  Beta  occ. eigenvalues --  -19.16552 -19.10196 -14.36215 -10.28097 -10.25475
  Beta  occ. eigenvalues --  -10.24776 -10.24337  -1.10539  -1.05108  -0.94272
  Beta  occ. eigenvalues --   -0.74980  -0.69127  -0.63810  -0.59095  -0.56720
  Beta  occ. eigenvalues --   -0.52227  -0.50272  -0.46637  -0.43687  -0.42374
  Beta  occ. eigenvalues --   -0.42081  -0.39335  -0.34457  -0.30840  -0.27699
  Beta  occ. eigenvalues --   -0.27143
  Beta virt. eigenvalues --   -0.12142  -0.00302   0.00080   0.00511   0.01687
  Beta virt. eigenvalues --    0.02388   0.03607   0.04693   0.05528   0.06273
  Beta virt. eigenvalues --    0.07002   0.08550   0.08815   0.09212   0.10972
  Beta virt. eigenvalues --    0.12479   0.12970   0.14245   0.15973   0.16445
  Beta virt. eigenvalues --    0.17301   0.18098   0.18382   0.19232   0.20149
  Beta virt. eigenvalues --    0.20425   0.21008   0.22256   0.22756   0.23976
  Beta virt. eigenvalues --    0.24349   0.25437   0.26535   0.26935   0.27952
  Beta virt. eigenvalues --    0.29043   0.30806   0.30821   0.33915   0.34998
  Beta virt. eigenvalues --    0.37509   0.39541   0.42972   0.43236   0.44095
  Beta virt. eigenvalues --    0.48086   0.51810   0.54943   0.55201   0.57687
  Beta virt. eigenvalues --    0.59620   0.59856   0.62691   0.63199   0.63947
  Beta virt. eigenvalues --    0.65301   0.67460   0.68181   0.69412   0.71538
  Beta virt. eigenvalues --    0.74847   0.81276   0.81946   0.85480   0.86947
  Beta virt. eigenvalues --    0.92397   0.93350   0.99635   1.01639   1.08150
  Beta virt. eigenvalues --    1.09941   1.12374   1.12662   1.15099   1.16406
  Beta virt. eigenvalues --    1.19417   1.20081   1.21702   1.28034   1.30957
  Beta virt. eigenvalues --    1.33841   1.36854   1.42002   1.47956   1.49152
  Beta virt. eigenvalues --    1.51635   1.52572   1.55056   1.56821   1.58579
  Beta virt. eigenvalues --    1.61865   1.64665   1.67260   1.70874   1.73434
  Beta virt. eigenvalues --    1.76831   1.79234   1.80588   1.83496   1.84724
  Beta virt. eigenvalues --    1.87587   1.89644   1.96345   2.00706   2.03195
  Beta virt. eigenvalues --    2.08588   2.12463   2.19057   2.21608   2.25592
  Beta virt. eigenvalues --    2.35562   2.37279   2.41213   2.43412   2.51429
  Beta virt. eigenvalues --    2.54065   2.54963   2.60920   2.63213   2.66101
  Beta virt. eigenvalues --    2.69060   2.69667   2.73890   2.75932   2.76962
  Beta virt. eigenvalues --    2.80224   2.84711   2.86025   2.92016   2.93184
  Beta virt. eigenvalues --    3.01785   3.06146   3.07586   3.16990   3.20475
  Beta virt. eigenvalues --    3.23877   3.32426   3.36488   3.39706   3.53821
  Beta virt. eigenvalues --    3.60093   3.65434   3.68468   3.71153   3.85891
  Beta virt. eigenvalues --    3.87469   3.92401   4.05676   4.46075   4.77059
  Beta virt. eigenvalues --    4.89098   5.01438   5.03264   5.16910   5.47297
  Beta virt. eigenvalues --    5.54677   5.74699  23.70124  23.80709  23.86764
  Beta virt. eigenvalues --   23.88385  35.54782  49.86796  49.98065
          Condensed to atoms (all electrons):
               1          2          3          4          5          6
     1  O    8.063608   0.469310  -0.186841   0.084170  -0.030841   0.007577
     2  C    0.469310   4.847626   0.087991   0.010085  -0.024566  -0.006837
     3  N   -0.186841   0.087991   7.350594  -0.098078   0.021577   0.016224
     4  C    0.084170   0.010085  -0.098078   5.533963   0.036202   0.084045
     5  C   -0.030841  -0.024566   0.021577   0.036202   6.413252  -0.863156
     6  C    0.007577  -0.006837   0.016224   0.084045  -0.863156   6.253060
     7  O    0.000191   0.003520  -0.012901  -0.131792   0.196598   0.130209
     8  H   -0.044073   0.460128  -0.202627   0.037146  -0.005643   0.001838
     9  H    0.006371   0.000312   0.292671  -0.007601  -0.000556  -0.000348
    10  H    0.000942   0.002160  -0.065818   0.479429  -0.095497  -0.007533
    11  H   -0.000097   0.000875  -0.007648   0.030148   0.340640  -0.012728
    12  H   -0.000040  -0.000117  -0.002449   0.015826   0.029209   0.337452
    13  H    0.000021   0.000779   0.002216   0.006425   0.013858   0.356785
               7          8          9         10         11         12
     1  O    0.000191  -0.044073   0.006371   0.000942  -0.000097  -0.000040
     2  C    0.003520   0.460128   0.000312   0.002160   0.000875  -0.000117
     3  N   -0.012901  -0.202627   0.292671  -0.065818  -0.007648  -0.002449
     4  C   -0.131792   0.037146  -0.007601   0.479429   0.030148   0.015826
     5  C    0.196598  -0.005643  -0.000556  -0.095497   0.340640   0.029209
     6  C    0.130209   0.001838  -0.000348  -0.007533  -0.012728   0.337452
     7  O    8.096155   0.000152   0.007115  -0.000913  -0.040123  -0.037387
     8  H    0.000152   0.646821   0.011321  -0.000209   0.000073  -0.000002
     9  H    0.007115   0.011321   0.416554  -0.000477  -0.000085   0.000064
    10  H   -0.000913  -0.000209  -0.000477   0.539058   0.005523   0.000418
    11  H   -0.040123   0.000073  -0.000085   0.005523   0.510101   0.002222
    12  H   -0.037387  -0.000002   0.000064   0.000418   0.002222   0.537130
    13  H   -0.044344  -0.000002   0.000045   0.001701  -0.000643  -0.039197
              13
     1  O    0.000021
     2  C    0.000779
     3  N    0.002216
     4  C    0.006425
     5  C    0.013858
     6  C    0.356785
     7  O   -0.044344
     8  H   -0.000002
     9  H    0.000045
    10  H    0.001701
    11  H   -0.000643
    12  H   -0.039197
    13  H    0.551277
          Atomic-Atomic Spin Densities.
               1          2          3          4          5          6
     1  O    0.004829   0.004075   0.001142  -0.004250   0.000195  -0.000715
     2  C    0.004075   0.040626  -0.005762  -0.010033  -0.007987   0.002760
     3  N    0.001142  -0.005762  -0.009890  -0.045735   0.005496   0.002803
     4  C   -0.004250  -0.010033  -0.045735   1.079699   0.016605  -0.008132
     5  C    0.000195  -0.007987   0.005496   0.016605  -0.072100   0.039628
     6  C   -0.000715   0.002760   0.002803  -0.008132   0.039628  -0.035413
     7  O    0.000053  -0.002150  -0.001833  -0.039670  -0.002020  -0.009951
     8  H   -0.000780   0.003919  -0.001728  -0.000418   0.000159  -0.000110
     9  H    0.000215  -0.015392   0.012144  -0.022211   0.005339  -0.000027
    10  H    0.000028   0.001469   0.002516   0.003452  -0.000669  -0.001160
    11  H    0.000064   0.000416   0.000632  -0.001453   0.001844   0.002831
    12  H    0.000002  -0.000132  -0.000160  -0.001506  -0.005945   0.006778
    13  H   -0.000001   0.000023  -0.000007   0.000039   0.000027  -0.000571
               7          8          9         10         11         12
     1  O    0.000053  -0.000780   0.000215   0.000028   0.000064   0.000002
     2  C   -0.002150   0.003919  -0.015392   0.001469   0.000416  -0.000132
     3  N   -0.001833  -0.001728   0.012144   0.002516   0.000632  -0.000160
     4  C   -0.039670  -0.000418  -0.022211   0.003452  -0.001453  -0.001506
     5  C   -0.002020   0.000159   0.005339  -0.000669   0.001844  -0.005945
     6  C   -0.009951  -0.000110  -0.000027  -0.001160   0.002831   0.006778
     7  O    0.128566  -0.000033   0.005659  -0.004154  -0.002769   0.001274
     8  H   -0.000033  -0.002786  -0.000537   0.000044   0.000020  -0.000000
     9  H    0.005659  -0.000537   0.050198  -0.002231  -0.000590   0.000039
    10  H   -0.004154   0.000044  -0.002231  -0.026236   0.000003  -0.000160
    11  H   -0.002769   0.000020  -0.000590   0.000003   0.001493  -0.000741
    12  H    0.001274  -0.000000   0.000039  -0.000160  -0.000741   0.000633
    13  H    0.000450   0.000000  -0.000009  -0.000120   0.000054   0.000233
              13
     1  O   -0.000001
     2  C    0.000023
     3  N   -0.000007
     4  C    0.000039
     5  C    0.000027
     6  C   -0.000571
     7  O    0.000450
     8  H    0.000000
     9  H   -0.000009
    10  H   -0.000120
    11  H    0.000054
    12  H    0.000233
    13  H   -0.000764
 Mulliken charges and spin densities:
               1          2
     1  O   -0.370300   0.004857
     2  C    0.148732   0.011832
     3  N   -0.194911  -0.040384
     4  C   -0.079969   0.966388
     5  C   -0.031076  -0.019430
     6  C   -0.296590  -0.001280
     7  O   -0.166482   0.073422
     8  H    0.095075  -0.002251
     9  H    0.274613   0.032597
    10  H    0.141215  -0.027220
    11  H    0.171741   0.001803
    12  H    0.156872   0.000314
    13  H    0.151080  -0.000647
 Sum of Mulliken charges =  -0.00000   1.00000
 Mulliken charges and spin densities with hydrogens summed into heavy atoms:
               1          2
     1  O   -0.370300   0.004857
     2  C    0.243807   0.009581
     3  N    0.079701  -0.007787
     4  C    0.061245   0.939168
     5  C    0.140666  -0.017627
     6  C    0.011362  -0.001614
     7  O   -0.166482   0.073422
 Electronic spatial extent (au):  <R**2>=            953.7779
 Charge=              0.0000 electrons
 Dipole moment (field-independent basis, Debye):
    X=             -2.9281    Y=              1.4472    Z=              0.4805  Tot=              3.3014
 Quadrupole moment (field-independent basis, Debye-Ang):
   XX=            -47.9728   YY=            -42.3989   ZZ=            -39.6647
   XY=             12.3959   XZ=             -0.0529   YZ=              0.1386
 Traceless Quadrupole moment (field-independent basis, Debye-Ang):
   XX=             -4.6273   YY=              0.9465   ZZ=              3.6808
   XY=             12.3959   XZ=             -0.0529   YZ=              0.1386
 Octapole moment (field-independent basis, Debye-Ang**2):
  XXX=            -37.0467  YYY=              9.7256  ZZZ=             -0.6845  XYY=              2.0049
  XXY=              8.2346  XXZ=              2.0923  XZZ=             -3.1565  YZZ=             -0.9688
  YYZ=              0.1620  XYZ=             -2.2761
 Hexadecapole moment (field-independent basis, Debye-Ang**3):
 XXXX=          -1038.5120 YYYY=           -136.2846 ZZZZ=            -81.7973 XXXY=             79.3915
 XXXZ=              7.3843 YYYX=              3.9659 YYYZ=              1.9489 ZZZX=             -1.5142
 ZZZY=              0.6536 XXYY=           -201.2408 XXZZ=           -175.4233 YYZZ=            -39.6188
 XXYZ=             -2.4989 YYXZ=             -0.7339 ZZXY=              0.4067
 N-N= 2.833821034076D+02 E-N=-1.412074040985D+03  KE= 3.598661797394D+02
                          Isotropic Fermi Contact Couplings
        Atom                 a.u.       MegaHertz       Gauss      10(-4) cm-1
     1  O(17)              0.00583      -3.53405      -1.26104      -1.17883
     2  C(13)              0.01901      21.36899       7.62499       7.12793
     3  N(14)             -0.01520      -4.91216      -1.75278      -1.63852
     4  C(13)              0.30325     340.91636     121.64743     113.71746
     5  C(13)              0.01002      11.26025       4.01794       3.75602
     6  C(13)             -0.00035      -0.39217      -0.13994      -0.13081
     7  O(17)              0.01902     -11.53030      -4.11430      -3.84609
     8  H(1)              -0.00074      -3.32499      -1.18644      -1.10910
     9  H(1)               0.01562      69.84016      24.92071      23.29617
    10  H(1)              -0.00287     -12.84134      -4.58211      -4.28341
    11  H(1)               0.00088       3.91215       1.39595       1.30495
    12  H(1)               0.00034       1.52686       0.54482       0.50931
    13  H(1)              -0.00016      -0.73450      -0.26209      -0.24500
 --------------------------------------------------------
       Center         ----  Spin Dipole Couplings  ----
                      3XX-RR        3YY-RR        3ZZ-RR
 --------------------------------------------------------
     1   Atom        0.011857      0.003518     -0.015376
     2   Atom        0.024876     -0.009715     -0.015162
     3   Atom       -0.012147      0.039928     -0.027781
     4   Atom       -0.161353      0.669387     -0.508035
     5   Atom        0.020990     -0.035944      0.014954
     6   Atom        0.020502     -0.009252     -0.011251
     7   Atom        0.261728     -0.091754     -0.169974
     8   Atom        0.003750      0.000093     -0.003842
     9   Atom       -0.003696      0.014502     -0.010806
    10   Atom       -0.038489     -0.022921      0.061410
    11   Atom       -0.002001     -0.008568      0.010568
    12   Atom        0.003883     -0.001864     -0.002019
    13   Atom        0.008446     -0.004363     -0.004083
 --------------------------------------------------------
                        XY            XZ            YZ
 --------------------------------------------------------
     1   Atom        0.026050     -0.017375     -0.015578
     2   Atom        0.004259     -0.008207     -0.002219
     3   Atom        0.021005     -0.001984      0.000220
     4   Atom       -0.684851     -0.094183      0.172972
     5   Atom       -0.002999      0.020859     -0.000423
     6   Atom       -0.000207     -0.000413      0.000098
     7   Atom       -0.233249      0.154292     -0.086272
     8   Atom        0.004870     -0.002301     -0.001443
     9   Atom        0.004720     -0.001307     -0.003332
    10   Atom       -0.022420     -0.036888      0.003618
    11   Atom       -0.002319      0.012138     -0.000798
    12   Atom        0.002016      0.002952      0.000951
    13   Atom        0.001954     -0.003296     -0.001834
 --------------------------------------------------------


 ---------------------------------------------------------------------------------
              Anisotropic Spin Dipole Couplings in Principal Axis System
 ---------------------------------------------------------------------------------

       Atom             a.u.   MegaHertz   Gauss  10(-4) cm-1        Axes

              Baa    -0.0247     1.787     0.638     0.596  0.2215  0.3066  0.9257
     1 O(17)  Bbb    -0.0186     1.349     0.481     0.450 -0.6738  0.7343 -0.0820
              Bcc     0.0433    -3.136    -1.119    -1.046  0.7049  0.6056 -0.3693
 
              Baa    -0.0170    -2.287    -0.816    -0.763  0.1694  0.1940  0.9663
     2 C(13)  Bbb    -0.0100    -1.345    -0.480    -0.449 -0.1582  0.9731 -0.1676
              Bcc     0.0271     3.633     1.296     1.212  0.9728  0.1244 -0.1956
 
              Baa    -0.0282    -1.088    -0.388    -0.363  0.2085 -0.0674  0.9757
     3 N(14)  Bbb    -0.0191    -0.738    -0.263    -0.246  0.9196 -0.3263 -0.2191
              Bcc     0.0473     1.826     0.652     0.609  0.3331  0.9429 -0.0060
 
              Baa    -0.5475   -73.465   -26.214   -24.505  0.8460  0.5018 -0.1804
     4 C(13)  Bbb    -0.5320   -71.383   -25.471   -23.811  0.2178 -0.0163  0.9759
              Bcc     1.0794   144.848    51.685    48.316 -0.4867  0.8648  0.1231
 
              Baa    -0.0361    -4.846    -1.729    -1.616  0.0581  0.9982 -0.0155
     5 C(13)  Bbb    -0.0030    -0.406    -0.145    -0.135 -0.6514  0.0496  0.7571
              Bcc     0.0391     5.251     1.874     1.752  0.7565 -0.0339  0.6531
 
              Baa    -0.0113    -1.511    -0.539    -0.504  0.0127 -0.0473  0.9988
     6 C(13)  Bbb    -0.0092    -1.241    -0.443    -0.414  0.0076  0.9989  0.0472
              Bcc     0.0205     2.752     0.982     0.918  0.9999 -0.0070 -0.0130
 
              Baa    -0.2257    16.334     5.828     5.448 -0.0440  0.4856  0.8730
     7 O(17)  Bbb    -0.2039    14.754     5.265     4.922  0.5129  0.7609 -0.3974
              Bcc     0.4296   -31.088   -11.093   -10.370  0.8573 -0.4303  0.2825
 
              Baa    -0.0045    -2.395    -0.855    -0.799  0.2429  0.0469  0.9689
     8 H(1)   Bbb    -0.0033    -1.744    -0.622    -0.582 -0.5458  0.8323  0.0966
              Bcc     0.0078     4.139     1.477     1.381  0.8019  0.5523 -0.2278
 
              Baa    -0.0113    -6.034    -2.153    -2.013  0.1022  0.1090  0.9888
     9 H(1)   Bbb    -0.0048    -2.567    -0.916    -0.856  0.9659 -0.2485 -0.0725
              Bcc     0.0161     8.601     3.069     2.869  0.2379  0.9625 -0.1307
 
              Baa    -0.0614   -32.772   -11.694   -10.931  0.8484  0.4714  0.2409
    10 H(1)   Bbb    -0.0133    -7.091    -2.530    -2.365 -0.4159  0.8750 -0.2477
              Bcc     0.0747    39.862    14.224    13.297 -0.3276  0.1100  0.9384
 
              Baa    -0.0106    -5.678    -2.026    -1.894  0.6870  0.6257 -0.3696
    11 H(1)   Bbb    -0.0074    -3.972    -1.417    -1.325 -0.5057  0.7769  0.3752
              Bcc     0.0181     9.650     3.443     3.219  0.5219 -0.0708  0.8501
 
              Baa    -0.0033    -1.737    -0.620    -0.580 -0.3466 -0.1324  0.9286
    12 H(1)   Bbb    -0.0025    -1.334    -0.476    -0.445 -0.3095  0.9507  0.0200
              Bcc     0.0058     3.071     1.096     1.024  0.8855  0.2804  0.3705
 
              Baa    -0.0061    -3.267    -1.166    -1.090  0.0742  0.6789  0.7305
    13 H(1)   Bbb    -0.0035    -1.884    -0.672    -0.628 -0.2915  0.7152 -0.6352
              Bcc     0.0097     5.151     1.838     1.718  0.9537  0.1658 -0.2509
 

 ---------------------------------------------------------------------------------

 No NMR shielding tensors so no spin-rotation constants.
 Leave Link  601 at Fri Aug 26 14:23:44 2022, MaxMem=  8053063680 cpu:               4.3 elap:               0.2
 (Enter /public3/home/scg5914/software-scg5914/g16/l701.exe)
 ... and contract with generalized density number  0.
 Compute integral first derivatives.
 R6Disp: Adding Grimme-D3(BJ) dispersion energy 1st derivatives to the gradient.
 Leave Link  701 at Fri Aug 26 14:23:45 2022, MaxMem=  8053063680 cpu:               3.1 elap:               0.1
 (Enter /public3/home/scg5914/software-scg5914/g16/l702.exe)
 L702 exits ... SP integral derivatives will be done elsewhere.
 Leave Link  702 at Fri Aug 26 14:23:45 2022, MaxMem=  8053063680 cpu:               0.3 elap:               0.0
 (Enter /public3/home/scg5914/software-scg5914/g16/l703.exe)
 Integral derivatives from FoFJK, PRISM(SPDF).
 Compute integral first derivatives, UseDBF=F ICtDFT=           0.
 Calling FoFJK, ICntrl=      2127 FMM=F ISym2X=0 I1Cent= 0 IOpClX= 1 NMat=1 NMatS=1 NMatT=0.
 FoFJK:  IHMeth= 1 ICntrl=    2127 DoSepK=F KAlg= 0 I1Cent=           0 FoldK=F
 IRaf=         0 NMat=       1 IRICut=       1 DoRegI=T DoRafI=F ISym2E= 0 IDoP0=0 IntGTp=1.
 FoFCou: FMM=F IPFlag=           0 FMFlag=      100000 FMFlg1=         800
         NFxFlg=           0 DoJE=F BraDBF=F KetDBF=F FulRan=T
         wScrn=  0.000000 ICntrl=      2127 IOpCl=  1 I1Cent=           0 NGrid=           0
         NMat0=    1 NMatS0=      1 NMatT0=    0 NMatD0=    1 NMtDS0=    0 NMtDT0=    0
 Symmetry not used in FoFCou.
 Leave Link  703 at Fri Aug 26 14:23:46 2022, MaxMem=  8053063680 cpu:              47.5 elap:               1.5
 (Enter /public3/home/scg5914/software-scg5914/g16/l716.exe)
 Dipole        =-1.15199043D+00 5.69388008D-01 1.89043251D-01
 ***** Axes restored to original set *****
 -------------------------------------------------------------------
 Center     Atomic                   Forces (Hartrees/Bohr)
 Number     Number              X              Y              Z
 -------------------------------------------------------------------
      1        8           0.000171931   -0.000014775    0.000329148
      2        6          -0.002997433    0.001302297   -0.001208398
      3        7           0.002799877   -0.017001637    0.013310636
      4        6           0.012745270    0.042870236   -0.027846583
      5        6          -0.010120697   -0.017949153    0.018698482
      6        6           0.003233126   -0.004044919    0.001736900
      7        8          -0.000747051    0.004507842   -0.008471854
      8        1           0.000117813   -0.001011209    0.000590044
      9        1           0.001033675    0.003582843   -0.001951636
     10        1          -0.004038325   -0.014319690    0.007132403
     11        1           0.000487485    0.000528169   -0.002015201
     12        1          -0.001702160    0.000382943   -0.000754772
     13        1          -0.000983511    0.001167053    0.000450830
 -------------------------------------------------------------------
 Cartesian Forces:  Max     0.042870236 RMS     0.010694894
 Leave Link  716 at Fri Aug 26 14:23:46 2022, MaxMem=  8053063680 cpu:               0.5 elap:               0.0
 (Enter /public3/home/scg5914/software-scg5914/g16/l103.exe)

 GradGradGradGradGradGradGradGradGradGradGradGradGradGradGradGradGradGrad
 Berny optimization.
 FormGI is forming the generalized inverse of G from B-inverse, IUseBI=4.
 Internal  Forces:  Max     0.012280597 RMS     0.004584760
 Search for a local minimum.
 Step number   1 out of a maximum of   60
 All quantities printed in internal units (Hartrees-Bohrs-Radians)
 RMS Force = .45848D-02 SwitMx=.10000D-02 MixMth= 1
 Mixed Optimization -- RFO/linear search
 Second derivative matrix not updated -- first step.
 ITU=  0
     Eigenvalues ---    0.00649   0.00995   0.01617   0.02215   0.02215
     Eigenvalues ---    0.02728   0.03167   0.03499   0.04512   0.11637
     Eigenvalues ---    0.14967   0.15986   0.16000   0.16000   0.16000
     Eigenvalues ---    0.16637   0.20028   0.22000   0.22004   0.23385
     Eigenvalues ---    0.31470   0.32332   0.32843   0.34036   0.34752
     Eigenvalues ---    0.34894   0.34981   0.36740   0.37899   0.40304
     Eigenvalues ---    0.46293   0.52863   0.98678
 RFO step:  Lambda=-1.36945876D-02 EMin= 6.49407714D-03
 Linear search not attempted -- first point.
 Iteration  1 RMS(Cart)=  0.10586186 RMS(Int)=  0.00808296
 Iteration  2 RMS(Cart)=  0.01105659 RMS(Int)=  0.00525409
 Iteration  3 RMS(Cart)=  0.00002118 RMS(Int)=  0.00525405
 Iteration  4 RMS(Cart)=  0.00000046 RMS(Int)=  0.00525405
 ITry= 1 IFail=0 DXMaxC= 2.47D-01 DCOld= 1.00D+10 DXMaxT= 3.00D-01 DXLimC= 3.00D+00 Rises=F
 Variable       Old X    -DE/DX   Delta X   Delta X   Delta X     New X
                                 (Linear)    (Quad)   (Total)
    R1        2.29173   0.00019   0.00000   0.00019   0.00019   2.29192
    R2        2.57082   0.00216   0.00000   0.00398   0.00398   2.57480
    R3        2.09329  -0.00087   0.00000  -0.00254  -0.00254   2.09074
    R4        2.74512  -0.00923   0.00000  -0.02350  -0.02350   2.72162
    R5        1.90502   0.00409   0.00000   0.00857   0.00857   1.91359
    R6        2.85124  -0.01228   0.00000  -0.03740  -0.03740   2.81384
    R7        2.07269  -0.00194   0.00000  -0.00547  -0.00547   2.06722
    R8        2.77091  -0.00176   0.00000  -0.00308  -0.00310   2.76781
    R9        2.70948   0.00577   0.00000   0.01517   0.01516   2.72463
   R10        2.06079  -0.00173   0.00000  -0.00479  -0.00479   2.05600
   R11        2.70047   0.00437   0.00000   0.00748   0.00751   2.70797
   R12        2.05705  -0.00158   0.00000  -0.00435  -0.00435   2.05270
   R13        2.05848  -0.00138   0.00000  -0.00381  -0.00381   2.05467
    A1        2.18602  -0.00076   0.00000  -0.00327  -0.00327   2.18274
    A2        2.14860  -0.00044   0.00000  -0.00309  -0.00310   2.14551
    A3        1.94856   0.00121   0.00000   0.00638   0.00637   1.95493
    A4        2.14871   0.00190   0.00000   0.00817   0.00817   2.15688
    A5        2.07470  -0.00018   0.00000   0.00041   0.00041   2.07510
    A6        2.05842  -0.00171   0.00000  -0.00843  -0.00843   2.04999
    A7        1.94157   0.01181   0.00000   0.09125   0.07258   2.01416
    A8        1.92518   0.00061   0.00000   0.10904   0.08603   2.01122
    A9        1.90853   0.00579   0.00000   0.13402   0.11372   2.02226
   A10        2.12627  -0.00158   0.00000  -0.00222  -0.00236   2.12391
   A11        2.01314  -0.00495   0.00000  -0.03348  -0.03345   1.97969
   A12        2.01179   0.00235   0.00000   0.01267   0.01250   2.02429
   A13        2.06838  -0.00016   0.00000   0.00177   0.00161   2.06999
   A14        1.98812   0.00183   0.00000   0.00483   0.00478   1.99291
   A15        2.08828  -0.00139   0.00000  -0.00475  -0.00476   2.08352
   A16        2.08738   0.00069   0.00000   0.00203   0.00203   2.08941
   A17        2.01608   0.00114   0.00000  -0.00005  -0.00003   2.01605
   A18        2.01397  -0.00293   0.00000  -0.00993  -0.00995   2.00403
   A19        2.01078   0.00070   0.00000   0.00485   0.00485   2.01563
    D1       -0.02784   0.00031   0.00000   0.00897   0.00898  -0.01886
    D2       -3.11214   0.00023   0.00000   0.00604   0.00604  -3.10610
    D3        3.11736   0.00013   0.00000   0.00408   0.00409   3.12145
    D4        0.03306   0.00006   0.00000   0.00115   0.00114   0.03421
    D5       -2.10291   0.00737   0.00000   0.13348   0.13549  -1.96742
    D6        2.05921  -0.00832   0.00000  -0.17209  -0.17409   1.88512
    D7        0.98189   0.00749   0.00000   0.13665   0.13866   1.12055
    D8       -1.13917  -0.00820   0.00000  -0.16891  -0.17093  -1.31010
    D9       -2.45470  -0.00603   0.00000  -0.16894  -0.17237  -2.62708
   D10       -1.26956  -0.00752   0.00000  -0.18458  -0.18813  -1.45770
   D11        1.10430  -0.00762   0.00000  -0.20114  -0.20469   0.89960
   D12       -0.32397   0.00644   0.00000   0.11937   0.12297  -0.20100
   D13        0.86117   0.00495   0.00000   0.10374   0.10721   0.96838
   D14       -3.04815   0.00485   0.00000   0.08717   0.09065  -2.95750
   D15       -2.68371  -0.00207   0.00000  -0.03646  -0.03644  -2.72015
   D16       -0.02214  -0.00188   0.00000  -0.03022  -0.03020  -0.05234
   D17        0.02753   0.00013   0.00000  -0.00083  -0.00086   0.02666
   D18        2.68909   0.00032   0.00000   0.00541   0.00538   2.69447
         Item               Value     Threshold  Converged?
 Maximum Force            0.012281     0.000450     NO 
 RMS     Force            0.004585     0.000300     NO 
 Maximum Displacement     0.246595     0.001800     NO 
 RMS     Displacement     0.105362     0.001200     NO 
 Predicted change in Energy=-9.684643D-03
 Lowest energy point so far.  Saving SCF results.
 GradGradGradGradGradGradGradGradGradGradGradGradGradGradGradGradGradGrad

 Leave Link  103 at Fri Aug 26 14:23:46 2022, MaxMem=  8053063680 cpu:               0.8 elap:               0.0
 (Enter /public3/home/scg5914/software-scg5914/g16/l202.exe)
                          Input orientation:                          
 ---------------------------------------------------------------------
 Center     Atomic      Atomic             Coordinates (Angstroms)
 Number     Number       Type             X           Y           Z
 ---------------------------------------------------------------------
      1          8           0        0.010779    0.308405    0.751437
      2          6           0        0.068769    1.260854    0.002816
      3          7           0        1.192668    1.682407   -0.641868
      4          6           0        2.479156    1.051843   -0.494993
      5          6           0        3.517553    1.870841    0.189229
      6          6           0        4.942357    1.715219   -0.112348
      7          8           0        4.193513    2.791322   -0.690897
      8          1           0       -0.806845    1.894741   -0.232880
      9          1           0        1.142053    2.510155   -1.222978
     10          1           0        2.818857    0.477773   -1.362013
     11          1           0        3.231791    2.298995    1.147742
     12          1           0        5.679174    2.004827    0.631395
     13          1           0        5.263871    0.952230   -0.817092
 ---------------------------------------------------------------------
                    Distance matrix (angstroms):
                    1          2          3          4          5
     1  O    0.000000
     2  C    1.212830   0.000000
     3  N    2.286054   1.362524   0.000000
     4  C    2.863420   2.470114   1.440221   0.000000
     5  C    3.880045   3.507270   2.476150   1.489021   0.000000
     6  C    5.200549   4.896077   3.787035   2.579504   1.464662
     7  O    5.073507   4.453884   3.199557   2.450140   1.441814
     8  H    2.038099   1.106375   2.051928   3.402497   4.345016
     9  H    3.166354   2.053110   1.012628   2.108194   2.836555
    10  H    3.518616   3.168431   2.148079   1.093928   2.198901
    11  H    3.807155   3.520413   2.782249   2.195547   1.087990
    12  H    5.918020   5.694318   4.674815   3.523782   2.210446
    13  H    5.519944   5.268452   4.139875   2.805051   2.214985
                    6          7          8          9         10
     6  C    0.000000
     7  O    1.432999   0.000000
     8  H    5.753267   5.100708   0.000000
     9  H    4.038283   3.110237   2.270954   0.000000
    10  H    2.757206   2.773551   4.053203   2.638480   0.000000
    11  H    2.203328   2.132577   4.287205   3.167319   3.128296
    12  H    1.086244   2.138743   6.544275   4.927426   3.806177
    13  H    1.087285   2.131632   6.171161   4.425072   2.549538
                   11         12         13
    11  H    0.000000
    12  H    2.518498   0.000000
    13  H    3.131086   1.838084   0.000000
 Stoichiometry    C4H6NO2(2)
 Framework group  C1[X(C4H6NO2)]
 Deg. of freedom    33
 Full point group                 C1      NOp   1
 RotChk:  IX=0 Diff= 9.16D-02
 Largest Abelian subgroup         C1      NOp   1
 Largest concise Abelian subgroup C1      NOp   1
                         Standard orientation:                         
 ---------------------------------------------------------------------
 Center     Atomic      Atomic             Coordinates (Angstroms)
 Number     Number       Type             X           Y           Z
 ---------------------------------------------------------------------
      1          8           0        2.678040   -0.847898   -0.136861
      2          6           0        2.295985    0.303183   -0.138907
      3          7           0        1.040200    0.711682    0.196659
      4          6           0       -0.014767   -0.190252    0.581101
      5          6           0       -1.153655   -0.284966   -0.373438
      6          6           0       -2.511962   -0.595852    0.077767
      7          8           0       -2.134177    0.757994   -0.201276
      8          1           0        2.946491    1.152267   -0.421685
      9          1           0        0.812356    1.696237    0.132209
     10          1           0       -0.281438   -0.170893    1.641851
     11          1           0       -0.891165   -0.483195   -1.410515
     12          1           0       -3.217148   -1.038102   -0.620126
     13          1           0       -2.695001   -0.811527    1.127609
 ---------------------------------------------------------------------
 Rotational constants (GHZ):           9.2602020           1.2633236           1.1851731
 Leave Link  202 at Fri Aug 26 14:23:46 2022, MaxMem=  8053063680 cpu:               0.1 elap:               0.0
 (Enter /public3/home/scg5914/software-scg5914/g16/l301.exe)
 Standard basis: 6-311+G(d,p) (5D, 7F)
 Ernie: Thresh=  0.10000D-02 Tol=  0.10000D-05 Strict=F.
 There are   197 symmetry adapted cartesian basis functions of A   symmetry.
 There are   190 symmetry adapted basis functions of A   symmetry.
   190 basis functions,   300 primitive gaussians,   197 cartesian basis functions
    27 alpha electrons       26 beta electrons
       nuclear repulsion energy       283.0404318112 Hartrees.
 IExCor=  402 DFT=T Ex+Corr=B3LYP ExCW=0 ScaHFX=  0.200000
 ScaDFX=  0.800000  0.720000  1.000000  0.810000 ScalE2=  1.000000  1.000000
 IRadAn=      5 IRanWt=     -1 IRanGd=            0 ICorTp=0 IEmpDi=141
 NAtoms=   13 NActive=   13 NUniq=   13 SFac= 1.00D+00 NAtFMM=   60 NAOKFM=F Big=F
 Integral buffers will be    131072 words long.
 Raffenetti 2 integral format.
 Two-electron integral symmetry is turned on.
 R6Disp:  Grimme-D3(BJ) Dispersion energy=       -0.0159801080 Hartrees.
 Nuclear repulsion after empirical dispersion term =      283.0244517031 Hartrees.
 Leave Link  301 at Fri Aug 26 14:23:47 2022, MaxMem=  8053063680 cpu:               0.7 elap:               0.0
 (Enter /public3/home/scg5914/software-scg5914/g16/l302.exe)
 NPDir=0 NMtPBC=     1 NCelOv=     1 NCel=       1 NClECP=     1 NCelD=      1
         NCelK=      1 NCelE2=     1 NClLst=     1 CellRange=     0.0.
 One-electron integrals computed using PRISM.
 One-electron integral symmetry used in STVInt
 NBasis=   190 RedAO= T EigKep=  3.55D-05  NBF=   190
 NBsUse=   190 1.00D-06 EigRej= -1.00D+00 NBFU=   190
 Precomputing XC quadrature grid using
 IXCGrd= 4 IRadAn=           5 IRanWt=          -1 IRanGd=           0 AccXCQ= 0.00D+00.
 Generated NRdTot=       0 NPtTot=           0 NUsed=           0 NTot=          32
 NSgBfM=   197   197   197   197   197 MxSgAt=    13 MxSgA2=    13.
 Leave Link  302 at Fri Aug 26 14:23:47 2022, MaxMem=  8053063680 cpu:               3.3 elap:               0.1
 (Enter /public3/home/scg5914/software-scg5914/g16/l303.exe)
 DipDrv:  MaxL=1.
 Leave Link  303 at Fri Aug 26 14:23:47 2022, MaxMem=  8053063680 cpu:               0.4 elap:               0.0
 (Enter /public3/home/scg5914/software-scg5914/g16/l401.exe)
 Initial guess from the checkpoint file:  "dsgdb9nsd_003051-3.chk"
 B after Tr=    -0.000000   -0.000000    0.000000
         Rot=    0.999266    0.038269   -0.000711    0.001627 Ang=   4.39 deg.
 Guess basis will be translated and rotated to current coordinates.
 JPrj=2 DoOrth=T DoCkMO=T.
 Initial guess <Sx>= 0.0000 <Sy>= 0.0000 <Sz>= 0.5000 <S**2>= 0.7537 S= 0.5019
 Generating alternative initial guess.
 ExpMin= 4.38D-02 ExpMax= 8.59D+03 ExpMxC= 1.30D+03 IAcc=3 IRadAn=         5 AccDes= 0.00D+00
 Harris functional with IExCor=  402 and IRadAn=       5 diagonalized for initial guess.
 HarFok:  IExCor=  402 AccDes= 0.00D+00 IRadAn=         5 IDoV= 1 UseB2=F ITyADJ=14
 ICtDFT=  3500011 ScaDFX=  1.000000  1.000000  1.000000  1.000000
 FoFCou: FMM=F IPFlag=           0 FMFlag=      100000 FMFlg1=           0
         NFxFlg=           0 DoJE=T BraDBF=F KetDBF=T FulRan=T
         wScrn=  0.000000 ICntrl=       500 IOpCl=  0 I1Cent=   200000004 NGrid=           0
         NMat0=    1 NMatS0=      1 NMatT0=    0 NMatD0=    1 NMtDS0=    0 NMtDT0=    0
 Petite list used in FoFCou.
 Harris En= -361.227335264758    
 Leave Link  401 at Fri Aug 26 14:23:47 2022, MaxMem=  8053063680 cpu:              10.4 elap:               0.3
 (Enter /public3/home/scg5914/software-scg5914/g16/l502.exe)
 Integral symmetry usage will be decided dynamically.
 UHF open shell SCF:
 Using DIIS extrapolation, IDIIS=  1040.
 NGot=  8053063680 LenX=  8052977452 LenY=  8052938202
 Requested convergence on RMS density matrix=1.00D-08 within 128 cycles.
 Requested convergence on MAX density matrix=1.00D-06.
 Requested convergence on             energy=1.00D-06.
 No special actions if energy rises.
 Fock matrices will be formed incrementally for  20 cycles.

 Cycle   1  Pass 1  IDiag  1:
 FoFJK:  IHMeth= 1 ICntrl=       0 DoSepK=F KAlg= 0 I1Cent=           0 FoldK=F
 IRaf= 950000000 NMat=       1 IRICut=       1 DoRegI=T DoRafI=F ISym2E= 0 IDoP0=0 IntGTp=1.
 FoFCou: FMM=F IPFlag=           0 FMFlag=      100000 FMFlg1=           0
         NFxFlg=           0 DoJE=F BraDBF=F KetDBF=F FulRan=T
         wScrn=  0.000000 ICntrl=         0 IOpCl=  1 I1Cent=           0 NGrid=           0
         NMat0=    1 NMatS0=      1 NMatT0=    0 NMatD0=    1 NMtDS0=    0 NMtDT0=    0
 Symmetry not used in FoFCou.
 E= -361.230090129307    
 DIIS: error= 5.86D-03 at cycle   1 NSaved=   1.
 NSaved= 1 IEnMin= 1 EnMin= -361.230090129307     IErMin= 1 ErrMin= 5.86D-03
 ErrMax= 5.86D-03  0.00D+00 EMaxC= 1.00D-01 BMatC= 5.44D-02 BMatP= 5.44D-02
 IDIUse=3 WtCom= 9.41D-01 WtEn= 5.86D-02
 Coeff-Com:  0.100D+01
 Coeff-En:   0.100D+01
 Coeff:      0.100D+01
 Gap=     0.471 Goal=   None    Shift=    0.000
 Gap=     0.473 Goal=   None    Shift=    0.000
 GapD=    0.471 DampG=2.000 DampE=1.000 DampFc=2.0000 IDamp=-1.
 RMSDP=2.11D-03 MaxDP=1.43D-01              OVMax= 4.30D-02

 Cycle   2  Pass 1  IDiag  1:
 RMSU=  2.05D-03    CP:  1.03D+00
 E= -361.250998584380     Delta-E=       -0.020908455073 Rises=F Damp=F
 DIIS: error= 1.31D-03 at cycle   2 NSaved=   2.
 NSaved= 2 IEnMin= 2 EnMin= -361.250998584380     IErMin= 2 ErrMin= 1.31D-03
 ErrMax= 1.31D-03  0.00D+00 EMaxC= 1.00D-01 BMatC= 1.95D-03 BMatP= 5.44D-02
 IDIUse=3 WtCom= 9.87D-01 WtEn= 1.31D-02
 Coeff-Com: -0.210D-01 0.102D+01
 Coeff-En:   0.000D+00 0.100D+01
 Coeff:     -0.207D-01 0.102D+01
 Gap=     0.252 Goal=   None    Shift=    0.000
 Gap=     0.169 Goal=   None    Shift=    0.000
 RMSDP=3.65D-04 MaxDP=1.47D-02 DE=-2.09D-02 OVMax= 1.60D-02

 Cycle   3  Pass 1  IDiag  1:
 RMSU=  3.41D-04    CP:  1.02D+00  9.71D-01
 E= -361.250462533100     Delta-E=        0.000536051279 Rises=F Damp=F
 DIIS: error= 2.70D-03 at cycle   3 NSaved=   3.
 NSaved= 3 IEnMin= 2 EnMin= -361.250998584380     IErMin= 2 ErrMin= 1.31D-03
 ErrMax= 2.70D-03  0.00D+00 EMaxC= 1.00D-01 BMatC= 5.74D-03 BMatP= 1.95D-03
 IDIUse=3 WtCom= 1.62D-01 WtEn= 8.38D-01
 Coeff-Com: -0.469D-01 0.678D+00 0.369D+00
 Coeff-En:   0.000D+00 0.675D+00 0.325D+00
 Coeff:     -0.757D-02 0.675D+00 0.332D+00
 Gap=     0.254 Goal=   None    Shift=    0.000
 Gap=     0.165 Goal=   None    Shift=    0.000
 RMSDP=2.65D-04 MaxDP=1.60D-02 DE= 5.36D-04 OVMax= 9.02D-03

 Cycle   4  Pass 1  IDiag  1:
 RMSU=  8.82D-05    CP:  1.03D+00  1.03D+00  4.38D-01
 E= -361.251531501888     Delta-E=       -0.001068968788 Rises=F Damp=F
 DIIS: error= 1.74D-04 at cycle   4 NSaved=   4.
 NSaved= 4 IEnMin= 4 EnMin= -361.251531501888     IErMin= 4 ErrMin= 1.74D-04
 ErrMax= 1.74D-04  0.00D+00 EMaxC= 1.00D-01 BMatC= 3.95D-05 BMatP= 1.95D-03
 IDIUse=3 WtCom= 9.98D-01 WtEn= 1.74D-03
 Coeff-Com: -0.137D-01 0.139D+00 0.948D-01 0.780D+00
 Coeff-En:   0.000D+00 0.000D+00 0.000D+00 0.100D+01
 Coeff:     -0.136D-01 0.138D+00 0.946D-01 0.781D+00
 Gap=     0.254 Goal=   None    Shift=    0.000
 Gap=     0.165 Goal=   None    Shift=    0.000
 RMSDP=4.38D-05 MaxDP=2.33D-03 DE=-1.07D-03 OVMax= 1.66D-03

 Cycle   5  Pass 1  IDiag  1:
 RMSU=  3.74D-05    CP:  1.03D+00  1.04D+00  4.32D-01  1.07D+00
 E= -361.251540395331     Delta-E=       -0.000008893443 Rises=F Damp=F
 DIIS: error= 1.34D-04 at cycle   5 NSaved=   5.
 NSaved= 5 IEnMin= 5 EnMin= -361.251540395331     IErMin= 5 ErrMin= 1.34D-04
 ErrMax= 1.34D-04  0.00D+00 EMaxC= 1.00D-01 BMatC= 2.16D-05 BMatP= 3.95D-05
 IDIUse=3 WtCom= 9.99D-01 WtEn= 1.34D-03
 Coeff-Com: -0.128D-02-0.143D-01 0.598D-02 0.424D+00 0.586D+00
 Coeff-En:   0.000D+00 0.000D+00 0.000D+00 0.390D-01 0.961D+00
[...]
  21. CR (   1) C   6                /169. RY*(   4) H  12                    0.25   12.27    0.070
  21. CR (   1) C   6                /186. BD*(   1) C   5 - O   7            0.46   10.30    0.087
  22. CR (   1) O   7                / 95. RY*(   1) C   5                    0.40   19.93    0.113
  22. CR (   1) O   7                /112. RY*(   1) C   6                    0.39   19.78    0.111
  23. LP (   1) O   1                / 28. RY*(   2) O   1                    0.31    1.49    0.027
  23. LP (   1) O   1                / 44. RY*(   1) C   2                    6.27    1.91    0.138
  23. LP (   1) O   1                / 45. RY*(   2) C   2                    0.76    2.08    0.050
  23. LP (   1) O   1                / 52. RY*(   9) C   2                    0.65    2.97    0.056
  23. LP (   1) O   1                /178. BD*(   1) C   2 - N   3            0.44    1.12    0.029
  23. LP (   1) O   1                /179. BD*(   1) C   2 - H   8            0.51    1.04    0.029
  24. LP (   2) O   1                / 45. RY*(   2) C   2                    1.42    1.65    0.063
  24. LP (   2) O   1                / 46. RY*(   3) C   2                    0.29    1.43    0.026
  24. LP (   2) O   1                / 48. RY*(   5) C   2                    0.37    1.81    0.034
  24. LP (   2) O   1                /178. BD*(   1) C   2 - N   3           12.64    0.69    0.120
  24. LP (   2) O   1                /179. BD*(   1) C   2 - H   8           10.96    0.60    0.105
  25. LP (   1) O   7                / 95. RY*(   1) C   5                    1.43    1.74    0.063
  25. LP (   1) O   7                /100. RY*(   6) C   5                    0.25    2.21    0.030
  25. LP (   1) O   7                /112. RY*(   1) C   6                    1.44    1.59    0.061
  25. LP (   1) O   7                /186. BD*(   1) C   5 - O   7            0.47    0.94    0.027
  26. LP (   2) O   7                / 96. RY*(   2) C   5                    0.32    1.24    0.026
  26. LP (   2) O   7                / 97. RY*(   3) C   5                    0.28    1.34    0.025
  26. LP (   2) O   7                /113. RY*(   2) C   6                    0.53    1.70    0.039
  26. LP (   2) O   7                /114. RY*(   3) C   6                    0.43    1.65    0.034
  26. LP (   2) O   7                /181. BD*(   2) N   3 - C   4            0.80    0.31    0.020
  26. LP (   2) O   7                /183. BD*(   1) C   4 - C   5            1.82    0.77    0.048
  26. LP (   2) O   7                /186. BD*(   1) C   5 - O   7            0.27    0.49    0.015
  26. LP (   2) O   7                /187. BD*(   1) C   5 - H  11            2.19    0.67    0.049
  26. LP (   2) O   7                /189. BD*(   1) C   6 - H  12            2.74    0.68    0.055
  26. LP (   2) O   7                /190. BD*(   1) C   6 - H  13            2.95    0.68    0.057
 177. BD*(   2) O   1 - C   2        / 29. RY*(   3) O   1                    0.46    0.70    0.089
 177. BD*(   2) O   1 - C   2        / 58. RY*(  15) C   2                    0.31    1.38    0.103
 178. BD*(   1) C   2 - N   3        / 44. RY*(   1) C   2                    0.37    0.78    0.102
 178. BD*(   1) C   2 - N   3        / 45. RY*(   2) C   2                    0.91    0.96    0.182
 178. BD*(   1) C   2 - N   3        / 66. RY*(   6) N   3                    0.26    2.11    0.152
 178. BD*(   1) C   2 - N   3        /180. BD*(   1) N   3 - C   4            3.37    0.02    0.050
 178. BD*(   1) C   2 - N   3        /183. BD*(   1) C   4 - C   5            1.27    0.05    0.044
 179. BD*(   1) C   2 - H   8        /146. RY*(   1) H   8                    8.34    0.12    0.220
 179. BD*(   1) C   2 - H   8        /147. RY*(   2) H   8                    0.41    1.84    0.190
 179. BD*(   1) C   2 - H   8        /180. BD*(   1) N   3 - C   4            0.38    0.11    0.039
 179. BD*(   1) C   2 - H   8        /182. BD*(   1) N   3 - H   9            2.82    0.03    0.055
 181. BD*(   2) N   3 - C   4        / 80. RY*(   3) C   4                    0.44    0.66    0.097
 181. BD*(   2) N   3 - C   4        /186. BD*(   1) C   5 - O   7            1.44    0.19    0.081


 Natural Bond Orbitals (Summary):

                                                            Principal Delocalizations
           NBO                        Occupancy    Energy   (geminal,vicinal,remote)
 ====================================================================================
 Molecular unit  1  (C4H6NO2)
     1. BD (   1) O   1 - C   2          0.99813    -1.07510  182(v),44(g),178(g)
     2. BD (   2) O   1 - C   2          0.99355    -0.38150  181(v),62(v)
     3. BD (   1) C   2 - N   3          0.99599    -0.84549  183(v),180(g),78(v),176(g)
     4. BD (   1) C   2 - H   8          0.99227    -0.56422  180(v),27(v),61(v)
     5. BD (   1) N   3 - C   4          0.99484    -0.84372  44(v),178(g),185(v),179(v)
                                                    97(v),48(v),183(g),182(g)
     6. BD (   2) N   3 - C   4          0.93027    -0.35064  177(v),186(v),47(v),152(v)
     7. BD (   1) N   3 - H   9          0.99244    -0.69794  176(v),184(v),78(v),46(v)
     8. BD (   1) C   4 - C   5          0.99255    -0.70105  178(v),61(v),185(g),188(v)
                                                    189(v),184(g),180(g),187(g)
     9. BD (   1) C   4 - H  10          0.98929    -0.54361  182(v),187(v),96(v),98(v)
    10. BD (   1) C   5 - C   6          0.97337    -0.61073  180(v),181(v),183(g),186(g)
                                                    130(v),188(g),78(v),187(g)
    11. BD (   1) C   5 - O   7          0.96606    -0.63052  181(v),188(g),185(g),189(v)
                                                    190(v),112(v),115(v)
    12. BD (   1) C   5 - H  11          0.99134    -0.55343  184(v),190(v),79(v),188(v)
                                                    180(v),189(v)
    13. BD (   1) C   6 - O   7          0.98943    -0.71385  186(g),183(v),185(g),187(v)
                                                    95(v)
    14. BD (   1) C   6 - H  12          0.99389    -0.55034  183(v),186(v),95(v),187(v)
    15. BD (   1) C   6 - H  13          0.99537    -0.55109  187(v),186(v),98(v),95(v)
    16. CR (   1) O   1                  0.99988   -18.85692  44(v),45(v)
    17. CR (   1) C   2                  0.99979   -10.16960  180(v)
    18. CR (   1) N   3                  0.99969   -14.21963  79(v),48(v),44(v),45(v)
    19. CR (   1) C   4                  0.99963   -10.09534  178(v),98(v),156(v),96(v)
    20. CR (   1) C   5                  0.99958   -10.12541  188(v),112(v),117(v)
    21. CR (   1) C   6                  0.99961   -10.11155  95(v),186(v),169(v)
    22. CR (   1) O   7                  0.99993   -18.94021  95(v),112(v)
    23. LP (   1) O   1                  0.99263    -0.70342  44(v),45(v),52(v),179(v)
                                                    178(v),28(g)
    24. LP (   2) O   1                  0.92490    -0.26685  178(v),179(v),45(v),48(v)
                                                    46(v)
    25. LP (   1) O   7                  0.99343    -0.75050  112(v),95(v),186(g),100(v)
    26. LP (   2) O   7                  0.95755    -0.30869  190(v),189(v),187(v),183(v)
                                                    181(r),113(v),114(v),96(v)
                                                    97(v),186(g)
    27. RY*(   1) O   1                  0.00133     0.74319   
    28. RY*(   2) O   1                  0.00034     0.78357   
    29. RY*(   3) O   1                  0.00015     0.70029   
    30. RY*(   4) O   1                  0.00006     0.75281   
    31. RY*(   5) O   1                  0.00001     0.94095   
    32. RY*(   6) O   1                  0.00000     5.02660   
    33. RY*(   7) O   1                  0.00000    49.71680   
    34. RY*(   8) O   1                  0.00001     0.92479   
    35. RY*(   9) O   1                  0.00001     5.22374   
    36. RY*(  10) O   1                  0.00001     1.37178   
    37. RY*(  11) O   1                  0.00000     0.79314   
    38. RY*(  12) O   1                  0.00000     4.93306   
    39. RY*(  13) O   1                  0.00000     3.29269   
    40. RY*(  14) O   1                  0.00000     2.80585   
    41. RY*(  15) O   1                  0.00000     3.08045   
    42. RY*(  16) O   1                  0.00001     3.40996   
    43. RY*(  17) O   1                  0.00000     3.06381   
    44. RY*(   1) C   2                  0.00619     1.20255   
    45. RY*(   2) C   2                  0.00447     1.38027   
    46. RY*(   3) C   2                  0.00154     1.16179   
    47. RY*(   4) C   2                  0.00144     1.39095   
    48. RY*(   5) C   2                  0.00038     1.54595   
    49. RY*(   6) C   2                  0.00015     2.14616   
    50. RY*(   7) C   2                  0.00000     3.64731   
    51. RY*(   8) C   2                  0.00000     0.73653   
    52. RY*(   9) C   2                  0.00001     2.26711   
    53. RY*(  10) C   2                  0.00001     0.94024   
    54. RY*(  11) C   2                  0.00001     0.42545   
    55. RY*(  12) C   2                  0.00001     2.27984   
    56. RY*(  13) C   2                  0.00001    18.16969   
    57. RY*(  14) C   2                  0.00000     2.53037   
    58. RY*(  15) C   2                  0.00000     1.38821   
    59. RY*(  16) C   2                  0.00001     2.22228   
    60. RY*(  17) C   2                  0.00001     1.89364   
    61. RY*(   1) N   3                  0.00230     0.87171   
    62. RY*(   2) N   3                  0.00072     0.59644   
    63. RY*(   3) N   3                  0.00052     1.20461   
    64. RY*(   4) N   3                  0.00028     1.26203   
    65. RY*(   5) N   3                  0.00013     0.94275   
    66. RY*(   6) N   3                  0.00010     2.53010   
    67. RY*(   7) N   3                  0.00006     2.92148   
    68. RY*(   8) N   3                  0.00003     1.75492   
    69. RY*(   9) N   3                  0.00002     0.83363   
    70. RY*(  10) N   3                  0.00003     2.17505   
    71. RY*(  11) N   3                  0.00001     2.49020   
    72. RY*(  12) N   3                  0.00001     2.48944   
    73. RY*(  13) N   3                  0.00000     3.53500   
    74. RY*(  14) N   3                  0.00000    34.87496   
    75. RY*(  15) N   3                  0.00000     2.01585   
    76. RY*(  16) N   3                  0.00000     3.70582   
    77. RY*(  17) N   3                  0.00000     2.29354   
    78. RY*(   1) C   4                  0.00305     0.95700   
    79. RY*(   2) C   4                  0.00189     0.85986   
    80. RY*(   3) C   4                  0.00090     0.65422   
    81. RY*(   4) C   4                  0.00047     1.32644   
    82. RY*(   5) C   4                  0.00032     0.97080   
    83. RY*(   6) C   4                  0.00017     1.78864   
    84. RY*(   7) C   4                  0.00014     0.77078   
    85. RY*(   8) C   4                  0.00010     1.84645   
    86. RY*(   9) C   4                  0.00008     1.02451   
    87. RY*(  10) C   4                  0.00009     1.01706   
    88. RY*(  11) C   4                  0.00002     2.27703   
    89. RY*(  12) C   4                  0.00002     4.03173   
    90. RY*(  13) C   4                  0.00000    20.41283   
    91. RY*(  14) C   4                  0.00001     2.48696   
    92. RY*(  15) C   4                  0.00000     1.64788   
    93. RY*(  16) C   4                  0.00000     2.69427   
    94. RY*(  17) C   4                  0.00001     1.90430   
    95. RY*(   1) C   5                  0.00367     0.98820   
    96. RY*(   2) C   5                  0.00235     0.92929   
    97. RY*(   3) C   5                  0.00148     1.02755   
    98. RY*(   4) C   5                  0.00074     1.60480   
    99. RY*(   5) C   5                  0.00037     1.57323   
   100. RY*(   6) C   5                  0.00024     1.45837   
   101. RY*(   7) C   5                  0.00020     1.27592   
   102. RY*(   8) C   5                  0.00011     2.04335   
   103. RY*(   9) C   5                  0.00006     1.68749   
   104. RY*(  10) C   5                  0.00006     1.80363   
   105. RY*(  11) C   5                  0.00001     2.23829   
   106. RY*(  12) C   5                  0.00001     2.39846   
   107. RY*(  13) C   5                  0.00002     0.61608   
   108. RY*(  14) C   5                  0.00001     1.20770   
   109. RY*(  15) C   5                  0.00000    21.82579   
   110. RY*(  16) C   5                  0.00000     2.07755   
   111. RY*(  17) C   5                  0.00000     2.16308   
   112. RY*(   1) C   6                  0.00293     0.84052   
   113. RY*(   2) C   6                  0.00126     1.39073   
   114. RY*(   3) C   6                  0.00110     1.33812   
   115. RY*(   4) C   6                  0.00043     1.70965   
   116. RY*(   5) C   6                  0.00018     1.86072   
   117. RY*(   6) C   6                  0.00009     1.25804   
   118. RY*(   7) C   6                  0.00005     0.80295   
   119. RY*(   8) C   6                  0.00000     0.63624   
   120. RY*(   9) C   6                  0.00001     1.88611   
   121. RY*(  10) C   6                  0.00001     0.69938   
   122. RY*(  11) C   6                  0.00000     0.80730   
   123. RY*(  12) C   6                  0.00000    22.98030   
   124. RY*(  13) C   6                  0.00001     2.25673   
   125. RY*(  14) C   6                  0.00001     0.87457   
   126. RY*(  15) C   6                  0.00001     2.11525   
   127. RY*(  16) C   6                  0.00000     2.21342   
   128. RY*(  17) C   6                  0.00000     2.49620   
   129. RY*(   1) O   7                  0.00123     0.67264   
   130. RY*(   2) O   7                  0.00049     1.11613   
   131. RY*(   3) O   7                  0.00021     0.99220   
   132. RY*(   4) O   7                  0.00014     1.64626   
   133. RY*(   5) O   7                  0.00006     1.82560   
   134. RY*(   6) O   7                  0.00004     2.26478   
   135. RY*(   7) O   7                  0.00001     1.03283   
   136. RY*(   8) O   7                  0.00000     1.07665   
   137. RY*(   9) O   7                  0.00000     4.82106   
   138. RY*(  10) O   7                  0.00000     1.14925   
   139. RY*(  11) O   7                  0.00000    49.63903   
   140. RY*(  12) O   7                  0.00000     4.85426   
   141. RY*(  13) O   7                  0.00000     2.70634   
   142. RY*(  14) O   7                  0.00000     2.99119   
   143. RY*(  15) O   7                  0.00000     3.10439   
   144. RY*(  16) O   7                  0.00000     4.86825   
   145. RY*(  17) O   7                  0.00000     2.78549   
   146. RY*(   1) H   8                  0.00139     0.46193   
   147. RY*(   2) H   8                  0.00006     2.17317   
   148. RY*(   3) H   8                  0.00003     2.14574   
   149. RY*(   4) H   8                  0.00003     2.24522   
   150. RY*(   5) H   8                  0.00003     1.55800   
   151. RY*(   1) H   9                  0.00057     0.75153   
   152. RY*(   2) H   9                  0.00023     1.53757   
   153. RY*(   3) H   9                  0.00015     2.39858   
   154. RY*(   4) H   9                  0.00008     1.95103   
   155. RY*(   5) H   9                  0.00002     2.42068   
   156. RY*(   1) H  10                  0.00065     0.93189   
   157. RY*(   2) H  10                  0.00009     2.13429   
   158. RY*(   3) H  10                  0.00006     1.87782   
   159. RY*(   4) H  10                  0.00003     2.40645   
   160. RY*(   5) H  10                  0.00003     1.61744   
   161. RY*(   1) H  11                  0.00072     0.52479   
   162. RY*(   2) H  11                  0.00012     1.72296   
   163. RY*(   3) H  11                  0.00007     2.42782   
   164. RY*(   4) H  11                  0.00007     2.12643   
   165. RY*(   5) H  11                  0.00003     2.17203   
   166. RY*(   1) H  12                  0.00055     0.52156   
   167. RY*(   2) H  12                  0.00012     1.80982   
   168. RY*(   3) H  12                  0.00007     2.35232   
   169. RY*(   4) H  12                  0.00005     2.15691   
   170. RY*(   5) H  12                  0.00002     1.97718   
   171. RY*(   1) H  13                  0.00054     0.45749   
   172. RY*(   2) H  13                  0.00011     1.75423   
   173. RY*(   3) H  13                  0.00007     2.44472   
   174. RY*(   4) H  13                  0.00005     2.25350   
   175. RY*(   5) H  13                  0.00003     1.91837   
   176. BD*(   1) O   1 - C   2          0.00253     0.60066   
   177. BD*(   2) O   1 - C   2          0.06408     0.00479   
   178. BD*(   1) C   2 - N   3          0.03788     0.42059   
   179. BD*(   1) C   2 - H   8          0.03288     0.33694   
   180. BD*(   1) N   3 - C   4          0.00987     0.44312   
   181. BD*(   2) N   3 - C   4          0.04788    -0.00330   
   182. BD*(   1) N   3 - H   9          0.00939     0.36555   
   183. BD*(   1) C   4 - C   5          0.00977     0.46595   
   184. BD*(   1) C   4 - H  10          0.00649     0.41915   
   185. BD*(   1) C   5 - C   6          0.00804     0.34209   
   186. BD*(   1) C   5 - O   7          0.01869     0.18562   
   187. BD*(   1) C   5 - H  11          0.01335     0.36165   
   188. BD*(   1) C   6 - O   7          0.00885     0.24240   
   189. BD*(   1) C   6 - H  12          0.01177     0.36815   
   190. BD*(   1) C   6 - H  13          0.01180     0.36782   
       -------------------------------
              Total Lewis   25.65540  ( 98.6746%)
        Valence non-Lewis    0.29329  (  1.1280%)
        Rydberg non-Lewis    0.05131  (  0.1974%)
       -------------------------------
            Total unit  1   26.00000  (100.0000%)
           Charge unit  1    0.50000
 Leave Link  607 at Fri Aug 26 14:27:09 2022, MaxMem=  8053063680 cpu:              43.8 elap:               1.4
 (Enter /public3/home/scg5914/software-scg5914/g16/l9999.exe)
 Unable to Open any file for archive entry.
 1\1\GINC-E0503\SP\UB3LYP\Gen\C4H6N1O2(2)\SCG5914\26-Aug-2022\0\\#p b3l
 yp/chkbas pop=nbo geom=allcheck guess=tcheck em=gd3bj\\dsgdb9nsd_00305
 1-3\\0,2\O,0,0.035740704,-0.1568614304,-0.5425829355\C,0,0.0325672556,
 1.0434999976,-0.3694529105\N,0,1.1730506327,1.8020428946,-0.2043852514
 \C,0,2.4521726517,1.2925268267,-0.2131322877\C,0,3.5907826473,2.179756
 5982,-0.0809313377\C,0,4.9720210972,1.6765889311,-0.0685628548\O,0,4.4
 922092158,2.3180170693,-1.2459060531\H,0,-0.8830263736,1.6552128314,-0
 .3259931105\H,0,1.0477197667,2.7960660191,-0.0658220319\H,0,2.54463728
 02,0.2482629343,-0.4690212537\H,0,3.4040948015,3.1381410231,0.40066759
 31\H,0,5.7304610001,2.220965083,0.4898542104\H,0,5.1412639132,0.605392
 0545,-0.1571827283\\Version=ES64L-G16RevC.01\State=2-A\HF=-361.2726568
 \S2=0.756477\S2-1=0.\S2A=0.750031\RMSD=6.129e-09\Dipole=0.1922109,1.18
 41971,0.9442356\Quadrupole=1.7171759,-0.6861344,-1.0310415,-8.1731987,
 2.5521463,1.8162133\PG=C01 [X(C4H6N1O2)]\\@
 The archive entry for this job was punched.


 READER, WHETHER YOU BE DILETTANTE OR PROFESSOR ... SHOW YOURSELF TO BE
 MORE HUMAN THAN CRITICAL, AND THEN YOUR PLEASURE WILL INCREASE.
                                           -- DOMENICO SCARLATTI (1738)
 Job cpu time:       0 days  0 hours  1 minutes 44.6 seconds.
 Elapsed time:       0 days  0 hours  0 minutes  3.4 seconds.
 File lengths (MBytes):  RWF=     39 Int=      0 D2E=      0 Chk=      5 Scr=      1
 Normal termination of Gaussian 16 at Fri Aug 26 14:27:09 2022.
