 Entering Gaussian System, Link 0=g16
 Initial command:
 /public/software/apps/Gaussian/g16/l1.exe "/public/home/ZTC_HG/tmp/Gau-70303.inp" -scrdir="/public/home/ZTC_HG/tmp/"
 Entering Link 1 = /public/software/apps/Gaussian/g16/l1.exe PID=     70322.
  
 Copyright (c) 1988-2019, Gaussian, Inc.  All Rights Reserved.
  
 This is part of the Gaussian(R) 16 program.  It is based on
 the Gaussian(R) 09 system (copyright 2009, Gaussian, Inc.),
 the Gaussian(R) 03 system (copyright 2003, Gaussian, Inc.),
 the Gaussian(R) 98 system (copyright 1998, Gaussian, Inc.),
 the Gaussian(R) 94 system (copyright 1995, Gaussian, Inc.),
 the Gaussian 92(TM) system (copyright 1992, Gaussian, Inc.),
 the Gaussian 90(TM) system (copyright 1990, Gaussian, Inc.),
 the Gaussian 88(TM) system (copyright 1988, Gaussian, Inc.),
 the Gaussian 86(TM) system (copyright 1986, Carnegie Mellon
 University), and the Gaussian 82(TM) system (copyright 1983,
 Carnegie Mellon University). Gaussian is a federally registered
 trademark of Gaussian, Inc.
  
 This software contains proprietary and confidential information,
 including trade secrets, belonging to Gaussian, Inc.
  
 This software is provided under written license and may be
 used, copied, transmitted, or stored only in accord with that
 written license.
  
 The following legend is applicable only to US Government
 contracts under FAR:
  
                    RESTRICTED RIGHTS LEGEND
  
 Use, reproduction and disclosure by the US Government is
 subject to restrictions as set forth in subparagraphs (a)
 and (c) of the Commercial Computer Software - Restricted
 Rights clause in FAR 52.227-19.
  
 Gaussian, Inc.
 340 Quinnipiac St., Bldg. 40, Wallingford CT 06492
  
  
 ---------------------------------------------------------------
 Warning -- This program may not be used in any manner that
 competes with the business of Gaussian, Inc. or will provide
 assistance to any competitor of Gaussian, Inc.  The licensee
 of this program is prohibited from giving any competitor of
 Gaussian, Inc. access to this program.  By using this program,
 the user acknowledges that Gaussian, Inc. is engaged in the
 business of creating and licensing software in the field of
 computational chemistry and represents and warrants to the
 licensee that it is not a competitor of Gaussian, Inc. and that
 it will not use this program in any manner prohibited above.
 ---------------------------------------------------------------
  

 Cite this work as:
 Gaussian 16, Revision C.01,
 M. J. Frisch, G. W. Trucks, H. B. Schlegel, G. E. Scuseria, 
 M. A. Robb, J. R. Cheeseman, G. Scalmani, V. Barone, 
 G. A. Petersson, H. Nakatsuji, X. Li, M. Caricato, A. V. Marenich, 
 J. Bloino, B. G. Janesko, R. Gomperts, B. Mennucci, H. P. Hratchian, 
 J. V. Ortiz, A. F. Izmaylov, J. L. Sonnenberg, D. Williams-Young, 
 F. Ding, F. Lipparini, F. Egidi, J. Goings, B. Peng, A. Petrone, 
 T. Henderson, D. Ranasinghe, V. G. Zakrzewski, J. Gao, N. Rega, 
 G. Zheng, W. Liang, M. Hada, M. Ehara, K. Toyota, R. Fukuda, 
 J. Hasegawa, M. Ishida, T. Nakajima, Y. Honda, O. Kitao, H. Nakai, 
 T. Vreven, K. Throssell, J. A. Montgomery, Jr., J. E. Peralta, 
 F. Ogliaro, M. J. Bearpark, J. J. Heyd, E. N. Brothers, K. N. Kudin, 
 V. N. Staroverov, T. A. Keith, R. Kobayashi, J. Normand, 
 K. Raghavachari, A. P. Rendell, J. C. Burant, S. S. Iyengar, 
 J. Tomasi, M. Cossi, J. M. Millam, M. Klene, C. Adamo, R. Cammi, 
 J. W. Ochterski, R. L. Martin, K. Morokuma, O. Farkas, 
 J. B. Foresman, and D. J. Fox, Gaussian, Inc., Wallingford CT, 2019.
 
 ******************************************
 Gaussian 16:  ES64L-G16RevC.01  3-Jul-2019
                13-Jul-2023 
 ******************************************
 %chk=dsgdb9nsd_004738-2.chk
 %mem=120GB
 %nprocshared=32
 Will use up to   32 processors via shared memory.
 ------------------------------------
 #p opt freq b3lyp/6-311+g** em=gd3bj
 ------------------------------------
 1/18=20,19=15,26=3,38=1/1,3;
 2/9=110,12=2,17=6,18=5,40=1/2;
 3/5=4,6=6,7=111,11=2,25=1,30=1,71=1,74=-5,124=41/1,2,3;
 4//1;
 5/5=2,38=5/2;
 6/7=2,8=2,9=2,10=2,28=1/1;
 7//1,2,3,16;
 1/18=20,19=15,26=3/3(2);
 2/9=110/2;
 99//99;
 2/9=110/2;
 3/5=4,6=6,7=111,11=2,25=1,30=1,71=1,74=-5,124=41/1,2,3;
 4/5=5,16=3,69=1/1;
 5/5=2,38=5/2;
 7//1,2,3,16;
 1/18=20,19=15,26=3/3(-5);
 2/9=110/2;
 6/7=2,8=2,9=2,10=2,19=2,28=1/1;
 99/9=1/99;
 Leave Link    1 at Thu Jul 13 18:48:02 2023, MaxMem= 16106127360 cpu:               2.3 elap:               0.1
 (Enter /public/software/apps/Gaussian/g16/l101.exe)
 ------------------
 dsgdb9nsd_004738-2
 ------------------
 Symbolic Z-matrix:
 Charge =  0 Multiplicity = 2
 O                    -2.64881  -0.63519   0.0021 
 C                    -1.43107  -0.12127   0.00917 
 C                    -1.1534    1.30683  -0.05508 
 O                     0.2081    1.30191   0.03339 
 C                     0.662    -0.0078    0.02676 
 N                    -0.31992  -0.886    -0.00077 
 C                     2.03677  -0.2454   -0.00185 
 C                     3.22954  -0.4233   -0.01666 
 H                    -2.57862  -1.60095  -0.02174 
 H                     4.28066  -0.58516  -0.03085 
 
 ITRead=  0  0  0  0  0  0  0  0  0  0
 MicOpt= -1 -1 -1 -1 -1 -1 -1 -1 -1 -1
 NAtoms=     10 NQM=       10 NQMF=       0 NMMI=      0 NMMIF=      0
                NMic=       0 NMicF=      0.
                    Isotopes and Nuclear Properties:
 (Nuclear quadrupole moments (NQMom) in fm**2, nuclear magnetic moments (NMagM)
  in nuclear magnetons)

  Atom         1           2           3           4           5           6           7           8           9          10
 IAtWgt=          16          12          12          16          12          14          12          12           1           1
 AtmWgt=  15.9949146  12.0000000  12.0000000  15.9949146  12.0000000  14.0030740  12.0000000  12.0000000   1.0078250   1.0078250
 NucSpn=           0           0           0           0           0           2           0           0           1           1
 AtZEff=  -0.0000000  -0.0000000  -0.0000000  -0.0000000  -0.0000000  -0.0000000  -0.0000000  -0.0000000  -0.0000000  -0.0000000
 NQMom=    0.0000000   0.0000000   0.0000000   0.0000000   0.0000000   2.0440000   0.0000000   0.0000000   0.0000000   0.0000000
 NMagM=    0.0000000   0.0000000   0.0000000   0.0000000   0.0000000   0.4037610   0.0000000   0.0000000   2.7928460   2.7928460
 AtZNuc=   8.0000000   6.0000000   6.0000000   8.0000000   6.0000000   7.0000000   6.0000000   6.0000000   1.0000000   1.0000000
 Leave Link  101 at Thu Jul 13 18:48:02 2023, MaxMem= 16106127360 cpu:               2.6 elap:               0.1
 (Enter /public/software/apps/Gaussian/g16/l103.exe)

 GradGradGradGradGradGradGradGradGradGradGradGradGradGradGradGradGradGrad
 Berny optimization.
 Initialization pass.
                           ----------------------------
                           !    Initial Parameters    !
                           ! (Angstroms and Degrees)  !
 --------------------------                            --------------------------
 ! Name  Definition              Value          Derivative Info.                !
 --------------------------------------------------------------------------------
 ! R1    R(1,2)                  1.3218         estimate D2E/DX2                !
 ! R2    R(1,9)                  0.9686         estimate D2E/DX2                !
 ! R3    R(2,3)                  1.4563         estimate D2E/DX2                !
 ! R4    R(2,6)                  1.3489         estimate D2E/DX2                !
 ! R5    R(3,4)                  1.3644         estimate D2E/DX2                !
 ! R6    R(4,5)                  1.3861         estimate D2E/DX2                !
 ! R7    R(5,6)                  1.3176         estimate D2E/DX2                !
 ! R8    R(5,7)                  1.3954         estimate D2E/DX2                !
 ! R9    R(7,8)                  1.2061         estimate D2E/DX2                !
 ! R10   R(8,10)                 1.0636         estimate D2E/DX2                !
 ! A1    A(2,1,9)              108.7256         estimate D2E/DX2                !
 ! A2    A(1,2,3)              123.8294         estimate D2E/DX2                !
 ! A3    A(1,2,6)              122.5775         estimate D2E/DX2                !
 ! A4    A(3,2,6)              113.4894         estimate D2E/DX2                !
 ! A5    A(2,3,4)              100.5951         estimate D2E/DX2                !
 ! A6    A(3,4,5)              109.2605         estimate D2E/DX2                !
 ! A7    A(4,5,6)              112.6948         estimate D2E/DX2                !
 ! A8    A(4,5,7)              118.9196         estimate D2E/DX2                !
 ! A9    A(6,5,7)              128.335          estimate D2E/DX2                !
 ! A10   A(2,6,5)              103.6414         estimate D2E/DX2                !
 ! A11   L(5,7,8,4,-1)         178.6776         estimate D2E/DX2                !
 ! A12   L(7,8,10,4,-1)        180.2709         estimate D2E/DX2                !
 ! A13   L(5,7,8,4,-2)         179.0898         estimate D2E/DX2                !
 ! A14   L(7,8,10,4,-2)        180.1637         estimate D2E/DX2                !
 ! D1    D(9,1,2,3)            175.365          estimate D2E/DX2                !
 ! D2    D(9,1,2,6)             -0.6889         estimate D2E/DX2                !
 ! D3    D(1,2,3,4)            177.8046         estimate D2E/DX2                !
 ! D4    D(6,2,3,4)             -5.8206         estimate D2E/DX2                !
 ! D5    D(1,2,6,5)           -179.2987         estimate D2E/DX2                !
 ! D6    D(3,2,6,5)              4.275          estimate D2E/DX2                !
 ! D7    D(2,3,4,5)              4.8671         estimate D2E/DX2                !
 ! D8    D(3,4,5,6)             -2.8516         estimate D2E/DX2                !
 ! D9    D(3,4,5,7)            174.7745         estimate D2E/DX2                !
 ! D10   D(4,5,6,2)             -0.9284         estimate D2E/DX2                !
 ! D11   D(7,5,6,2)           -178.2792         estimate D2E/DX2                !
 --------------------------------------------------------------------------------
 Trust Radius=3.00D-01 FncErr=1.00D-07 GrdErr=1.00D-06 EigMax=2.50D+02 EigMin=1.00D-04
 Number of steps in this run=     45 maximum allowed number of steps=    100.
 GradGradGradGradGradGradGradGradGradGradGradGradGradGradGradGradGradGrad

 Leave Link  103 at Thu Jul 13 18:48:02 2023, MaxMem= 16106127360 cpu:               0.6 elap:               0.0
 (Enter /public/software/apps/Gaussian/g16/l202.exe)
                          Input orientation:                          
 ---------------------------------------------------------------------
 Center     Atomic      Atomic             Coordinates (Angstroms)
 Number     Number       Type             X           Y           Z
 ---------------------------------------------------------------------
      1          8           0       -2.648811   -0.635189    0.002101
      2          6           0       -1.431065   -0.121268    0.009166
      3          6           0       -1.153404    1.306828   -0.055076
      4          8           0        0.208098    1.301907    0.033392
      5          6           0        0.662001   -0.007797    0.026761
      6          7           0       -0.319917   -0.886004   -0.000767
      7          6           0        2.036774   -0.245396   -0.001854
      8          6           0        3.229541   -0.423303   -0.016662
      9          1           0       -2.578615   -1.600946   -0.021737
     10          1           0        4.280662   -0.585159   -0.030849
 ---------------------------------------------------------------------
                    Distance matrix (angstroms):
                    1          2          3          4          5
     1  O    0.000000
     2  C    1.321768   0.000000
     3  C    2.451722   1.456256   0.000000
     4  O    3.451847   2.170914   1.364382   0.000000
     5  C    3.369823   2.096213   2.242907   1.386144   0.000000
     6  N    2.342363   1.348914   2.346521   2.250982   1.317637
     7  C    4.701772   3.470077   3.548164   2.395714   1.395447
     8  C    5.882199   4.670454   4.712222   3.479651   2.601306
     9  H    0.968598   1.872771   3.238439   4.024346   3.611380
    10  H    6.929732   5.730674   5.754066   4.488978   3.664884
                    6          7          8          9         10
     6  N    0.000000
     7  C    2.442206   0.000000
     8  C    3.579525   1.206053   0.000000
     9  H    2.369240   4.810377   5.926343   0.000000
    10  H    4.610503   2.269650   1.063604   6.934089   0.000000
 Stoichiometry    C5H2NO2(2)
 Framework group  C1[X(C5H2NO2)]
 Deg. of freedom    24
 Full point group                 C1      NOp   1
 Largest Abelian subgroup         C1      NOp   1
 Largest concise Abelian subgroup C1      NOp   1
                         Standard orientation:                         
 ---------------------------------------------------------------------
 Center     Atomic      Atomic             Coordinates (Angstroms)
 Number     Number       Type             X           Y           Z
 ---------------------------------------------------------------------
      1          8           0        2.648811   -0.635189   -0.002101
      2          6           0        1.431065   -0.121268   -0.009166
      3          6           0        1.153404    1.306828    0.055076
      4          8           0       -0.208098    1.301907   -0.033392
      5          6           0       -0.662001   -0.007797   -0.026761
      6          7           0        0.319917   -0.886004    0.000767
      7          6           0       -2.036774   -0.245396    0.001854
      8          6           0       -3.229541   -0.423303    0.016662
      9          1           0        2.578615   -1.600946    0.021737
     10          1           0       -4.280662   -0.585159    0.030849
 ---------------------------------------------------------------------
 Rotational constants (GHZ):           7.1134944           1.4026290           1.1719852
 Leave Link  202 at Thu Jul 13 18:48:02 2023, MaxMem= 16106127360 cpu:               1.1 elap:               0.0
 (Enter /public/software/apps/Gaussian/g16/l301.exe)
 Standard basis: 6-311+G(d,p) (5D, 7F)
 Ernie: Thresh=  0.10000D-02 Tol=  0.10000D-05 Strict=F.
 There are   196 symmetry adapted cartesian basis functions of A   symmetry.
 There are   188 symmetry adapted basis functions of A   symmetry.
   188 basis functions,   304 primitive gaussians,   196 cartesian basis functions
    28 alpha electrons       27 beta electrons
       nuclear repulsion energy       314.0742893854 Hartrees.
 IExCor=  402 DFT=T Ex+Corr=B3LYP ExCW=0 ScaHFX=  0.200000
 ScaDFX=  0.800000  0.720000  1.000000  0.810000 ScalE2=  1.000000  1.000000
 IRadAn=      5 IRanWt=     -1 IRanGd=            0 ICorTp=0 IEmpDi=141
 NAtoms=   10 NActive=   10 NUniq=   10 SFac= 1.00D+00 NAtFMM=   60 NAOKFM=F Big=F
 Integral buffers will be    131072 words long.
 Raffenetti 2 integral format.
 Two-electron integral symmetry is turned on.
 R6Disp:  Grimme-D3(BJ) Dispersion energy=       -0.0147719948 Hartrees.
 Nuclear repulsion after empirical dispersion term =      314.0595173906 Hartrees.
 Leave Link  301 at Thu Jul 13 18:48:02 2023, MaxMem= 16106127360 cpu:               3.9 elap:               0.1
 (Enter /public/software/apps/Gaussian/g16/l302.exe)
 NPDir=0 NMtPBC=     1 NCelOv=     1 NCel=       1 NClECP=     1 NCelD=      1
         NCelK=      1 NCelE2=     1 NClLst=     1 CellRange=     0.0.
 One-electron integrals computed using PRISM.
 One-electron integral symmetry used in STVInt
 NBasis=   188 RedAO= T EigKep=  3.51D-06  NBF=   188
 NBsUse=   187 1.00D-06 EigRej=  2.30D-07 NBFU=   187
 Precomputing XC quadrature grid using
 IXCGrd= 4 IRadAn=           5 IRanWt=          -1 IRanGd=           0 AccXCQ= 0.00D+00.
 Generated NRdTot=       0 NPtTot=           0 NUsed=           0 NTot=          32
 NSgBfM=   196   196   196   196   196 MxSgAt=    10 MxSgA2=    10.
 Leave Link  302 at Thu Jul 13 18:48:02 2023, MaxMem= 16106127360 cpu:               2.6 elap:               0.1
 (Enter /public/software/apps/Gaussian/g16/l303.exe)
 DipDrv:  MaxL=1.
 Leave Link  303 at Thu Jul 13 18:48:02 2023, MaxMem= 16106127360 cpu:               1.6 elap:               0.1
 (Enter /public/software/apps/Gaussian/g16/l401.exe)
 ExpMin= 4.38D-02 ExpMax= 8.59D+03 ExpMxC= 1.30D+03 IAcc=3 IRadAn=         5 AccDes= 0.00D+00
 Harris functional with IExCor=  402 and IRadAn=       5 diagonalized for initial guess.
 HarFok:  IExCor=  402 AccDes= 0.00D+00 IRadAn=         5 IDoV= 1 UseB2=F ITyADJ=14
 ICtDFT=  3500011 ScaDFX=  1.000000  1.000000  1.000000  1.000000
 FoFCou: FMM=F IPFlag=           0 FMFlag=      100000 FMFlg1=           0
         NFxFlg=           0 DoJE=T BraDBF=F KetDBF=T FulRan=T
         wScrn=  0.000000 ICntrl=       500 IOpCl=  0 I1Cent=   200000004 NGrid=           0
         NMat0=    1 NMatS0=      1 NMatT0=    0 NMatD0=    1 NMtDS0=    0 NMtDT0=    0
 Petite list used in FoFCou.
 Harris En= -396.863624255082    
 JPrj=0 DoOrth=F DoCkMO=F.
 Initial guess <Sx>= 0.0000 <Sy>= 0.0000 <Sz>= 0.5000 <S**2>= 0.7500 S= 0.5000
 Leave Link  401 at Thu Jul 13 18:48:03 2023, MaxMem= 16106127360 cpu:               5.1 elap:               0.2
 (Enter /public/software/apps/Gaussian/g16/l502.exe)
 Keep R1 and R2 ints in memory in canonical form, NReq=348479946.
 FoFCou: FMM=F IPFlag=           0 FMFlag=           0 FMFlg1=           0
         NFxFlg=           0 DoJE=F BraDBF=F KetDBF=F FulRan=T
         wScrn=  0.000000 ICntrl=       600 IOpCl=  0 I1Cent=           0 NGrid=           0
         NMat0=    1 NMatS0=  17766 NMatT0=    0 NMatD0=    1 NMtDS0=    0 NMtDT0=    0
 Symmetry not used in FoFCou.
 Two-electron integral symmetry not used.
 UHF open shell SCF:
 Using DIIS extrapolation, IDIIS=  1040.
 NGot= 16106127360 LenX= 15790393628 LenY= 15790354771
 Requested convergence on RMS density matrix=1.00D-08 within 128 cycles.
 Requested convergence on MAX density matrix=1.00D-06.
 Requested convergence on             energy=1.00D-06.
 No special actions if energy rises.

 Cycle   1  Pass 1  IDiag  1:
 E= -396.713049962240    
 DIIS: error= 2.92D-02 at cycle   1 NSaved=   1.
 NSaved= 1 IEnMin= 1 EnMin= -396.713049962240     IErMin= 1 ErrMin= 2.92D-02
 ErrMax= 2.92D-02  0.00D+00 EMaxC= 1.00D-01 BMatC= 7.86D-01 BMatP= 7.86D-01
 IDIUse=3 WtCom= 7.08D-01 WtEn= 2.92D-01
 Coeff-Com:  0.100D+01
 Coeff-En:   0.100D+01
 Coeff:      0.100D+01
 Gap=     0.190 Goal=   None    Shift=    0.000
 Gap=     0.046 Goal=   None    Shift=    0.000
 GapD=    0.046 DampG=0.250 DampE=0.500 DampFc=0.2500 IDamp=-1.
 Damping current iteration by 2.50D-01
 RMSDP=1.21D-02 MaxDP=7.56D-01              OVMax= 2.08D-01

 Cycle   2  Pass 1  IDiag  1:
 E= -396.765765326033     Delta-E=       -0.052715363793 Rises=F Damp=T
 DIIS: error= 1.50D-02 at cycle   2 NSaved=   2.
 NSaved= 2 IEnMin= 2 EnMin= -396.765765326033     IErMin= 2 ErrMin= 1.50D-02
 ErrMax= 1.50D-02  0.00D+00 EMaxC= 1.00D-01 BMatC= 2.01D-01 BMatP= 7.86D-01
 IDIUse=3 WtCom= 8.50D-01 WtEn= 1.50D-01
 Coeff-Com: -0.785D+00 0.178D+01
 Coeff-En:   0.000D+00 0.100D+01
 Coeff:     -0.667D+00 0.167D+01
 Gap=     0.166 Goal=   None    Shift=    0.000
 Gap=     0.060 Goal=   None    Shift=    0.000
 RMSDP=4.75D-03 MaxDP=2.67D-01 DE=-5.27D-02 OVMax= 1.81D-01

 Cycle   3  Pass 1  IDiag  1:
 E= -396.846868673458     Delta-E=       -0.081103347425 Rises=F Damp=F
 DIIS: error= 1.36D-02 at cycle   3 NSaved=   3.
 NSaved= 3 IEnMin= 3 EnMin= -396.846868673458     IErMin= 3 ErrMin= 1.36D-02
 ErrMax= 1.36D-02  0.00D+00 EMaxC= 1.00D-01 BMatC= 5.97D-02 BMatP= 2.01D-01
 IDIUse=3 WtCom= 8.64D-01 WtEn= 1.36D-01
 Coeff-Com: -0.457D+00 0.941D+00 0.516D+00
 Coeff-En:   0.000D+00 0.000D+00 0.100D+01
 Coeff:     -0.395D+00 0.813D+00 0.582D+00
 Gap=     0.164 Goal=   None    Shift=    0.000
 Gap=     0.073 Goal=   None    Shift=    0.000
 RMSDP=1.84D-03 MaxDP=1.63D-01 DE=-8.11D-02 OVMax= 7.46D-02

 Cycle   4  Pass 1  IDiag  1:
 E= -396.852937221960     Delta-E=       -0.006068548502 Rises=F Damp=F
 DIIS: error= 1.09D-02 at cycle   4 NSaved=   4.
 NSaved= 4 IEnMin= 4 EnMin= -396.852937221960     IErMin= 4 ErrMin= 1.09D-02
 ErrMax= 1.09D-02  0.00D+00 EMaxC= 1.00D-01 BMatC= 3.62D-02 BMatP= 5.97D-02
 IDIUse=3 WtCom= 8.91D-01 WtEn= 1.09D-01
 Coeff-Com: -0.169D+00 0.331D+00 0.427D+00 0.411D+00
 Coeff-En:   0.000D+00 0.000D+00 0.401D+00 0.599D+00
 Coeff:     -0.150D+00 0.295D+00 0.424D+00 0.432D+00
 Gap=     0.168 Goal=   None    Shift=    0.000
 Gap=     0.075 Goal=   None    Shift=    0.000
 RMSDP=5.66D-04 MaxDP=1.24D-02 DE=-6.07D-03 OVMax= 4.17D-02

 Cycle   5  Pass 1  IDiag  1:
 E= -396.861681433175     Delta-E=       -0.008744211215 Rises=F Damp=F
 DIIS: error= 2.08D-03 at cycle   5 NSaved=   5.
 NSaved= 5 IEnMin= 5 EnMin= -396.861681433175     IErMin= 5 ErrMin= 2.08D-03
 ErrMax= 2.08D-03  0.00D+00 EMaxC= 1.00D-01 BMatC= 1.76D-03 BMatP= 3.62D-02
 IDIUse=3 WtCom= 9.79D-01 WtEn= 2.08D-02
 Coeff-Com: -0.245D-01 0.435D-01 0.173D+00 0.251D+00 0.557D+00
 Coeff-En:   0.000D+00 0.000D+00 0.000D+00 0.000D+00 0.100D+01
 Coeff:     -0.240D-01 0.426D-01 0.169D+00 0.246D+00 0.567D+00
 Gap=     0.168 Goal=   None    Shift=    0.000
 Gap=     0.075 Goal=   None    Shift=    0.000
 RMSDP=2.22D-04 MaxDP=1.12D-02 DE=-8.74D-03 OVMax= 1.34D-02

 Cycle   6  Pass 1  IDiag  1:
 E= -396.862143501889     Delta-E=       -0.000462068714 Rises=F Damp=F
 DIIS: error= 5.30D-04 at cycle   6 NSaved=   6.
 NSaved= 6 IEnMin= 6 EnMin= -396.862143501889     IErMin= 6 ErrMin= 5.30D-04
 ErrMax= 5.30D-04  0.00D+00 EMaxC= 1.00D-01 BMatC= 1.92D-04 BMatP= 1.76D-03
 IDIUse=3 WtCom= 9.95D-01 WtEn= 5.30D-03
 Coeff-Com:  0.138D-02-0.573D-02 0.491D-01 0.879D-01 0.299D+00 0.568D+00
 Coeff-En:   0.000D+00 0.000D+00 0.000D+00 0.000D+00 0.000D+00 0.100D+01
 Coeff:      0.137D-02-0.570D-02 0.489D-01 0.875D-01 0.298D+00 0.570D+00
 Gap=     0.168 Goal=   None    Shift=    0.000
 Gap=     0.077 Goal=   None    Shift=    0.000
 RMSDP=7.97D-05 MaxDP=1.90D-03 DE=-4.62D-04 OVMax= 1.00D-02

 Cycle   7  Pass 1  IDiag  1:
 E= -396.862236373905     Delta-E=       -0.000092872016 Rises=F Damp=F
 DIIS: error= 2.55D-04 at cycle   7 NSaved=   7.
 NSaved= 7 IEnMin= 7 EnMin= -396.862236373905     IErMin= 7 ErrMin= 2.55D-04
 ErrMax= 2.55D-04  0.00D+00 EMaxC= 1.00D-01 BMatC= 5.16D-05 BMatP= 1.92D-04
 IDIUse=3 WtCom= 9.97D-01 WtEn= 2.55D-03
 Coeff-Com:  0.870D-02-0.167D-01-0.286D-01-0.301D-01-0.118D-01 0.284D+00
 Coeff-Com:  0.794D+00
 Coeff-En:   0.000D+00 0.000D+00 0.000D+00 0.000D+00 0.000D+00 0.000D+00
 Coeff-En:   0.100D+01
 Coeff:      0.868D-02-0.167D-01-0.286D-01-0.300D-01-0.117D-01 0.283D+00
 Coeff:      0.795D+00
 Gap=     0.167 Goal=   None    Shift=    0.000
 Gap=     0.077 Goal=   None    Shift=    0.000
 RMSDP=9.35D-05 MaxDP=2.94D-03 DE=-9.29D-05 OVMax= 1.68D-02

 Cycle   8  Pass 1  IDiag  1:
 E= -396.862320379864     Delta-E=       -0.000084005958 Rises=F Damp=F
 DIIS: error= 1.80D-04 at cycle   8 NSaved=   8.
 NSaved= 8 IEnMin= 8 EnMin= -396.862320379864     IErMin= 8 ErrMin= 1.80D-04
 ErrMax= 1.80D-04  0.00D+00 EMaxC= 1.00D-01 BMatC= 2.84D-05 BMatP= 5.16D-05
 IDIUse=3 WtCom= 9.98D-01 WtEn= 1.80D-03
 Coeff-Com:  0.393D-02-0.547D-02-0.309D-01-0.446D-01-0.108D+00-0.105D+00
 Coeff-Com:  0.442D+00 0.848D+00
 Coeff-En:   0.000D+00 0.000D+00 0.000D+00 0.000D+00 0.000D+00 0.000D+00
 Coeff-En:   0.000D+00 0.100D+01
 Coeff:      0.392D-02-0.546D-02-0.308D-01-0.445D-01-0.108D+00-0.104D+00
 Coeff:      0.441D+00 0.849D+00
 Gap=     0.167 Goal=   None    Shift=    0.000
 Gap=     0.078 Goal=   None    Shift=    0.000
 RMSDP=1.12D-04 MaxDP=3.20D-03 DE=-8.40D-05 OVMax= 1.86D-02

 Cycle   9  Pass 1  IDiag  1:
 E= -396.862392689919     Delta-E=       -0.000072310055 Rises=F Damp=F
 DIIS: error= 1.53D-04 at cycle   9 NSaved=   9.
 NSaved= 9 IEnMin= 9 EnMin= -396.862392689919     IErMin= 9 ErrMin= 1.53D-04
 ErrMax= 1.53D-04  0.00D+00 EMaxC= 1.00D-01 BMatC= 2.10D-05 BMatP= 2.84D-05
 IDIUse=3 WtCom= 9.98D-01 WtEn= 1.53D-03
 Coeff-Com:  0.417D-03 0.105D-02-0.150D-01-0.258D-01-0.839D-01-0.203D+00
 Coeff-Com:  0.137D+00 0.635D+00 0.554D+00
 Coeff-En:   0.000D+00 0.000D+00 0.000D+00 0.000D+00 0.000D+00 0.000D+00
 Coeff-En:   0.000D+00 0.000D+00 0.100D+01
 Coeff:      0.417D-03 0.105D-02-0.149D-01-0.258D-01-0.838D-01-0.203D+00
 Coeff:      0.137D+00 0.634D+00 0.555D+00
 Gap=     0.167 Goal=   None    Shift=    0.000
 Gap=     0.079 Goal=   None    Shift=    0.000
 RMSDP=8.41D-05 MaxDP=2.34D-03 DE=-7.23D-05 OVMax= 1.33D-02

 Cycle  10  Pass 1  IDiag  1:
 E= -396.862437199712     Delta-E=       -0.000044509793 Rises=F Damp=F
 DIIS: error= 1.46D-04 at cycle  10 NSaved=  10.
 NSaved=10 IEnMin=10 EnMin= -396.862437199712     IErMin=10 ErrMin= 1.46D-04
 ErrMax= 1.46D-04  0.00D+00 EMaxC= 1.00D-01 BMatC= 9.97D-06 BMatP= 2.10D-05
 IDIUse=3 WtCom= 9.99D-01 WtEn= 1.46D-03
 Coeff-Com: -0.222D-02 0.426D-02 0.161D-01 0.223D-01 0.577D-01 0.333D-01
 Coeff-Com: -0.708D-01-0.659D+00-0.277D+00 0.188D+01
 Coeff-En:   0.000D+00 0.000D+00 0.000D+00 0.000D+00 0.000D+00 0.000D+00
 Coeff-En:   0.000D+00 0.000D+00 0.000D+00 0.100D+01
 Coeff:     -0.222D-02 0.425D-02 0.161D-01 0.223D-01 0.576D-01 0.332D-01
 Coeff:     -0.707D-01-0.658D+00-0.277D+00 0.187D+01
 Gap=     0.166 Goal=   None    Shift=    0.000
 Gap=     0.079 Goal=   None    Shift=    0.000
 RMSDP=1.79D-04 MaxDP=5.86D-03 DE=-4.45D-05 OVMax= 2.88D-02

 Cycle  11  Pass 1  IDiag  1:
 E= -396.862510194330     Delta-E=       -0.000072994619 Rises=F Damp=F
 DIIS: error= 1.06D-04 at cycle  11 NSaved=  11.
 NSaved=11 IEnMin=11 EnMin= -396.862510194330     IErMin=11 ErrMin= 1.06D-04
 ErrMax= 1.06D-04  0.00D+00 EMaxC= 1.00D-01 BMatC= 9.59D-06 BMatP= 9.97D-06
 IDIUse=3 WtCom= 9.99D-01 WtEn= 1.06D-03
 Coeff-Com: -0.101D-02 0.806D-03 0.233D-01 0.382D-01 0.119D+00 0.209D+00
 Coeff-Com: -0.678D-01-0.118D+01-0.939D+00 0.188D+01 0.920D+00
 Coeff-En:   0.000D+00 0.000D+00 0.000D+00 0.000D+00 0.000D+00 0.000D+00
 Coeff-En:   0.000D+00 0.000D+00 0.000D+00 0.000D+00 0.100D+01
 Coeff:     -0.101D-02 0.806D-03 0.233D-01 0.381D-01 0.119D+00 0.209D+00
 Coeff:     -0.677D-01-0.118D+01-0.938D+00 0.188D+01 0.920D+00
 Gap=     0.166 Goal=   None    Shift=    0.000
 Gap=     0.080 Goal=   None    Shift=    0.000
 RMSDP=1.99D-04 MaxDP=6.89D-03 DE=-7.30D-05 OVMax= 3.11D-02

 Cycle  12  Pass 1  IDiag  1:
 E= -396.862563198111     Delta-E=       -0.000053003780 Rises=F Damp=F
 DIIS: error= 6.22D-05 at cycle  12 NSaved=  12.
 NSaved=12 IEnMin=12 EnMin= -396.862563198111     IErMin=12 ErrMin= 6.22D-05
 ErrMax= 6.22D-05  0.00D+00 EMaxC= 1.00D-01 BMatC= 3.08D-06 BMatP= 9.59D-06
 IDIUse=1 WtCom= 1.00D+00 WtEn= 0.00D+00
 Coeff-Com:  0.431D-03-0.112D-02 0.279D-02 0.745D-02 0.322D-01 0.107D+00
 Coeff-Com:  0.858D-01-0.295D+00-0.510D+00 0.928D-01 0.406D+00 0.107D+01
 Coeff:      0.431D-03-0.112D-02 0.279D-02 0.745D-02 0.322D-01 0.107D+00
 Coeff:      0.858D-01-0.295D+00-0.510D+00 0.928D-01 0.406D+00 0.107D+01
 Gap=     0.165 Goal=   None    Shift=    0.000
 Gap=     0.081 Goal=   None    Shift=    0.000
 RMSDP=1.53D-04 MaxDP=6.03D-03 DE=-5.30D-05 OVMax= 2.10D-02

 Cycle  13  Pass 1  IDiag  1:
 E= -396.862581497481     Delta-E=       -0.000018299370 Rises=F Damp=F
 DIIS: error= 4.71D-05 at cycle  13 NSaved=  13.
 NSaved=13 IEnMin=13 EnMin= -396.862581497481     IErMin=13 ErrMin= 4.71D-05
 ErrMax= 4.71D-05  0.00D+00 EMaxC= 1.00D-01 BMatC= 1.26D-06 BMatP= 3.08D-06
 IDIUse=1 WtCom= 1.00D+00 WtEn= 0.00D+00
 Coeff-Com:  0.425D-03-0.448D-03-0.706D-02-0.981D-02-0.217D-01 0.388D-02
 Coeff-Com:  0.119D+00 0.196D+00-0.648D-01-0.460D+00-0.967D-01 0.586D+00
 Coeff-Com:  0.756D+00
 Coeff:      0.425D-03-0.448D-03-0.706D-02-0.981D-02-0.217D-01 0.388D-02
 Coeff:      0.119D+00 0.196D+00-0.648D-01-0.460D+00-0.967D-01 0.586D+00
 Coeff:      0.756D+00
 Gap=     0.165 Goal=   None    Shift=    0.000
 Gap=     0.080 Goal=   None    Shift=    0.000
 RMSDP=4.34D-05 MaxDP=1.87D-03 DE=-1.83D-05 OVMax= 6.09D-03

 Cycle  14  Pass 1  IDiag  1:
 E= -396.862584292076     Delta-E=       -0.000002794595 Rises=F Damp=F
 DIIS: error= 3.36D-05 at cycle  14 NSaved=  14.
 NSaved=14 IEnMin=14 EnMin= -396.862584292076     IErMin=14 ErrMin= 3.36D-05
 ErrMax= 3.36D-05  0.00D+00 EMaxC= 1.00D-01 BMatC= 4.91D-07 BMatP= 1.26D-06
 IDIUse=1 WtCom= 1.00D+00 WtEn= 0.00D+00
 Coeff-Com: -0.512D-04 0.299D-03-0.340D-02-0.600D-02-0.184D-01-0.376D-01
 Coeff-Com:  0.255D-01 0.158D+00 0.134D+00-0.149D+00-0.226D+00-0.241D+00
 Coeff-Com:  0.407D+00 0.956D+00
 Coeff:     -0.512D-04 0.299D-03-0.340D-02-0.600D-02-0.184D-01-0.376D-01
 Coeff:      0.255D-01 0.158D+00 0.134D+00-0.149D+00-0.226D+00-0.241D+00
 Coeff:      0.407D+00 0.956D+00
 Gap=     0.165 Goal=   None    Shift=    0.000
 Gap=     0.080 Goal=   None    Shift=    0.000
 RMSDP=4.09D-05 MaxDP=1.79D-03 DE=-2.79D-06 OVMax= 5.15D-03

 Cycle  15  Pass 1  IDiag  1:
 E= -396.862585575570     Delta-E=       -0.000001283494 Rises=F Damp=F
 DIIS: error= 1.26D-05 at cycle  15 NSaved=  15.
 NSaved=15 IEnMin=15 EnMin= -396.862585575570     IErMin=15 ErrMin= 1.26D-05
 ErrMax= 1.26D-05  0.00D+00 EMaxC= 1.00D-01 BMatC= 8.63D-08 BMatP= 4.91D-07
 IDIUse=1 WtCom= 1.00D+00 WtEn= 0.00D+00
 Coeff-Com: -0.108D-03 0.214D-03-0.469D-03-0.116D-02-0.470D-02-0.165D-01
 Coeff-Com: -0.570D-02 0.319D-01 0.712D-01 0.999D-02-0.917D-01-0.215D+00
 Coeff-Com:  0.646D-01 0.441D+00 0.717D+00
 Coeff:     -0.108D-03 0.214D-03-0.469D-03-0.116D-02-0.470D-02-0.165D-01
 Coeff:     -0.570D-02 0.319D-01 0.712D-01 0.999D-02-0.917D-01-0.215D+00
 Coeff:      0.646D-01 0.441D+00 0.717D+00
 Gap=     0.165 Goal=   None    Shift=    0.000
 Gap=     0.080 Goal=   None    Shift=    0.000
 RMSDP=1.28D-05 MaxDP=4.44D-04 DE=-1.28D-06 OVMax= 2.00D-03

 Cycle  16  Pass 1  IDiag  1:
 E= -396.862585762078     Delta-E=       -0.000000186508 Rises=F Damp=F
 DIIS: error= 7.76D-06 at cycle  16 NSaved=  16.
 NSaved=16 IEnMin=16 EnMin= -396.862585762078     IErMin=16 ErrMin= 7.76D-06
 ErrMax= 7.76D-06  0.00D+00 EMaxC= 1.00D-01 BMatC= 3.75D-08 BMatP= 8.63D-08
 IDIUse=1 WtCom= 1.00D+00 WtEn= 0.00D+00
 Coeff-Com: -0.286D-04 0.955D-05 0.751D-03 0.118D-02 0.266D-02 0.567D-03
 Coeff-Com: -0.113D-01-0.273D-01 0.514D-02 0.502D-01 0.745D-02-0.660D-01
 Coeff-Com: -0.794D-01-0.394D-01 0.464D+00 0.692D+00
 Coeff:     -0.286D-04 0.955D-05 0.751D-03 0.118D-02 0.266D-02 0.567D-03
 Coeff:     -0.113D-01-0.273D-01 0.514D-02 0.502D-01 0.745D-02-0.660D-01
 Coeff:     -0.794D-01-0.394D-01 0.464D+00 0.692D+00
 Gap=     0.165 Goal=   None    Shift=    0.000
 Gap=     0.080 Goal=   None    Shift=    0.000
 RMSDP=7.66D-06 MaxDP=2.92D-04 DE=-1.87D-07 OVMax= 1.11D-03

 Cycle  17  Pass 1  IDiag  1:
 E= -396.862585804401     Delta-E=       -0.000000042322 Rises=F Damp=F
 DIIS: error= 2.34D-06 at cycle  17 NSaved=  17.
 NSaved=17 IEnMin=17 EnMin= -396.862585804401     IErMin=17 ErrMin= 2.34D-06
 ErrMax= 2.34D-06  0.00D+00 EMaxC= 1.00D-01 BMatC= 2.35D-09 BMatP= 3.75D-08
 IDIUse=1 WtCom= 1.00D+00 WtEn= 0.00D+00
 Coeff-Com:  0.865D-05-0.642D-05 0.787D-04 0.139D-03 0.309D-03 0.129D-03
 Coeff-Com:  0.601D-04-0.310D-02-0.119D-02 0.885D-02 0.248D-02-0.676D-02
 Coeff-Com: -0.123D-01-0.513D-01 0.116D-01 0.124D+00 0.927D+00
 Coeff:      0.865D-05-0.642D-05 0.787D-04 0.139D-03 0.309D-03 0.129D-03
 Coeff:      0.601D-04-0.310D-02-0.119D-02 0.885D-02 0.248D-02-0.676D-02
 Coeff:     -0.123D-01-0.513D-01 0.116D-01 0.124D+00 0.927D+00
 Gap=     0.165 Goal=   None    Shift=    0.000
 Gap=     0.080 Goal=   None    Shift=    0.000
 RMSDP=1.32D-06 MaxDP=6.34D-05 DE=-4.23D-08 OVMax= 7.37D-05

 Cycle  18  Pass 1  IDiag  1:
 E= -396.862585806684     Delta-E=       -0.000000002283 Rises=F Damp=F
 DIIS: error= 8.42D-07 at cycle  18 NSaved=  18.
 NSaved=18 IEnMin=18 EnMin= -396.862585806684     IErMin=18 ErrMin= 8.42D-07
 ErrMax= 8.42D-07  0.00D+00 EMaxC= 1.00D-01 BMatC= 4.38D-10 BMatP= 2.35D-09
 IDIUse=1 WtCom= 1.00D+00 WtEn= 0.00D+00
 Coeff-Com:  0.960D-05-0.137D-04-0.468D-04-0.642D-04-0.247D-04 0.707D-03
 Coeff-Com:  0.972D-03 0.151D-02-0.361D-02-0.722D-02 0.370D-02 0.175D-01
 Coeff-Com:  0.274D-02-0.102D-01-0.721D-01-0.835D-01 0.172D+00 0.978D+00
 Coeff:      0.960D-05-0.137D-04-0.468D-04-0.642D-04-0.247D-04 0.707D-03
 Coeff:      0.972D-03 0.151D-02-0.361D-02-0.722D-02 0.370D-02 0.175D-01
 Coeff:      0.274D-02-0.102D-01-0.721D-01-0.835D-01 0.172D+00 0.978D+00
 Gap=     0.165 Goal=   None    Shift=    0.000
 Gap=     0.080 Goal=   None    Shift=    0.000
 RMSDP=8.43D-07 MaxDP=2.00D-05 DE=-2.28D-09 OVMax= 1.41D-04

 Cycle  19  Pass 1  IDiag  1:
 E= -396.862585807088     Delta-E=       -0.000000000404 Rises=F Damp=F
 DIIS: error= 2.63D-07 at cycle  19 NSaved=  19.
 NSaved=19 IEnMin=19 EnMin= -396.862585807088     IErMin=19 ErrMin= 2.63D-07
 ErrMax= 2.63D-07  0.00D+00 EMaxC= 1.00D-01 BMatC= 6.61D-11 BMatP= 4.38D-10
 IDIUse=1 WtCom= 1.00D+00 WtEn= 0.00D+00
 Coeff-Com: -0.100D-05 0.179D-05-0.279D-04-0.498D-04-0.111D-03-0.115D-03
 Coeff-Com:  0.348D-03 0.125D-02-0.780D-04-0.187D-02-0.600D-03 0.272D-02
 Coeff-Com:  0.382D-02 0.767D-02-0.138D-01-0.371D-01-0.101D+00 0.224D+00
 Coeff-Com:  0.914D+00
 Coeff:     -0.100D-05 0.179D-05-0.279D-04-0.498D-04-0.111D-03-0.115D-03
 Coeff:      0.348D-03 0.125D-02-0.780D-04-0.187D-02-0.600D-03 0.272D-02
 Coeff:      0.382D-02 0.767D-02-0.138D-01-0.371D-01-0.101D+00 0.224D+00
 Coeff:      0.914D+00
 Gap=     0.165 Goal=   None    Shift=    0.000
 Gap=     0.080 Goal=   None    Shift=    0.000
 RMSDP=4.39D-07 MaxDP=1.42D-05 DE=-4.04D-10 OVMax= 6.56D-05

 Cycle  20  Pass 1  IDiag  1:
 E= -396.862585807218     Delta-E=       -0.000000000131 Rises=F Damp=F
 DIIS: error= 1.04D-07 at cycle  20 NSaved=  20.
 NSaved=20 IEnMin=20 EnMin= -396.862585807218     IErMin=20 ErrMin= 1.04D-07
 ErrMax= 1.04D-07  0.00D+00 EMaxC= 1.00D-01 BMatC= 9.07D-12 BMatP= 6.61D-11
 IDIUse=1 WtCom= 1.00D+00 WtEn= 0.00D+00
 Coeff-Com: -0.149D-05 0.191D-05 0.976D-06 0.743D-06-0.312D-04-0.197D-03
 Coeff-Com: -0.161D-03 0.136D-03 0.774D-03 0.855D-03-0.951D-03-0.283D-02
 Coeff-Com:  0.343D-03 0.224D-02 0.100D-01 0.105D-01-0.381D-01-0.160D+00
 Coeff-Com:  0.145D+00 0.103D+01
 Coeff:     -0.149D-05 0.191D-05 0.976D-06 0.743D-06-0.312D-04-0.197D-03
 Coeff:     -0.161D-03 0.136D-03 0.774D-03 0.855D-03-0.951D-03-0.283D-02
 Coeff:      0.343D-03 0.224D-02 0.100D-01 0.105D-01-0.381D-01-0.160D+00
 Coeff:      0.145D+00 0.103D+01
 Gap=     0.165 Goal=   None    Shift=    0.000
 Gap=     0.080 Goal=   None    Shift=    0.000
 RMSDP=4.82D-08 MaxDP=1.28D-06 DE=-1.31D-10 OVMax= 4.44D-06

 Cycle  21  Pass 1  IDiag  1:
 E= -396.862585807227     Delta-E=       -0.000000000009 Rises=F Damp=F
 DIIS: error= 7.03D-08 at cycle  21 NSaved=  20.
 NSaved=20 IEnMin=20 EnMin= -396.862585807227     IErMin=20 ErrMin= 7.03D-08
 ErrMax= 7.03D-08  0.00D+00 EMaxC= 1.00D-01 BMatC= 1.49D-12 BMatP= 9.07D-12
 IDIUse=1 WtCom= 1.00D+00 WtEn= 0.00D+00
 Coeff-Com:  0.872D-07 0.226D-05 0.381D-05-0.110D-05-0.332D-04-0.902D-04
 Coeff-Com: -0.128D-04 0.214D-03 0.150D-03-0.138D-03-0.621D-03-0.375D-03
 Coeff-Com: -0.793D-03 0.267D-02 0.735D-02 0.117D-01-0.730D-01-0.100D+00
 Coeff-Com:  0.191D+00 0.962D+00
 Coeff:      0.872D-07 0.226D-05 0.381D-05-0.110D-05-0.332D-04-0.902D-04
 Coeff:     -0.128D-04 0.214D-03 0.150D-03-0.138D-03-0.621D-03-0.375D-03
 Coeff:     -0.793D-03 0.267D-02 0.735D-02 0.117D-01-0.730D-01-0.100D+00
 Coeff:      0.191D+00 0.962D+00
 Gap=     0.165 Goal=   None    Shift=    0.000
 Gap=     0.080 Goal=   None    Shift=    0.000
 RMSDP=2.60D-08 MaxDP=7.14D-07 DE=-8.64D-12 OVMax= 3.42D-06

 Cycle  22  Pass 1  IDiag  1:
 E= -396.862585807228     Delta-E=       -0.000000000001 Rises=F Damp=F
 DIIS: error= 1.45D-08 at cycle  22 NSaved=  20.
 NSaved=20 IEnMin=20 EnMin= -396.862585807228     IErMin=20 ErrMin= 1.45D-08
 ErrMax= 1.45D-08  0.00D+00 EMaxC= 1.00D-01 BMatC= 1.05D-13 BMatP= 1.49D-12
 IDIUse=1 WtCom= 1.00D+00 WtEn= 0.00D+00
 Coeff-Com:  0.377D-06 0.917D-09 0.168D-05 0.113D-04 0.816D-05-0.149D-04
 Coeff-Com: -0.154D-04-0.486D-04 0.473D-04 0.156D-03-0.620D-04-0.142D-03
 Coeff-Com: -0.641D-03-0.426D-03 0.439D-02 0.109D-01-0.269D-01-0.963D-01
 Coeff-Com:  0.632D-01 0.105D+01
 Coeff:      0.377D-06 0.917D-09 0.168D-05 0.113D-04 0.816D-05-0.149D-04
 Coeff:     -0.154D-04-0.486D-04 0.473D-04 0.156D-03-0.620D-04-0.142D-03
 Coeff:     -0.641D-03-0.426D-03 0.439D-02 0.109D-01-0.269D-01-0.963D-01
 Coeff:      0.632D-01 0.105D+01
 Gap=     0.165 Goal=   None    Shift=    0.000
 Gap=     0.080 Goal=   None    Shift=    0.000
 RMSDP=1.80D-08 MaxDP=6.39D-07 DE=-1.14D-12 OVMax= 2.66D-06

 Cycle  23  Pass 1  IDiag  1:
 E= -396.862585807227     Delta-E=        0.000000000001 Rises=F Damp=F
 DIIS: error= 6.77D-09 at cycle  23 NSaved=  20.
 NSaved=20 IEnMin=19 EnMin= -396.862585807228     IErMin=20 ErrMin= 6.77D-09
 ErrMax= 6.77D-09  0.00D+00 EMaxC= 1.00D-01 BMatC= 1.17D-14 BMatP= 1.05D-13
 IDIUse=1 WtCom= 1.00D+00 WtEn= 0.00D+00
 Coeff-Com:  0.952D-08 0.418D-06 0.513D-05 0.313D-05-0.289D-05-0.104D-04
 Coeff-Com: -0.244D-04 0.261D-04 0.609D-04 0.444D-05-0.203D-04-0.233D-03
 Coeff-Com: -0.525D-03 0.199D-03 0.579D-02 0.241D-02-0.187D-01-0.609D-01
 Coeff-Com:  0.484D-01 0.102D+01
 Coeff:      0.952D-08 0.418D-06 0.513D-05 0.313D-05-0.289D-05-0.104D-04
 Coeff:     -0.244D-04 0.261D-04 0.609D-04 0.444D-05-0.203D-04-0.233D-03
 Coeff:     -0.525D-03 0.199D-03 0.579D-02 0.241D-02-0.187D-01-0.609D-01
 Coeff:      0.484D-01 0.102D+01
 Gap=     0.165 Goal=   None    Shift=    0.000
 Gap=     0.080 Goal=   None    Shift=    0.000
 RMSDP=1.66D-09 MaxDP=5.33D-08 DE= 6.82D-13 OVMax= 1.31D-07

 SCF Done:  E(UB3LYP) =  -396.862585807     A.U. after   23 cycles
            NFock= 23  Conv=0.17D-08     -V/T= 2.0035
 <Sx>= 0.0000 <Sy>= 0.0000 <Sz>= 0.5000 <S**2>= 0.7794 S= 0.5146
 <L.S>=  0.00000000000    
 KE= 3.954799740482D+02 PE=-1.555867681837D+03 EE= 4.494656045910D+02
 Annihilation of the first spin contaminant:
 S**2 before annihilation     0.7794,   after     0.7505
 Leave Link  502 at Thu Jul 13 18:48:11 2023, MaxMem= 16106127360 cpu:             147.9 elap:               8.0
 (Enter /public/software/apps/Gaussian/g16/l601.exe)
 Copying SCF densities to generalized density rwf, IOpCl= 1 IROHF=0.

 **********************************************************************

            Population analysis using the SCF Density.

 **********************************************************************

 Orbital symmetries:
 Alpha Orbitals:
       Occupied  (A) (A) (A) (A) (A) (A) (A) (A) (A) (A) (A) (A)
                 (A) (A) (A) (A) (A) (A) (A) (A) (A) (A) (A) (A)
                 (A) (A) (A) (A)
       Virtual   (A) (A) (A) (A) (A) (A) (A) (A) (A) (A) (A) (A)
                 (A) (A) (A) (A) (A) (A) (A) (A) (A) (A) (A) (A)
                 (A) (A) (A) (A) (A) (A) (A) (A) (A) (A) (A) (A)
                 (A) (A) (A) (A) (A) (A) (A) (A) (A) (A) (A) (A)
                 (A) (A) (A) (A) (A) (A) (A) (A) (A) (A) (A) (A)
                 (A) (A) (A) (A) (A) (A) (A) (A) (A) (A) (A) (A)
                 (A) (A) (A) (A) (A) (A) (A) (A) (A) (A) (A) (A)
                 (A) (A) (A) (A) (A) (A) (A) (A) (A) (A) (A) (A)
                 (A) (A) (A) (A) (A) (A) (A) (A) (A) (A) (A) (A)
                 (A) (A) (A) (A) (A) (A) (A) (A) (A) (A) (A) (A)
                 (A) (A) (A) (A) (A) (A) (A) (A) (A) (A) (A) (A)
                 (A) (A) (A) (A) (A) (A) (A) (A) (A) (A) (A) (A)
                 (A) (A) (A) (A) (A) (A) (A) (A) (A) (A) (A) (A)
                 (A) (A) (A)
 Beta  Orbitals:
       Occupied  (A) (A) (A) (A) (A) (A) (A) (A) (A) (A) (A) (A)
                 (A) (A) (A) (A) (A) (A) (A) (A) (A) (A) (A) (A)
                 (A) (A) (A)
       Virtual   (A) (A) (A) (A) (A) (A) (A) (A) (A) (A) (A) (A)
                 (A) (A) (A) (A) (A) (A) (A) (A) (A) (A) (A) (A)
                 (A) (A) (A) (A) (A) (A) (A) (A) (A) (A) (A) (A)
                 (A) (A) (A) (A) (A) (A) (A) (A) (A) (A) (A) (A)
                 (A) (A) (A) (A) (A) (A) (A) (A) (A) (A) (A) (A)
                 (A) (A) (A) (A) (A) (A) (A) (A) (A) (A) (A) (A)
                 (A) (A) (A) (A) (A) (A) (A) (A) (A) (A) (A) (A)
                 (A) (A) (A) (A) (A) (A) (A) (A) (A) (A) (A) (A)
                 (A) (A) (A) (A) (A) (A) (A) (A) (A) (A) (A) (A)
                 (A) (A) (A) (A) (A) (A) (A) (A) (A) (A) (A) (A)
                 (A) (A) (A) (A) (A) (A) (A) (A) (A) (A) (A) (A)
                 (A) (A) (A) (A) (A) (A) (A) (A) (A) (A) (A) (A)
                 (A) (A) (A) (A) (A) (A) (A) (A) (A) (A) (A) (A)
                 (A) (A) (A) (A)
 The electronic state is 2-A.
 Alpha  occ. eigenvalues --  -19.22473 -19.21569 -14.35701 -10.32602 -10.30564
 Alpha  occ. eigenvalues --  -10.24435 -10.22852 -10.22342  -1.16361  -1.13303
 Alpha  occ. eigenvalues --   -0.96901  -0.83837  -0.77449  -0.69111  -0.65178
 Alpha  occ. eigenvalues --   -0.59799  -0.58538  -0.55245  -0.52148  -0.45553
 Alpha  occ. eigenvalues --   -0.45196  -0.42174  -0.37414  -0.35172  -0.34015
 Alpha  occ. eigenvalues --   -0.33492  -0.26301  -0.24718
 Alpha virt. eigenvalues --   -0.08193  -0.02511  -0.01384   0.00360   0.01286
 Alpha virt. eigenvalues --    0.02297   0.04584   0.04971   0.05350   0.05821
 Alpha virt. eigenvalues --    0.07059   0.08204   0.08699   0.10163   0.10381
 Alpha virt. eigenvalues --    0.11802   0.12852   0.13388   0.14115   0.14867
 Alpha virt. eigenvalues --    0.16136   0.17090   0.17537   0.18045   0.19464
 Alpha virt. eigenvalues --    0.19582   0.21773   0.22147   0.23480   0.24038
 Alpha virt. eigenvalues --    0.25905   0.26773   0.27825   0.28452   0.28945
 Alpha virt. eigenvalues --    0.29135   0.29869   0.31662   0.33483   0.35400
 Alpha virt. eigenvalues --    0.37080   0.38482   0.41939   0.43540   0.44393
 Alpha virt. eigenvalues --    0.50053   0.52252   0.53231   0.55741   0.57164
 Alpha virt. eigenvalues --    0.57412   0.58675   0.60245   0.65081   0.65536
 Alpha virt. eigenvalues --    0.66382   0.67254   0.72877   0.76109   0.77523
 Alpha virt. eigenvalues --    0.80100   0.82488   0.84545   0.85641   0.86202
 Alpha virt. eigenvalues --    0.93349   0.98731   1.00325   1.01032   1.02347
 Alpha virt. eigenvalues --    1.06963   1.07326   1.10601   1.10756   1.12362
 Alpha virt. eigenvalues --    1.14789   1.15343   1.17458   1.17622   1.19236
 Alpha virt. eigenvalues --    1.22908   1.24399   1.26361   1.35197   1.37303
 Alpha virt. eigenvalues --    1.38570   1.44554   1.47752   1.52463   1.54223
 Alpha virt. eigenvalues --    1.56896   1.57773   1.58827   1.66730   1.74159
 Alpha virt. eigenvalues --    1.77163   1.77381   1.80998   1.83986   1.88152
 Alpha virt. eigenvalues --    1.88965   1.90672   1.99395   2.05656   2.14133
 Alpha virt. eigenvalues --    2.16175   2.24048   2.30679   2.51223   2.51839
 Alpha virt. eigenvalues --    2.52628   2.56841   2.61674   2.63447   2.66052
 Alpha virt. eigenvalues --    2.66674   2.70081   2.75423   2.75894   2.85192
 Alpha virt. eigenvalues --    2.86691   2.92048   2.95926   2.96544   2.99768
 Alpha virt. eigenvalues --    3.03583   3.06594   3.08674   3.12952   3.16256
 Alpha virt. eigenvalues --    3.18127   3.19510   3.31384   3.40008   3.47518
 Alpha virt. eigenvalues --    3.53610   3.60884   3.81436   3.82754   3.85475
 Alpha virt. eigenvalues --    3.88339   4.08452   4.10943   4.45496   4.85135
 Alpha virt. eigenvalues --    4.92272   4.95326   5.32611   5.40390   5.67248
 Alpha virt. eigenvalues --    5.73367  23.49322  23.66169  23.80568  23.87389
 Alpha virt. eigenvalues --   25.11845  35.58274  49.84208  49.90873
  Beta  occ. eigenvalues --  -19.22562 -19.21208 -14.35893 -10.32095 -10.30137
  Beta  occ. eigenvalues --  -10.23853 -10.22636 -10.22403  -1.15998  -1.12678
  Beta  occ. eigenvalues --   -0.96837  -0.83194  -0.76284  -0.68449  -0.64526
  Beta  occ. eigenvalues --   -0.59506  -0.58094  -0.54937  -0.50523  -0.45161
  Beta  occ. eigenvalues --   -0.43486  -0.41731  -0.36746  -0.35209  -0.33819
  Beta  occ. eigenvalues --   -0.32602  -0.24380
  Beta virt. eigenvalues --   -0.16338  -0.06187  -0.02370  -0.01272   0.00420
  Beta virt. eigenvalues --    0.02282   0.03522   0.05048   0.05401   0.05875
  Beta virt. eigenvalues --    0.06052   0.07214   0.08348   0.09451   0.10376
  Beta virt. eigenvalues --    0.10692   0.11965   0.13009   0.13673   0.14415
  Beta virt. eigenvalues --    0.15000   0.16243   0.17114   0.17597   0.18263
  Beta virt. eigenvalues --    0.19567   0.19863   0.22080   0.22581   0.23830
  Beta virt. eigenvalues --    0.24166   0.26194   0.26908   0.27998   0.28673
  Beta virt. eigenvalues --    0.29091   0.29645   0.29990   0.31840   0.33734
  Beta virt. eigenvalues --    0.35526   0.37247   0.38697   0.42215   0.44154
  Beta virt. eigenvalues --    0.44803   0.51015   0.52529   0.54621   0.56066
  Beta virt. eigenvalues --    0.57665   0.58452   0.60111   0.60837   0.65273
  Beta virt. eigenvalues --    0.65686   0.66632   0.67520   0.73002   0.76407
  Beta virt. eigenvalues --    0.77897   0.80670   0.82808   0.84863   0.85427
  Beta virt. eigenvalues --    0.86237   0.94229   0.99444   1.00696   1.01559
  Beta virt. eigenvalues --    1.03213   1.07533   1.07789   1.10910   1.11255
  Beta virt. eigenvalues --    1.12485   1.15319   1.15858   1.18137   1.18735
  Beta virt. eigenvalues --    1.19579   1.23345   1.24996   1.27126   1.35318
  Beta virt. eigenvalues --    1.37869   1.39411   1.45078   1.48904   1.52989
  Beta virt. eigenvalues --    1.54674   1.57088   1.58302   1.59550   1.67200
  Beta virt. eigenvalues --    1.74699   1.77580   1.78175   1.82665   1.84984
  Beta virt. eigenvalues --    1.88804   1.90044   1.91671   1.99856   2.06177
  Beta virt. eigenvalues --    2.15004   2.16690   2.24567   2.31270   2.51259
  Beta virt. eigenvalues --    2.52079   2.53321   2.56755   2.61779   2.65117
  Beta virt. eigenvalues --    2.66320   2.67798   2.70335   2.75702   2.77504
  Beta virt. eigenvalues --    2.85863   2.86861   2.92213   2.96590   2.97240
  Beta virt. eigenvalues --    2.99799   3.04563   3.06872   3.09284   3.13964
  Beta virt. eigenvalues --    3.17214   3.18422   3.19862   3.31622   3.40306
  Beta virt. eigenvalues --    3.47901   3.53812   3.61451   3.81812   3.83070
  Beta virt. eigenvalues --    3.85666   3.87736   4.08705   4.11516   4.45579
  Beta virt. eigenvalues --    4.85351   4.92713   4.96125   5.32743   5.40658
  Beta virt. eigenvalues --    5.67502   5.73746  23.49495  23.66825  23.81114
  Beta virt. eigenvalues --   23.87873  25.11960  35.58078  49.84166  49.91186
          Condensed to atoms (all electrons):
               1          2          3          4          5          6
     1  O    7.917032   0.301426  -0.168526   0.013509   0.035977  -0.116776
     2  C    0.301426   6.059205  -0.343464  -0.008874  -0.287549   0.246983
     3  C   -0.168526  -0.343464   6.615586   0.021729  -0.097399   0.107004
     4  O    0.013509  -0.008874   0.021729   8.115452   0.127760  -0.082359
     5  C    0.035977  -0.287549  -0.097399   0.127760   6.213142   0.324357
     6  N   -0.116776   0.246983   0.107004  -0.082359   0.324357   6.954691
     7  C    0.013414  -0.368661  -0.076388  -0.183740  -0.209287  -0.263166
     8  C   -0.000135   0.174420  -0.006272  -0.009067   0.486123  -0.053779
     9  H    0.247923  -0.001289   0.029326   0.000153  -0.019067   0.011671
    10  H    0.000005   0.000461   0.000036  -0.000160   0.012746  -0.000740
               7          8          9         10
     1  O    0.013414  -0.000135   0.247923   0.000005
     2  C   -0.368661   0.174420  -0.001289   0.000461
     3  C   -0.076388  -0.006272   0.029326   0.000036
     4  O   -0.183740  -0.009067   0.000153  -0.000160
     5  C   -0.209287   0.486123  -0.019067   0.012746
     6  N   -0.263166  -0.053779   0.011671  -0.000740
     7  C    8.850407  -2.782873   0.000223  -0.113673
     8  C   -2.782873   8.531507  -0.000711   0.459868
     9  H    0.000223  -0.000711   0.446127  -0.000000
    10  H   -0.113673   0.459868  -0.000000   0.454533
          Atomic-Atomic Spin Densities.
               1          2          3          4          5          6
     1  O    0.196565  -0.088730  -0.014235   0.000044   0.013409   0.001689
     2  C   -0.088730   0.346518   0.061262  -0.000072  -0.038812  -0.004171
     3  C   -0.014235   0.061262   0.428191  -0.041110  -0.039140   0.005068
     4  O    0.000044  -0.000072  -0.041110  -0.025741   0.008129  -0.003263
     5  C    0.013409  -0.038812  -0.039140   0.008129   0.353944   0.004927
     6  N    0.001689  -0.004171   0.005068  -0.003263   0.004927  -0.106079
     7  C    0.002189  -0.004328  -0.013010   0.016443  -0.004828   0.000081
     8  C   -0.000243   0.001840   0.002259  -0.003492  -0.009168  -0.001996
     9  H    0.001592  -0.001409  -0.000073   0.000085  -0.000139   0.000242
    10  H    0.000000  -0.000017  -0.000014  -0.000005  -0.000669  -0.000040
               7          8          9         10
     1  O    0.002189  -0.000243   0.001592   0.000000
     2  C   -0.004328   0.001840  -0.001409  -0.000017
     3  C   -0.013010   0.002259  -0.000073  -0.000014
     4  O    0.016443  -0.003492   0.000085  -0.000005
     5  C   -0.004828  -0.009168  -0.000139  -0.000669
     6  N    0.000081  -0.001996   0.000242  -0.000040
     7  C   -0.090393  -0.038014  -0.000027   0.002754
     8  C   -0.038014   0.283756  -0.000020  -0.001379
     9  H   -0.000027  -0.000020  -0.004551  -0.000000
    10  H    0.002754  -0.001379  -0.000000  -0.009429
 Mulliken charges and spin densities:
               1          2
     1  O   -0.243850   0.112279
     2  C    0.227342   0.272081
     3  C   -0.081632   0.389198
     4  O    0.005598  -0.048982
     5  C   -0.586803   0.287652
     6  N   -0.127887  -0.103542
     7  C    1.133743  -0.129133
     8  C   -0.799082   0.233543
     9  H    0.285646  -0.004300
    10  H    0.186924  -0.008797
 Sum of Mulliken charges =  -0.00000   1.00000
 Mulliken charges and spin densities with hydrogens summed into heavy atoms:
               1          2
     1  O    0.041796   0.107980
     2  C    0.227342   0.272081
     3  C   -0.081632   0.389198
     4  O    0.005598  -0.048982
     5  C   -0.586803   0.287652
     6  N   -0.127887  -0.103542
     7  C    1.133743  -0.129133
     8  C   -0.612158   0.224746
 Electronic spatial extent (au):  <R**2>=            915.6391
 Charge=             -0.0000 electrons
 Dipole moment (field-independent basis, Debye):
    X=             -2.3723    Y=             -3.3469    Z=             -0.2554  Tot=              4.1103
 Quadrupole moment (field-independent basis, Debye-Ang):
   XX=            -34.2881   YY=            -49.7851   ZZ=            -45.0130
   XY=             -6.0575   XZ=             -0.5923   YZ=             -0.7437
 Traceless Quadrupole moment (field-independent basis, Debye-Ang):
   XX=              8.7406   YY=             -6.7564   ZZ=             -1.9843
   XY=             -6.0575   XZ=             -0.5923   YZ=             -0.7437
 Octapole moment (field-independent basis, Debye-Ang**2):
  XXX=            -56.0878  YYY=            -18.9625  ZZZ=             -0.7690  XYY=              8.7267
  XXY=            -29.4905  XXZ=             -0.1575  XZZ=              5.4410  YZZ=             -0.6260
  YYZ=             -1.4199  XYZ=             -1.4269
 Hexadecapole moment (field-independent basis, Debye-Ang**3):
 XXXX=           -702.2190 YYYY=           -247.1605 ZZZZ=            -47.2366 XXXY=            -18.7162
 XXXZ=             -3.9132 YYYX=            -57.7093 YYYZ=             -3.6165 ZZZX=             -0.9113
 ZZZY=             -1.3982 XXYY=           -183.5009 XXZZ=           -177.7892 YYZZ=            -47.5038
 XXYZ=             -2.8458 YYXZ=             -1.9860 ZZXY=             -7.9425
 N-N= 3.140595173906D+02 E-N=-1.555867681815D+03  KE= 3.954799740482D+02
                          Isotropic Fermi Contact Couplings
        Atom                 a.u.       MegaHertz       Gauss      10(-4) cm-1
     1  O(17)              0.01397      -8.47093      -3.02264      -2.82560
     2  C(13)              0.01238      13.91372       4.96476       4.64112
     3  C(13)              0.07458      83.84314      29.91732      27.96706
     4  O(17)              0.01561      -9.46511      -3.37738      -3.15722
     5  C(13)              0.03260      36.64421      13.07556      12.22319
     6  N(14)             -0.01700      -5.49200      -1.95968      -1.83194
     7  C(13)             -0.02665     -29.95873     -10.69002      -9.99316
     8  C(13)              0.01286      14.46058       5.15990       4.82353
     9  H(1)              -0.00218      -9.76636      -3.48488      -3.25771
    10  H(1)              -0.00372     -16.63089      -5.93432      -5.54747
 --------------------------------------------------------
       Center         ----  Spin Dipole Couplings  ----
                      3XX-RR        3YY-RR        3ZZ-RR
 --------------------------------------------------------
     1   Atom       -0.301682     -0.285524      0.587206
     2   Atom       -0.188164     -0.164899      0.353062
     3   Atom       -0.195337     -0.092329      0.287667
     4   Atom        0.056526      0.037997     -0.094523
     5   Atom       -0.189345     -0.194064      0.383409
     6   Atom        0.091162      0.098333     -0.189495
     7   Atom        0.074605     -0.001470     -0.073135
     8   Atom       -0.131591     -0.093663      0.225254
     9   Atom       -0.018309      0.028241     -0.009932
    10   Atom        0.016869     -0.014399     -0.002470
 --------------------------------------------------------
                        XY            XZ            YZ
 --------------------------------------------------------
     1   Atom       -0.005480      0.006546      0.015819
     2   Atom       -0.013835     -0.008494      0.066071
     3   Atom        0.070999     -0.212292     -0.365942
     4   Atom        0.005207     -0.029159     -0.044318
     5   Atom        0.012519      0.027352      0.058588
     6   Atom        0.011112      0.012829      0.006569
     7   Atom        0.013834      0.000953     -0.008612
     8   Atom       -0.005556     -0.003893      0.034597
     9   Atom       -0.002620     -0.000082     -0.001144
    10   Atom        0.005091     -0.000498      0.001283
 --------------------------------------------------------


 ---------------------------------------------------------------------------------
              Anisotropic Spin Dipole Couplings in Principal Axis System
 ---------------------------------------------------------------------------------

       Atom             a.u.   MegaHertz   Gauss  10(-4) cm-1        Axes

              Baa    -0.3035    21.961     7.836     7.325  0.9534  0.3015 -0.0124
     1 O(17)  Bbb    -0.2840    20.553     7.334     6.856 -0.3017  0.9533 -0.0150
              Bcc     0.5875   -42.514   -15.170   -14.181  0.0072  0.0181  0.9998
 
              Baa    -0.1955   -26.239    -9.363    -8.752  0.8697  0.4914 -0.0457
     2 C(13)  Bbb    -0.1660   -22.277    -7.949    -7.431 -0.4932  0.8619 -0.1178
              Bcc     0.3615    48.516    17.312    16.183 -0.0185  0.1250  0.9920
 
              Baa    -0.3418   -45.865   -16.366   -15.299  0.4766  0.6806  0.5564
     3 C(13)  Bbb    -0.2305   -30.932   -11.037   -10.318  0.8352 -0.5481 -0.0449
              Bcc     0.5723    76.797    27.403    25.617 -0.2744 -0.4861  0.8297
 
              Baa    -0.1121     8.114     2.895     2.707  0.1556  0.2747  0.9489
     4 O(17)  Bbb     0.0420    -3.040    -1.085    -1.014 -0.5717  0.8084 -0.1403
              Bcc     0.0701    -5.074    -1.811    -1.693  0.8056  0.5206 -0.2828
 
              Baa    -0.2061   -27.656    -9.868    -9.225 -0.5340  0.8434 -0.0590
     5 C(13)  Bbb    -0.1846   -24.771    -8.839    -8.263  0.8440  0.5278 -0.0951
              Bcc     0.3907    52.427    18.707    17.488  0.0490  0.1006  0.9937
 
              Baa    -0.1902    -7.336    -2.618    -2.447 -0.0447 -0.0210  0.9988
     6 N(14)  Bbb     0.0832     3.210     1.145     1.071  0.8005 -0.5988  0.0232
              Bcc     0.1070     4.126     1.472     1.376  0.5976  0.8006  0.0436
 
              Baa    -0.0742    -9.957    -3.553    -3.321 -0.0176  0.1209  0.9925
     7 C(13)  Bbb    -0.0028    -0.382    -0.136    -0.127 -0.1731  0.9773 -0.1221
              Bcc     0.0770    10.339     3.689     3.449  0.9848  0.1739 -0.0037
 
              Baa    -0.1324   -17.766    -6.339    -5.926  0.9895  0.1448 -0.0032
     8 C(13)  Bbb    -0.0966   -12.967    -4.627    -4.325 -0.1443  0.9837 -0.1075
              Bcc     0.2290    30.732    10.966    10.251 -0.0124  0.1068  0.9942
 
              Baa    -0.0185    -9.848    -3.514    -3.285  0.9983  0.0564  0.0172
     9 H(1)   Bbb    -0.0100    -5.316    -1.897    -1.773 -0.0188  0.0286  0.9994
              Bcc     0.0284    15.164     5.411     5.058 -0.0559  0.9980 -0.0297
 
              Baa    -0.0153    -8.189    -2.922    -2.731 -0.1568  0.9821 -0.1039
    10 H(1)   Bbb    -0.0023    -1.245    -0.444    -0.415 -0.0020  0.1049  0.9945
              Bcc     0.0177     9.434     3.366     3.147  0.9876  0.1562 -0.0145
 

 ---------------------------------------------------------------------------------

 No NMR shielding tensors so no spin-rotation constants.
 Leave Link  601 at Thu Jul 13 18:48:11 2023, MaxMem= 16106127360 cpu:               3.9 elap:               0.1
 (Enter /public/software/apps/Gaussian/g16/l701.exe)
 ... and contract with generalized density number  0.
 Compute integral first derivatives.
 R6Disp: Adding Grimme-D3(BJ) dispersion energy 1st derivatives to the gradient.
 Leave Link  701 at Thu Jul 13 18:48:11 2023, MaxMem= 16106127360 cpu:               5.8 elap:               0.2
 (Enter /public/software/apps/Gaussian/g16/l702.exe)
 L702 exits ... SP integral derivatives will be done elsewhere.
 Leave Link  702 at Thu Jul 13 18:48:11 2023, MaxMem= 16106127360 cpu:               0.2 elap:               0.0
 (Enter /public/software/apps/Gaussian/g16/l703.exe)
 Integral derivatives from FoFJK, PRISM(SPDF).
 Compute integral first derivatives, UseDBF=F ICtDFT=           0.
 Calling FoFJK, ICntrl=      2127 FMM=F ISym2X=0 I1Cent= 0 IOpClX= 1 NMat=1 NMatS=1 NMatT=0.
 FoFJK:  IHMeth= 1 ICntrl=    2127 DoSepK=F KAlg= 0 I1Cent=           0 FoldK=F
 IRaf=         0 NMat=       1 IRICut=       1 DoRegI=T DoRafI=F ISym2E= 0 IDoP0=0 IntGTp=1.
 FoFCou: FMM=F IPFlag=           0 FMFlag=      100000 FMFlg1=         800
         NFxFlg=           0 DoJE=F BraDBF=F KetDBF=F FulRan=T
         wScrn=  0.000000 ICntrl=      2127 IOpCl=  1 I1Cent=           0 NGrid=           0
         NMat0=    1 NMatS0=      1 NMatT0=    0 NMatD0=    1 NMtDS0=    0 NMtDT0=    0
 Symmetry not used in FoFCou.
 Leave Link  703 at Thu Jul 13 18:48:12 2023, MaxMem= 16106127360 cpu:              27.1 elap:               0.9
 (Enter /public/software/apps/Gaussian/g16/l716.exe)
 Dipole        =-9.33315910D-01-1.31677152D+00-1.00484832D-01
 ***** Axes restored to original set *****
 -------------------------------------------------------------------
 Center     Atomic                   Forces (Hartrees/Bohr)
 Number     Number              X              Y              Z
 -------------------------------------------------------------------
      1        8           0.000005797   -0.000001459    0.000006337
      2        6          -0.000013440    0.000013034   -0.000005906
      3        6          -0.000040387    0.000037393    0.000000031
      4        8           0.000078771   -0.000009745   -0.000003234
      5        6          -0.000075651    0.000025358   -0.000001826
      6        7           0.000042545   -0.000060271    0.000003398
      7        6           0.000026487    0.000012326    0.000019478
      8        6          -0.000020764   -0.000013767   -0.000018379
      9        1           0.000006996   -0.000009324   -0.000005038
     10        1          -0.000010354    0.000006456    0.000005139
 -------------------------------------------------------------------
 Cartesian Forces:  Max     0.000078771 RMS     0.000028374
 Leave Link  716 at Thu Jul 13 18:48:12 2023, MaxMem= 16106127360 cpu:               1.0 elap:               0.1
 (Enter /public/software/apps/Gaussian/g16/l103.exe)

 GradGradGradGradGradGradGradGradGradGradGradGradGradGradGradGradGradGrad
 Berny optimization.
 FormGI is forming the generalized inverse of G from B-inverse, IUseBI=4.
 Internal  Forces:  Max     0.000050563 RMS     0.000019244
 Search for a local minimum.
 Step number   1 out of a maximum of   45
 All quantities printed in internal units (Hartrees-Bohrs-Radians)
 RMS Force = .19244D-04 SwitMx=.10000D-02 MixMth= 2
 Mixed Optimization -- En-DIIS/RFO-DIIS
 Second derivative matrix not updated -- first step.
 ITU=  0
     Eigenvalues ---    0.00584   0.00584   0.01794   0.02166   0.02361
     Eigenvalues ---    0.02426   0.02727   0.04654   0.04654   0.16000
     Eigenvalues ---    0.24948   0.24980   0.24982   0.24991   0.35987
     Eigenvalues ---    0.38050   0.45513   0.46383   0.49627   0.53664
     Eigenvalues ---    0.53957   0.60168   0.61493   1.01840
 RFO step:  Lambda=-7.00882911D-08 EMin= 5.83995343D-03
 Linear search not attempted -- first point.
 Iteration  1 RMS(Cart)=  0.00032426 RMS(Int)=  0.00000026
 Iteration  2 RMS(Cart)=  0.00000029 RMS(Int)=  0.00000000
 ITry= 1 IFail=0 DXMaxC= 1.21D-03 DCOld= 1.00D+10 DXMaxT= 3.00D-01 DXLimC= 3.00D+00 Rises=F
 Variable       Old X    -DE/DX   Delta X   Delta X   Delta X     New X
                                 (Linear)    (Quad)   (Total)
    R1        2.49778  -0.00001   0.00000  -0.00001  -0.00001   2.49777
    R2        1.83039   0.00001   0.00000   0.00002   0.00002   1.83040
    R3        2.75192   0.00003   0.00000   0.00010   0.00010   2.75203
    R4        2.54908   0.00002   0.00000   0.00004   0.00004   2.54912
    R5        2.57831   0.00004   0.00000   0.00008   0.00008   2.57839
    R6        2.61943  -0.00002   0.00000  -0.00005  -0.00005   2.61939
    R7        2.48997  -0.00002   0.00000  -0.00003  -0.00003   2.48994
    R8        2.63701  -0.00001   0.00000  -0.00001  -0.00001   2.63700
    R9        2.27911  -0.00003   0.00000  -0.00003  -0.00003   2.27908
   R10        2.00992  -0.00001   0.00000  -0.00003  -0.00003   2.00989
    A1        1.89762  -0.00001   0.00000  -0.00007  -0.00007   1.89755
    A2        2.16123   0.00002   0.00000   0.00006   0.00006   2.16129
    A3        2.13938  -0.00003   0.00000  -0.00013  -0.00013   2.13925
    A4        1.98076   0.00002   0.00000   0.00008   0.00008   1.98084
    A5        1.75572  -0.00002   0.00000  -0.00004  -0.00004   1.75567
    A6        1.90696  -0.00001   0.00000  -0.00006  -0.00006   1.90689
    A7        1.96689   0.00005   0.00000   0.00018   0.00018   1.96708
    A8        2.07554  -0.00002   0.00000  -0.00008  -0.00008   2.07546
    A9        2.23987  -0.00003   0.00000  -0.00011  -0.00011   2.23976
   A10        1.80888  -0.00003   0.00000  -0.00014  -0.00014   1.80875
   A11        3.11851   0.00002   0.00000   0.00038   0.00038   3.11889
   A12        3.14632  -0.00001   0.00000  -0.00165  -0.00165   3.14467
   A13        3.12571   0.00001   0.00000   0.00025   0.00025   3.12595
   A14        3.14445  -0.00000   0.00000  -0.00059  -0.00059   3.14386
    D1        3.06070  -0.00000   0.00000  -0.00012  -0.00012   3.06058
    D2       -0.01202  -0.00001   0.00000  -0.00020  -0.00020  -0.01222
    D3        3.10328   0.00000   0.00000   0.00011   0.00011   3.10339
    D4       -0.10159   0.00000   0.00000   0.00018   0.00018  -0.10141
    D5       -3.12935   0.00000   0.00000  -0.00001  -0.00001  -3.12937
    D6        0.07461  -0.00000   0.00000  -0.00009  -0.00009   0.07452
    D7        0.08495  -0.00000   0.00000  -0.00020  -0.00020   0.08475
    D8       -0.04977   0.00000   0.00000   0.00017   0.00017  -0.04960
    D9        3.05039  -0.00000   0.00000  -0.00000  -0.00000   3.05039
   D10       -0.01620  -0.00000   0.00000  -0.00004  -0.00004  -0.01624
   D11       -3.11156   0.00000   0.00000   0.00015   0.00015  -3.11141
         Item               Value     Threshold  Converged?
 Maximum Force            0.000051     0.000450     YES
 RMS     Force            0.000019     0.000300     YES
 Maximum Displacement     0.001211     0.001800     YES
 RMS     Displacement     0.000324     0.001200     YES
 Predicted change in Energy=-3.504427D-08
 Optimization completed.
    -- Stationary point found.
                           ----------------------------
                           !   Optimized Parameters   !
                           ! (Angstroms and Degrees)  !
 --------------------------                            --------------------------
 ! Name  Definition              Value          Derivative Info.                !
 --------------------------------------------------------------------------------
 ! R1    R(1,2)                  1.3218         -DE/DX =    0.0                 !
 ! R2    R(1,9)                  0.9686         -DE/DX =    0.0                 !
 ! R3    R(2,3)                  1.4563         -DE/DX =    0.0                 !
 ! R4    R(2,6)                  1.3489         -DE/DX =    0.0                 !
 ! R5    R(3,4)                  1.3644         -DE/DX =    0.0                 !
 ! R6    R(4,5)                  1.3861         -DE/DX =    0.0                 !
 ! R7    R(5,6)                  1.3176         -DE/DX =    0.0                 !
 ! R8    R(5,7)                  1.3954         -DE/DX =    0.0                 !
 ! R9    R(7,8)                  1.2061         -DE/DX =    0.0                 !
 ! R10   R(8,10)                 1.0636         -DE/DX =    0.0                 !
 ! A1    A(2,1,9)              108.7256         -DE/DX =    0.0                 !
 ! A2    A(1,2,3)              123.8294         -DE/DX =    0.0                 !
 ! A3    A(1,2,6)              122.5775         -DE/DX =    0.0                 !
 ! A4    A(3,2,6)              113.4894         -DE/DX =    0.0                 !
 ! A5    A(2,3,4)              100.5951         -DE/DX =    0.0                 !
 ! A6    A(3,4,5)              109.2605         -DE/DX =    0.0                 !
 ! A7    A(4,5,6)              112.6948         -DE/DX =    0.0001              !
 ! A8    A(4,5,7)              118.9196         -DE/DX =    0.0                 !
 ! A9    A(6,5,7)              128.335          -DE/DX =    0.0                 !
 ! A10   A(2,6,5)              103.6414         -DE/DX =    0.0                 !
 ! A11   L(5,7,8,4,-1)         178.6776         -DE/DX =    0.0                 !
 ! A12   L(7,8,10,4,-1)        180.2709         -DE/DX =    0.0                 !
 ! A13   L(5,7,8,4,-2)         179.0898         -DE/DX =    0.0                 !
 ! A14   L(7,8,10,4,-2)        180.1637         -DE/DX =    0.0                 !
 ! D1    D(9,1,2,3)            175.365          -DE/DX =    0.0                 !
 ! D2    D(9,1,2,6)             -0.6889         -DE/DX =    0.0                 !
 ! D3    D(1,2,3,4)            177.8046         -DE/DX =    0.0                 !
 ! D4    D(6,2,3,4)             -5.8206         -DE/DX =    0.0                 !
 ! D5    D(1,2,6,5)           -179.2987         -DE/DX =    0.0                 !
 ! D6    D(3,2,6,5)              4.275          -DE/DX =    0.0                 !
 ! D7    D(2,3,4,5)              4.8671         -DE/DX =    0.0                 !
 ! D8    D(3,4,5,6)             -2.8516         -DE/DX =    0.0                 !
 ! D9    D(3,4,5,7)            174.7745         -DE/DX =    0.0                 !
 ! D10   D(4,5,6,2)             -0.9284         -DE/DX =    0.0                 !
 ! D11   D(7,5,6,2)           -178.2792         -DE/DX =    0.0                 !
 --------------------------------------------------------------------------------
 Lowest energy point so far.  Saving SCF results.
 Largest change from initial coordinates is atom    1       0.000 Angstoms.
 GradGradGradGradGradGradGradGradGradGradGradGradGradGradGradGradGradGrad

 Leave Link  103 at Thu Jul 13 18:48:12 2023, MaxMem= 16106127360 cpu:               2.1 elap:               0.1
 (Enter /public/software/apps/Gaussian/g16/l202.exe)
                          Input orientation:                          
 ---------------------------------------------------------------------
 Center     Atomic      Atomic             Coordinates (Angstroms)
 Number     Number       Type             X           Y           Z
 ---------------------------------------------------------------------
      1          8           0       -2.648811   -0.635189    0.002101
      2          6           0       -1.431065   -0.121268    0.009166
      3          6           0       -1.153404    1.306828   -0.055076
      4          8           0        0.208098    1.301907    0.033392
      5          6           0        0.662001   -0.007797    0.026761
      6          7           0       -0.319917   -0.886004   -0.000767
      7          6           0        2.036774   -0.245396   -0.001854
      8          6           0        3.229541   -0.423303   -0.016662
      9          1           0       -2.578615   -1.600946   -0.021737
     10          1           0        4.280662   -0.585159   -0.030849
 ---------------------------------------------------------------------
                    Distance matrix (angstroms):
                    1          2          3          4          5
     1  O    0.000000
     2  C    1.321768   0.000000
     3  C    2.451722   1.456256   0.000000
     4  O    3.451847   2.170914   1.364382   0.000000
     5  C    3.369823   2.096213   2.242907   1.386144   0.000000
     6  N    2.342363   1.348914   2.346521   2.250982   1.317637
     7  C    4.701772   3.470077   3.548164   2.395714   1.395447
     8  C    5.882199   4.670454   4.712222   3.479651   2.601306
     9  H    0.968598   1.872771   3.238439   4.024346   3.611380
    10  H    6.929732   5.730674   5.754066   4.488978   3.664884
                    6          7          8          9         10
     6  N    0.000000
     7  C    2.442206   0.000000
     8  C    3.579525   1.206053   0.000000
     9  H    2.369240   4.810377   5.926343   0.000000
    10  H    4.610503   2.269650   1.063604   6.934089   0.000000
 Stoichiometry    C5H2NO2(2)
 Framework group  C1[X(C5H2NO2)]
 Deg. of freedom    24
 Full point group                 C1      NOp   1
 RotChk:  IX=0 Diff= 9.49D-17
 Largest Abelian subgroup         C1      NOp   1
 Largest concise Abelian subgroup C1      NOp   1
                         Standard orientation:                         
 ---------------------------------------------------------------------
 Center     Atomic      Atomic             Coordinates (Angstroms)
 Number     Number       Type             X           Y           Z
 ---------------------------------------------------------------------
      1          8           0        2.648811   -0.635189   -0.002101
      2          6           0        1.431065   -0.121268   -0.009166
      3          6           0        1.153404    1.306828    0.055076
      4          8           0       -0.208098    1.301907   -0.033392
      5          6           0       -0.662001   -0.007797   -0.026761
      6          7           0        0.319917   -0.886004    0.000767
      7          6           0       -2.036774   -0.245396    0.001854
      8          6           0       -3.229541   -0.423303    0.016662
      9          1           0        2.578615   -1.600946    0.021737
     10          1           0       -4.280662   -0.585159    0.030849
 ---------------------------------------------------------------------
 Rotational constants (GHZ):           7.1134944           1.4026290           1.1719852
 Leave Link  202 at Thu Jul 13 18:48:12 2023, MaxMem= 16106127360 cpu:               0.2 elap:               0.0
 (Enter /public/software/apps/Gaussian/g16/l9999.exe)
 Unable to Open any file for archive entry.
 1\1\GINC-NODE17\FOpt\UB3LYP\6-311+G(d,p)\C5H2N1O2(2)\ZTC_HG\13-Jul-202
 3\0\\#p opt freq b3lyp/6-311+g** em=gd3bj\\dsgdb9nsd_004738-2\\0,2\O,-
 2.648811,-0.635189,0.002101\C,-1.431065,-0.121268,0.009166\C,-1.153404
 ,1.306828,-0.055076\O,0.208098,1.301907,0.033392\C,0.662001,-0.007797,
 0.026761\N,-0.319917,-0.886004,-0.000767\C,2.036774,-0.245396,-0.00185
 4\C,3.229541,-0.423303,-0.016662\H,-2.578615,-1.600946,-0.021737\H,4.2
 80662,-0.585159,-0.030849\\Version=ES64L-G16RevC.01\State=2-A\HF=-396.
 8625858\S2=0.779369\S2-1=0.\S2A=0.750519\RMSD=1.661e-09\RMSF=2.837e-05
 \Dipole=0.9333158,-1.3167716,0.1004848\Quadrupole=6.498442,-5.0231893,
 -1.4752526,4.503581,-0.4403763,0.5529511\PG=C01 [X(C5H2N1O2)]\\@
 The archive entry for this job was punched.


 OF ALL THE WONDERS OF THE UNIVERSE, THE GREATEST IS MAN.

                                    -- ARISTOTLE
 Leave Link 9999 at Thu Jul 13 18:48:12 2023, MaxMem= 16106127360 cpu:               1.2 elap:               0.0
 Job cpu time:       0 days  0 hours  3 minutes 29.4 seconds.
 Elapsed time:       0 days  0 hours  0 minutes 10.2 seconds.
 File lengths (MBytes):  RWF=     40 Int=      0 D2E=      0 Chk=      5 Scr=      2
 Normal termination of Gaussian 16 at Thu Jul 13 18:48:12 2023.
 (Enter /public/software/apps/Gaussian/g16/l1.exe)
 Link1:  Proceeding to internal job step number  2.
 ----------------------------------------------------------------------
 #P Geom=AllCheck Guess=TCheck SCRF=Check GenChk UB3LYP/6-311+G(d,p) Fr
 eq
 ----------------------------------------------------------------------
 1/10=4,29=7,30=1,38=1,40=1/1,3;
 2/12=2,40=1/2;
 3/5=4,6=6,7=111,11=2,14=-4,25=1,30=1,70=2,71=2,74=-5,116=2,124=41,140=1/1,2,3;
 4/5=101/1;
 5/5=2,38=6,98=1/2;
 8/6=4,10=90,11=11/1;
 11/6=1,8=1,9=11,15=111,16=1/1,2,10;
 10/6=1/2;
 6/7=2,8=2,9=2,10=2,28=1/1;
 7/8=1,10=1,25=1/1,2,3,16;
 1/10=4,30=1/3;
 99//99;
 Leave Link    1 at Thu Jul 13 18:48:12 2023, MaxMem= 16106127360 cpu:               1.0 elap:               0.0
 (Enter /public/software/apps/Gaussian/g16/l101.exe)
 Structure from the checkpoint file:  "dsgdb9nsd_004738-2.chk"
 ------------------
 dsgdb9nsd_004738-2
 ------------------
 Charge =  0 Multiplicity = 2
 Redundant internal coordinates found in file.  (old form).
 O,0,-2.648811,-0.635189,0.002101
 C,0,-1.431065,-0.121268,0.009166
 C,0,-1.153404,1.306828,-0.055076
 O,0,0.208098,1.301907,0.033392
 C,0,0.662001,-0.007797,0.026761
 N,0,-0.319917,-0.886004,-0.000767
 C,0,2.036774,-0.245396,-0.001854
 C,0,3.229541,-0.423303,-0.016662
 H,0,-2.578615,-1.600946,-0.021737
 H,0,4.280662,-0.585159,-0.030849
 Recover connectivity data from disk.
 ITRead=  0  0  0  0  0  0  0  0  0  0
 MicOpt= -1 -1 -1 -1 -1 -1 -1 -1 -1 -1
 NAtoms=     10 NQM=       10 NQMF=       0 NMMI=      0 NMMIF=      0
                NMic=       0 NMicF=      0.
                    Isotopes and Nuclear Properties:
 (Nuclear quadrupole moments (NQMom) in fm**2, nuclear magnetic moments (NMagM)
  in nuclear magnetons)

  Atom         1           2           3           4           5           6           7           8           9          10
 IAtWgt=          16          12          12          16          12          14          12          12           1           1
 AtmWgt=  15.9949146  12.0000000  12.0000000  15.9949146  12.0000000  14.0030740  12.0000000  12.0000000   1.0078250   1.0078250
 NucSpn=           0           0           0           0           0           2           0           0           1           1
 AtZEff=   5.6000000   3.6000000   3.6000000   5.6000000   3.6000000   4.5500000   3.6000000   3.6000000   1.0000000   1.0000000
 NQMom=    0.0000000   0.0000000   0.0000000   0.0000000   0.0000000   2.0440000   0.0000000   0.0000000   0.0000000   0.0000000
 NMagM=    0.0000000   0.0000000   0.0000000   0.0000000   0.0000000   0.4037610   0.0000000   0.0000000   2.7928460   2.7928460
 AtZNuc=   8.0000000   6.0000000   6.0000000   8.0000000   6.0000000   7.0000000   6.0000000   6.0000000   1.0000000   1.0000000
 Leave Link  101 at Thu Jul 13 18:48:13 2023, MaxMem= 16106127360 cpu:               3.8 elap:               0.1
 (Enter /public/software/apps/Gaussian/g16/l103.exe)

 GradGradGradGradGradGradGradGradGradGradGradGradGradGradGradGradGradGrad
 Berny optimization.
 Initialization pass.
                           ----------------------------
                           !    Initial Parameters    !
                           ! (Angstroms and Degrees)  !
 --------------------------                            --------------------------
 ! Name  Definition              Value          Derivative Info.                !
 --------------------------------------------------------------------------------
 ! R1    R(1,2)                  1.3218         calculate D2E/DX2 analytically  !
 ! R2    R(1,9)                  0.9686         calculate D2E/DX2 analytically  !
 ! R3    R(2,3)                  1.4563         calculate D2E/DX2 analytically  !
 ! R4    R(2,6)                  1.3489         calculate D2E/DX2 analytically  !
 ! R5    R(3,4)                  1.3644         calculate D2E/DX2 analytically  !
 ! R6    R(4,5)                  1.3861         calculate D2E/DX2 analytically  !
 ! R7    R(5,6)                  1.3176         calculate D2E/DX2 analytically  !
 ! R8    R(5,7)                  1.3954         calculate D2E/DX2 analytically  !
 ! R9    R(7,8)                  1.2061         calculate D2E/DX2 analytically  !
 ! R10   R(8,10)                 1.0636         calculate D2E/DX2 analytically  !
 ! A1    A(2,1,9)              108.7256         calculate D2E/DX2 analytically  !
 ! A2    A(1,2,3)              123.8294         calculate D2E/DX2 analytically  !
 ! A3    A(1,2,6)              122.5775         calculate D2E/DX2 analytically  !
 ! A4    A(3,2,6)              113.4894         calculate D2E/DX2 analytically  !
 ! A5    A(2,3,4)              100.5951         calculate D2E/DX2 analytically  !
 ! A6    A(3,4,5)              109.2605         calculate D2E/DX2 analytically  !
 ! A7    A(4,5,6)              112.6948         calculate D2E/DX2 analytically  !
 ! A8    A(4,5,7)              118.9196         calculate D2E/DX2 analytically  !
 ! A9    A(6,5,7)              128.335          calculate D2E/DX2 analytically  !
 ! A10   A(2,6,5)              103.6414         calculate D2E/DX2 analytically  !
 ! A11   L(5,7,8,4,-1)         178.6776         calculate D2E/DX2 analytically  !
 ! A12   L(7,8,10,4,-1)        180.2709         calculate D2E/DX2 analytically  !
 ! A13   L(5,7,8,4,-2)         179.0898         calculate D2E/DX2 analytically  !
 ! A14   L(7,8,10,4,-2)        180.1637         calculate D2E/DX2 analytically  !
 ! D1    D(9,1,2,3)            175.365          calculate D2E/DX2 analytically  !
 ! D2    D(9,1,2,6)             -0.6889         calculate D2E/DX2 analytically  !
 ! D3    D(1,2,3,4)            177.8046         calculate D2E/DX2 analytically  !
 ! D4    D(6,2,3,4)             -5.8206         calculate D2E/DX2 analytically  !
 ! D5    D(1,2,6,5)           -179.2987         calculate D2E/DX2 analytically  !
 ! D6    D(3,2,6,5)              4.275          calculate D2E/DX2 analytically  !
 ! D7    D(2,3,4,5)              4.8671         calculate D2E/DX2 analytically  !
 ! D8    D(3,4,5,6)             -2.8516         calculate D2E/DX2 analytically  !
 ! D9    D(3,4,5,7)            174.7745         calculate D2E/DX2 analytically  !
 ! D10   D(4,5,6,2)             -0.9284         calculate D2E/DX2 analytically  !
 ! D11   D(7,5,6,2)           -178.2792         calculate D2E/DX2 analytically  !
 --------------------------------------------------------------------------------
 Trust Radius=3.00D-01 FncErr=1.00D-07 GrdErr=1.00D-07 EigMax=2.50D+02 EigMin=1.00D-04
 Number of steps in this run=      2 maximum allowed number of steps=      2.
 GradGradGradGradGradGradGradGradGradGradGradGradGradGradGradGradGradGrad

[...]
  26. LP*(   2) C   3                /182. BD*(   2) C   5 - N   6            0.67    0.02    0.010
  27. LP (   1) O   4                / 64. RY*(   1) C   3                    1.88    1.55    0.069
  27. LP (   1) O   4                / 98. RY*(   1) C   5                    0.55    1.75    0.039
  27. LP (   1) O   4                / 99. RY*(   2) C   5                    1.27    2.19    0.067
  27. LP (   1) O   4                /177. BD*(   1) C   2 - C   3            0.62    1.05    0.032
  27. LP (   1) O   4                /181. BD*(   1) C   5 - N   6            2.13    1.12    0.062
  28. LP (   2) O   4                / 26. LP*(   2) C   3                   27.05    0.32    0.120
  28. LP (   2) O   4                / 68. RY*(   5) C   3                    0.31    1.84    0.033
  28. LP (   2) O   4                / 70. RY*(   7) C   3                    0.51    1.43    0.037
  28. LP (   2) O   4                /100. RY*(   3) C   5                    0.37    1.90    0.036
  28. LP (   2) O   4                /102. RY*(   5) C   5                    0.54    1.72    0.042
  28. LP (   2) O   4                /182. BD*(   2) C   5 - N   6           19.45    0.34    0.103
  29. LP (   1) N   6                / 47. RY*(   1) C   2                    1.72    1.49    0.065
  29. LP (   1) N   6                / 48. RY*(   2) C   2                    0.50    1.53    0.036
  29. LP (   1) N   6                / 59. RY*(  13) C   2                    0.27    2.52    0.034
  29. LP (   1) N   6                / 98. RY*(   1) C   5                    2.58    1.57    0.082
  29. LP (   1) N   6                / 99. RY*(   2) C   5                    0.37    2.01    0.035
  29. LP (   1) N   6                /110. RY*(  13) C   5                    0.30    3.06    0.039
  29. LP (   1) N   6                /175. BD*(   1) O   1 - C   2            1.50    0.79    0.044
  29. LP (   1) N   6                /177. BD*(   1) C   2 - C   3            3.29    0.86    0.068
  29. LP (   1) N   6                /180. BD*(   1) O   4 - C   5            4.91    0.71    0.074
  29. LP (   1) N   6                /183. BD*(   1) C   5 - C   7            0.25    0.94    0.020
 180. BD*(   1) O   4 - C   5        / 82. RY*(   2) O   4                    0.70    0.62    0.121
 180. BD*(   1) O   4 - C   5        / 98. RY*(   1) C   5                    0.39    0.86    0.103
 180. BD*(   1) O   4 - C   5        /104. RY*(   7) C   5                    0.31    1.63    0.131
 180. BD*(   1) O   4 - C   5        /109. RY*(  12) C   5                    0.37    0.85    0.104
 180. BD*(   1) O   4 - C   5        /177. BD*(   1) C   2 - C   3            0.67    0.16    0.051
 180. BD*(   1) O   4 - C   5        /178. BD*(   1) C   2 - N   6            0.68    0.19    0.056
 180. BD*(   1) O   4 - C   5        /179. BD*(   1) C   3 - O   4            0.83    0.08    0.047
 182. BD*(   2) C   5 - N   6        /100. RY*(   3) C   5                    0.63    1.56    0.104
 182. BD*(   2) C   5 - N   6        /107. RY*(  10) C   5                    0.36    1.28    0.072
 182. BD*(   2) C   5 - N   6        /118. RY*(   4) N   6                    0.90    0.67    0.081
 182. BD*(   2) C   5 - N   6        /186. BD*(   3) C   7 - C   8            8.14    0.11    0.094


 Natural Bond Orbitals (Summary):

                                                            Principal Delocalizations
           NBO                        Occupancy    Energy   (geminal,vicinal,remote)
 ====================================================================================
 Molecular unit  1  (C5H2NO2)
     1. BD (   1) O   1 - C   2          0.99819    -1.01831  181(v),168(v)
     2. BD (   1) O   1 - H   9          0.99183    -0.78437  177(v),47(v),48(v),178(v)
                                                    51(v)
     3. BD (   1) C   2 - C   3          0.99034    -0.68418  176(v),183(r),179(g),24(g)
                                                    178(g),115(v),30(v),99(r)
                                                    81(v),175(g)
     4. BD (   1) C   2 - N   6          0.98926    -0.85110  183(v),99(v),180(v),181(g)
                                                    103(v),177(g),179(v),26(v)
     5. BD (   1) C   3 - O   4          0.99013    -0.90839  175(v),183(v),98(v),103(v)
                                                    101(v)
     6. BD (   1) O   4 - C   5          0.99361    -0.91610  65(v),184(v),175(r),185(v)
                                                    183(g),132(v),64(v),26(v)
     7. BD (   1) C   5 - N   6          0.99042    -0.89340  175(v),183(g),184(v),49(v)
                                                    178(g),185(v),132(v),47(v)
     8. BD (   2) C   5 - N   6          0.85928    -0.35245  24(v),186(v),182(g),50(v)
     9. BD (   1) C   5 - C   7          0.98975    -0.79440  184(g),181(g),179(v),178(v)
                                                    187(v),151(v),150(v),155(v)
                                                    116(v),81(v),157(v)
    10. BD (   1) C   7 - C   8          0.99238    -0.90273  183(g),103(v),187(g),105(v)
                                                    112(v),181(v)
    11. BD (   2) C   7 - C   8          0.98326    -0.33060  180(v),181(v)
    12. BD (   3) C   7 - C   8          0.90402    -0.32018  182(v),187(g),172(v),186(g)
                                                    102(v),100(v),136(g)
    13. BD (   1) C   8 - H  10          0.99510    -0.63447  184(g),183(v),133(v),147(v)
                                                    141(v),137(v)
    14. CR (   1) O   1                  0.99986   -18.98934  48(v),49(v),47(v)
    15. CR (   1) C   2                  0.99960   -10.18917  181(v),65(v),116(v)
    16. CR (   1) C   3                  0.99956   -10.12812  180(v),49(v),47(v),175(v)
                                                    26(g)
    17. CR (   1) O   4                  0.99987   -19.01767  64(v),98(v),99(v)
    18. CR (   1) C   5                  0.99951   -10.19752  184(v),134(v),179(v),180(g)
                                                    178(v),115(v)
    19. CR (   1) N   6                  0.99965   -14.16186  47(v),98(v),183(v),104(v)
    20. CR (   1) C   7                  0.99938   -10.07768  187(v),184(g),103(v),150(v)
                                                    181(v),180(v)
    21. CR (   1) C   8                  0.99922   -10.08240  183(v),133(v),184(g),134(v)
                                                    170(v)
    22. LP (   1) O   1                  0.98688    -0.64452  178(v),49(v),47(v),165(v)
                                                    48(v)
    23. LP (   2) O   1                  0.83620    -0.35644  24(v),50(v),166(v),53(v)
    24. LP*(   1) C   2                  0.32968    -0.14640  26(v),182(v),31(v),53(g)
                                                    177(g),121(v)
    25. LP (   1) C   3                  0.92747    -0.31559  24(v),180(v),178(v),47(v)
                                                    49(v),81(v),26(g),59(v)
    26. LP*(   2) C   3                  0.10200    -0.05431  24(v),70(g),182(r)
    27. LP (   1) O   4                  0.98616    -0.61474  181(v),64(v),99(v),177(v)
                                                    98(v)
    28. LP (   2) O   4                  0.85173    -0.37107  26(v),182(v),102(v),70(v)
                                                    100(v),68(v)
    29. LP (   1) N   6                  0.95408    -0.43121  180(v),177(v),98(v),47(v)
                                                    175(v),48(v),99(v),110(v)
                                                    59(v),183(v)
    30. RY*(   1) O   1                  0.00177     0.54474   
    31. RY*(   2) O   1                  0.00054     0.68582   
    32. RY*(   3) O   1                  0.00029     2.02508   
    33. RY*(   4) O   1                  0.00015     0.52193   
    34. RY*(   5) O   1                  0.00005     1.16398   
    35. RY*(   6) O   1                  0.00003     1.37141   
    36. RY*(   7) O   1                  0.00001     0.99167   
    37. RY*(   8) O   1                  0.00000    49.63688   
    38. RY*(   9) O   1                  0.00000     5.15111   
    39. RY*(  10) O   1                  0.00000     4.73652   
    40. RY*(  11) O   1                  0.00001     0.81653   
    41. RY*(  12) O   1                  0.00000     4.83351   
    42. RY*(  13) O   1                  0.00000     2.96335   
    43. RY*(  14) O   1                  0.00000     2.88209   
    44. RY*(  15) O   1                  0.00000     2.89216   
    45. RY*(  16) O   1                  0.00000     3.17641   
    46. RY*(  17) O   1                  0.00000     3.18705   
    47. RY*(   1) C   2                  0.00516     1.05459   
    48. RY*(   2) C   2                  0.00300     1.10220   
    49. RY*(   3) C   2                  0.00202     1.68689   
    50. RY*(   4) C   2                  0.00177     1.53866   
    51. RY*(   5) C   2                  0.00113     1.50022   
    52. RY*(   6) C   2                  0.00048     1.57966   
    53. RY*(   7) C   2                  0.00015     1.10122   
    54. RY*(   8) C   2                  0.00012     0.96114   
    55. RY*(   9) C   2                  0.00006     1.09777   
    56. RY*(  10) C   2                  0.00004     4.36420   
    57. RY*(  11) C   2                  0.00003     0.94415   
    58. RY*(  12) C   2                  0.00000     2.56444   
    59. RY*(  13) C   2                  0.00000     2.08860   
    60. RY*(  14) C   2                  0.00000    19.07278   
    61. RY*(  15) C   2                  0.00000     2.69478   
    62. RY*(  16) C   2                  0.00000     0.37220   
    63. RY*(  17) C   2                  0.00000     1.91709   
    64. RY*(   1) C   3                  0.00239     0.93885   
    65. RY*(   2) C   3                  0.00115     1.04432   
    66. RY*(   3) C   3                  0.00029     0.48442   
    67. RY*(   4) C   3                  0.00016     1.49907   
    68. RY*(   5) C   3                  0.00014     1.46535   
    69. RY*(   6) C   3                  0.00008     0.97809   
    70. RY*(   7) C   3                  0.00006     1.06129   
    71. RY*(   8) C   3                  0.00006     1.40934   
    72. RY*(   9) C   3                  0.00003     0.85448   
    73. RY*(  10) C   3                  0.00001     2.32027   
    74. RY*(  11) C   3                  0.00001     1.12138   
    75. RY*(  12) C   3                  0.00001     1.78523   
    76. RY*(  13) C   3                  0.00000    23.25456   
    77. RY*(  14) C   3                  0.00001     2.08593   
    78. RY*(  15) C   3                  0.00000     0.63993   
    79. RY*(  16) C   3                  0.00001     1.72571   
    80. RY*(  17) C   3                  0.00000     2.65907   
    81. RY*(   1) O   4                  0.00221     0.93447   
    82. RY*(   2) O   4                  0.00068     0.89157   
    83. RY*(   3) O   4                  0.00032     0.67877   
    84. RY*(   4) O   4                  0.00029     0.83372   
    85. RY*(   5) O   4                  0.00007     2.55351   
    86. RY*(   6) O   4                  0.00004     1.76989   
    87. RY*(   7) O   4                  0.00004     2.34294   
    88. RY*(   8) O   4                  0.00002     2.21777   
    89. RY*(   9) O   4                  0.00001     3.85819   
    90. RY*(  10) O   4                  0.00000     4.78861   
    91. RY*(  11) O   4                  0.00001     3.34808   
    92. RY*(  12) O   4                  0.00000     4.82348   
    93. RY*(  13) O   4                  0.00000     1.60187   
    94. RY*(  14) O   4                  0.00000    49.48659   
    95. RY*(  15) O   4                  0.00000     2.62324   
    96. RY*(  16) O   4                  0.00000     1.44315   
    97. RY*(  17) O   4                  0.00000     3.09168   
    98. RY*(   1) C   5                  0.00490     1.13495   
    99. RY*(   2) C   5                  0.00306     1.57883   
   100. RY*(   3) C   5                  0.00163     1.53140   
   101. RY*(   4) C   5                  0.00110     1.55652   
   102. RY*(   5) C   5                  0.00101     1.35040   
   103. RY*(   6) C   5                  0.00089     1.75483   
   104. RY*(   7) C   5                  0.00039     1.90337   
   105. RY*(   8) C   5                  0.00028     2.09957   
   106. RY*(   9) C   5                  0.00011     1.48998   
   107. RY*(  10) C   5                  0.00012     1.25142   
   108. RY*(  11) C   5                  0.00004     1.85214   
   109. RY*(  12) C   5                  0.00002     1.12302   
   110. RY*(  13) C   5                  0.00000     2.62839   
   111. RY*(  14) C   5                  0.00000     0.71987   
   112. RY*(  15) C   5                  0.00001    20.17266   
   113. RY*(  16) C   5                  0.00000     2.57553   
   114. RY*(  17) C   5                  0.00001     1.85341   
   115. RY*(   1) N   6                  0.00145     0.66608   
   116. RY*(   2) N   6                  0.00090     1.08584   
   117. RY*(   3) N   6                  0.00060     0.85916   
   118. RY*(   4) N   6                  0.00026     0.64082   
   119. RY*(   5) N   6                  0.00014     2.07922   
   120. RY*(   6) N   6                  0.00010     1.25844   
   121. RY*(   7) N   6                  0.00010     1.22156   
   122. RY*(   8) N   6                  0.00005     1.74641   
   123. RY*(   9) N   6                  0.00003     2.20653   
   124. RY*(  10) N   6                  0.00001     3.78932   
   125. RY*(  11) N   6                  0.00001     3.65919   
   126. RY*(  12) N   6                  0.00001     2.41924   
   127. RY*(  13) N   6                  0.00000     1.66610   
   128. RY*(  14) N   6                  0.00000    34.84467   
   129. RY*(  15) N   6                  0.00000     1.83270   
   130. RY*(  16) N   6                  0.00000     3.75236   
   131. RY*(  17) N   6                  0.00001     2.49535   
   132. RY*(   1) C   7                  0.00196     0.66528   
   133. RY*(   2) C   7                  0.00119     1.13571   
   134. RY*(   3) C   7                  0.00039     0.96061   
   135. RY*(   4) C   7                  0.00029     0.65348   
   136. RY*(   5) C   7                  0.00026     0.92780   
   137. RY*(   6) C   7                  0.00023     2.17890   
   138. RY*(   7) C   7                  0.00006     2.83658   
   139. RY*(   8) C   7                  0.00003     5.42902   
   140. RY*(   9) C   7                  0.00004     1.11461   
   141. RY*(  10) C   7                  0.00001     3.84781   
   142. RY*(  11) C   7                  0.00000     0.58458   
   143. RY*(  12) C   7                  0.00000     2.68954   
   144. RY*(  13) C   7                  0.00001     1.64126   
   145. RY*(  14) C   7                  0.00000     1.98669   
   146. RY*(  15) C   7                  0.00000     2.70865   
   147. RY*(  16) C   7                  0.00000    16.11407   
   148. RY*(  17) C   7                  0.00001     1.85771   
   149. RY*(   1) C   8                  0.00027     0.87555   
   150. RY*(   2) C   8                  0.00019     1.08480   
   151. RY*(   3) C   8                  0.00017     3.17423   
   152. RY*(   4) C   8                  0.00008     0.92030   
   153. RY*(   5) C   8                  0.00003     0.54414   
   154. RY*(   6) C   8                  0.00002     0.63981   
   155. RY*(   7) C   8                  0.00001     1.32785   
   156. RY*(   8) C   8                  0.00000     2.48630   
   157. RY*(   9) C   8                  0.00000    21.11741   
   158. RY*(  10) C   8                  0.00000     0.45048   
   159. RY*(  11) C   8                  0.00000     2.44723   
   160. RY*(  12) C   8                  0.00000     1.94799   
   161. RY*(  13) C   8                  0.00000     1.92658   
   162. RY*(  14) C   8                  0.00000     1.35304   
   163. RY*(  15) C   8                  0.00000     2.75202   
   164. RY*(  16) C   8                  0.00000     1.85816   
   165. RY*(   1) H   9                  0.00066     1.81717   
   166. RY*(   2) H   9                  0.00056     1.47382   
   167. RY*(   3) H   9                  0.00041     0.81915   
   168. RY*(   4) H   9                  0.00017     1.80323   
   169. RY*(   5) H   9                  0.00001     2.41962   
   170. RY*(   1) H  10                  0.00029     1.78488   
   171. RY*(   2) H  10                  0.00009     1.44892   
   172. RY*(   3) H  10                  0.00008     0.33239   
   173. RY*(   4) H  10                  0.00004     1.79793   
   174. RY*(   5) H  10                  0.00000     1.49003   
   175. BD*(   1) O   1 - C   2          0.01641     0.36379   
   176. BD*(   1) O   1 - H   9          0.00468     0.35305   
   177. BD*(   1) C   2 - C   3          0.01815     0.43264   
   178. BD*(   1) C   2 - N   6          0.01873     0.46039   
   179. BD*(   1) C   3 - O   4          0.00412     0.35920   
   180. BD*(   1) O   4 - C   5          0.04606     0.27509   
   181. BD*(   1) C   5 - N   6          0.01274     0.50140   
   182. BD*(   2) C   5 - N   6          0.14513    -0.03179  186(v),24(v),118(g),100(g)
                                                    26(r),107(g)
   183. BD*(   1) C   5 - C   7          0.01599     0.50416   
   184. BD*(   1) C   7 - C   8          0.00826     0.92508   
   185. BD*(   2) C   7 - C   8          0.00833     0.07414   
   186. BD*(   3) C   7 - C   8          0.01092     0.07415   
   187. BD*(   1) C   8 - H  10          0.00233     2.01334   
       -------------------------------
              Total Lewis   26.20675  ( 97.0620%)
        Valence non-Lewis    0.74351  (  2.7537%)
        Rydberg non-Lewis    0.04974  (  0.1842%)
       -------------------------------
            Total unit  1   27.00000  (100.0000%)
           Charge unit  1    0.50000
 Leave Link  607 at Thu Jul 13 18:48:52 2023, MaxMem= 16106127360 cpu:             208.6 elap:               6.6
 (Enter /public/software/apps/Gaussian/g16/l9999.exe)
 Unable to Open any file for archive entry.
 1\1\GINC-NODE17\SP\UB3LYP\Gen\C5H2N1O2(2)\ZTC_HG\13-Jul-2023\0\\#p b3l
 yp/chkbas pop=nbo geom=allcheck guess=tcheck em=gd3bj\\dsgdb9nsd_00473
 8-2\\0,2\O,0,-2.648811,-0.635189,0.002101\C,0,-1.431065,-0.121268,0.00
 9166\C,0,-1.153404,1.306828,-0.055076\O,0,0.208098,1.301907,0.033392\C
 ,0,0.662001,-0.007797,0.026761\N,0,-0.319917,-0.886004,-0.000767\C,0,2
 .036774,-0.245396,-0.001854\C,0,3.229541,-0.423303,-0.016662\H,0,-2.57
 8615,-1.600946,-0.021737\H,0,4.280662,-0.585159,-0.030849\\Version=ES6
 4L-G16RevC.01\State=2-A\HF=-396.8625858\S2=0.779369\S2-1=0.\S2A=0.7505
 19\RMSD=8.853e-10\Dipole=0.9333159,-1.3167717,0.1004848\Quadrupole=6.4
 984437,-5.0231902,-1.4752535,4.5035809,-0.4403763,0.552951\PG=C01 [X(C
 5H2N1O2)]\\@
 The archive entry for this job was punched.


 THERE IS AN OLD, OLD RECIPE IN MAINE FOR STEWING COOT. PLACE THE
 BIRD IN A KETTLE OF WATER WITH A RED BUILDING BRICK FREE OF MORTAR AND
 BLEMISHES. PARBOIL THE COOT AND BRICK TOGETHER FOR THREE HOURS.
 POUR OFF THE WATER, REFILL THE KETTLE, AND AGAIN PARBOIL FOR THREE HOURS.
 ONCE AGAIN POUR OFF THE WATER, FOR THE LAST TIME ADD FRESH WATER,
 AND LET THE COOT AND BRICK SIMMER TOGETHER OVERNIGHT. IN THE MORNING,
 THROW AWAY THE COOT AND EAT THE BRICK.
 Job cpu time:       0 days  0 hours  4 minutes 32.3 seconds.
 Elapsed time:       0 days  0 hours  0 minutes  8.7 seconds.
 File lengths (MBytes):  RWF=     40 Int=      0 D2E=      0 Chk=     67 Scr=      2
 Normal termination of Gaussian 16 at Thu Jul 13 18:48:57 2023.
