 Entering Gaussian System, Link 0=/public3/home/scg5914/software-scg5914/g16/g16
 Input=dsgdb9nsd_130495-1.gjf
 Output=dsgdb9nsd_130495-1.log
 Initial command:
 /public3/home/scg5914/software-scg5914/g16/l1.exe "/public3/home/scg5914/software-scg5914/test/tmp/dsgdb9nsd_130495-1/Gau-148433.inp" -scrdir="/public3/home/scg5914/software-scg5914/test/tmp/dsgdb9nsd_130495-1/"
 Entering Link 1 = /public3/home/scg5914/software-scg5914/g16/l1.exe PID=    148434.
  
 Copyright (c) 1988-2019, Gaussian, Inc.  All Rights Reserved.
  
 This is part of the Gaussian(R) 16 program.  It is based on
 the Gaussian(R) 09 system (copyright 2009, Gaussian, Inc.),
 the Gaussian(R) 03 system (copyright 2003, Gaussian, Inc.),
 the Gaussian(R) 98 system (copyright 1998, Gaussian, Inc.),
 the Gaussian(R) 94 system (copyright 1995, Gaussian, Inc.),
 the Gaussian 92(TM) system (copyright 1992, Gaussian, Inc.),
 the Gaussian 90(TM) system (copyright 1990, Gaussian, Inc.),
 the Gaussian 88(TM) system (copyright 1988, Gaussian, Inc.),
 the Gaussian 86(TM) system (copyright 1986, Carnegie Mellon
 University), and the Gaussian 82(TM) system (copyright 1983,
 Carnegie Mellon University). Gaussian is a federally registered
 trademark of Gaussian, Inc.
  
 This software contains proprietary and confidential information,
 including trade secrets, belonging to Gaussian, Inc.
  
 This software is provided under written license and may be
 used, copied, transmitted, or stored only in accord with that
 written license.
  
 The following legend is applicable only to US Government
 contracts under FAR:
  
                    RESTRICTED RIGHTS LEGEND
  
 Use, reproduction and disclosure by the US Government is
 subject to restrictions as set forth in subparagraphs (a)
 and (c) of the Commercial Computer Software - Restricted
 Rights clause in FAR 52.227-19.
  
 Gaussian, Inc.
 340 Quinnipiac St., Bldg. 40, Wallingford CT 06492
  
  
 ---------------------------------------------------------------
 Warning -- This program may not be used in any manner that
 competes with the business of Gaussian, Inc. or will provide
 assistance to any competitor of Gaussian, Inc.  The licensee
 of this program is prohibited from giving any competitor of
 Gaussian, Inc. access to this program.  By using this program,
 the user acknowledges that Gaussian, Inc. is engaged in the
 business of creating and licensing software in the field of
 computational chemistry and represents and warrants to the
 licensee that it is not a competitor of Gaussian, Inc. and that
 it will not use this program in any manner prohibited above.
 ---------------------------------------------------------------
  

 Cite this work as:
 Gaussian 16, Revision C.01,
 M. J. Frisch, G. W. Trucks, H. B. Schlegel, G. E. Scuseria, 
 M. A. Robb, J. R. Cheeseman, G. Scalmani, V. Barone, 
 G. A. Petersson, H. Nakatsuji, X. Li, M. Caricato, A. V. Marenich, 
 J. Bloino, B. G. Janesko, R. Gomperts, B. Mennucci, H. P. Hratchian, 
 J. V. Ortiz, A. F. Izmaylov, J. L. Sonnenberg, D. Williams-Young, 
 F. Ding, F. Lipparini, F. Egidi, J. Goings, B. Peng, A. Petrone, 
 T. Henderson, D. Ranasinghe, V. G. Zakrzewski, J. Gao, N. Rega, 
 G. Zheng, W. Liang, M. Hada, M. Ehara, K. Toyota, R. Fukuda, 
 J. Hasegawa, M. Ishida, T. Nakajima, Y. Honda, O. Kitao, H. Nakai, 
 T. Vreven, K. Throssell, J. A. Montgomery, Jr., J. E. Peralta, 
 F. Ogliaro, M. J. Bearpark, J. J. Heyd, E. N. Brothers, K. N. Kudin, 
 V. N. Staroverov, T. A. Keith, R. Kobayashi, J. Normand, 
 K. Raghavachari, A. P. Rendell, J. C. Burant, S. S. Iyengar, 
 J. Tomasi, M. Cossi, J. M. Millam, M. Klene, C. Adamo, R. Cammi, 
 J. W. Ochterski, R. L. Martin, K. Morokuma, O. Farkas, 
 J. B. Foresman, and D. J. Fox, Gaussian, Inc., Wallingford CT, 2019.
 
 ******************************************
 Gaussian 16:  ES64L-G16RevC.01  3-Jul-2019
                 3-Nov-2022 
 ******************************************
 %chk=dsgdb9nsd_130495-1.chk
 %mem=60GB
 %nprocshared=32
 Will use up to   32 processors via shared memory.
 ------------------------------------
 #p opt freq b3lyp/6-311+g** em=gd3bj
 ------------------------------------
 1/18=20,19=15,26=3,38=1/1,3;
 2/9=110,12=2,17=6,18=5,40=1/2;
 3/5=4,6=6,7=111,11=2,25=1,30=1,71=1,74=-5,124=41/1,2,3;
 4//1;
 5/5=2,38=5/2;
 6/7=2,8=2,9=2,10=2,28=1/1;
 7//1,2,3,16;
 1/18=20,19=15,26=3/3(2);
 2/9=110/2;
 99//99;
 2/9=110/2;
 3/5=4,6=6,7=111,11=2,25=1,30=1,71=1,74=-5,124=41/1,2,3;
 4/5=5,16=3,69=1/1;
 5/5=2,38=5/2;
 7//1,2,3,16;
 1/18=20,19=15,26=3/3(-5);
 2/9=110/2;
 6/7=2,8=2,9=2,10=2,19=2,28=1/1;
 99/9=1/99;
 Leave Link    1 at Thu Nov  3 04:05:10 2022, MaxMem=  8053063680 cpu:               0.9 elap:               0.0
 (Enter /public3/home/scg5914/software-scg5914/g16/l101.exe)
 ------------------
 dsgdb9nsd_130495-1
 ------------------
 Symbolic Z-matrix:
 Charge =  0 Multiplicity = 2
 O                    -0.05223   1.23146   0.00891 
 N                     1.16571   1.83959   0.00075 
 C                     2.02069   0.83761  -0.01243 
 C                     3.44351   0.7611   -0.02607 
 N                     4.01363  -0.41044  -0.03747 
 C                     3.20742  -1.53731  -0.03583 
 N                     1.904    -1.61267  -0.02409 
 C                     1.30266  -0.39457  -0.01216 
 N                     0.00702  -0.12937   0.00128 
 H                     3.75608  -2.47474  -0.04581 
 
 ITRead=  0  0  0  0  0  0  0  0  0  0
 MicOpt= -1 -1 -1 -1 -1 -1 -1 -1 -1 -1
 NAtoms=     10 NQM=       10 NQMF=       0 NMMI=      0 NMMIF=      0
                NMic=       0 NMicF=      0.
                    Isotopes and Nuclear Properties:
 (Nuclear quadrupole moments (NQMom) in fm**2, nuclear magnetic moments (NMagM)
  in nuclear magnetons)

  Atom         1           2           3           4           5           6           7           8           9          10
 IAtWgt=          16          14          12          12          14          12          14          12          14           1
 AtmWgt=  15.9949146  14.0030740  12.0000000  12.0000000  14.0030740  12.0000000  14.0030740  12.0000000  14.0030740   1.0078250
 NucSpn=           0           2           0           0           2           0           2           0           2           1
 AtZEff=  -0.0000000  -0.0000000  -0.0000000  -0.0000000  -0.0000000  -0.0000000  -0.0000000  -0.0000000  -0.0000000  -0.0000000
 NQMom=    0.0000000   2.0440000   0.0000000   0.0000000   2.0440000   0.0000000   2.0440000   0.0000000   2.0440000   0.0000000
 NMagM=    0.0000000   0.4037610   0.0000000   0.0000000   0.4037610   0.0000000   0.4037610   0.0000000   0.4037610   2.7928460
 AtZNuc=   8.0000000   7.0000000   6.0000000   6.0000000   7.0000000   6.0000000   7.0000000   6.0000000   7.0000000   1.0000000
 Leave Link  101 at Thu Nov  3 04:05:11 2022, MaxMem=  8053063680 cpu:               4.3 elap:               0.1
 (Enter /public3/home/scg5914/software-scg5914/g16/l103.exe)

 GradGradGradGradGradGradGradGradGradGradGradGradGradGradGradGradGradGrad
 Berny optimization.
 Initialization pass.
                           ----------------------------
                           !    Initial Parameters    !
                           ! (Angstroms and Degrees)  !
 --------------------------                            --------------------------
 ! Name  Definition              Value          Derivative Info.                !
 --------------------------------------------------------------------------------
 ! R1    R(1,2)                  1.3613         estimate D2E/DX2                !
 ! R2    R(1,9)                  1.3621         estimate D2E/DX2                !
 ! R3    R(2,3)                  1.3172         estimate D2E/DX2                !
 ! R4    R(3,4)                  1.4249         estimate D2E/DX2                !
 ! R5    R(3,8)                  1.4261         estimate D2E/DX2                !
 ! R6    R(4,5)                  1.3029         estimate D2E/DX2                !
 ! R7    R(5,6)                  1.3856         estimate D2E/DX2                !
 ! R8    R(6,7)                  1.3057         estimate D2E/DX2                !
 ! R9    R(6,10)                 1.0862         estimate D2E/DX2                !
 ! R10   R(7,8)                  1.3585         estimate D2E/DX2                !
 ! R11   R(8,9)                  1.3226         estimate D2E/DX2                !
 ! A1    A(2,1,9)              114.037          estimate D2E/DX2                !
 ! A2    A(1,2,3)              103.9433         estimate D2E/DX2                !
 ! A3    A(2,3,4)              133.5545         estimate D2E/DX2                !
 ! A4    A(2,3,8)              109.2941         estimate D2E/DX2                !
 ! A5    A(4,3,8)              117.1513         estimate D2E/DX2                !
 ! A6    A(3,4,5)              119.0301         estimate D2E/DX2                !
 ! A7    A(4,5,6)              118.4678         estimate D2E/DX2                !
 ! A8    A(5,6,7)              128.889          estimate D2E/DX2                !
 ! A9    A(5,6,10)             114.0776         estimate D2E/DX2                !
 ! A10   A(7,6,10)             117.0334         estimate D2E/DX2                !
 ! A11   A(6,7,8)              112.9682         estimate D2E/DX2                !
 ! A12   A(3,8,7)              123.4937         estimate D2E/DX2                !
 ! A13   A(3,8,9)              108.6618         estimate D2E/DX2                !
 ! A14   A(7,8,9)              127.8445         estimate D2E/DX2                !
 ! A15   A(1,9,8)              104.0637         estimate D2E/DX2                !
 ! D1    D(9,1,2,3)              0.0002         estimate D2E/DX2                !
 ! D2    D(2,1,9,8)              0.0001         estimate D2E/DX2                !
 ! D3    D(1,2,3,4)            179.9998         estimate D2E/DX2                !
 ! D4    D(1,2,3,8)             -0.0004         estimate D2E/DX2                !
 ! D5    D(2,3,4,5)            179.9996         estimate D2E/DX2                !
 ! D6    D(8,3,4,5)             -0.0002         estimate D2E/DX2                !
 ! D7    D(2,3,8,7)           -179.9999         estimate D2E/DX2                !
 ! D8    D(2,3,8,9)              0.0004         estimate D2E/DX2                !
 ! D9    D(4,3,8,7)              0.0            estimate D2E/DX2                !
 ! D10   D(4,3,8,9)           -179.9997         estimate D2E/DX2                !
 ! D11   D(3,4,5,6)              0.0003         estimate D2E/DX2                !
 ! D12   D(4,5,6,7)             -0.0003         estimate D2E/DX2                !
 ! D13   D(4,5,6,10)          -179.9998         estimate D2E/DX2                !
 ! D14   D(5,6,7,8)              0.0001         estimate D2E/DX2                !
 ! D15   D(10,6,7,8)           179.9996         estimate D2E/DX2                !
 ! D16   D(6,7,8,3)              0.0001         estimate D2E/DX2                !
 ! D17   D(6,7,8,9)            179.9997         estimate D2E/DX2                !
 ! D18   D(3,8,9,1)             -0.0003         estimate D2E/DX2                !
 ! D19   D(7,8,9,1)           -180.0            estimate D2E/DX2                !
 --------------------------------------------------------------------------------
 Trust Radius=3.00D-01 FncErr=1.00D-07 GrdErr=1.00D-06 EigMax=2.50D+02 EigMin=1.00D-04
 Number of steps in this run=     55 maximum allowed number of steps=    100.
 GradGradGradGradGradGradGradGradGradGradGradGradGradGradGradGradGradGrad

 Leave Link  103 at Thu Nov  3 04:05:11 2022, MaxMem=  8053063680 cpu:               0.2 elap:               0.0
 (Enter /public3/home/scg5914/software-scg5914/g16/l202.exe)
                          Input orientation:                          
 ---------------------------------------------------------------------
 Center     Atomic      Atomic             Coordinates (Angstroms)
 Number     Number       Type             X           Y           Z
 ---------------------------------------------------------------------
      1          8           0       -0.052235    1.231457    0.008915
      2          7           0        1.165708    1.839587    0.000751
      3          6           0        2.020692    0.837614   -0.012425
      4          6           0        3.443514    0.761103   -0.026066
      5          7           0        4.013627   -0.410438   -0.037467
      6          6           0        3.207424   -1.537314   -0.035832
      7          7           0        1.904002   -1.612674   -0.024094
      8          6           0        1.302662   -0.394571   -0.012157
      9          7           0        0.007024   -0.129370    0.001276
     10          1           0        3.756077   -2.474738   -0.045811
 ---------------------------------------------------------------------
                    Distance matrix (angstroms):
                    1          2          3          4          5
     1  O    0.000000
     2  N    1.361350   0.000000
     3  C    2.110117   1.317240   0.000000
     4  C    3.527423   2.520366   1.424943   0.000000
     5  N    4.385111   3.629699   2.351606   1.302946   0.000000
     6  C    4.277086   3.946315   2.655026   2.310531   1.385574
     7  N    3.452105   3.530410   2.453092   2.829296   2.428181
     8  C    2.116638   2.238388   1.426129   2.432903   2.711129
     9  N    1.362138   2.284588   2.233854   3.550092   4.016637
    10  H    5.314331   5.032452   3.739565   3.250962   2.080321
                    6          7          8          9         10
     6  C    0.000000
     7  N    1.305651   0.000000
     8  C    2.221382   1.358502   0.000000
     9  N    3.496604   2.408186   1.322570   0.000000
    10  H    1.086224   2.042990   3.216748   4.422484   0.000000
 Stoichiometry    C4HN4O(2)
 Framework group  C1[X(C4HN4O)]
 Deg. of freedom    24
 Full point group                 C1      NOp   1
 Largest Abelian subgroup         C1      NOp   1
 Largest concise Abelian subgroup C1      NOp   1
                         Standard orientation:                         
 ---------------------------------------------------------------------
 Center     Atomic      Atomic             Coordinates (Angstroms)
 Number     Number       Type             X           Y           Z
 ---------------------------------------------------------------------
      1          8           0       -2.237373   -0.040638   -0.000000
      2          7           0       -1.543870    1.130825    0.000003
      3          6           0       -0.282069    0.752697   -0.000001
      4          6           0        0.954899    1.460066   -0.000003
      5          7           0        2.069315    0.784978    0.000000
      6          6           0        2.003109   -0.599014   -0.000000
      7          7           0        0.948831   -1.369223    0.000001
      8          6           0       -0.217076   -0.671950    0.000001
      9          7           0       -1.449521   -1.151814   -0.000003
     10          1           0        2.972517   -1.089045    0.000006
 ---------------------------------------------------------------------
 Rotational constants (GHZ):           4.4091709           1.7736185           1.2648316
 Leave Link  202 at Thu Nov  3 04:05:11 2022, MaxMem=  8053063680 cpu:               0.2 elap:               0.0
 (Enter /public3/home/scg5914/software-scg5914/g16/l301.exe)
 Standard basis: 6-311+G(d,p) (5D, 7F)
 Ernie: Thresh=  0.10000D-02 Tol=  0.10000D-05 Strict=F.
 There are   213 symmetry adapted cartesian basis functions of A   symmetry.
 There are   204 symmetry adapted basis functions of A   symmetry.
   204 basis functions,   332 primitive gaussians,   213 cartesian basis functions
    31 alpha electrons       30 beta electrons
       nuclear repulsion energy       401.7055463777 Hartrees.
 IExCor=  402 DFT=T Ex+Corr=B3LYP ExCW=0 ScaHFX=  0.200000
 ScaDFX=  0.800000  0.720000  1.000000  0.810000 ScalE2=  1.000000  1.000000
 IRadAn=      5 IRanWt=     -1 IRanGd=            0 ICorTp=0 IEmpDi=141
 NAtoms=   10 NActive=   10 NUniq=   10 SFac= 1.00D+00 NAtFMM=   60 NAOKFM=F Big=F
 Integral buffers will be    131072 words long.
 Raffenetti 2 integral format.
 Two-electron integral symmetry is turned on.
 R6Disp:  Grimme-D3(BJ) Dispersion energy=       -0.0196511652 Hartrees.
 Nuclear repulsion after empirical dispersion term =      401.6858952124 Hartrees.
 Leave Link  301 at Thu Nov  3 04:05:11 2022, MaxMem=  8053063680 cpu:               1.2 elap:               0.1
 (Enter /public3/home/scg5914/software-scg5914/g16/l302.exe)
 NPDir=0 NMtPBC=     1 NCelOv=     1 NCel=       1 NClECP=     1 NCelD=      1
         NCelK=      1 NCelE2=     1 NClLst=     1 CellRange=     0.0.
 One-electron integrals computed using PRISM.
 One-electron integral symmetry used in STVInt
 NBasis=   204 RedAO= T EigKep=  8.88D-06  NBF=   204
 NBsUse=   204 1.00D-06 EigRej= -1.00D+00 NBFU=   204
 Precomputing XC quadrature grid using
 IXCGrd= 4 IRadAn=           5 IRanWt=          -1 IRanGd=           0 AccXCQ= 0.00D+00.
 Generated NRdTot=       0 NPtTot=           0 NUsed=           0 NTot=          32
 NSgBfM=   213   213   213   213   213 MxSgAt=    10 MxSgA2=    10.
 Leave Link  302 at Thu Nov  3 04:05:11 2022, MaxMem=  8053063680 cpu:               3.6 elap:               0.1
 (Enter /public3/home/scg5914/software-scg5914/g16/l303.exe)
 DipDrv:  MaxL=1.
 Leave Link  303 at Thu Nov  3 04:05:11 2022, MaxMem=  8053063680 cpu:               0.5 elap:               0.0
 (Enter /public3/home/scg5914/software-scg5914/g16/l401.exe)
 ExpMin= 4.38D-02 ExpMax= 8.59D+03 ExpMxC= 1.30D+03 IAcc=3 IRadAn=         5 AccDes= 0.00D+00
 Harris functional with IExCor=  402 and IRadAn=       5 diagonalized for initial guess.
 HarFok:  IExCor=  402 AccDes= 0.00D+00 IRadAn=         5 IDoV= 1 UseB2=F ITyADJ=14
 ICtDFT=  3500011 ScaDFX=  1.000000  1.000000  1.000000  1.000000
 FoFCou: FMM=F IPFlag=           0 FMFlag=      100000 FMFlg1=           0
         NFxFlg=           0 DoJE=T BraDBF=F KetDBF=T FulRan=T
         wScrn=  0.000000 ICntrl=       500 IOpCl=  0 I1Cent=   200000004 NGrid=           0
         NMat0=    1 NMatS0=      1 NMatT0=    0 NMatD0=    1 NMtDS0=    0 NMtDT0=    0
 Petite list used in FoFCou.
 Harris En= -447.119597465921    
 JPrj=0 DoOrth=F DoCkMO=F.
 Initial guess <Sx>= 0.0000 <Sy>= 0.0000 <Sz>= 0.5000 <S**2>= 0.7500 S= 0.5000
 Leave Link  401 at Thu Nov  3 04:05:12 2022, MaxMem=  8053063680 cpu:               9.4 elap:               0.3
 (Enter /public3/home/scg5914/software-scg5914/g16/l502.exe)
 Keep R1 and R2 ints in memory in canonical form, NReq=470612010.
 FoFCou: FMM=F IPFlag=           0 FMFlag=           0 FMFlg1=           0
         NFxFlg=           0 DoJE=F BraDBF=F KetDBF=F FulRan=T
         wScrn=  0.000000 ICntrl=       600 IOpCl=  0 I1Cent=           0 NGrid=           0
         NMat0=    1 NMatS0=  20910 NMatT0=    0 NMatD0=    1 NMtDS0=    0 NMtDT0=    0
 Symmetry not used in FoFCou.
 Two-electron integral symmetry not used.
 UHF open shell SCF:
 Using DIIS extrapolation, IDIIS=  1040.
 NGot=  8053063680 LenX=  7615714890 LenY=  7615669080
 Requested convergence on RMS density matrix=1.00D-08 within 128 cycles.
 Requested convergence on MAX density matrix=1.00D-06.
 Requested convergence on             energy=1.00D-06.
 No special actions if energy rises.

 Cycle   1  Pass 1  IDiag  1:
 E= -447.097438358298    
 DIIS: error= 2.21D-02 at cycle   1 NSaved=   1.
 NSaved= 1 IEnMin= 1 EnMin= -447.097438358298     IErMin= 1 ErrMin= 2.21D-02
 ErrMax= 2.21D-02  0.00D+00 EMaxC= 1.00D-01 BMatC= 5.53D-01 BMatP= 5.53D-01
 IDIUse=3 WtCom= 7.79D-01 WtEn= 2.21D-01
 Coeff-Com:  0.100D+01
 Coeff-En:   0.100D+01
 Coeff:      0.100D+01
 Gap=     0.101 Goal=   None    Shift=    0.000
 Gap=     0.198 Goal=   None    Shift=    0.000
 GapD=    0.101 DampG=1.000 DampE=0.500 DampFc=0.5000 IDamp=-1.
 Damping current iteration by 5.00D-01
 RMSDP=1.03D-02 MaxDP=6.90D-01              OVMax= 2.26D-01

 Cycle   2  Pass 1  IDiag  1:
 E= -447.109711877672     Delta-E=       -0.012273519375 Rises=F Damp=T
 DIIS: error= 1.44D-02 at cycle   2 NSaved=   2.
 NSaved= 2 IEnMin= 2 EnMin= -447.109711877672     IErMin= 2 ErrMin= 1.44D-02
 ErrMax= 1.44D-02  0.00D+00 EMaxC= 1.00D-01 BMatC= 1.51D-01 BMatP= 5.53D-01
 IDIUse=3 WtCom= 8.56D-01 WtEn= 1.44D-01
 Coeff-Com:  0.231D+00 0.769D+00
 Coeff-En:   0.437D+00 0.563D+00
 Coeff:      0.261D+00 0.739D+00
 Gap=     0.155 Goal=   None    Shift=    0.000
 Gap=     0.217 Goal=   None    Shift=    0.000
 RMSDP=4.62D-03 MaxDP=3.48D-01 DE=-1.23D-02 OVMax= 2.39D-01

 Cycle   3  Pass 1  IDiag  1:
 E= -447.169603422232     Delta-E=       -0.059891544560 Rises=F Damp=F
 DIIS: error= 1.66D-02 at cycle   3 NSaved=   3.
 NSaved= 3 IEnMin= 3 EnMin= -447.169603422232     IErMin= 2 ErrMin= 1.44D-02
 ErrMax= 1.66D-02  0.00D+00 EMaxC= 1.00D-01 BMatC= 1.06D-01 BMatP= 1.51D-01
 IDIUse=3 WtCom= 8.34D-01 WtEn= 1.66D-01
 Coeff-Com: -0.506D-01 0.464D+00 0.587D+00
 Coeff-En:   0.000D+00 0.298D-01 0.970D+00
 Coeff:     -0.422D-01 0.391D+00 0.651D+00
 Gap=     0.135 Goal=   None    Shift=    0.000
 Gap=     0.159 Goal=   None    Shift=    0.000
 RMSDP=2.67D-03 MaxDP=2.37D-01 DE=-5.99D-02 OVMax= 9.60D-02

 Cycle   4  Pass 1  IDiag  1:
 E= -447.183204346477     Delta-E=       -0.013600924245 Rises=F Damp=F
 DIIS: error= 9.20D-03 at cycle   4 NSaved=   4.
 NSaved= 4 IEnMin= 4 EnMin= -447.183204346477     IErMin= 4 ErrMin= 9.20D-03
 ErrMax= 9.20D-03  0.00D+00 EMaxC= 1.00D-01 BMatC= 4.25D-02 BMatP= 1.06D-01
 IDIUse=3 WtCom= 9.08D-01 WtEn= 9.20D-02
 Coeff-Com: -0.289D-01 0.191D+00 0.440D+00 0.398D+00
 Coeff-En:   0.000D+00 0.000D+00 0.341D+00 0.659D+00
 Coeff:     -0.262D-01 0.173D+00 0.431D+00 0.422D+00
 Gap=     0.133 Goal=   None    Shift=    0.000
 Gap=     0.167 Goal=   None    Shift=    0.000
 RMSDP=7.29D-04 MaxDP=2.69D-02 DE=-1.36D-02 OVMax= 4.88D-02

 Cycle   5  Pass 1  IDiag  1:
 E= -447.192381650125     Delta-E=       -0.009177303648 Rises=F Damp=F
 DIIS: error= 4.50D-03 at cycle   5 NSaved=   5.
 NSaved= 5 IEnMin= 5 EnMin= -447.192381650125     IErMin= 5 ErrMin= 4.50D-03
 ErrMax= 4.50D-03  0.00D+00 EMaxC= 1.00D-01 BMatC= 4.87D-03 BMatP= 4.25D-02
 IDIUse=3 WtCom= 9.55D-01 WtEn= 4.50D-02
 Coeff-Com: -0.110D-01 0.492D-01 0.218D+00 0.316D+00 0.428D+00
 Coeff-En:   0.000D+00 0.000D+00 0.000D+00 0.769D-01 0.923D+00
 Coeff:     -0.105D-01 0.470D-01 0.208D+00 0.305D+00 0.450D+00
 Gap=     0.134 Goal=   None    Shift=    0.000
 Gap=     0.166 Goal=   None    Shift=    0.000
 RMSDP=2.68D-04 MaxDP=1.47D-02 DE=-9.18D-03 OVMax= 2.05D-02

 Cycle   6  Pass 1  IDiag  1:
 E= -447.193292448790     Delta-E=       -0.000910798665 Rises=F Damp=F
 DIIS: error= 1.78D-03 at cycle   6 NSaved=   6.
 NSaved= 6 IEnMin= 6 EnMin= -447.193292448790     IErMin= 6 ErrMin= 1.78D-03
 ErrMax= 1.78D-03  0.00D+00 EMaxC= 1.00D-01 BMatC= 7.43D-04 BMatP= 4.87D-03
 IDIUse=3 WtCom= 9.82D-01 WtEn= 1.78D-02
 Coeff-Com: -0.134D-02-0.616D-02 0.542D-01 0.135D+00 0.325D+00 0.493D+00
 Coeff-En:   0.000D+00 0.000D+00 0.000D+00 0.000D+00 0.142D+00 0.858D+00
 Coeff:     -0.132D-02-0.605D-02 0.532D-01 0.132D+00 0.322D+00 0.500D+00
 Gap=     0.134 Goal=   None    Shift=    0.000
 Gap=     0.167 Goal=   None    Shift=    0.000
 RMSDP=9.57D-05 MaxDP=4.73D-03 DE=-9.11D-04 OVMax= 7.02D-03

 Cycle   7  Pass 1  IDiag  1:
 E= -447.193450052355     Delta-E=       -0.000157603565 Rises=F Damp=F
 DIIS: error= 4.50D-04 at cycle   7 NSaved=   7.
 NSaved= 7 IEnMin= 7 EnMin= -447.193450052355     IErMin= 7 ErrMin= 4.50D-04
 ErrMax= 4.50D-04  0.00D+00 EMaxC= 1.00D-01 BMatC= 4.89D-05 BMatP= 7.43D-04
 IDIUse=3 WtCom= 9.95D-01 WtEn= 4.50D-03
 Coeff-Com:  0.106D-03-0.675D-02 0.117D-01 0.467D-01 0.132D+00 0.276D+00
 Coeff-Com:  0.541D+00
 Coeff-En:   0.000D+00 0.000D+00 0.000D+00 0.000D+00 0.000D+00 0.000D+00
 Coeff-En:   0.100D+01
 Coeff:      0.106D-03-0.672D-02 0.117D-01 0.465D-01 0.131D+00 0.274D+00
 Coeff:      0.543D+00
 Gap=     0.134 Goal=   None    Shift=    0.000
 Gap=     0.167 Goal=   None    Shift=    0.000
 RMSDP=4.82D-05 MaxDP=3.15D-03 DE=-1.58D-04 OVMax= 3.36D-03

 Cycle   8  Pass 1  IDiag  1:
 E= -447.193463805999     Delta-E=       -0.000013753644 Rises=F Damp=F
 DIIS: error= 2.66D-04 at cycle   8 NSaved=   8.
 NSaved= 8 IEnMin= 8 EnMin= -447.193463805999     IErMin= 8 ErrMin= 2.66D-04
 ErrMax= 2.66D-04  0.00D+00 EMaxC= 1.00D-01 BMatC= 2.16D-05 BMatP= 4.89D-05
 IDIUse=3 WtCom= 9.97D-01 WtEn= 2.66D-03
 Coeff-Com:  0.554D-03-0.215D-02-0.133D-01-0.196D-01-0.400D-01-0.823D-02
 Coeff-Com:  0.430D+00 0.653D+00
 Coeff-En:   0.000D+00 0.000D+00 0.000D+00 0.000D+00 0.000D+00 0.000D+00
 Coeff-En:   0.890D-01 0.911D+00
 Coeff:      0.553D-03-0.214D-02-0.133D-01-0.196D-01-0.399D-01-0.821D-02
 Coeff:      0.429D+00 0.654D+00
 Gap=     0.134 Goal=   None    Shift=    0.000
 Gap=     0.167 Goal=   None    Shift=    0.000
 RMSDP=3.43D-05 MaxDP=2.39D-03 DE=-1.38D-05 OVMax= 2.31D-03

 Cycle   9  Pass 1  IDiag  1:
 E= -447.193473985062     Delta-E=       -0.000010179063 Rises=F Damp=F
 DIIS: error= 1.22D-04 at cycle   9 NSaved=   9.
 NSaved= 9 IEnMin= 9 EnMin= -447.193473985062     IErMin= 9 ErrMin= 1.22D-04
 ErrMax= 1.22D-04  0.00D+00 EMaxC= 1.00D-01 BMatC= 3.31D-06 BMatP= 2.16D-05
 IDIUse=3 WtCom= 9.99D-01 WtEn= 1.22D-03
 Coeff-Com:  0.991D-04 0.771D-03-0.102D-01-0.212D-01-0.540D-01-0.760D-01
 Coeff-Com:  0.816D-01 0.315D+00 0.764D+00
 Coeff-En:   0.000D+00 0.000D+00 0.000D+00 0.000D+00 0.000D+00 0.000D+00
 Coeff-En:   0.000D+00 0.000D+00 0.100D+01
 Coeff:      0.990D-04 0.770D-03-0.102D-01-0.212D-01-0.539D-01-0.760D-01
 Coeff:      0.815D-01 0.314D+00 0.764D+00
 Gap=     0.134 Goal=   None    Shift=    0.000
 Gap=     0.167 Goal=   None    Shift=    0.000
 RMSDP=1.82D-05 MaxDP=1.36D-03 DE=-1.02D-05 OVMax= 1.57D-03

 Cycle  10  Pass 1  IDiag  1:
 E= -447.193477138558     Delta-E=       -0.000003153496 Rises=F Damp=F
 DIIS: error= 6.60D-05 at cycle  10 NSaved=  10.
 NSaved=10 IEnMin=10 EnMin= -447.193477138558     IErMin=10 ErrMin= 6.60D-05
 ErrMax= 6.60D-05  0.00D+00 EMaxC= 1.00D-01 BMatC= 1.12D-06 BMatP= 3.31D-06
 IDIUse=1 WtCom= 1.00D+00 WtEn= 0.00D+00
 Coeff-Com: -0.169D-03 0.916D-03-0.157D-02-0.512D-02-0.164D-01-0.363D-01
 Coeff-Com: -0.769D-01-0.477D-01 0.352D+00 0.831D+00
 Coeff:     -0.169D-03 0.916D-03-0.157D-02-0.512D-02-0.164D-01-0.363D-01
 Coeff:     -0.769D-01-0.477D-01 0.352D+00 0.831D+00
 Gap=     0.134 Goal=   None    Shift=    0.000
 Gap=     0.167 Goal=   None    Shift=    0.000
 RMSDP=1.14D-05 MaxDP=5.49D-04 DE=-3.15D-06 OVMax= 1.28D-03

 Cycle  11  Pass 1  IDiag  1:
 E= -447.193478399094     Delta-E=       -0.000001260535 Rises=F Damp=F
 DIIS: error= 6.46D-05 at cycle  11 NSaved=  11.
 NSaved=11 IEnMin=11 EnMin= -447.193478399094     IErMin=11 ErrMin= 6.46D-05
 ErrMax= 6.46D-05  0.00D+00 EMaxC= 1.00D-01 BMatC= 8.00D-07 BMatP= 1.12D-06
 IDIUse=1 WtCom= 1.00D+00 WtEn= 0.00D+00
 Coeff-Com: -0.144D-03 0.503D-03 0.353D-02 0.558D-02 0.112D-01 0.537D-02
 Coeff-Com: -0.884D-01-0.170D+00-0.476D-01 0.657D+00 0.623D+00
 Coeff:     -0.144D-03 0.503D-03 0.353D-02 0.558D-02 0.112D-01 0.537D-02
 Coeff:     -0.884D-01-0.170D+00-0.476D-01 0.657D+00 0.623D+00
 Gap=     0.134 Goal=   None    Shift=    0.000
 Gap=     0.168 Goal=   None    Shift=    0.000
 RMSDP=6.48D-06 MaxDP=2.13D-04 DE=-1.26D-06 OVMax= 7.70D-04

 Cycle  12  Pass 1  IDiag  1:
 E= -447.193479001784     Delta-E=       -0.000000602691 Rises=F Damp=F
 DIIS: error= 2.54D-05 at cycle  12 NSaved=  12.
 NSaved=12 IEnMin=12 EnMin= -447.193479001784     IErMin=12 ErrMin= 2.54D-05
 ErrMax= 2.54D-05  0.00D+00 EMaxC= 1.00D-01 BMatC= 1.79D-07 BMatP= 8.00D-07
 IDIUse=1 WtCom= 1.00D+00 WtEn= 0.00D+00
 Coeff-Com:  0.101D-04-0.124D-03 0.251D-02 0.461D-02 0.119D-01 0.146D-01
 Coeff-Com: -0.309D-01-0.876D-01-0.144D+00 0.119D+00 0.333D+00 0.777D+00
 Coeff:      0.101D-04-0.124D-03 0.251D-02 0.461D-02 0.119D-01 0.146D-01
 Coeff:     -0.309D-01-0.876D-01-0.144D+00 0.119D+00 0.333D+00 0.777D+00
 Gap=     0.134 Goal=   None    Shift=    0.000
 Gap=     0.167 Goal=   None    Shift=    0.000
 RMSDP=4.76D-06 MaxDP=2.50D-04 DE=-6.03D-07 OVMax= 5.81D-04

 Cycle  13  Pass 1  IDiag  1:
 E= -447.193479233052     Delta-E=       -0.000000231267 Rises=F Damp=F
 DIIS: error= 1.84D-05 at cycle  13 NSaved=  13.
 NSaved=13 IEnMin=13 EnMin= -447.193479233052     IErMin=13 ErrMin= 1.84D-05
 ErrMax= 1.84D-05  0.00D+00 EMaxC= 1.00D-01 BMatC= 7.13D-08 BMatP= 1.79D-07
 IDIUse=1 WtCom= 1.00D+00 WtEn= 0.00D+00
 Coeff-Com:  0.761D-04-0.279D-03-0.237D-03-0.152D-03 0.137D-02 0.566D-02
 Coeff-Com:  0.264D-01 0.428D-01-0.391D-01-0.240D+00-0.190D+00 0.412D+00
 Coeff-Com:  0.981D+00
 Coeff:      0.761D-04-0.279D-03-0.237D-03-0.152D-03 0.137D-02 0.566D-02
 Coeff:      0.264D-01 0.428D-01-0.391D-01-0.240D+00-0.190D+00 0.412D+00
 Coeff:      0.981D+00
 Gap=     0.134 Goal=   None    Shift=    0.000
 Gap=     0.168 Goal=   None    Shift=    0.000
 RMSDP=4.22D-06 MaxDP=3.04D-04 DE=-2.31D-07 OVMax= 4.56D-04

 Cycle  14  Pass 1  IDiag  1:
 E= -447.193479340738     Delta-E=       -0.000000107686 Rises=F Damp=F
 DIIS: error= 9.94D-06 at cycle  14 NSaved=  14.
 NSaved=14 IEnMin=14 EnMin= -447.193479340738     IErMin=14 ErrMin= 9.94D-06
 ErrMax= 9.94D-06  0.00D+00 EMaxC= 1.00D-01 BMatC= 1.22D-08 BMatP= 7.13D-08
 IDIUse=1 WtCom= 1.00D+00 WtEn= 0.00D+00
 Coeff-Com:  0.382D-05-0.273D-04-0.722D-03-0.122D-02-0.265D-02-0.231D-02
 Coeff-Com:  0.137D-01 0.347D-01 0.246D-01-0.942D-01-0.139D+00-0.101D+00
 Coeff-Com:  0.273D+00 0.996D+00
 Coeff:      0.382D-05-0.273D-04-0.722D-03-0.122D-02-0.265D-02-0.231D-02
 Coeff:      0.137D-01 0.347D-01 0.246D-01-0.942D-01-0.139D+00-0.101D+00
 Coeff:      0.273D+00 0.996D+00
 Gap=     0.134 Goal=   None    Shift=    0.000
 Gap=     0.168 Goal=   None    Shift=    0.000
 RMSDP=2.15D-06 MaxDP=7.96D-05 DE=-1.08D-07 OVMax= 2.46D-04

 Cycle  15  Pass 1  IDiag  1:
 E= -447.193479366112     Delta-E=       -0.000000025374 Rises=F Damp=F
 DIIS: error= 5.71D-06 at cycle  15 NSaved=  15.
 NSaved=15 IEnMin=15 EnMin= -447.193479366112     IErMin=15 ErrMin= 5.71D-06
 ErrMax= 5.71D-06  0.00D+00 EMaxC= 1.00D-01 BMatC= 6.74D-09 BMatP= 1.22D-08
 IDIUse=1 WtCom= 1.00D+00 WtEn= 0.00D+00
 Coeff-Com: -0.141D-04 0.569D-04-0.425D-03-0.819D-03-0.228D-02-0.312D-02
 Coeff-Com:  0.196D-02 0.115D-01 0.232D-01-0.164D-02-0.322D-01-0.168D+00
 Coeff-Com: -0.605D-01 0.592D+00 0.641D+00
 Coeff:     -0.141D-04 0.569D-04-0.425D-03-0.819D-03-0.228D-02-0.312D-02
 Coeff:      0.196D-02 0.115D-01 0.232D-01-0.164D-02-0.322D-01-0.168D+00
 Coeff:     -0.605D-01 0.592D+00 0.641D+00
 Gap=     0.134 Goal=   None    Shift=    0.000
 Gap=     0.168 Goal=   None    Shift=    0.000
 RMSDP=9.39D-07 MaxDP=4.86D-05 DE=-2.54D-08 OVMax= 1.02D-04

 Cycle  16  Pass 1  IDiag  1:
 E= -447.193479372005     Delta-E=       -0.000000005893 Rises=F Damp=F
 DIIS: error= 3.06D-06 at cycle  16 NSaved=  16.
 NSaved=16 IEnMin=16 EnMin= -447.193479372005     IErMin=16 ErrMin= 3.06D-06
 ErrMax= 3.06D-06  0.00D+00 EMaxC= 1.00D-01 BMatC= 1.51D-09 BMatP= 6.74D-09
 IDIUse=1 WtCom= 1.00D+00 WtEn= 0.00D+00
 Coeff-Com: -0.434D-05 0.175D-04 0.131D-03 0.225D-03 0.212D-03-0.236D-03
 Coeff-Com: -0.476D-02-0.109D-01-0.167D-02 0.425D-01 0.529D-01-0.415D-01
 Coeff-Com: -0.147D+00-0.184D+00 0.297D+00 0.998D+00
 Coeff:     -0.434D-05 0.175D-04 0.131D-03 0.225D-03 0.212D-03-0.236D-03
 Coeff:     -0.476D-02-0.109D-01-0.167D-02 0.425D-01 0.529D-01-0.415D-01
 Coeff:     -0.147D+00-0.184D+00 0.297D+00 0.998D+00
 Gap=     0.134 Goal=   None    Shift=    0.000
 Gap=     0.168 Goal=   None    Shift=    0.000
 RMSDP=6.78D-07 MaxDP=2.31D-05 DE=-5.89D-09 OVMax= 7.02D-05

 Cycle  17  Pass 1  IDiag  1:
 E= -447.193479374065     Delta-E=       -0.000000002060 Rises=F Damp=F
 DIIS: error= 9.72D-07 at cycle  17 NSaved=  17.
 NSaved=17 IEnMin=17 EnMin= -447.193479374065     IErMin=17 ErrMin= 9.72D-07
 ErrMax= 9.72D-07  0.00D+00 EMaxC= 1.00D-01 BMatC= 3.03D-10 BMatP= 1.51D-09
 IDIUse=1 WtCom= 1.00D+00 WtEn= 0.00D+00
 Coeff-Com:  0.309D-06 0.190D-05 0.107D-03 0.192D-03 0.380D-03 0.302D-03
 Coeff-Com: -0.177D-02-0.555D-02-0.315D-02 0.156D-01 0.225D-01 0.812D-02
 Coeff-Com: -0.477D-01-0.156D+00 0.103D-01 0.428D+00 0.729D+00
 Coeff:      0.309D-06 0.190D-05 0.107D-03 0.192D-03 0.380D-03 0.302D-03
 Coeff:     -0.177D-02-0.555D-02-0.315D-02 0.156D-01 0.225D-01 0.812D-02
 Coeff:     -0.477D-01-0.156D+00 0.103D-01 0.428D+00 0.729D+00
 Gap=     0.134 Goal=   None    Shift=    0.000
 Gap=     0.168 Goal=   None    Shift=    0.000
 RMSDP=1.87D-07 MaxDP=9.11D-06 DE=-2.06D-09 OVMax= 1.64D-05

 Cycle  18  Pass 1  IDiag  1:
 E= -447.193479374274     Delta-E=       -0.000000000209 Rises=F Damp=F
 DIIS: error= 5.16D-07 at cycle  18 NSaved=  18.
 NSaved=18 IEnMin=18 EnMin= -447.193479374274     IErMin=18 ErrMin= 5.16D-07
 ErrMax= 5.16D-07  0.00D+00 EMaxC= 1.00D-01 BMatC= 1.11D-10 BMatP= 3.03D-10
 IDIUse=1 WtCom= 1.00D+00 WtEn= 0.00D+00
 Coeff-Com:  0.132D-05-0.492D-05 0.184D-04 0.392D-04 0.187D-03 0.288D-03
 Coeff-Com:  0.660D-03 0.522D-03-0.122D-02-0.646D-02-0.671D-02 0.230D-01
 Coeff-Com:  0.275D-01-0.295D-01-0.118D+00-0.107D+00 0.448D+00 0.768D+00
 Coeff:      0.132D-05-0.492D-05 0.184D-04 0.392D-04 0.187D-03 0.288D-03
 Coeff:      0.660D-03 0.522D-03-0.122D-02-0.646D-02-0.671D-02 0.230D-01
 Coeff:      0.275D-01-0.295D-01-0.118D+00-0.107D+00 0.448D+00 0.768D+00
 Gap=     0.134 Goal=   None    Shift=    0.000
 Gap=     0.168 Goal=   None    Shift=    0.000
 RMSDP=1.11D-07 MaxDP=3.85D-06 DE=-2.09D-10 OVMax= 8.83D-06

 Cycle  19  Pass 1  IDiag  1:
 E= -447.193479374342     Delta-E=       -0.000000000068 Rises=F Damp=F
 DIIS: error= 1.50D-07 at cycle  19 NSaved=  19.
 NSaved=19 IEnMin=19 EnMin= -447.193479374342     IErMin=19 ErrMin= 1.50D-07
 ErrMax= 1.50D-07  0.00D+00 EMaxC= 1.00D-01 BMatC= 5.20D-12 BMatP= 1.11D-10
 IDIUse=1 WtCom= 1.00D+00 WtEn= 0.00D+00
 Coeff-Com: -0.546D-06 0.650D-06-0.131D-04-0.217D-04-0.388D-04-0.157D-04
 Coeff-Com:  0.293D-03 0.724D-03 0.408D-03-0.296D-02-0.288D-02 0.266D-03
 Coeff-Com:  0.983D-02 0.163D-01-0.890D-02-0.656D-01-0.450D-01 0.323D-01
 Coeff-Com:  0.107D+01
 Coeff:     -0.546D-06 0.650D-06-0.131D-04-0.217D-04-0.388D-04-0.157D-04
 Coeff:      0.293D-03 0.724D-03 0.408D-03-0.296D-02-0.288D-02 0.266D-03
 Coeff:      0.983D-02 0.163D-01-0.890D-02-0.656D-01-0.450D-01 0.323D-01
 Coeff:      0.107D+01
 Gap=     0.134 Goal=   None    Shift=    0.000
 Gap=     0.168 Goal=   None    Shift=    0.000
 RMSDP=3.26D-08 MaxDP=1.78D-06 DE=-6.79D-11 OVMax= 1.86D-06

 Cycle  20  Pass 1  IDiag  1:
 E= -447.193479374345     Delta-E=       -0.000000000004 Rises=F Damp=F
 DIIS: error= 3.80D-08 at cycle  20 NSaved=  20.
 NSaved=20 IEnMin=20 EnMin= -447.193479374345     IErMin=20 ErrMin= 3.80D-08
 ErrMax= 3.80D-08  0.00D+00 EMaxC= 1.00D-01 BMatC= 4.72D-13 BMatP= 5.20D-12
 IDIUse=1 WtCom= 1.00D+00 WtEn= 0.00D+00
 Coeff-Com:  0.607D-07 0.955D-07-0.565D-06-0.206D-05-0.192D-04-0.266D-04
 Coeff-Com: -0.788D-04-0.121D-03 0.113D-03 0.889D-03 0.113D-02-0.260D-02
 Coeff-Com: -0.355D-02 0.529D-03 0.124D-01 0.188D-01-0.321D-01-0.833D-01
 Coeff-Com: -0.136D+00 0.122D+01
 Coeff:      0.607D-07 0.955D-07-0.565D-06-0.206D-05-0.192D-04-0.266D-04
 Coeff:     -0.788D-04-0.121D-03 0.113D-03 0.889D-03 0.113D-02-0.260D-02
 Coeff:     -0.355D-02 0.529D-03 0.124D-01 0.188D-01-0.321D-01-0.833D-01
 Coeff:     -0.136D+00 0.122D+01
 Gap=     0.134 Goal=   None    Shift=    0.000
 Gap=     0.168 Goal=   None    Shift=    0.000
 RMSDP=8.22D-09 MaxDP=3.33D-07 DE=-3.52D-12 OVMax= 5.70D-07

 SCF Done:  E(UB3LYP) =  -447.193479374     A.U. after   20 cycles
            NFock= 20  Conv=0.82D-08     -V/T= 2.0036
 <Sx>= 0.0000 <Sy>= 0.0000 <Sz>= 0.5000 <S**2>= 0.7568 S= 0.5034
 <L.S>=  0.00000000000    
 KE= 4.455723484838D+02 PE=-1.846803557624D+03 EE= 5.523518345534D+02
 Annihilation of the first spin contaminant:
 S**2 before annihilation     0.7568,   after     0.7500
 Leave Link  502 at Thu Nov  3 04:05:26 2022, MaxMem=  8053063680 cpu:             281.4 elap:              13.9
 (Enter /public3/home/scg5914/software-scg5914/g16/l601.exe)
 Copying SCF densities to generalized density rwf, IOpCl= 1 IROHF=0.

 **********************************************************************

            Population analysis using the SCF Density.

 **********************************************************************

 Orbital symmetries:
 Alpha Orbitals:
       Occupied  (A) (A) (A) (A) (A) (A) (A) (A) (A) (A) (A) (A)
                 (A) (A) (A) (A) (A) (A) (A) (A) (A) (A) (A) (A)
                 (A) (A) (A) (A) (A) (A) (A)
       Virtual   (A) (A) (A) (A) (A) (A) (A) (A) (A) (A) (A) (A)
                 (A) (A) (A) (A) (A) (A) (A) (A) (A) (A) (A) (A)
                 (A) (A) (A) (A) (A) (A) (A) (A) (A) (A) (A) (A)
                 (A) (A) (A) (A) (A) (A) (A) (A) (A) (A) (A) (A)
                 (A) (A) (A) (A) (A) (A) (A) (A) (A) (A) (A) (A)
                 (A) (A) (A) (A) (A) (A) (A) (A) (A) (A) (A) (A)
                 (A) (A) (A) (A) (A) (A) (A) (A) (A) (A) (A) (A)
                 (A) (A) (A) (A) (A) (A) (A) (A) (A) (A) (A) (A)
                 (A) (A) (A) (A) (A) (A) (A) (A) (A) (A) (A) (A)
                 (A) (A) (A) (A) (A) (A) (A) (A) (A) (A) (A) (A)
                 (A) (A) (A) (A) (A) (A) (A) (A) (A) (A) (A) (A)
                 (A) (A) (A) (A) (A) (A) (A) (A) (A) (A) (A) (A)
                 (A) (A) (A) (A) (A) (A) (A) (A) (A) (A) (A) (A)
                 (A) (A) (A) (A) (A) (A) (A) (A) (A) (A) (A) (A)
                 (A) (A) (A) (A) (A)
 Beta  Orbitals:
       Occupied  (A) (A) (A) (A) (A) (A) (A) (A) (A) (A) (A) (A)
                 (A) (A) (A) (A) (A) (A) (A) (A) (A) (A) (A) (A)
                 (A) (A) (A) (A) (A) (A)
       Virtual   (A) (A) (A) (A) (A) (A) (A) (A) (A) (A) (A) (A)
                 (A) (A) (A) (A) (A) (A) (A) (A) (A) (A) (A) (A)
                 (A) (A) (A) (A) (A) (A) (A) (A) (A) (A) (A) (A)
                 (A) (A) (A) (A) (A) (A) (A) (A) (A) (A) (A) (A)
                 (A) (A) (A) (A) (A) (A) (A) (A) (A) (A) (A) (A)
                 (A) (A) (A) (A) (A) (A) (A) (A) (A) (A) (A) (A)
                 (A) (A) (A) (A) (A) (A) (A) (A) (A) (A) (A) (A)
                 (A) (A) (A) (A) (A) (A) (A) (A) (A) (A) (A) (A)
                 (A) (A) (A) (A) (A) (A) (A) (A) (A) (A) (A) (A)
                 (A) (A) (A) (A) (A) (A) (A) (A) (A) (A) (A) (A)
                 (A) (A) (A) (A) (A) (A) (A) (A) (A) (A) (A) (A)
                 (A) (A) (A) (A) (A) (A) (A) (A) (A) (A) (A) (A)
                 (A) (A) (A) (A) (A) (A) (A) (A) (A) (A) (A) (A)
                 (A) (A) (A) (A) (A) (A) (A) (A) (A) (A) (A) (A)
                 (A) (A) (A) (A) (A) (A)
 The electronic state is 2-A.
 Alpha  occ. eigenvalues --  -19.30259 -14.43838 -14.42784 -14.39246 -14.37904
 Alpha  occ. eigenvalues --  -10.30523 -10.30365 -10.29740 -10.28280  -1.24940
 Alpha  occ. eigenvalues --   -1.05177  -0.98033  -0.94918  -0.91117  -0.76507
 Alpha  occ. eigenvalues --   -0.72369  -0.66445  -0.61185  -0.60263  -0.55469
 Alpha  occ. eigenvalues --   -0.51727  -0.47788  -0.47390  -0.41457  -0.40429
 Alpha  occ. eigenvalues --   -0.38601  -0.36671  -0.36307  -0.35860  -0.32331
 Alpha  occ. eigenvalues --   -0.28181
 Alpha virt. eigenvalues --   -0.14782  -0.06051  -0.05263  -0.00349   0.01793
 Alpha virt. eigenvalues --    0.03186   0.03358   0.03423   0.04797   0.06374
 Alpha virt. eigenvalues --    0.07591   0.07620   0.07770   0.09816   0.10164
 Alpha virt. eigenvalues --    0.10582   0.11391   0.11939   0.12789   0.12857
 Alpha virt. eigenvalues --    0.15328   0.16490   0.17207   0.17885   0.18235
 Alpha virt. eigenvalues --    0.18273   0.18383   0.20015   0.21602   0.22004
 Alpha virt. eigenvalues --    0.22517   0.22569   0.23569   0.23765   0.25017
 Alpha virt. eigenvalues --    0.25225   0.25442   0.26342   0.26843   0.28684
 Alpha virt. eigenvalues --    0.29313   0.30963   0.32826   0.33998   0.35074
 Alpha virt. eigenvalues --    0.35477   0.38948   0.42855   0.43323   0.49258
 Alpha virt. eigenvalues --    0.50435   0.51616   0.52905   0.54272   0.55014
 Alpha virt. eigenvalues --    0.58032   0.60596   0.60815   0.64143   0.68554
 Alpha virt. eigenvalues --    0.68998   0.74634   0.75266   0.77551   0.78426
 Alpha virt. eigenvalues --    0.81278   0.81539   0.84233   0.84558   0.85647
 Alpha virt. eigenvalues --    0.87732   0.88974   0.89759   0.90729   0.92133
 Alpha virt. eigenvalues --    0.93095   0.93820   0.96410   0.99850   1.01353
 Alpha virt. eigenvalues --    1.02896   1.06743   1.08500   1.12393   1.12772
 Alpha virt. eigenvalues --    1.20626   1.20681   1.23659   1.26050   1.27192
 Alpha virt. eigenvalues --    1.32687   1.34910   1.39760   1.46061   1.48939
 Alpha virt. eigenvalues --    1.53060   1.56221   1.60922   1.65197   1.67157
 Alpha virt. eigenvalues --    1.69138   1.71419   1.77431   1.80873   1.84254
 Alpha virt. eigenvalues --    1.86999   1.90572   1.95660   1.97282   2.03922
 Alpha virt. eigenvalues --    2.07953   2.10380   2.13703   2.22041   2.23310
 Alpha virt. eigenvalues --    2.28555   2.28608   2.34229   2.35618   2.41758
 Alpha virt. eigenvalues --    2.48337   2.50520   2.58368   2.64752   2.68607
 Alpha virt. eigenvalues --    2.72515   2.74031   2.74649   2.77998   2.79659
 Alpha virt. eigenvalues --    2.81237   2.81245   2.89032   2.90736   2.94217
 Alpha virt. eigenvalues --    2.97463   3.02412   3.04362   3.10789   3.15092
 Alpha virt. eigenvalues --    3.27569   3.35885   3.39504   3.42768   3.47724
 Alpha virt. eigenvalues --    3.51322   3.65187   3.71974   3.77293   3.83581
 Alpha virt. eigenvalues --    3.86435   3.87493   3.98826   4.24304   4.25194
 Alpha virt. eigenvalues --    4.30903   4.44701   4.58461   4.62270   4.88541
 Alpha virt. eigenvalues --    4.91529   5.17906   5.37406   5.93305  23.68301
 Alpha virt. eigenvalues --   23.84602  23.86792  23.94537  35.41048  35.50795
 Alpha virt. eigenvalues --   35.54897  35.63997  49.76587
  Beta  occ. eigenvalues --  -19.30263 -14.43818 -14.42775 -14.38889 -14.37900
  Beta  occ. eigenvalues --  -10.30336 -10.29670 -10.28947 -10.28085  -1.24902
  Beta  occ. eigenvalues --   -1.04798  -0.97733  -0.94580  -0.90822  -0.75472
  Beta  occ. eigenvalues --   -0.71986  -0.65481  -0.60732  -0.59382  -0.55460
  Beta  occ. eigenvalues --   -0.50869  -0.47409  -0.47158  -0.40986  -0.40074
  Beta  occ. eigenvalues --   -0.36675  -0.36249  -0.35602  -0.33935  -0.32119
  Beta virt. eigenvalues --   -0.15366  -0.14104  -0.05845  -0.04490  -0.00238
  Beta virt. eigenvalues --    0.01905   0.03377   0.03409   0.03563   0.04862
  Beta virt. eigenvalues --    0.06438   0.07685   0.07784   0.07883   0.09994
  Beta virt. eigenvalues --    0.10660   0.10905   0.11542   0.11993   0.12903
  Beta virt. eigenvalues --    0.12964   0.15484   0.16491   0.17377   0.18009
  Beta virt. eigenvalues --    0.18241   0.18407   0.18462   0.20363   0.21605
  Beta virt. eigenvalues --    0.22162   0.22569   0.22889   0.23760   0.23761
  Beta virt. eigenvalues --    0.25189   0.25313   0.25671   0.26323   0.27103
  Beta virt. eigenvalues --    0.29151   0.29440   0.31047   0.33200   0.34260
  Beta virt. eigenvalues --    0.35476   0.36241   0.39764   0.43084   0.43478
  Beta virt. eigenvalues --    0.50456   0.50644   0.51877   0.53590   0.55104
  Beta virt. eigenvalues --    0.55185   0.59542   0.60983   0.61507   0.64527
  Beta virt. eigenvalues --    0.69096   0.69614   0.74864   0.75546   0.78162
  Beta virt. eigenvalues --    0.78460   0.81589   0.82156   0.84576   0.85066
  Beta virt. eigenvalues --    0.85755   0.88080   0.89017   0.90304   0.91004
  Beta virt. eigenvalues --    0.92348   0.93612   0.93945   0.96698   1.00076
  Beta virt. eigenvalues --    1.01890   1.03398   1.06902   1.08693   1.12904
  Beta virt. eigenvalues --    1.13457   1.21305   1.21685   1.23813   1.26841
  Beta virt. eigenvalues --    1.27466   1.33956   1.35114   1.40430   1.46495
  Beta virt. eigenvalues --    1.50157   1.54056   1.56765   1.61374   1.65451
  Beta virt. eigenvalues --    1.67563   1.69984   1.72046   1.77881   1.81872
  Beta virt. eigenvalues --    1.85247   1.88160   1.90642   1.95891   1.98059
  Beta virt. eigenvalues --    2.04527   2.08231   2.10917   2.13905   2.22368
  Beta virt. eigenvalues --    2.23742   2.29204   2.29673   2.34558   2.35792
  Beta virt. eigenvalues --    2.43361   2.48694   2.50831   2.58699   2.65188
  Beta virt. eigenvalues --    2.69654   2.72954   2.74135   2.75163   2.78502
  Beta virt. eigenvalues --    2.80355   2.81666   2.81698   2.89517   2.91067
  Beta virt. eigenvalues --    2.94206   2.98185   3.04331   3.04956   3.11105
  Beta virt. eigenvalues --    3.15261   3.28102   3.37121   3.39661   3.42889
  Beta virt. eigenvalues --    3.47864   3.51923   3.65392   3.72445   3.77292
  Beta virt. eigenvalues --    3.83643   3.86340   3.87418   3.99443   4.24603
  Beta virt. eigenvalues --    4.25730   4.31102   4.45157   4.58684   4.62364
  Beta virt. eigenvalues --    4.88474   4.91812   5.18227   5.37430   5.93326
  Beta virt. eigenvalues --   23.69218  23.85202  23.87067  23.94853  35.41071
  Beta virt. eigenvalues --   35.51070  35.55020  35.64001  49.76585
          Condensed to atoms (all electrons):
               1          2          3          4          5          6
     1  O    7.659420  -0.034245   0.031003   0.082980  -0.002771  -0.019519
     2  N   -0.034245   7.556919  -0.379539  -0.268132  -0.001947   0.069456
     3  C    0.031003  -0.379539   8.902681  -1.351671   0.158125  -0.092856
     4  C    0.082980  -0.268132  -1.351671   7.734605   0.308741  -0.325070
     5  N   -0.002771  -0.001947   0.158125   0.308741   6.635843   0.034560
     6  C   -0.019519   0.069456  -0.092856  -0.325070   0.034560   5.755047
     7  N   -0.003163  -0.034941   0.249003  -0.061480   0.087608   0.091054
     8  C   -0.103055   0.491622  -1.894248  -0.215293  -0.090914  -0.061415
     9  N    0.061717  -0.103980   0.041374  -0.084503   0.002049   0.047774
    10  H    0.000036   0.000671  -0.001269   0.001906  -0.096719   0.496983
               7          8          9         10
     1  O   -0.003163  -0.103055   0.061717   0.000036
     2  N   -0.034941   0.491622  -0.103980   0.000671
     3  C    0.249003  -1.894248   0.041374  -0.001269
     4  C   -0.061480  -0.215293  -0.084503   0.001906
     5  N    0.087608  -0.090914   0.002049  -0.096719
     6  C    0.091054  -0.061415   0.047774   0.496983
     7  N    6.732624   0.169395  -0.062905  -0.102034
     8  C    0.169395   8.006245   0.156269   0.012785
     9  N   -0.062905   0.156269   7.092166   0.000413
    10  H   -0.102034   0.012785   0.000413   0.516744
          Atomic-Atomic Spin Densities.
               1          2          3          4          5          6
     1  O    0.008671   0.002705  -0.018651  -0.003382   0.000524  -0.001758
     2  N    0.002705  -0.014441   0.033044  -0.013293   0.000315  -0.004261
     3  C   -0.018651   0.033044   0.058551  -0.043229  -0.009758   0.005772
     4  C   -0.003382  -0.013293  -0.043229   1.045289  -0.160037   0.016125
     5  N    0.000524   0.000315  -0.009758  -0.160037   0.255214  -0.027932
     6  C   -0.001758  -0.004261   0.005772   0.016125  -0.027932   0.075563
     7  N   -0.002742   0.003959   0.009089   0.011926  -0.002167   0.020937
     8  C    0.002253   0.011404   0.015583  -0.072875   0.021703  -0.007488
     9  N    0.004785  -0.004021  -0.002268   0.004688  -0.000265  -0.002615
    10  H    0.000043  -0.000097  -0.000415  -0.000602   0.006745  -0.008512
               7          8          9         10
     1  O   -0.002742   0.002253   0.004785   0.000043
     2  N    0.003959   0.011404  -0.004021  -0.000097
     3  C    0.009089   0.015583  -0.002268  -0.000415
     4  C    0.011926  -0.072875   0.004688  -0.000602
     5  N   -0.002167   0.021703  -0.000265   0.006745
     6  C    0.020937  -0.007488  -0.002615  -0.008512
     7  N   -0.009856  -0.036158   0.003273   0.004465
     8  C   -0.036158   0.063191   0.003376   0.003081
     9  N    0.003273   0.003376  -0.004330  -0.000117
    10  H    0.004465   0.003081  -0.000117  -0.004155
 Mulliken charges and spin densities:
               1          2
     1  O    0.327598  -0.007552
     2  N   -0.295883   0.015315
     3  C    0.337396   0.047717
     4  C    0.177917   0.784611
     5  N   -0.034574   0.084340
     6  C    0.003987   0.065830
     7  N   -0.065161   0.002727
     8  C   -0.471393   0.004069
     9  N   -0.150374   0.002505
    10  H    0.170485   0.000437
 Sum of Mulliken charges =  -0.00000   1.00000
 Mulliken charges and spin densities with hydrogens summed into heavy atoms:
               1          2
     1  O    0.327598  -0.007552
     2  N   -0.295883   0.015315
     3  C    0.337396   0.047717
     4  C    0.177917   0.784611
     5  N   -0.034574   0.084340
     6  C    0.174472   0.066267
     7  N   -0.065161   0.002727
     8  C   -0.471393   0.004069
     9  N   -0.150374   0.002505
 Electronic spatial extent (au):  <R**2>=            848.8612
 Charge=             -0.0000 electrons
 Dipole moment (field-independent basis, Debye):
    X=              1.8329    Y=              0.2810    Z=              0.0000  Tot=              1.8543
 Quadrupole moment (field-independent basis, Debye-Ang):
   XX=            -52.6276   YY=            -57.0523   ZZ=            -48.4510
   XY=             -2.8524   XZ=              0.0000   YZ=             -0.0000
 Traceless Quadrupole moment (field-independent basis, Debye-Ang):
   XX=              0.0827   YY=             -4.3420   ZZ=              4.2593
   XY=             -2.8524   XZ=              0.0000   YZ=             -0.0000
 Octapole moment (field-independent basis, Debye-Ang**2):
  XXX=              4.5173  YYY=              2.5119  ZZZ=              0.0000  XYY=             -0.2249
  XXY=            -14.1502  XXZ=              0.0000  XZZ=             -3.9985  YZZ=             -0.7839
  YYZ=              0.0000  XYZ=              0.0000
 Hexadecapole moment (field-independent basis, Debye-Ang**3):
 XXXX=           -729.4904 YYYY=           -382.7577 ZZZZ=            -47.5039 XXXY=            -42.6199
 XXXZ=              0.0002 YYYX=             -0.8544 YYYZ=             -0.0000 ZZZX=              0.0000
 ZZZY=              0.0000 XXYY=           -197.3457 XXZZ=           -128.9506 YYZZ=            -67.0844
 XXYZ=             -0.0001 YYXZ=              0.0000 ZZXY=             -0.7483
 N-N= 4.016858952124D+02 E-N=-1.846803556263D+03  KE= 4.455723484838D+02
                          Isotropic Fermi Contact Couplings
        Atom                 a.u.       MegaHertz       Gauss      10(-4) cm-1
     1  O(17)              0.02120     -12.85272      -4.58617      -4.28721
     2  N(14)             -0.00591      -1.90819      -0.68089      -0.63650
     3  C(13)              0.06386      71.78699      25.61538      23.94556
     4  C(13)              0.51399     577.82182     206.18120     192.74061
     5  N(14)              0.27788      89.78557      32.03772      29.94924
     6  C(13)              0.04823      54.22367      19.34835      18.08707
     7  N(14)             -0.00082      -0.26656      -0.09512      -0.08892
     8  C(13)              0.00558       6.27164       2.23788       2.09199
     9  N(14)             -0.00138      -0.44731      -0.15961      -0.14921
    10  H(1)              -0.00015      -0.65488      -0.23368      -0.21845
 --------------------------------------------------------
       Center         ----  Spin Dipole Couplings  ----
                      3XX-RR        3YY-RR        3ZZ-RR
 --------------------------------------------------------
     1   Atom        0.034687      0.004030     -0.038717
     2   Atom        0.019914     -0.024855      0.004941
     3   Atom        0.049091      0.047908     -0.096999
     4   Atom       -0.402261      0.733547     -0.331285
     5   Atom        0.054024      0.195734     -0.249759
     6   Atom       -0.066766      0.107040     -0.040273
     7   Atom       -0.006364      0.118063     -0.111699
     8   Atom       -0.032239      0.063532     -0.031293
     9   Atom        0.050562      0.000572     -0.051133
    10   Atom        0.003643      0.004517     -0.008160
 --------------------------------------------------------
                        XY            XZ            YZ
 --------------------------------------------------------
     1   Atom        0.002245      0.000000      0.000000
     2   Atom        0.004014      0.000000     -0.000000
     3   Atom        0.125827     -0.000000     -0.000000
     4   Atom        0.179323     -0.000000     -0.000001
     5   Atom        0.221059     -0.000002     -0.000003
     6   Atom        0.003414     -0.000000      0.000000
     7   Atom        0.036056      0.000000      0.000001
     8   Atom       -0.006070     -0.000000      0.000000
     9   Atom        0.028378      0.000000      0.000000
    10   Atom       -0.009203      0.000000     -0.000000
 --------------------------------------------------------


 ---------------------------------------------------------------------------------
              Anisotropic Spin Dipole Couplings in Principal Axis System
 ---------------------------------------------------------------------------------

       Atom             a.u.   MegaHertz   Gauss  10(-4) cm-1        Axes

              Baa    -0.0387     2.802     1.000     0.934 -0.0000 -0.0000  1.0000
     1 O(17)  Bbb     0.0039    -0.280    -0.100    -0.093 -0.0727  0.9974  0.0000
              Bcc     0.0349    -2.522    -0.900    -0.841  0.9974  0.0727  0.0000
 
              Baa    -0.0252    -0.972    -0.347    -0.324 -0.0886  0.9961  0.0000
     2 N(14)  Bbb     0.0049     0.191     0.068     0.064 -0.0000 -0.0000  1.0000
              Bcc     0.0203     0.782     0.279     0.261  0.9961  0.0886  0.0000
 
              Baa    -0.0970   -13.016    -4.645    -4.342  0.0000 -0.0000  1.0000
     3 C(13)  Bbb    -0.0773   -10.377    -3.703    -3.461 -0.7054  0.7088  0.0000
              Bcc     0.1743    23.393     8.347     7.803  0.7088  0.7054 -0.0000
 
              Baa    -0.4299   -57.689   -20.585   -19.243  0.9883 -0.1523  0.0000
     4 C(13)  Bbb    -0.3313   -44.455   -15.863   -14.829 -0.0000  0.0000  1.0000
              Bcc     0.7612   102.144    36.447    34.072  0.1523  0.9883 -0.0000
 
              Baa    -0.2498    -9.633    -3.437    -3.213  0.0000  0.0000  1.0000
     5 N(14)  Bbb    -0.1073    -4.137    -1.476    -1.380  0.8078 -0.5894  0.0000
              Bcc     0.3570    13.769     4.913     4.593  0.5894  0.8078 -0.0000
 
              Baa    -0.0668    -8.968    -3.200    -2.992  0.9998 -0.0196  0.0000
     6 C(13)  Bbb    -0.0403    -5.404    -1.928    -1.803 -0.0000 -0.0000  1.0000
              Bcc     0.1071    14.373     5.129     4.794  0.0196  0.9998  0.0000
 
              Baa    -0.1117    -4.308    -1.537    -1.437  0.0000 -0.0000  1.0000
     7 N(14)  Bbb    -0.0161    -0.619    -0.221    -0.207  0.9657 -0.2596 -0.0000
              Bcc     0.1278     4.927     1.758     1.644  0.2596  0.9657  0.0000
 
              Baa    -0.0326    -4.378    -1.562    -1.460  0.9980  0.0630  0.0000
     8 C(13)  Bbb    -0.0313    -4.199    -1.498    -1.401 -0.0000 -0.0000  1.0000
              Bcc     0.0639     8.577     3.060     2.861 -0.0630  0.9980  0.0000
 
              Baa    -0.0511    -1.972    -0.704    -0.658 -0.0000 -0.0000  1.0000
     9 N(14)  Bbb    -0.0122    -0.472    -0.169    -0.158 -0.4117  0.9113  0.0000
              Bcc     0.0634     2.445     0.872     0.815  0.9113  0.4117  0.0000
 
              Baa    -0.0082    -4.354    -1.553    -1.452 -0.0000  0.0000  1.0000
    10 H(1)   Bbb    -0.0051    -2.739    -0.977    -0.914  0.7237  0.6901  0.0000
              Bcc     0.0133     7.093     2.531     2.366 -0.6901  0.7237 -0.0000
 

 ---------------------------------------------------------------------------------

 No NMR shielding tensors so no spin-rotation constants.
 Leave Link  601 at Thu Nov  3 04:05:26 2022, MaxMem=  8053063680 cpu:               4.7 elap:               0.2
 (Enter /public3/home/scg5914/software-scg5914/g16/l701.exe)
 ... and contract with generalized density number  0.
 Compute integral first derivatives.
 R6Disp: Adding Grimme-D3(BJ) dispersion energy 1st derivatives to the gradient.
 Leave Link  701 at Thu Nov  3 04:05:26 2022, MaxMem=  8053063680 cpu:               3.0 elap:               0.1
 (Enter /public3/home/scg5914/software-scg5914/g16/l702.exe)
 L702 exits ... SP integral derivatives will be done elsewhere.
 Leave Link  702 at Thu Nov  3 04:05:26 2022, MaxMem=  8053063680 cpu:               0.2 elap:               0.0
 (Enter /public3/home/scg5914/software-scg5914/g16/l703.exe)
 Integral derivatives from FoFJK, PRISM(SPDF).
 Compute integral first derivatives, UseDBF=F ICtDFT=           0.
 Calling FoFJK, ICntrl=      2127 FMM=F ISym2X=0 I1Cent= 0 IOpClX= 1 NMat=1 NMatS=1 NMatT=0.
 FoFJK:  IHMeth= 1 ICntrl=    2127 DoSepK=F KAlg= 0 I1Cent=           0 FoldK=F
 IRaf=         0 NMat=       1 IRICut=       1 DoRegI=T DoRafI=F ISym2E= 0 IDoP0=0 IntGTp=1.
 FoFCou: FMM=F IPFlag=           0 FMFlag=      100000 FMFlg1=         800
         NFxFlg=           0 DoJE=F BraDBF=F KetDBF=F FulRan=T
         wScrn=  0.000000 ICntrl=      2127 IOpCl=  1 I1Cent=           0 NGrid=           0
         NMat0=    1 NMatS0=      1 NMatT0=    0 NMatD0=    1 NMtDS0=    0 NMtDT0=    0
 Symmetry not used in FoFCou.
 Leave Link  703 at Thu Nov  3 04:05:27 2022, MaxMem=  8053063680 cpu:              39.6 elap:               1.3
 (Enter /public3/home/scg5914/software-scg5914/g16/l716.exe)
 Dipole        = 7.21113688D-01 1.10554659D-01 8.60095481D-07
 ***** Axes restored to original set *****
 -------------------------------------------------------------------
 Center     Atomic                   Forces (Hartrees/Bohr)
 Number     Number              X              Y              Z
 -------------------------------------------------------------------
      1        8           0.000917502    0.003410107    0.000009437
      2        7          -0.001049341    0.000409888    0.000011241
      3        6           0.007012008    0.014706974    0.000011869
      4        6           0.012251301   -0.046011476   -0.000353015
      5        7          -0.024289743    0.050399349    0.000487804
      6        6           0.002185029   -0.021515466   -0.000131420
      7        7           0.007234287    0.008806587   -0.000021613
      8        6          -0.007015624   -0.009152614    0.000016744
      9        7           0.003441719   -0.002034210   -0.000042191
     10        1          -0.000687137    0.000980861    0.000011144
 -------------------------------------------------------------------
 Cartesian Forces:  Max     0.050399349 RMS     0.014634218
 Leave Link  716 at Thu Nov  3 04:05:28 2022, MaxMem=  8053063680 cpu:               0.7 elap:               0.0
 (Enter /public3/home/scg5914/software-scg5914/g16/l103.exe)

 GradGradGradGradGradGradGradGradGradGradGradGradGradGradGradGradGradGrad
 Berny optimization.
 FormGI is forming the generalized inverse of G from B-inverse, IUseBI=4.
 Internal  Forces:  Max     0.042943734 RMS     0.007536945
 Search for a local minimum.
 Step number   1 out of a maximum of   55
 All quantities printed in internal units (Hartrees-Bohrs-Radians)
 RMS Force = .75369D-02 SwitMx=.10000D-02 MixMth= 1
 Mixed Optimization -- RFO/linear search
 Second derivative matrix not updated -- first step.
 ITU=  0
     Eigenvalues ---    0.01957   0.02022   0.02116   0.02218   0.02328
     Eigenvalues ---    0.02424   0.02588   0.16000   0.23151   0.25000
     Eigenvalues ---    0.25000   0.25000   0.25000   0.35253   0.37132
     Eigenvalues ---    0.40839   0.46780   0.49464   0.50595   0.51894
     Eigenvalues ---    0.57983   0.61571   0.63465   0.64921
 RFO step:  Lambda=-5.20467194D-03 EMin= 1.95724536D-02
 Linear search not attempted -- first point.
 Iteration  1 RMS(Cart)=  0.01537197 RMS(Int)=  0.00027585
 Iteration  2 RMS(Cart)=  0.00025939 RMS(Int)=  0.00005358
 Iteration  3 RMS(Cart)=  0.00000003 RMS(Int)=  0.00005358
 ITry= 1 IFail=0 DXMaxC= 5.03D-02 DCOld= 1.00D+10 DXMaxT= 3.00D-01 DXLimC= 3.00D+00 Rises=F
 Variable       Old X    -DE/DX   Delta X   Delta X   Delta X     New X
                                 (Linear)    (Quad)   (Total)
    R1        2.57258  -0.00044   0.00000  -0.00127  -0.00127   2.57131
    R2        2.57407   0.00429   0.00000   0.00785   0.00787   2.58194
    R3        2.48922  -0.00028   0.00000  -0.00049  -0.00050   2.48872
    R4        2.69275  -0.00666   0.00000  -0.01753  -0.01757   2.67518
    R5        2.69499   0.00558   0.00000   0.01540   0.01530   2.71029
    R6        2.46221  -0.04294   0.00000  -0.06623  -0.06618   2.39603
    R7        2.61836   0.00692   0.00000   0.01306   0.01315   2.63151
    R8        2.46732  -0.00394   0.00000  -0.00503  -0.00498   2.46234
    R9        2.05267  -0.00119   0.00000  -0.00334  -0.00334   2.04933
   R10        2.56720   0.00138   0.00000   0.00511   0.00507   2.57226
   R11        2.49929  -0.00290   0.00000  -0.00443  -0.00442   2.49487
    A1        1.99032   0.00114   0.00000   0.00417   0.00416   1.99448
    A2        1.81415  -0.00196   0.00000  -0.00768  -0.00772   1.80643
    A3        2.33097   0.00517   0.00000   0.01890   0.01900   2.34997
    A4        1.90754   0.00222   0.00000   0.00969   0.00972   1.91726
    A5        2.04468  -0.00739   0.00000  -0.02859  -0.02871   2.01596
    A6        2.07747   0.00907   0.00000   0.02515   0.02514   2.10260
    A7        2.06765   0.01057   0.00000   0.03190   0.03207   2.09972
    A8        2.24954  -0.01216   0.00000  -0.05155  -0.05143   2.19810
    A9        1.99103   0.00618   0.00000   0.02638   0.02632   2.01735
   A10        2.04262   0.00598   0.00000   0.02517   0.02511   2.06773
   A11        1.97167   0.00226   0.00000   0.02395   0.02394   1.99561
   A12        2.15537  -0.00235   0.00000  -0.00087  -0.00099   2.15438
   A13        1.89651  -0.00210   0.00000  -0.01068  -0.01064   1.88586
   A14        2.23131   0.00445   0.00000   0.01155   0.01164   2.24294
   A15        1.81625   0.00070   0.00000   0.00450   0.00448   1.82074
    D1        0.00000  -0.00000   0.00000  -0.00001  -0.00001  -0.00000
    D2        0.00000  -0.00000   0.00000  -0.00000  -0.00000   0.00000
    D3        3.14159   0.00000   0.00000   0.00000   0.00000  -3.14159
    D4       -0.00001   0.00000   0.00000   0.00001   0.00001   0.00001
    D5        3.14159   0.00000   0.00000   0.00001   0.00001  -3.14159
    D6       -0.00000   0.00000   0.00000   0.00000   0.00000  -0.00000
    D7       -3.14159  -0.00000   0.00000  -0.00000  -0.00000   3.14159
    D8        0.00001  -0.00000   0.00000  -0.00001  -0.00001  -0.00001
    D9       -0.00000   0.00000   0.00000   0.00000   0.00000   0.00000
   D10       -3.14159  -0.00000   0.00000  -0.00001  -0.00001   3.14159
   D11        0.00001  -0.00000   0.00000  -0.00001  -0.00001  -0.00000
   D12       -0.00000   0.00000   0.00000   0.00001   0.00001   0.00000
   D13       -3.14159  -0.00000   0.00000  -0.00001  -0.00001   3.14159
   D14        0.00000  -0.00000   0.00000  -0.00000  -0.00000  -0.00000
   D15        3.14159   0.00000   0.00000   0.00001   0.00001  -3.14159
   D16        0.00000  -0.00000   0.00000  -0.00000  -0.00000   0.00000
   D17        3.14159   0.00000   0.00000   0.00001   0.00001  -3.14159
   D18       -0.00001   0.00000   0.00000   0.00001   0.00001   0.00000
   D19       -3.14159  -0.00000   0.00000  -0.00000  -0.00000   3.14159
         Item               Value     Threshold  Converged?
 Maximum Force            0.042944     0.000450     NO 
 RMS     Force            0.007537     0.000300     NO 
 Maximum Displacement     0.050325     0.001800     NO 
 RMS     Displacement     0.015434     0.001200     NO 
 Predicted change in Energy=-2.637336D-03
 Lowest energy point so far.  Saving SCF results.
 GradGradGradGradGradGradGradGradGradGradGradGradGradGradGradGradGradGrad

 Leave Link  103 at Thu Nov  3 04:05:28 2022, MaxMem=  8053063680 cpu:               0.7 elap:               0.0
 (Enter /public3/home/scg5914/software-scg5914/g16/l202.exe)
                          Input orientation:                          
 ---------------------------------------------------------------------
 Center     Atomic      Atomic             Coordinates (Angstroms)
 Number     Number       Type             X           Y           Z
 ---------------------------------------------------------------------
      1          8           0       -0.049409    1.239277    0.008929
      2          7           0        1.164955    1.853040    0.000821
      3          6           0        2.016916    0.848845   -0.012331
      4          6           0        3.428453    0.741982   -0.026022
      5          7           0        3.986996   -0.396233   -0.037143
      6          6           0        3.217288   -1.556706   -0.036021
      7          7           0        1.915457   -1.610997   -0.024192
      8          6           0        1.303346   -0.395269   -0.012169
      9          7           0        0.011008   -0.125666    0.001263
     10          1           0        3.773485   -2.487617   -0.046046
 ---------------------------------------------------------------------
                    Distance matrix (angstroms):
                    1          2          3          4          5
     1  O    0.000000
     2  N    1.360680   0.000000
     3  C    2.102996   1.316973   0.000000
     4  C    3.513410   2.521625   1.415642   0.000000
     5  N    4.355409   3.608960   2.330676   1.267923   0.000000
     6  C    4.300099   3.979924   2.688518   2.308388   1.392533
     7  N    3.462060   3.544493   2.461962   2.797439   2.401477
     8  C    2.121823   2.252602   1.434225   2.410313   2.683767
     9  N    1.366302   2.290605   2.230140   3.525973   3.985369
    10  H    5.339221   5.064378   3.770762   3.248038   2.102272
                    6          7          8          9         10
     6  C    0.000000
     7  N    1.303016   0.000000
     8  C    2.238901   1.361183   0.000000
     9  N    3.511338   2.415322   1.320228   0.000000
    10  H    1.084459   2.054558   3.237384   4.442666   0.000000
 Stoichiometry    C4HN4O(2)
 Framework group  C1[X(C4HN4O)]
 Deg. of freedom    24
 Full point group                 C1      NOp   1
 RotChk:  IX=2 Diff= 1.69D-02
 Largest Abelian subgroup         C1      NOp   1
 Largest concise Abelian subgroup C1      NOp   1
                         Standard orientation:                         
 ---------------------------------------------------------------------
 Center     Atomic      Atomic             Coordinates (Angstroms)
 Number     Number       Type             X           Y           Z
 ---------------------------------------------------------------------
      1          8           0       -2.236392   -0.060000    0.000001
      2          7           0       -1.563036    1.122388   -0.000002
      3          6           0       -0.298099    0.755848    0.000001
      4          6           0        0.937684    1.446418    0.000000
      5          7           0        2.032036    0.806089    0.000001
      6          6           0        2.031361   -0.586443    0.000001
      7          7           0        0.976053   -1.350758   -0.000001
      8          6           0       -0.205773   -0.675402   -0.000001
      9          7           0       -1.432074   -1.164470    0.000001
     10          1           0        3.009249   -1.055256   -0.000003
 ---------------------------------------------------------------------
 Rotational constants (GHZ):           4.4350707           1.7742374           1.2672697
 Leave Link  202 at Thu Nov  3 04:05:28 2022, MaxMem=  8053063680 cpu:               1.0 elap:               0.0
 (Enter /public3/home/scg5914/software-scg5914/g16/l301.exe)
 Standard basis: 6-311+G(d,p) (5D, 7F)
 Ernie: Thresh=  0.10000D-02 Tol=  0.10000D-05 Strict=F.
 There are   213 symmetry adapted cartesian basis functions of A   symmetry.
 There are   204 symmetry adapted basis functions of A   symmetry.
   204 basis functions,   332 primitive gaussians,   213 cartesian basis functions
    31 alpha electrons       30 beta electrons
       nuclear repulsion energy       402.2575398718 Hartrees.
 IExCor=  402 DFT=T Ex+Corr=B3LYP ExCW=0 ScaHFX=  0.200000
 ScaDFX=  0.800000  0.720000  1.000000  0.810000 ScalE2=  1.000000  1.000000
 IRadAn=      5 IRanWt=     -1 IRanGd=            0 ICorTp=0 IEmpDi=141
 NAtoms=   10 NActive=   10 NUniq=   10 SFac= 1.00D+00 NAtFMM=   60 NAOKFM=F Big=F
 Integral buffers will be    131072 words long.
 Raffenetti 2 integral format.
 Two-electron integral symmetry is turned on.
 R6Disp:  Grimme-D3(BJ) Dispersion energy=       -0.0196901372 Hartrees.
 Nuclear repulsion after empirical dispersion term =      402.2378497346 Hartrees.
 Leave Link  301 at Thu Nov  3 04:05:28 2022, MaxMem=  8053063680 cpu:               0.6 elap:               0.0
 (Enter /public3/home/scg5914/software-scg5914/g16/l302.exe)
 NPDir=0 NMtPBC=     1 NCelOv=     1 NCel=       1 NClECP=     1 NCelD=      1
         NCelK=      1 NCelE2=     1 NClLst=     1 CellRange=     0.0.
 One-electron integrals computed using PRISM.
 One-electron integral symmetry used in STVInt
 NBasis=   204 RedAO= T EigKep=  9.15D-06  NBF=   204
 NBsUse=   204 1.00D-06 EigRej= -1.00D+00 NBFU=   204
 Precomputing XC quadrature grid using
 IXCGrd= 4 IRadAn=           5 IRanWt=          -1 IRanGd=           0 AccXCQ= 0.00D+00.
 Generated NRdTot=       0 NPtTot=           0 NUsed=           0 NTot=          32
 NSgBfM=   213   213   213   213   213 MxSgAt=    10 MxSgA2=    10.
 Leave Link  302 at Thu Nov  3 04:05:28 2022, MaxMem=  8053063680 cpu:               3.9 elap:               0.1
 (Enter /public3/home/scg5914/software-scg5914/g16/l303.exe)
 DipDrv:  MaxL=1.
 Leave Link  303 at Thu Nov  3 04:05:28 2022, MaxMem=  8053063680 cpu:               0.4 elap:               0.0
 (Enter /public3/home/scg5914/software-scg5914/g16/l401.exe)
 Initial guess from the checkpoint file:  "dsgdb9nsd_130495-1.chk"
 B after Tr=     0.000000    0.000000    0.000000
         Rot=    0.999984    0.000000    0.000000   -0.005708 Ang=  -0.65 deg.
 Guess basis will be translated and rotated to current coordinates.
 JPrj=2 DoOrth=T DoCkMO=T.
 Initial guess <Sx>= 0.0000 <Sy>= 0.0000 <Sz>= 0.5000 <S**2>= 0.7567 S= 0.5033
 Generating alternative initial guess.
 ExpMin= 4.38D-02 ExpMax= 8.59D+03 ExpMxC= 1.30D+03 IAcc=3 IRadAn=         5 AccDes= 0.00D+00
 Harris functional with IExCor=  402 and IRadAn=       5 diagonalized for initial guess.
 HarFok:  IExCor=  402 AccDes= 0.00D+00 IRadAn=         5 IDoV= 1 UseB2=F ITyADJ=14
 ICtDFT=  3500011 ScaDFX=  1.000000  1.000000  1.000000  1.000000
 FoFCou: FMM=F IPFlag=           0 FMFlag=      100000 FMFlg1=           0
         NFxFlg=           0 DoJE=T BraDBF=F KetDBF=T FulRan=T
         wScrn=  0.000000 ICntrl=       500 IOpCl=  0 I1Cent=   200000004 NGrid=           0
         NMat0=    1 NMatS0=      1 NMatT0=    0 NMatD0=    1 NMtDS0=    0 NMtDT0=    0
 Petite list used in FoFCou.
 Harris En= -447.124895512861    
 Leave Link  401 at Thu Nov  3 04:05:28 2022, MaxMem=  8053063680 cpu:              12.5 elap:               0.4
 (Enter /public3/home/scg5914/software-scg5914/g16/l502.exe)
 Keep R1 and R2 ints in memory in canonical form, NReq=470612010.
 FoFCou: FMM=F IPFlag=           0 FMFlag=           0 FMFlg1=           0
         NFxFlg=           0 DoJE=F BraDBF=F KetDBF=F FulRan=T
         wScrn=  0.000000 ICntrl=       600 IOpCl=  0 I1Cent=           0 NGrid=           0
         NMat0=    1 NMatS0=  20910 NMatT0=    0 NMatD0=    1 NMtDS0=    0 NMtDT0=    0
 Symmetry not used in FoFCou.
 Two-electron integral symmetry not used.
 UHF open shell SCF:
 Using DIIS extrapolation, IDIIS=  1040.
 NGot=  8053063680 LenX=  7615714890 LenY=  7615669080
 Requested convergence on RMS density matrix=1.00D-08 within 128 cycles.
 Requested convergence on MAX density matrix=1.00D-06.
 Requested convergence on             energy=1.00D-06.
 No special actions if energy rises.

 Cycle   1  Pass 1  IDiag  1:
 E= -447.195002639701    
 DIIS: error= 1.85D-03 at cycle   1 NSaved=   1.
 NSaved= 1 IEnMin= 1 EnMin= -447.195002639701     IErMin= 1 ErrMin= 1.85D-03
 ErrMax= 1.85D-03  0.00D+00 EMaxC= 1.00D-01 BMatC= 5.22D-03 BMatP= 5.22D-03
 IDIUse=3 WtCom= 9.81D-01 WtEn= 1.85D-02
 Coeff-Com:  0.100D+01
 Coeff-En:   0.100D+01
 Coeff:      0.100D+01
 Gap=     0.449 Goal=   None    Shift=    0.000
 Gap=     0.493 Goal=   None    Shift=    0.000
 GapD=    0.449 DampG=2.000 DampE=1.000 DampFc=2.0000 IDamp=-1.
 RMSDP=8.86D-04 MaxDP=4.34D-02              OVMax= 1.87D-02

 Cycle   2  Pass 1  IDiag  1:
 E= -447.196408824817     Delta-E=       -0.001406185115 Rises=F Damp=F
 DIIS: error= 1.45D-03 at cycle   2 NSaved=   2.
 NSaved= 2 IEnMin= 2 EnMin= -447.196408824817     IErMin= 2 ErrMin= 1.45D-03
 ErrMax= 1.45D-03  0.00D+00 EMaxC= 1.00D-01 BMatC= 8.96D-04 BMatP= 5.22D-03
 IDIUse=3 WtCom= 9.85D-01 WtEn= 1.45D-02
 Coeff-Com:  0.182D+00 0.818D+00
 Coeff-En:   0.000D+00 0.100D+01
 Coeff:      0.180D+00 0.820D+00
 Gap=     0.123 Goal=   None    Shift=    0.000
 Gap=     0.185 Goal=   None    Shift=    0.000
 RMSDP=2.70D-04 MaxDP=1.54D-02 DE=-1.41D-03 OVMax= 1.38D-02

 Cycle   3  Pass 1  IDiag  1:
 E= -447.196220978676     Delta-E=        0.000187846141 Rises=F Damp=F
 DIIS: error= 2.26D-03 at cycle   3 NSaved=   3.
 NSaved= 3 IEnMin= 2 EnMin= -447.196408824817     IErMin= 2 ErrMin= 1.45D-03
 ErrMax= 2.26D-03  0.00D+00 EMaxC= 1.00D-01 BMatC= 1.53D-03 BMatP= 8.96D-04
 IDIUse=3 WtCom= 1.74D-01 WtEn= 8.26D-01
 Coeff-Com: -0.479D-03 0.571D+00 0.430D+00
 Coeff-En:   0.000D+00 0.623D+00 0.377D+00
 Coeff:     -0.833D-04 0.614D+00 0.387D+00
 Gap=     0.125 Goal=   None    Shift=    0.000
 Gap=     0.181 Goal=   None    Shift=    0.000
 RMSDP=1.46D-04 MaxDP=6.91D-03 DE= 1.88D-04 OVMax= 9.98D-03

 Cycle   4  Pass 1  IDiag  1:
 E= -447.196615636477     Delta-E=       -0.000394657801 Rises=F Damp=F
 DIIS: error= 5.24D-04 at cycle   4 NSaved=   4.
 NSaved= 4 IEnMin= 4 EnMin= -447.196615636477     IErMin= 4 ErrMin= 5.24D-04
 ErrMax= 5.24D-04  0.00D+00 EMaxC= 1.00D-01 BMatC= 1.15D-04 BMatP= 8.96D-04
 IDIUse=3 WtCom= 9.95D-01 WtEn= 5.24D-03
 Coeff-Com: -0.153D-01 0.320D+00 0.254D+00 0.441D+00
 Coeff-En:   0.000D+00 0.000D+00 0.000D+00 0.100D+01
 Coeff:     -0.152D-01 0.319D+00 0.253D+00 0.444D+00
 Gap=     0.125 Goal=   None    Shift=    0.000
 Gap=     0.181 Goal=   None    Shift=    0.000
 RMSDP=4.21D-05 MaxDP=2.59D-03 DE=-3.95D-04 OVMax= 2.68D-03

 Cycle   5  Pass 1  IDiag  1:
 E= -447.196637894855     Delta-E=       -0.000022258378 Rises=F Damp=F
 DIIS: error= 2.47D-04 at cycle   5 NSaved=   5.
 NSaved= 5 IEnMin= 5 EnMin= -447.196637894855     IErMin= 5 ErrMin= 2.47D-04
 ErrMax= 2.47D-04  0.00D+00 EMaxC= 1.00D-01 BMatC= 1.77D-05 BMatP= 1.15D-04
 IDIUse=3 WtCom= 9.98D-01 WtEn= 2.47D-03
 Coeff-Com: -0.841D-02 0.110D+00 0.106D+00 0.278D+00 0.515D+00
 Coeff-En:   0.000D+00 0.000D+00 0.000D+00 0.939D-01 0.906D+00
 Coeff:     -0.838D-02 0.109D+00 0.106D+00 0.277D+00 0.516D+00
 Gap=     0.125 Goal=   None    Shift=    0.000
 Gap=     0.181 Goal=   None    Shift=    0.000
 RMSDP=1.82D-05 MaxDP=6.09D-04 DE=-2.23D-05 OVMax= 9.96D-04

 Cycle   6  Pass 1  IDiag  1:
 E= -447.196641849196     Delta-E=       -0.000003954341 Rises=F Damp=F
 DIIS: error= 9.70D-05 at cycle   6 NSaved=   6.
 NSaved= 6 IEnMin= 6 EnMin= -447.196641849196     IErMin= 6 ErrMin= 9.70D-05
 ErrMax= 9.70D-05  0.00D+00 EMaxC= 1.00D-01 BMatC= 4.03D-06 BMatP= 1.77D-05
 IDIUse=1 WtCom= 1.00D+00 WtEn= 0.00D+00
 Coeff-Com: -0.221D-02 0.541D-02 0.228D-01 0.949D-01 0.346D+00 0.533D+00
 Coeff:     -0.221D-02 0.541D-02 0.228D-01 0.949D-01 0.346D+00 0.533D+00
 Gap=     0.125 Goal=   None    Shift=    0.000
 Gap=     0.181 Goal=   None    Shift=    0.000
 RMSDP=9.46D-06 MaxDP=4.47D-04 DE=-3.95D-06 OVMax= 5.93D-04

 Cycle   7  Pass 1  IDiag  1:
 E= -447.196642995842     Delta-E=       -0.000001146646 Rises=F Damp=F
 DIIS: error= 4.47D-05 at cycle   7 NSaved=   7.
 NSaved= 7 IEnMin= 7 EnMin= -447.196642995842     IErMin= 7 ErrMin= 4.47D-05
 ErrMax= 4.47D-05  0.00D+00 EMaxC= 1.00D-01 BMatC= 6.11D-07 BMatP= 4.03D-06
 IDIUse=1 WtCom= 1.00D+00 WtEn= 0.00D+00
 Coeff-Com:  0.157D-02-0.374D-01-0.247D-01-0.421D-01 0.145D-01 0.286D+00
 Coeff-Com:  0.803D+00
 Coeff:      0.157D-02-0.374D-01-0.247D-01-0.421D-01 0.145D-01 0.286D+00
 Coeff:      0.803D+00
 Gap=     0.125 Goal=   None    Shift=    0.000
 Gap=     0.181 Goal=   None    Shift=    0.000
 RMSDP=9.38D-06 MaxDP=7.70D-04 DE=-1.15D-06 OVMax= 4.84D-04

 Cycle   8  Pass 1  IDiag  1:
 E= -447.196643379782     Delta-E=       -0.000000383940 Rises=F Damp=F
 DIIS: error= 2.09D-05 at cycle   8 NSaved=   8.
 NSaved= 8 IEnMin= 8 EnMin= -447.196643379782     IErMin= 8 ErrMin= 2.09D-05
 ErrMax= 2.09D-05  0.00D+00 EMaxC= 1.00D-01 BMatC= 1.29D-07 BMatP= 6.11D-07
 IDIUse=1 WtCom= 1.00D+00 WtEn= 0.00D+00
 Coeff-Com:  0.102D-02-0.166D-01-0.158D-01-0.373D-01-0.721D-01-0.138D-03
 Coeff-Com:  0.358D+00 0.783D+00
 Coeff:      0.102D-02-0.166D-01-0.158D-01-0.373D-01-0.721D-01-0.138D-03
 Coeff:      0.358D+00 0.783D+00
 Gap=     0.125 Goal=   None    Shift=    0.000
 Gap=     0.181 Goal=   None    Shift=    0.000
 RMSDP=3.80D-06 MaxDP=2.54D-04 DE=-3.84D-07 OVMax= 2.62D-04

 Cycle   9  Pass 1  IDiag  1:
 E= -447.196643471954     Delta-E=       -0.000000092172 Rises=F Damp=F
 DIIS: error= 1.94D-05 at cycle   9 NSaved=   9.
 NSaved= 9 IEnMin= 9 EnMin= -447.196643471954     IErMin= 9 ErrMin= 1.94D-05
 ErrMax= 1.94D-05  0.00D+00 EMaxC= 1.00D-01 BMatC= 1.11D-07 BMatP= 1.29D-07
 IDIUse=1 WtCom= 1.00D+00 WtEn= 0.00D+00
 Coeff-Com:  0.453D-03-0.357D-02-0.587D-02-0.173D-01-0.550D-01-0.603D-01
 Coeff-Com:  0.915D-01 0.600D+00 0.450D+00
 Coeff:      0.453D-03-0.357D-02-0.587D-02-0.173D-01-0.550D-01-0.603D-01
 Coeff:      0.915D-01 0.600D+00 0.450D+00
 Gap=     0.125 Goal=   None    Shift=    0.000
 Gap=     0.181 Goal=   None    Shift=    0.000
 RMSDP=1.39D-06 MaxDP=4.66D-05 DE=-9.22D-08 OVMax= 1.15D-04

 Cycle  10  Pass 1  IDiag  1:
 E= -447.196643515851     Delta-E=       -0.000000043897 Rises=F Damp=F
 DIIS: error= 7.58D-06 at cycle  10 NSaved=  10.
 NSaved=10 IEnMin=10 EnMin= -447.196643515851     IErMin=10 ErrMin= 7.58D-06
 ErrMax= 7.58D-06  0.00D+00 EMaxC= 1.00D-01 BMatC= 1.55D-08 BMatP= 1.11D-07
 IDIUse=1 WtCom= 1.00D+00 WtEn= 0.00D+00
 Coeff-Com: -0.298D-03 0.700D-02 0.501D-02 0.807D-02-0.124D-02-0.449D-01
 Coeff-Com: -0.136D+00-0.219D-01 0.200D+00 0.985D+00
 Coeff:     -0.298D-03 0.700D-02 0.501D-02 0.807D-02-0.124D-02-0.449D-01
 Coeff:     -0.136D+00-0.219D-01 0.200D+00 0.985D+00
 Gap=     0.125 Goal=   None    Shift=    0.000
 Gap=     0.181 Goal=   None    Shift=    0.000
 RMSDP=1.53D-06 MaxDP=5.17D-05 DE=-4.39D-08 OVMax= 1.85D-04

 Cycle  11  Pass 1  IDiag  1:
 E= -447.196643540850     Delta-E=       -0.000000024999 Rises=F Damp=F
 DIIS: error= 4.70D-06 at cycle  11 NSaved=  11.
 NSaved=11 IEnMin=11 EnMin= -447.196643540850     IErMin=11 ErrMin= 4.70D-06
 ErrMax= 4.70D-06  0.00D+00 EMaxC= 1.00D-01 BMatC= 5.97D-09 BMatP= 1.55D-08
 IDIUse=1 WtCom= 1.00D+00 WtEn= 0.00D+00
 Coeff-Com: -0.257D-03 0.416D-02 0.412D-02 0.932D-02 0.181D-01 0.209D-02
 Coeff-Com: -0.815D-01-0.188D+00-0.583D-01 0.446D+00 0.844D+00
 Coeff:     -0.257D-03 0.416D-02 0.412D-02 0.932D-02 0.181D-01 0.209D-02
 Coeff:     -0.815D-01-0.188D+00-0.583D-01 0.446D+00 0.844D+00
 Gap=     0.125 Goal=   None    Shift=    0.000
 Gap=     0.181 Goal=   None    Shift=    0.000
 RMSDP=9.34D-07 MaxDP=4.31D-05 DE=-2.50D-08 OVMax= 1.01D-04

 Cycle  12  Pass 1  IDiag  1:
 E= -447.196643549370     Delta-E=       -0.000000008520 Rises=F Damp=F
 DIIS: error= 3.06D-06 at cycle  12 NSaved=  12.
 NSaved=12 IEnMin=12 EnMin= -447.196643549370     IErMin=12 ErrMin= 3.06D-06
 ErrMax= 3.06D-06  0.00D+00 EMaxC= 1.00D-01 BMatC= 1.94D-09 BMatP= 5.97D-09
 IDIUse=1 WtCom= 1.00D+00 WtEn= 0.00D+00
[...]
 198. BD*(   1) N   5 - C   6        /101. RY*(   2) N   5                    0.27    0.63    0.090
 198. BD*(   1) N   5 - C   6        /102. RY*(   3) N   5                    0.33    0.90    0.119
 198. BD*(   1) N   5 - C   6        /117. RY*(   1) C   6                    0.80    0.47    0.124
 198. BD*(   1) N   5 - C   6        /120. RY*(   4) C   6                    0.29    0.89    0.110
 198. BD*(   1) N   5 - C   6        /131. RY*(  15) C   6                    0.38    0.02    0.020
 198. BD*(   1) N   5 - C   6        /194. BD*(   1) C   3 - C   4            1.24    0.05    0.050
 198. BD*(   1) N   5 - C   6        /196. BD*(   1) C   4 - N   5            0.37    0.26    0.064
 198. BD*(   1) N   5 - C   6        /199. BD*(   1) C   6 - N   7            0.37    0.16    0.047
 198. BD*(   1) N   5 - C   6        /202. BD*(   1) N   7 - C   8            1.73    0.06    0.060
 200. BD*(   2) C   6 - N   7        /122. RY*(   6) C   6                    0.94    0.76    0.108
 200. BD*(   2) C   6 - N   7        /140. RY*(   7) N   7                    0.28    1.65    0.087
 200. BD*(   2) C   6 - N   7        /197. BD*(   2) C   4 - N   5           10.41    0.05    0.067
 204. BD*(   2) C   8 - N   9        /154. RY*(   4) C   8                    0.40    1.53    0.074
 204. BD*(   2) C   8 - N   9        /159. RY*(   9) C   8                    0.26    0.60    0.038
 204. BD*(   2) C   8 - N   9        /164. RY*(  14) C   8                    0.78    0.67    0.069
 204. BD*(   2) C   8 - N   9        /172. RY*(   5) N   9                    0.53    0.89    0.066
 204. BD*(   2) C   8 - N   9        /200. BD*(   2) C   6 - N   7           63.51    0.01    0.068


 Natural Bond Orbitals (Summary):

                                                            Principal Delocalizations
           NBO                        Occupancy    Energy   (geminal,vicinal,remote)
 ====================================================================================
 Molecular unit  1  (C4HN4O)
     1. BD (   1) O   1 - N   2          0.99229    -0.93939  194(v),67(v),169(v),202(r)
                                                    191(g)
     2. BD (   1) O   1 - N   9          0.99215    -0.93116  202(v),50(v),153(v),194(r)
                                                    190(g)
     3. BD (   1) N   2 - C   3          0.99471    -0.94417  202(v),194(g),195(g),28(v)
                                                    190(g)
     4. BD (   2) N   2 - C   3          0.90759    -0.38826  204(v),197(v),193(g),34(v)
                                                    88(v)
     5. BD (   1) C   3 - C   4          0.99173    -0.76611  192(g),100(v),28(g),190(v)
                                                    203(v),195(g),152(v),101(v)
                                                    196(g)
     6. BD (   1) C   3 - C   8          0.97092    -0.74094  28(v),194(g),190(v),191(v)
                                                    202(g),134(v),49(v),192(g)
                                                    168(v),135(v),203(g),84(v)
                                                    169(v)
     7. BD (   1) C   4 - N   5          0.99546    -0.97279  192(v),117(v),198(g),120(v)
                                                    118(v),201(v),68(v),67(v)
     8. BD (   2) C   4 - N   5          0.90843    -0.38032  200(v),193(v),119(v),122(v)
     9. BD (   1) N   5 - C   6          0.95313    -0.81407  28(v),83(v),196(g),198(g)
                                                    135(v)
    10. BD (   1) C   6 - N   7          0.99170    -0.92770  203(v),153(v),151(v),202(g)
                                                    101(v),198(g)
    11. BD (   2) C   6 - N   7          0.92471    -0.37978  204(v),197(v),154(v),103(v)
    12. BD (   1) C   6 - H  10          0.99056    -0.59095  202(v),196(v),134(v),100(v)
                                                    199(g)
    13. BD (   1) N   7 - C   8          0.99058    -0.87668  201(v),203(g),117(v),195(g)
                                                    118(v),191(v),199(g),192(v)
                                                    120(v)
    14. BD (   1) C   8 - N   9          0.99203    -0.92906  194(v),202(g),195(g),199(v)
                                                    191(g),66(v)
    15. BD (   2) C   8 - N   9          0.90390    -0.38393  193(v),200(v),137(v),36(v)
                                                    204(g)
    16. CR (   1) O   1                  0.99990   -19.12353  49(v),168(v)
    17. CR (   1) N   2                  0.99968   -14.26339  66(v),190(g),194(v),71(v)
    18. CR (   1) C   3                  0.99944   -10.14625  28(v),83(v),153(v),151(v)
                                                    50(v),202(v),195(g)
    19. CR (   1) C   4                  0.99877   -10.15451  28(g),192(v),198(v),101(v)
                                                    67(v)
    20. CR (   1) N   5                  0.99943   -14.20700  83(v),117(v),84(v),28(v)
                                                    194(v)
    21. CR (   1) C   6                  0.99964   -10.18107  202(v),196(v),136(v)
    22. CR (   1) N   7                  0.99965   -14.18794  117(v),152(v),120(v),203(v)
                                                    156(v),198(v),195(v)
    23. CR (   1) C   8                  0.99952   -10.16642  67(v),199(v),194(v),169(v)
                                                    135(v),68(v),195(g)
    24. CR (   1) N   9                  0.99968   -14.25592  151(v),191(g),202(v),152(v)
    25. LP (   1) O   1                  0.99065    -0.72446  192(v),203(v),49(v),168(v)
    26. LP (   2) O   1                  0.82675    -0.40562  193(v),204(v),53(v),172(v)
                                                    170(v)
    27. LP (   1) N   2                  0.97147    -0.51093  191(v),66(v),195(v),32(v)
    28. LP*(   1) C   4                  0.24709    -0.11536  194(g),198(v),84(g),195(v)
                                                    192(v),196(g),86(g),67(v)
                                                    101(v),68(v),107(v)
    29. LP (   1) N   5                  0.81089    -0.39018  28(v),199(v),194(v),198(g)
                                                    201(v),83(v),84(v),118(v)
                                                    196(g),107(g),101(g),95(v)
                                                    117(v)
    30. LP (   1) N   7                  0.92583    -0.40816  198(v),195(v),201(v),117(v)
                                                    152(v),203(v),118(v),151(v)
                                                    149(g)
    31. LP (   1) N   9                  0.96758    -0.50767  190(v),195(v),151(v),152(v)
                                                    32(v)
    32. RY*(   1) O   1                  0.00149     1.43806   
    33. RY*(   2) O   1                  0.00100     0.92408   
    34. RY*(   3) O   1                  0.00049     0.84295   
    35. RY*(   4) O   1                  0.00043     1.49887   
    36. RY*(   5) O   1                  0.00036     2.76891   
    37. RY*(   6) O   1                  0.00023     2.12315   
    38. RY*(   7) O   1                  0.00007     1.21275   
    39. RY*(   8) O   1                  0.00001     1.47044   
    40. RY*(   9) O   1                  0.00000     4.75544   
    41. RY*(  10) O   1                  0.00001     2.50501   
    42. RY*(  11) O   1                  0.00000     0.79958   
    43. RY*(  12) O   1                  0.00000     4.84572   
    44. RY*(  13) O   1                  0.00000    49.38159   
    45. RY*(  14) O   1                  0.00000     2.42994   
    46. RY*(  15) O   1                  0.00000     4.34093   
    47. RY*(  16) O   1                  0.00001     2.30178   
    48. RY*(  17) O   1                  0.00000     2.93446   
    49. RY*(   1) N   2                  0.00185     0.89281   
    50. RY*(   2) N   2                  0.00091     1.17137   
    51. RY*(   3) N   2                  0.00074     1.23925   
    52. RY*(   4) N   2                  0.00059     0.95740   
    53. RY*(   5) N   2                  0.00039     1.23483   
    54. RY*(   6) N   2                  0.00028     1.18666   
    55. RY*(   7) N   2                  0.00007     1.42053   
    56. RY*(   8) N   2                  0.00004     0.92660   
    57. RY*(   9) N   2                  0.00001     3.85428   
    58. RY*(  10) N   2                  0.00000    35.14026   
    59. RY*(  11) N   2                  0.00001     0.82572   
    60. RY*(  12) N   2                  0.00000     3.66022   
    61. RY*(  13) N   2                  0.00001     2.23075   
    62. RY*(  14) N   2                  0.00001     3.76843   
    63. RY*(  15) N   2                  0.00001     2.00304   
    64. RY*(  16) N   2                  0.00001     2.13471   
    65. RY*(  17) N   2                  0.00001     2.34552   
    66. RY*(   1) C   3                  0.00397     0.89960   
    67. RY*(   2) C   3                  0.00201     1.49957   
    68. RY*(   3) C   3                  0.00161     1.05481   
    69. RY*(   4) C   3                  0.00083     1.52303   
    70. RY*(   5) C   3                  0.00032     0.79408   
    71. RY*(   6) C   3                  0.00029     1.33970   
    72. RY*(   7) C   3                  0.00017     1.51965   
    73. RY*(   8) C   3                  0.00012     1.70634   
    74. RY*(   9) C   3                  0.00006     3.54122   
    75. RY*(  10) C   3                  0.00006     1.13675   
    76. RY*(  11) C   3                  0.00003     0.56078   
    77. RY*(  12) C   3                  0.00002     4.29928   
    78. RY*(  13) C   3                  0.00001     2.95643   
    79. RY*(  14) C   3                  0.00000    18.46718   
    80. RY*(  15) C   3                  0.00000     2.45712   
    81. RY*(  16) C   3                  0.00000     0.53295   
    82. RY*(  17) C   3                  0.00001     1.96652   
    83. RY*(   1) C   4                  0.00199     1.10538   
    84. RY*(   2) C   4                  0.00091     0.58420   
    85. RY*(   3) C   4                  0.00042     1.57578   
    86. RY*(   4) C   4                  0.00033     1.44872   
    87. RY*(   5) C   4                  0.00026     0.91093   
    88. RY*(   6) C   4                  0.00015     0.58635   
    89. RY*(   7) C   4                  0.00010     0.74940   
    90. RY*(   8) C   4                  0.00003     4.21740   
    91. RY*(   9) C   4                  0.00001     4.01969   
    92. RY*(  10) C   4                  0.00002     1.36238   
    93. RY*(  11) C   4                  0.00002     1.41457   
    94. RY*(  12) C   4                  0.00002     1.87363   
    95. RY*(  13) C   4                  0.00000     3.08181   
    96. RY*(  14) C   4                  0.00000    17.52226   
    97. RY*(  15) C   4                  0.00000     0.31322   
    98. RY*(  16) C   4                  0.00000     2.59177   
    99. RY*(  17) C   4                  0.00000     1.68144   
   100. RY*(   1) N   5                  0.00178     0.68047   
   101. RY*(   2) N   5                  0.00077     1.00185   
   102. RY*(   3) N   5                  0.00031     1.27085   
   103. RY*(   4) N   5                  0.00026     0.79809   
   104. RY*(   5) N   5                  0.00010     1.89564   
   105. RY*(   6) N   5                  0.00007     1.19678   
   106. RY*(   7) N   5                  0.00008     1.90068   
   107. RY*(   8) N   5                  0.00004     2.08148   
   108. RY*(   9) N   5                  0.00000     3.36182   
   109. RY*(  10) N   5                  0.00000     4.05324   
   110. RY*(  11) N   5                  0.00000     0.86453   
   111. RY*(  12) N   5                  0.00000     3.68007   
   112. RY*(  13) N   5                  0.00001     2.35472   
   113. RY*(  14) N   5                  0.00000     1.93236   
   114. RY*(  15) N   5                  0.00000     1.47558   
   115. RY*(  16) N   5                  0.00000    35.06954   
   116. RY*(  17) N   5                  0.00000     2.08747   
   117. RY*(   1) C   6                  0.00558     0.83978   
   118. RY*(   2) C   6                  0.00288     1.19269   
   119. RY*(   3) C   6                  0.00089     1.52002   
   120. RY*(   4) C   6                  0.00084     1.26454   
   121. RY*(   5) C   6                  0.00071     1.82752   
   122. RY*(   6) C   6                  0.00035     0.71765   
   123. RY*(   7) C   6                  0.00023     0.68828   
   124. RY*(   8) C   6                  0.00006     0.75635   
   125. RY*(   9) C   6                  0.00002     2.29204   
   126. RY*(  10) C   6                  0.00000     2.85345   
   127. RY*(  11) C   6                  0.00000     0.18325   
   128. RY*(  12) C   6                  0.00000     2.63386   
   129. RY*(  13) C   6                  0.00000    22.64464   
   130. RY*(  14) C   6                  0.00001     1.29404   
   131. RY*(  15) C   6                  0.00000     0.39267   
   132. RY*(  16) C   6                  0.00000     2.18893   
   133. RY*(  17) C   6                  0.00000     1.90703   
   134. RY*(   1) N   7                  0.00201     0.60821   
   135. RY*(   2) N   7                  0.00078     1.31586   
   136. RY*(   3) N   7                  0.00047     1.15738   
   137. RY*(   4) N   7                  0.00035     0.97462   
   138. RY*(   5) N   7                  0.00014     1.48462   
   139. RY*(   6) N   7                  0.00012     1.32494   
   140. RY*(   7) N   7                  0.00008     1.60473   
   141. RY*(   8) N   7                  0.00003     2.90869   
   142. RY*(   9) N   7                  0.00003     1.23558   
   143. RY*(  10) N   7                  0.00000    35.09434   
   144. RY*(  11) N   7                  0.00001     0.75798   
   145. RY*(  12) N   7                  0.00000     3.79543   
   146. RY*(  13) N   7                  0.00001     3.84394   
   147. RY*(  14) N   7                  0.00000     3.64283   
   148. RY*(  15) N   7                  0.00001     2.09672   
   149. RY*(  16) N   7                  0.00001     2.25867   
   150. RY*(  17) N   7                  0.00001     2.27515   
   151. RY*(   1) C   8                  0.00456     0.94800   
   152. RY*(   2) C   8                  0.00296     1.37430   
   153. RY*(   3) C   8                  0.00197     1.38444   
   154. RY*(   4) C   8                  0.00162     1.46837   
   155. RY*(   5) C   8                  0.00055     0.64855   
   156. RY*(   6) C   8                  0.00039     1.33648   
   157. RY*(   7) C   8                  0.00032     1.33401   
   158. RY*(   8) C   8                  0.00013     1.28637   
   159. RY*(   9) C   8                  0.00007     0.54397   
   160. RY*(  10) C   8                  0.00007     1.62976   
   161. RY*(  11) C   8                  0.00005     3.51019   
   162. RY*(  12) C   8                  0.00003     1.75055   
   163. RY*(  13) C   8                  0.00001     3.93529   
   164. RY*(  14) C   8                  0.00000     0.61119   
   165. RY*(  15) C   8                  0.00000    19.50079   
   166. RY*(  16) C   8                  0.00000     2.56327   
   167. RY*(  17) C   8                  0.00000     1.85457   
   168. RY*(   1) N   9                  0.00185     0.89258   
   169. RY*(   2) N   9                  0.00093     1.15843   
   170. RY*(   3) N   9                  0.00056     1.64361   
   171. RY*(   4) N   9                  0.00055     0.75245   
   172. RY*(   5) N   9                  0.00038     0.83489   
   173. RY*(   6) N   9                  0.00027     1.38648   
   174. RY*(   7) N   9                  0.00012     0.87011   
   175. RY*(   8) N   9                  0.00005     1.31701   
   176. RY*(   9) N   9                  0.00001     3.89122   
   177. RY*(  10) N   9                  0.00001     3.55606   
   178. RY*(  11) N   9                  0.00000     0.80529   
   179. RY*(  12) N   9                  0.00001     2.09178   
   180. RY*(  13) N   9                  0.00001     2.38723   
   181. RY*(  14) N   9                  0.00000    34.70182   
   182. RY*(  15) N   9                  0.00000     3.60322   
   183. RY*(  16) N   9                  0.00000     2.82006   
   184. RY*(  17) N   9                  0.00001     2.28580   
   185. RY*(   1) H  10                  0.00018     1.48553   
   186. RY*(   2) H  10                  0.00005     1.80836   
   187. RY*(   3) H  10                  0.00005     2.00042   
   188. RY*(   4) H  10                  0.00004     1.54080   
   189. RY*(   5) H  10                  0.00002     1.89855   
   190. BD*(   1) O   1 - N   2          0.02349     0.19460   
   191. BD*(   1) O   1 - N   9          0.02138     0.19211   
   192. BD*(   1) N   2 - C   3          0.01158     0.48356   
   193. BD*(   2) N   2 - C   3          0.17790    -0.06164  204(v),197(v),69(g),200(r)
                                                    51(g),81(g),59(g)
   194. BD*(   1) C   3 - C   4          0.00950     0.42440   
   195. BD*(   1) C   3 - C   8          0.03340     0.42103   
   196. BD*(   1) C   4 - N   5          0.00348     0.62592   
   197. BD*(   2) C   4 - N   5          0.06971     0.00092   
   198. BD*(   1) N   5 - C   6          0.03338     0.37080   
   199. BD*(   1) C   6 - N   7          0.00938     0.53221   
   200. BD*(   2) C   6 - N   7          0.09895    -0.04483   
   201. BD*(   1) C   6 - H  10          0.01434     0.36057   
   202. BD*(   1) N   7 - C   8          0.01182     0.42998   
   203. BD*(   1) C   8 - N   9          0.01270     0.47943   
   204. BD*(   2) C   8 - N   9          0.17336    -0.05736  193(v),200(v),164(g),172(g)
                                                    154(g),159(g)
       -------------------------------
              Total Lewis   28.98880  ( 96.6293%)
        Valence non-Lewis    0.95148  (  3.1716%)
        Rydberg non-Lewis    0.05973  (  0.1991%)
       -------------------------------
            Total unit  1   30.00000  (100.0000%)
           Charge unit  1    0.50000
 Leave Link  607 at Thu Nov  3 04:07:25 2022, MaxMem=  8053063680 cpu:              49.5 elap:               1.6
 (Enter /public3/home/scg5914/software-scg5914/g16/l9999.exe)
 Unable to Open any file for archive entry.
 1\1\GINC-G0805\SP\UB3LYP\Gen\C4H1N4O1(2)\SCG5914\03-Nov-2022\0\\#p b3l
 yp/chkbas pop=nbo geom=allcheck guess=tcheck em=gd3bj\\dsgdb9nsd_13049
 5-1\\0,2\O,0,-0.0536461756,1.2358659385,0.0089657365\N,0,1.1631926044,
 1.850912675,0.0008180601\C,0,2.0202924659,0.8582650282,-0.0123132058\C
 ,0,3.4383111817,0.7412931444,-0.0261171171\N,0,3.9819598238,-0.3913689
 977,-0.0370704158\C,0,3.2118467611,-1.5632648274,-0.0360015299\N,0,1.9
 163732786,-1.6074600182,-0.0241824209\C,0,1.3045642422,-0.3917126062,-
 0.012161703\N,0,0.0140973452,-0.1317897766,0.0011925222\H,0,3.77150366
 09,-2.4900850932,-0.0460405155\\Version=ES64L-G16RevC.01\State=2-A\HF=
 -447.1969732\S2=0.755472\S2-1=0.\S2A=0.75002\RMSD=6.988e-09\Dipole=0.7
 075845,-0.4196191,-0.008767\Quadrupole=-2.8578078,-0.2180379,3.0758458
 ,-2.8113997,0.0405767,0.0090189\PG=C01 [X(C4H1N4O1)]\\@
 The archive entry for this job was punched.


 KNOWLEDGE IS CHIMERA - FOR BEYOND IT LIES OTHER KNOWLEDGE,
 AND THE INCOMPLETENESS OF WHAT IS KNOWN RENDERS THE KNOWING FALSE.
     -- THE THOMAS COVENANT CHRONICLES
 Job cpu time:       0 days  0 hours  1 minutes 37.1 seconds.
 Elapsed time:       0 days  0 hours  0 minutes  3.4 seconds.
 File lengths (MBytes):  RWF=     31 Int=      0 D2E=      0 Chk=      5 Scr=      1
 Normal termination of Gaussian 16 at Thu Nov  3 04:07:25 2022.
