 Entering Gaussian System, Link 0=/public3/home/scg5914/software-scg5914/g16/g16
 Input=dsgdb9nsd_133831-4.gjf
 Output=dsgdb9nsd_133831-4.log
 Initial command:
 /public3/home/scg5914/software-scg5914/g16/l1.exe "/public3/home/scg5914/software-scg5914/test/tmp/dsgdb9nsd_133831-4/Gau-173056.inp" -scrdir="/public3/home/scg5914/software-scg5914/test/tmp/dsgdb9nsd_133831-4/"
 Entering Link 1 = /public3/home/scg5914/software-scg5914/g16/l1.exe PID=    173057.
  
 Copyright (c) 1988-2019, Gaussian, Inc.  All Rights Reserved.
  
 This is part of the Gaussian(R) 16 program.  It is based on
 the Gaussian(R) 09 system (copyright 2009, Gaussian, Inc.),
 the Gaussian(R) 03 system (copyright 2003, Gaussian, Inc.),
 the Gaussian(R) 98 system (copyright 1998, Gaussian, Inc.),
 the Gaussian(R) 94 system (copyright 1995, Gaussian, Inc.),
 the Gaussian 92(TM) system (copyright 1992, Gaussian, Inc.),
 the Gaussian 90(TM) system (copyright 1990, Gaussian, Inc.),
 the Gaussian 88(TM) system (copyright 1988, Gaussian, Inc.),
 the Gaussian 86(TM) system (copyright 1986, Carnegie Mellon
 University), and the Gaussian 82(TM) system (copyright 1983,
 Carnegie Mellon University). Gaussian is a federally registered
 trademark of Gaussian, Inc.
  
 This software contains proprietary and confidential information,
 including trade secrets, belonging to Gaussian, Inc.
  
 This software is provided under written license and may be
 used, copied, transmitted, or stored only in accord with that
 written license.
  
 The following legend is applicable only to US Government
 contracts under FAR:
  
                    RESTRICTED RIGHTS LEGEND
  
 Use, reproduction and disclosure by the US Government is
 subject to restrictions as set forth in subparagraphs (a)
 and (c) of the Commercial Computer Software - Restricted
 Rights clause in FAR 52.227-19.
  
 Gaussian, Inc.
 340 Quinnipiac St., Bldg. 40, Wallingford CT 06492
  
  
 ---------------------------------------------------------------
 Warning -- This program may not be used in any manner that
 competes with the business of Gaussian, Inc. or will provide
 assistance to any competitor of Gaussian, Inc.  The licensee
 of this program is prohibited from giving any competitor of
 Gaussian, Inc. access to this program.  By using this program,
 the user acknowledges that Gaussian, Inc. is engaged in the
 business of creating and licensing software in the field of
 computational chemistry and represents and warrants to the
 licensee that it is not a competitor of Gaussian, Inc. and that
 it will not use this program in any manner prohibited above.
 ---------------------------------------------------------------
  

 Cite this work as:
 Gaussian 16, Revision C.01,
 M. J. Frisch, G. W. Trucks, H. B. Schlegel, G. E. Scuseria, 
 M. A. Robb, J. R. Cheeseman, G. Scalmani, V. Barone, 
 G. A. Petersson, H. Nakatsuji, X. Li, M. Caricato, A. V. Marenich, 
 J. Bloino, B. G. Janesko, R. Gomperts, B. Mennucci, H. P. Hratchian, 
 J. V. Ortiz, A. F. Izmaylov, J. L. Sonnenberg, D. Williams-Young, 
 F. Ding, F. Lipparini, F. Egidi, J. Goings, B. Peng, A. Petrone, 
 T. Henderson, D. Ranasinghe, V. G. Zakrzewski, J. Gao, N. Rega, 
 G. Zheng, W. Liang, M. Hada, M. Ehara, K. Toyota, R. Fukuda, 
 J. Hasegawa, M. Ishida, T. Nakajima, Y. Honda, O. Kitao, H. Nakai, 
 T. Vreven, K. Throssell, J. A. Montgomery, Jr., J. E. Peralta, 
 F. Ogliaro, M. J. Bearpark, J. J. Heyd, E. N. Brothers, K. N. Kudin, 
 V. N. Staroverov, T. A. Keith, R. Kobayashi, J. Normand, 
 K. Raghavachari, A. P. Rendell, J. C. Burant, S. S. Iyengar, 
 J. Tomasi, M. Cossi, J. M. Millam, M. Klene, C. Adamo, R. Cammi, 
 J. W. Ochterski, R. L. Martin, K. Morokuma, O. Farkas, 
 J. B. Foresman, and D. J. Fox, Gaussian, Inc., Wallingford CT, 2019.
 
 ******************************************
 Gaussian 16:  ES64L-G16RevC.01  3-Jul-2019
                20-Mar-2023 
 ******************************************
 %chk=dsgdb9nsd_133831-4.chk
 %mem=60GB
 %nprocshared=32
 Will use up to   32 processors via shared memory.
 ------------------------------------
 #p opt freq b3lyp/6-311+g** em=gd3bj
 ------------------------------------
 1/18=20,19=15,26=3,38=1/1,3;
 2/9=110,12=2,17=6,18=5,40=1/2;
 3/5=4,6=6,7=111,11=2,25=1,30=1,71=1,74=-5,124=41/1,2,3;
 4//1;
 5/5=2,38=5/2;
 6/7=2,8=2,9=2,10=2,28=1/1;
 7//1,2,3,16;
 1/18=20,19=15,26=3/3(2);
 2/9=110/2;
 99//99;
 2/9=110/2;
 3/5=4,6=6,7=111,11=2,25=1,30=1,71=1,74=-5,124=41/1,2,3;
 4/5=5,16=3,69=1/1;
 5/5=2,38=5/2;
 7//1,2,3,16;
 1/18=20,19=15,26=3/3(-5);
 2/9=110/2;
 6/7=2,8=2,9=2,10=2,19=2,28=1/1;
 99/9=1/99;
 Leave Link    1 at Mon Mar 20 05:05:48 2023, MaxMem=  8053063680 cpu:               0.8 elap:               0.0
 (Enter /public3/home/scg5914/software-scg5914/g16/l101.exe)
 ------------------
 dsgdb9nsd_133831-4
 ------------------
 Symbolic Z-matrix:
 Charge =  0 Multiplicity = 2
 C                     7.12907  -0.23947   1.54332 
 C                     5.95845  -0.60516   0.68942 
 C                     5.37674   0.39406  -0.42077 
 N                     4.68668   0.04564   0.85314 
 C                     3.70685  -0.88342   0.16111 
 C                     4.26428  -2.28596   0.40881 
 C                     5.69622  -1.93729  -0.02533 
 C                     5.46057  -1.10909  -1.30028 
 C                     4.2219   -0.4071   -1.24444 
 H                     7.1032    0.82637   1.787 
 H                     8.07217  -0.45968   1.03279 
 H                     7.11452  -0.80095   2.48472 
 H                     2.67385  -0.68099   0.43301 
 H                     3.79556  -3.03653  -0.23509 
 H                     4.198    -2.60477   1.45424 
 H                     6.4805   -2.68845  -0.00179 
 H                     6.23095  -0.97085  -2.05152 
 
 ITRead=  0  0  0  0  0  0  0  0  0  0  0  0  0  0  0  0  0
 MicOpt= -1 -1 -1 -1 -1 -1 -1 -1 -1 -1 -1 -1 -1 -1 -1 -1 -1
 NAtoms=     17 NQM=       17 NQMF=       0 NMMI=      0 NMMIF=      0
                NMic=       0 NMicF=      0.
                    Isotopes and Nuclear Properties:
 (Nuclear quadrupole moments (NQMom) in fm**2, nuclear magnetic moments (NMagM)
  in nuclear magnetons)

  Atom         1           2           3           4           5           6           7           8           9          10
 IAtWgt=          12          12          12          14          12          12          12          12          12           1
 AtmWgt=  12.0000000  12.0000000  12.0000000  14.0030740  12.0000000  12.0000000  12.0000000  12.0000000  12.0000000   1.0078250
 NucSpn=           0           0           0           2           0           0           0           0           0           1
 AtZEff=  -0.0000000  -0.0000000  -0.0000000  -0.0000000  -0.0000000  -0.0000000  -0.0000000  -0.0000000  -0.0000000  -0.0000000
 NQMom=    0.0000000   0.0000000   0.0000000   2.0440000   0.0000000   0.0000000   0.0000000   0.0000000   0.0000000   0.0000000
 NMagM=    0.0000000   0.0000000   0.0000000   0.4037610   0.0000000   0.0000000   0.0000000   0.0000000   0.0000000   2.7928460
 AtZNuc=   6.0000000   6.0000000   6.0000000   7.0000000   6.0000000   6.0000000   6.0000000   6.0000000   6.0000000   1.0000000

  Atom        11          12          13          14          15          16          17
 IAtWgt=           1           1           1           1           1           1           1
 AtmWgt=   1.0078250   1.0078250   1.0078250   1.0078250   1.0078250   1.0078250   1.0078250
 NucSpn=           1           1           1           1           1           1           1
 AtZEff=  -0.0000000  -0.0000000  -0.0000000  -0.0000000  -0.0000000  -0.0000000  -0.0000000
 NQMom=    0.0000000   0.0000000   0.0000000   0.0000000   0.0000000   0.0000000   0.0000000
 NMagM=    2.7928460   2.7928460   2.7928460   2.7928460   2.7928460   2.7928460   2.7928460
 AtZNuc=   1.0000000   1.0000000   1.0000000   1.0000000   1.0000000   1.0000000   1.0000000
 Leave Link  101 at Mon Mar 20 05:05:48 2023, MaxMem=  8053063680 cpu:               4.1 elap:               0.1
 (Enter /public3/home/scg5914/software-scg5914/g16/l103.exe)

 GradGradGradGradGradGradGradGradGradGradGradGradGradGradGradGradGradGrad
 Berny optimization.
 Initialization pass.
                           ----------------------------
                           !    Initial Parameters    !
                           ! (Angstroms and Degrees)  !
 --------------------------                            --------------------------
 ! Name  Definition              Value          Derivative Info.                !
 --------------------------------------------------------------------------------
 ! R1    R(1,2)                  1.4944         estimate D2E/DX2                !
 ! R2    R(1,10)                 1.0936         estimate D2E/DX2                !
 ! R3    R(1,11)                 1.0948         estimate D2E/DX2                !
 ! R4    R(1,12)                 1.0962         estimate D2E/DX2                !
 ! R5    R(2,3)                  1.6029         estimate D2E/DX2                !
 ! R6    R(2,4)                  1.438          estimate D2E/DX2                !
 ! R7    R(2,7)                  1.5343         estimate D2E/DX2                !
 ! R8    R(3,4)                  1.4901         estimate D2E/DX2                !
 ! R9    R(3,8)                  1.7436         estimate D2E/DX2                !
 ! R10   R(3,9)                  1.6291         estimate D2E/DX2                !
 ! R11   R(4,5)                  1.5173         estimate D2E/DX2                !
 ! R12   R(5,6)                  1.5294         estimate D2E/DX2                !
 ! R13   R(5,9)                  1.5709         estimate D2E/DX2                !
 ! R14   R(5,13)                 1.0872         estimate D2E/DX2                !
 ! R15   R(6,7)                  1.5364         estimate D2E/DX2                !
 ! R16   R(6,14)                 1.0944         estimate D2E/DX2                !
 ! R17   R(6,15)                 1.095          estimate D2E/DX2                !
 ! R18   R(7,8)                  1.5385         estimate D2E/DX2                !
 ! R19   R(7,16)                 1.0862         estimate D2E/DX2                !
 ! R20   R(8,9)                  1.4249         estimate D2E/DX2                !
 ! R21   R(8,17)                 1.0849         estimate D2E/DX2                !
 ! A1    A(2,1,10)             110.3202         estimate D2E/DX2                !
 ! A2    A(2,1,11)             111.0467         estimate D2E/DX2                !
 ! A3    A(2,1,12)             110.7913         estimate D2E/DX2                !
 ! A4    A(10,1,11)            108.6817         estimate D2E/DX2                !
 ! A5    A(10,1,12)            107.9088         estimate D2E/DX2                !
 ! A6    A(11,1,12)            107.9918         estimate D2E/DX2                !
 ! A7    A(1,2,3)              121.8366         estimate D2E/DX2                !
 ! A8    A(1,2,4)              121.1316         estimate D2E/DX2                !
 ! A9    A(1,2,7)              127.7712         estimate D2E/DX2                !
 ! A10   A(3,2,7)               99.0066         estimate D2E/DX2                !
 ! A11   A(4,2,7)              107.1465         estimate D2E/DX2                !
 ! A12   A(2,3,8)               78.1416         estimate D2E/DX2                !
 ! A13   A(2,3,9)              107.5107         estimate D2E/DX2                !
 ! A14   A(4,3,8)              104.5917         estimate D2E/DX2                !
 ! A15   A(4,3,9)               89.3683         estimate D2E/DX2                !
 ! A16   A(2,4,5)              104.0102         estimate D2E/DX2                !
 ! A17   A(3,4,5)               92.9981         estimate D2E/DX2                !
 ! A18   A(4,5,6)              104.6125         estimate D2E/DX2                !
 ! A19   A(4,5,9)               90.6125         estimate D2E/DX2                !
 ! A20   A(4,5,13)             112.6754         estimate D2E/DX2                !
 ! A21   A(6,5,9)              107.666          estimate D2E/DX2                !
 ! A22   A(6,5,13)             118.4596         estimate D2E/DX2                !
 ! A23   A(9,5,13)             118.6096         estimate D2E/DX2                !
 ! A24   A(5,6,7)               94.9228         estimate D2E/DX2                !
 ! A25   A(5,6,14)             112.1818         estimate D2E/DX2                !
 ! A26   A(5,6,15)             113.5513         estimate D2E/DX2                !
 ! A27   A(7,6,14)             112.8655         estimate D2E/DX2                !
 ! A28   A(7,6,15)             113.0962         estimate D2E/DX2                !
 ! A29   A(14,6,15)            109.6416         estimate D2E/DX2                !
 ! A30   A(2,7,6)              102.9846         estimate D2E/DX2                !
 ! A31   A(2,7,8)               86.8381         estimate D2E/DX2                !
 ! A32   A(2,7,16)             117.8335         estimate D2E/DX2                !
 ! A33   A(6,7,8)              102.332          estimate D2E/DX2                !
 ! A34   A(6,7,16)             120.6555         estimate D2E/DX2                !
 ! A35   A(8,7,16)             120.0538         estimate D2E/DX2                !
 ! A36   A(3,8,7)               93.0632         estimate D2E/DX2                !
 ! A37   A(3,8,17)             105.8781         estimate D2E/DX2                !
 ! A38   A(7,8,9)              111.4629         estimate D2E/DX2                !
 ! A39   A(7,8,17)             122.2545         estimate D2E/DX2                !
 ! A40   A(9,8,17)             125.5682         estimate D2E/DX2                !
 ! A41   A(3,9,5)               85.9379         estimate D2E/DX2                !
 ! A42   A(5,9,8)               99.8288         estimate D2E/DX2                !
 ! D1    D(10,1,2,3)            35.9476         estimate D2E/DX2                !
 ! D2    D(10,1,2,4)           -33.8177         estimate D2E/DX2                !
 ! D3    D(10,1,2,7)           171.5291         estimate D2E/DX2                !
 ! D4    D(11,1,2,3)           -84.615          estimate D2E/DX2                !
 ! D5    D(11,1,2,4)          -154.3803         estimate D2E/DX2                !
 ! D6    D(11,1,2,7)            50.9665         estimate D2E/DX2                !
 ! D7    D(12,1,2,3)           155.3773         estimate D2E/DX2                !
 ! D8    D(12,1,2,4)            85.612          estimate D2E/DX2                !
 ! D9    D(12,1,2,7)           -69.0412         estimate D2E/DX2                !
 ! D10   D(1,2,3,8)            133.2732         estimate D2E/DX2                !
 ! D11   D(1,2,3,9)            174.0501         estimate D2E/DX2                !
 ! D12   D(7,2,3,8)            -12.6608         estimate D2E/DX2                !
 ! D13   D(7,2,3,9)             28.1161         estimate D2E/DX2                !
 ! D14   D(1,2,4,5)           -162.2892         estimate D2E/DX2                !
 ! D15   D(7,2,4,5)             -3.0296         estimate D2E/DX2                !
 ! D16   D(1,2,7,6)            129.1724         estimate D2E/DX2                !
 ! D17   D(1,2,7,8)           -128.894          estimate D2E/DX2                !
 ! D18   D(1,2,7,16)            -6.3443         estimate D2E/DX2                !
 ! D19   D(3,2,7,6)            -87.8424         estimate D2E/DX2                !
 ! D20   D(3,2,7,8)             14.0912         estimate D2E/DX2                !
 ! D21   D(3,2,7,16)           136.6408         estimate D2E/DX2                !
 ! D22   D(4,2,7,6)            -28.2777         estimate D2E/DX2                !
 ! D23   D(4,2,7,8)             73.6558         estimate D2E/DX2                !
 ! D24   D(4,2,7,16)          -163.7945         estimate D2E/DX2                !
 ! D25   D(8,3,4,5)            -40.0217         estimate D2E/DX2                !
 ! D26   D(9,3,4,5)              7.9628         estimate D2E/DX2                !
 ! D27   D(2,3,8,7)             12.4862         estimate D2E/DX2                !
 ! D28   D(2,3,8,17)          -112.3245         estimate D2E/DX2                !
 ! D29   D(4,3,8,7)            -36.4949         estimate D2E/DX2                !
 ! D30   D(4,3,8,17)          -161.3056         estimate D2E/DX2                !
 ! D31   D(2,3,9,5)             45.359          estimate D2E/DX2                !
 ! D32   D(4,3,9,5)             -7.6982         estimate D2E/DX2                !
 ! D33   D(2,4,5,6)             33.8197         estimate D2E/DX2                !
 ! D34   D(2,4,5,9)            -74.6267         estimate D2E/DX2                !
 ! D35   D(2,4,5,13)           163.8095         estimate D2E/DX2                !
 ! D36   D(3,4,5,6)            100.1866         estimate D2E/DX2                !
 ! D37   D(3,4,5,9)             -8.2598         estimate D2E/DX2                !
 ! D38   D(3,4,5,13)          -129.8236         estimate D2E/DX2                !
 ! D39   D(4,5,6,7)            -48.9125         estimate D2E/DX2                !
 ! D40   D(4,5,6,14)          -166.0608         estimate D2E/DX2                !
 ! D41   D(4,5,6,15)            68.9303         estimate D2E/DX2                !
 ! D42   D(9,5,6,7)             46.5175         estimate D2E/DX2                !
 ! D43   D(9,5,6,14)           -70.6309         estimate D2E/DX2                !
 ! D44   D(9,5,6,15)           164.3602         estimate D2E/DX2                !
 ! D45   D(13,5,6,7)          -175.3878         estimate D2E/DX2                !
 ! D46   D(13,5,6,14)           67.4638         estimate D2E/DX2                !
 ! D47   D(13,5,6,15)          -57.5451         estimate D2E/DX2                !
 ! D48   D(4,5,9,3)              7.5596         estimate D2E/DX2                !
 ! D49   D(4,5,9,8)             75.6813         estimate D2E/DX2                !
 ! D50   D(6,5,9,3)            -97.9968         estimate D2E/DX2                !
 ! D51   D(6,5,9,8)            -29.8751         estimate D2E/DX2                !
 ! D52   D(13,5,9,3)           123.9818         estimate D2E/DX2                !
 ! D53   D(13,5,9,8)          -167.8965         estimate D2E/DX2                !
 ! D54   D(5,6,7,2)             45.7272         estimate D2E/DX2                !
 ! D55   D(5,6,7,8)            -43.8413         estimate D2E/DX2                !
 ! D56   D(5,6,7,16)           179.6482         estimate D2E/DX2                !
 ! D57   D(14,6,7,2)           162.316          estimate D2E/DX2                !
 ! D58   D(14,6,7,8)            72.7475         estimate D2E/DX2                !
 ! D59   D(14,6,7,16)          -63.7631         estimate D2E/DX2                !
 ! D60   D(15,6,7,2)           -72.4842         estimate D2E/DX2                !
 ! D61   D(15,6,7,8)          -162.0527         estimate D2E/DX2                !
 ! D62   D(15,6,7,16)           61.4368         estimate D2E/DX2                !
 ! D63   D(2,7,8,3)            -12.7903         estimate D2E/DX2                !
 ! D64   D(2,7,8,9)            -72.6409         estimate D2E/DX2                !
 ! D65   D(2,7,8,17)            98.1717         estimate D2E/DX2                !
 ! D66   D(6,7,8,3)             89.8171         estimate D2E/DX2                !
 ! D67   D(6,7,8,9)             29.9665         estimate D2E/DX2                !
 ! D68   D(6,7,8,17)          -159.2209         estimate D2E/DX2                !
 ! D69   D(16,7,8,3)          -133.3401         estimate D2E/DX2                !
 ! D70   D(16,7,8,9)           166.8093         estimate D2E/DX2                !
 ! D71   D(16,7,8,17)          -22.3781         estimate D2E/DX2                !
 ! D72   D(7,8,9,5)             -0.6153         estimate D2E/DX2                !
 ! D73   D(17,8,9,5)          -171.0601         estimate D2E/DX2                !
 --------------------------------------------------------------------------------
 Trust Radius=3.00D-01 FncErr=1.00D-07 GrdErr=1.00D-06 EigMax=2.50D+02 EigMin=1.00D-04
 Number of steps in this run=    102 maximum allowed number of steps=    102.
 GradGradGradGradGradGradGradGradGradGradGradGradGradGradGradGradGradGrad

 Leave Link  103 at Mon Mar 20 05:05:48 2023, MaxMem=  8053063680 cpu:               0.1 elap:               0.0
 (Enter /public3/home/scg5914/software-scg5914/g16/l202.exe)
                          Input orientation:                          
 ---------------------------------------------------------------------
 Center     Atomic      Atomic             Coordinates (Angstroms)
 Number     Number       Type             X           Y           Z
 ---------------------------------------------------------------------
      1          6           0        7.129071   -0.239474    1.543318
      2          6           0        5.958452   -0.605155    0.689425
      3          6           0        5.376736    0.394056   -0.420774
      4          7           0        4.686676    0.045639    0.853141
      5          6           0        3.706846   -0.883421    0.161110
      6          6           0        4.264275   -2.285961    0.408813
      7          6           0        5.696221   -1.937289   -0.025328
      8          6           0        5.460571   -1.109092   -1.300275
      9          6           0        4.221902   -0.407097   -1.244437
     10          1           0        7.103197    0.826365    1.787004
     11          1           0        8.072174   -0.459679    1.032790
     12          1           0        7.114516   -0.800953    2.484724
     13          1           0        2.673848   -0.680989    0.433010
     14          1           0        3.795556   -3.036533   -0.235086
     15          1           0        4.197999   -2.604772    1.454242
     16          1           0        6.480496   -2.688447   -0.001794
     17          1           0        6.230948   -0.970853   -2.051524
 ---------------------------------------------------------------------
                    Distance matrix (angstroms):
                    1          2          3          4          5
     1  C    0.000000
     2  C    1.494391   0.000000
     3  C    2.707342   1.602922   0.000000
     4  N    2.554002   1.437967   1.490113   0.000000
     5  C    3.746571   2.329438   2.181530   1.517276   0.000000
     6  C    3.698954   2.402933   3.017992   2.410852   1.529445
     7  C    2.719611   1.534346   2.386131   2.392257   2.258985
     8  C    3.409714   2.112048   1.743561   2.563107   2.293932
     9  C    4.031291   2.606656   1.629082   2.195636   1.570901
    10  H    1.093648   2.136439   2.835815   2.705772   4.135469
    11  H    1.094794   2.146365   3.179167   3.427713   4.471630
    12  H    1.096228   2.144276   3.590243   3.045191   4.125312
    13  H    4.612671   3.295471   3.031547   2.180820   1.087195
    14  H    4.700913   3.382963   3.782004   3.387937   2.191057
    15  H    3.767459   2.771752   3.728013   2.761305   2.208273
    16  H    2.967404   2.256195   3.300857   3.379930   3.313275
    17  H    3.776828   2.778631   2.291724   3.443125   3.357750
                    6          7          8          9         10
     6  C    0.000000
     7  C    1.536398   0.000000
     8  C    2.395229   1.538483   0.000000
     9  C    2.503030   2.449762   1.424856   0.000000
    10  H    4.432320   3.591924   3.996938   4.360381   0.000000
    11  H    4.269045   2.991337   3.561657   4.473603   1.778108
    12  H    3.826033   3.098900   4.142065   4.735925   1.770623
    13  H    2.259641   3.305012   3.309588   2.298982   4.870785
    14  H    1.094378   2.205644   2.760784   2.848595   5.472780
    15  H    1.094968   2.208921   3.379128   3.480405   4.508171
    16  H    2.289591   1.086222   2.284877   3.442378   3.992676
    17  H    3.413292   2.307683   1.084881   2.237292   4.327252
                   11         12         13         14         15
    11  H    0.000000
    12  H    1.772481   0.000000
    13  H    5.436050   4.893205   0.000000
    14  H    5.151422   4.838459   2.693171   0.000000
    15  H    4.448401   3.580744   2.658363   1.789472   0.000000
    16  H    2.927663   3.185496   4.325449   2.717442   2.708659
    17  H    3.628278   4.624619   4.348551   3.673910   4.369550
                   16         17
    16  H    0.000000
    17  H    2.685851   0.000000
 Stoichiometry    C8H8N(2)
 Framework group  C1[X(C8H8N)]
 Deg. of freedom    45
 Full point group                 C1      NOp   1
 Largest Abelian subgroup         C1      NOp   1
 Largest concise Abelian subgroup C1      NOp   1
                         Standard orientation:                         
 ---------------------------------------------------------------------
 Center     Atomic      Atomic             Coordinates (Angstroms)
 Number     Number       Type             X           Y           Z
 ---------------------------------------------------------------------
      1          6           0        2.419689    0.180721   -0.091518
      2          6           0        0.930457    0.069707   -0.036106
      3          6           0        0.189339   -1.351070    0.002577
      4          7           0        0.179076   -0.419436   -1.160346
      5          6           0       -1.239914    0.039802   -0.881608
      6          6           0       -1.077667    1.382772   -0.167950
      7          6           0       -0.039620    0.870638    0.842346
      8          6           0       -0.635816   -0.481943    1.268967
      9          6           0       -1.400376   -1.068922    0.219624
     10          1           0        2.838028   -0.623906   -0.702774
     11          1           0        2.855858    0.122575    0.910954
     12          1           0        2.722407    1.135205   -0.537652
     13          1           0       -1.875702   -0.005382   -1.762361
     14          1           0       -2.006549    1.713052    0.307188
     15          1           0       -0.691950    2.177952   -0.814376
     16          1           0        0.383909    1.537782    1.587611
     17          1           0       -0.356084   -0.971454    2.195841
 ---------------------------------------------------------------------
 Rotational constants (GHZ):           3.2437812           2.0686046           1.9407314
 Leave Link  202 at Mon Mar 20 05:05:48 2023, MaxMem=  8053063680 cpu:               0.1 elap:               0.0
 (Enter /public3/home/scg5914/software-scg5914/g16/l301.exe)
 Standard basis: 6-311+G(d,p) (5D, 7F)
 Ernie: Thresh=  0.10000D-02 Tol=  0.10000D-05 Strict=F.
 There are   255 symmetry adapted cartesian basis functions of A   symmetry.
 There are   246 symmetry adapted basis functions of A   symmetry.
   246 basis functions,   388 primitive gaussians,   255 cartesian basis functions
    32 alpha electrons       31 beta electrons
       nuclear repulsion energy       439.5846995450 Hartrees.
 IExCor=  402 DFT=T Ex+Corr=B3LYP ExCW=0 ScaHFX=  0.200000
 ScaDFX=  0.800000  0.720000  1.000000  0.810000 ScalE2=  1.000000  1.000000
 IRadAn=      5 IRanWt=     -1 IRanGd=            0 ICorTp=0 IEmpDi=141
 NAtoms=   17 NActive=   17 NUniq=   17 SFac= 1.00D+00 NAtFMM=   60 NAOKFM=F Big=F
 Integral buffers will be    131072 words long.
 Raffenetti 2 integral format.
 Two-electron integral symmetry is turned on.
 R6Disp:  Grimme-D3(BJ) Dispersion energy=       -0.0305849061 Hartrees.
 Nuclear repulsion after empirical dispersion term =      439.5541146388 Hartrees.
 Leave Link  301 at Mon Mar 20 05:05:48 2023, MaxMem=  8053063680 cpu:               0.6 elap:               0.0
 (Enter /public3/home/scg5914/software-scg5914/g16/l302.exe)
 NPDir=0 NMtPBC=     1 NCelOv=     1 NCel=       1 NClECP=     1 NCelD=      1
         NCelK=      1 NCelE2=     1 NClLst=     1 CellRange=     0.0.
 One-electron integrals computed using PRISM.
 One-electron integral symmetry used in STVInt
 NBasis=   246 RedAO= T EigKep=  5.03D-06  NBF=   246
 NBsUse=   246 1.00D-06 EigRej= -1.00D+00 NBFU=   246
 Precomputing XC quadrature grid using
 IXCGrd= 4 IRadAn=           5 IRanWt=          -1 IRanGd=           0 AccXCQ= 0.00D+00.
 Generated NRdTot=       0 NPtTot=           0 NUsed=           0 NTot=          32
 NSgBfM=   255   255   255   255   255 MxSgAt=    17 MxSgA2=    17.
 Leave Link  302 at Mon Mar 20 05:05:48 2023, MaxMem=  8053063680 cpu:               3.8 elap:               0.1
 (Enter /public3/home/scg5914/software-scg5914/g16/l303.exe)
 DipDrv:  MaxL=1.
 Leave Link  303 at Mon Mar 20 05:05:48 2023, MaxMem=  8053063680 cpu:               0.5 elap:               0.0
 (Enter /public3/home/scg5914/software-scg5914/g16/l401.exe)
 ExpMin= 4.38D-02 ExpMax= 6.29D+03 ExpMxC= 9.49D+02 IAcc=3 IRadAn=         5 AccDes= 0.00D+00
 Harris functional with IExCor=  402 and IRadAn=       5 diagonalized for initial guess.
 HarFok:  IExCor=  402 AccDes= 0.00D+00 IRadAn=         5 IDoV= 1 UseB2=F ITyADJ=14
 ICtDFT=  3500011 ScaDFX=  1.000000  1.000000  1.000000  1.000000
 FoFCou: FMM=F IPFlag=           0 FMFlag=      100000 FMFlg1=           0
         NFxFlg=           0 DoJE=T BraDBF=F KetDBF=T FulRan=T
         wScrn=  0.000000 ICntrl=       500 IOpCl=  0 I1Cent=   200000004 NGrid=           0
         NMat0=    1 NMatS0=      1 NMatT0=    0 NMatD0=    1 NMtDS0=    0 NMtDT0=    0
 Petite list used in FoFCou.
 Harris En= -364.208651570969    
 JPrj=0 DoOrth=F DoCkMO=F.
 Initial guess <Sx>= 0.0000 <Sy>= 0.0000 <Sz>= 0.5000 <S**2>= 0.7500 S= 0.5000
 Leave Link  401 at Mon Mar 20 05:05:49 2023, MaxMem=  8053063680 cpu:              13.5 elap:               0.4
 (Enter /public3/home/scg5914/software-scg5914/g16/l502.exe)
 Integral symmetry usage will be decided dynamically.
 UHF open shell SCF:
 Using DIIS extrapolation, IDIIS=  1040.
 NGot=  8053063680 LenX=  8052922524 LenY=  8052857058
 Requested convergence on RMS density matrix=1.00D-08 within 128 cycles.
 Requested convergence on MAX density matrix=1.00D-06.
 Requested convergence on             energy=1.00D-06.
 No special actions if energy rises.
 Fock matrices will be formed incrementally for  20 cycles.

 Cycle   1  Pass 1  IDiag  1:
 FoFJK:  IHMeth= 1 ICntrl=       0 DoSepK=F KAlg= 0 I1Cent=           0 FoldK=F
 IRaf= 990000000 NMat=       1 IRICut=       1 DoRegI=T DoRafI=F ISym2E= 0 IDoP0=0 IntGTp=1.
 FoFCou: FMM=F IPFlag=           0 FMFlag=      100000 FMFlg1=           0
         NFxFlg=           0 DoJE=F BraDBF=F KetDBF=F FulRan=T
         wScrn=  0.000000 ICntrl=         0 IOpCl=  1 I1Cent=           0 NGrid=           0
         NMat0=    1 NMatS0=      1 NMatT0=    0 NMatD0=    1 NMtDS0=    0 NMtDT0=    0
 Symmetry not used in FoFCou.
 E= -364.082699247267    
 DIIS: error= 1.62D-02 at cycle   1 NSaved=   1.
 NSaved= 1 IEnMin= 1 EnMin= -364.082699247267     IErMin= 1 ErrMin= 1.62D-02
 ErrMax= 1.62D-02  0.00D+00 EMaxC= 1.00D-01 BMatC= 7.29D-01 BMatP= 7.29D-01
 IDIUse=3 WtCom= 8.38D-01 WtEn= 1.62D-01
 Coeff-Com:  0.100D+01
 Coeff-En:   0.100D+01
 Coeff:      0.100D+01
 Gap=     0.220 Goal=   None    Shift=    0.000
 Gap=     0.089 Goal=   None    Shift=    0.000
 GapD=    0.089 DampG=0.500 DampE=0.500 DampFc=0.2500 IDamp=-1.
 Damping current iteration by 2.50D-01
 RMSDP=1.22D-02 MaxDP=6.90D-01              OVMax= 3.13D-01

 Cycle   2  Pass 1  IDiag  1:
 RMSU=  2.78D-03    CP:  9.57D-01
 E= -364.143227926736     Delta-E=       -0.060528679469 Rises=F Damp=T
 DIIS: error= 8.83D-03 at cycle   2 NSaved=   2.
 NSaved= 2 IEnMin= 2 EnMin= -364.143227926736     IErMin= 2 ErrMin= 8.83D-03
 ErrMax= 8.83D-03  0.00D+00 EMaxC= 1.00D-01 BMatC= 2.06D-01 BMatP= 7.29D-01
 IDIUse=3 WtCom= 9.12D-01 WtEn= 8.83D-02
 Coeff-Com: -0.830D+00 0.183D+01
 Coeff-En:   0.000D+00 0.100D+01
 Coeff:     -0.756D+00 0.176D+01
 Gap=     0.223 Goal=   None    Shift=    0.000
 Gap=     0.107 Goal=   None    Shift=    0.000
 RMSDP=5.92D-03 MaxDP=3.10D-01 DE=-6.05D-02 OVMax= 3.26D-01

 Cycle   3  Pass 1  IDiag  1:
 RMSU=  5.57D-03    CP:  8.97D-01  1.33D+00
 E= -364.226313785195     Delta-E=       -0.083085858459 Rises=F Damp=F
 DIIS: error= 9.11D-03 at cycle   3 NSaved=   3.
 NSaved= 3 IEnMin= 3 EnMin= -364.226313785195     IErMin= 2 ErrMin= 8.83D-03
 ErrMax= 9.11D-03  0.00D+00 EMaxC= 1.00D-01 BMatC= 1.07D-01 BMatP= 2.06D-01
 IDIUse=3 WtCom= 9.09D-01 WtEn= 9.11D-02
 Coeff-Com: -0.566D+00 0.111D+01 0.455D+00
 Coeff-En:   0.000D+00 0.000D+00 0.100D+01
 Coeff:     -0.515D+00 0.101D+01 0.504D+00
 Gap=     0.205 Goal=   None    Shift=    0.000
 Gap=     0.104 Goal=   None    Shift=    0.000
 RMSDP=4.20D-03 MaxDP=1.97D-01 DE=-8.31D-02 OVMax= 1.91D-01

 Cycle   4  Pass 1  IDiag  1:
 RMSU=  2.29D-03    CP:  8.94D-01  1.82D+00  4.18D-01
 E= -364.244240885328     Delta-E=       -0.017927100132 Rises=F Damp=F
 DIIS: error= 6.51D-03 at cycle   4 NSaved=   4.
 NSaved= 4 IEnMin= 4 EnMin= -364.244240885328     IErMin= 4 ErrMin= 6.51D-03
 ErrMax= 6.51D-03  0.00D+00 EMaxC= 1.00D-01 BMatC= 3.92D-02 BMatP= 1.07D-01
 IDIUse=3 WtCom= 9.35D-01 WtEn= 6.51D-02
 Coeff-Com: -0.167D+00 0.298D+00 0.374D+00 0.495D+00
 Coeff-En:   0.000D+00 0.000D+00 0.320D+00 0.680D+00
 Coeff:     -0.156D+00 0.278D+00 0.371D+00 0.507D+00
 Gap=     0.198 Goal=   None    Shift=    0.000
 Gap=     0.114 Goal=   None    Shift=    0.000
 RMSDP=1.93D-03 MaxDP=1.38D-01 DE=-1.79D-02 OVMax= 7.95D-02

 Cycle   5  Pass 1  IDiag  1:
 RMSU=  8.52D-04    CP:  8.64D-01  1.60D+00  6.18D-01  6.60D-01
 E= -364.254387532776     Delta-E=       -0.010146647449 Rises=F Damp=F
 DIIS: error= 9.12D-04 at cycle   5 NSaved=   5.
 NSaved= 5 IEnMin= 5 EnMin= -364.254387532776     IErMin= 5 ErrMin= 9.12D-04
 ErrMax= 9.12D-04  0.00D+00 EMaxC= 1.00D-01 BMatC= 1.05D-03 BMatP= 3.92D-02
 IDIUse=3 WtCom= 9.91D-01 WtEn= 9.12D-03
 Coeff-Com: -0.382D-01 0.599D-01 0.137D+00 0.242D+00 0.600D+00
 Coeff-En:   0.000D+00 0.000D+00 0.000D+00 0.000D+00 0.100D+01
 Coeff:     -0.378D-01 0.594D-01 0.135D+00 0.240D+00 0.604D+00
 Gap=     0.194 Goal=   None    Shift=    0.000
 Gap=     0.116 Goal=   None    Shift=    0.000
 RMSDP=3.68D-04 MaxDP=2.12D-02 DE=-1.01D-02 OVMax= 8.91D-03

 Cycle   6  Pass 1  IDiag  1:
 RMSU=  1.77D-04    CP:  8.71D-01  1.64D+00  6.27D-01  6.95D-01  7.32D-01
 E= -364.254595094647     Delta-E=       -0.000207561871 Rises=F Damp=F
 DIIS: error= 3.86D-04 at cycle   6 NSaved=   6.
 NSaved= 6 IEnMin= 6 EnMin= -364.254595094647     IErMin= 6 ErrMin= 3.86D-04
 ErrMax= 3.86D-04  0.00D+00 EMaxC= 1.00D-01 BMatC= 2.43D-04 BMatP= 1.05D-03
 IDIUse=3 WtCom= 9.96D-01 WtEn= 3.86D-03
 Coeff-Com:  0.249D-03-0.545D-02 0.268D-01 0.715D-01 0.367D+00 0.540D+00
 Coeff-En:   0.000D+00 0.000D+00 0.000D+00 0.000D+00 0.150D+00 0.850D+00
 Coeff:      0.248D-03-0.543D-02 0.267D-01 0.713D-01 0.366D+00 0.541D+00
 Gap=     0.195 Goal=   None    Shift=    0.000
 Gap=     0.117 Goal=   None    Shift=    0.000
 RMSDP=1.58D-04 MaxDP=8.24D-03 DE=-2.08D-04 OVMax= 2.78D-03

 Cycle   7  Pass 1  IDiag  1:
 RMSU=  1.02D-04    CP:  8.69D-01  1.62D+00  6.28D-01  7.08D-01  8.26D-01
                    CP:  6.40D-01
 E= -364.254652623920     Delta-E=       -0.000057529273 Rises=F Damp=F
 DIIS: error= 1.38D-04 at cycle   7 NSaved=   7.
 NSaved= 7 IEnMin= 7 EnMin= -364.254652623920     IErMin= 7 ErrMin= 1.38D-04
 ErrMax= 1.38D-04  0.00D+00 EMaxC= 1.00D-01 BMatC= 1.92D-05 BMatP= 2.43D-04
 IDIUse=3 WtCom= 9.99D-01 WtEn= 1.38D-03
 Coeff-Com:  0.511D-02-0.100D-01-0.633D-02 0.639D-03 0.973D-01 0.255D+00
 Coeff-Com:  0.658D+00
 Coeff-En:   0.000D+00 0.000D+00 0.000D+00 0.000D+00 0.000D+00 0.000D+00
 Coeff-En:   0.100D+01
 Coeff:      0.510D-02-0.100D-01-0.632D-02 0.638D-03 0.971D-01 0.255D+00
 Coeff:      0.659D+00
 Gap=     0.195 Goal=   None    Shift=    0.000
 Gap=     0.117 Goal=   None    Shift=    0.000
 RMSDP=5.62D-05 MaxDP=2.39D-03 DE=-5.75D-05 OVMax= 1.73D-03

 Cycle   8  Pass 1  IDiag  1:
 RMSU=  3.00D-05    CP:  8.69D-01  1.63D+00  6.28D-01  7.08D-01  8.24D-01
                    CP:  8.30D-01  8.75D-01
 E= -364.254658004085     Delta-E=       -0.000005380165 Rises=F Damp=F
 DIIS: error= 8.36D-05 at cycle   8 NSaved=   8.
 NSaved= 8 IEnMin= 8 EnMin= -364.254658004085     IErMin= 8 ErrMin= 8.36D-05
 ErrMax= 8.36D-05  0.00D+00 EMaxC= 1.00D-01 BMatC= 6.73D-06 BMatP= 1.92D-05
 IDIUse=1 WtCom= 1.00D+00 WtEn= 0.00D+00
 Coeff-Com:  0.229D-02-0.328D-02-0.105D-01-0.189D-01-0.472D-01-0.137D-01
 Coeff-Com:  0.413D+00 0.679D+00
 Coeff:      0.229D-02-0.328D-02-0.105D-01-0.189D-01-0.472D-01-0.137D-01
 Coeff:      0.413D+00 0.679D+00
 Gap=     0.196 Goal=   None    Shift=    0.000
 Gap=     0.117 Goal=   None    Shift=    0.000
 RMSDP=3.55D-05 MaxDP=1.52D-03 DE=-5.38D-06 OVMax= 8.00D-04

 Cycle   9  Pass 1  IDiag  1:
 RMSU=  1.41D-05    CP:  8.69D-01  1.63D+00  6.29D-01  7.10D-01  8.43D-01
                    CP:  8.14D-01  1.09D+00  8.86D-01
 E= -364.254660405096     Delta-E=       -0.000002401011 Rises=F Damp=F
 DIIS: error= 1.34D-05 at cycle   9 NSaved=   9.
 NSaved= 9 IEnMin= 9 EnMin= -364.254660405096     IErMin= 9 ErrMin= 1.34D-05
 ErrMax= 1.34D-05  0.00D+00 EMaxC= 1.00D-01 BMatC= 3.39D-07 BMatP= 6.73D-06
 IDIUse=1 WtCom= 1.00D+00 WtEn= 0.00D+00
 Coeff-Com: -0.842D-04 0.435D-03-0.215D-02-0.513D-02-0.235D-01-0.403D-01
 Coeff-Com:  0.351D-01 0.172D+00 0.864D+00
 Coeff:     -0.842D-04 0.435D-03-0.215D-02-0.513D-02-0.235D-01-0.403D-01
 Coeff:      0.351D-01 0.172D+00 0.864D+00
 Gap=     0.196 Goal=   None    Shift=    0.000
 Gap=     0.117 Goal=   None    Shift=    0.000
 RMSDP=9.44D-06 MaxDP=3.93D-04 DE=-2.40D-06 OVMax= 3.80D-04

 Cycle  10  Pass 1  IDiag  1:
 RMSU=  6.06D-06    CP:  8.69D-01  1.63D+00  6.28D-01  7.12D-01  8.42D-01
                    CP:  8.26D-01  1.13D+00  9.94D-01  9.44D-01
 E= -364.254660608608     Delta-E=       -0.000000203512 Rises=F Damp=F
 DIIS: error= 1.37D-05 at cycle  10 NSaved=  10.
 NSaved=10 IEnMin=10 EnMin= -364.254660608608     IErMin= 9 ErrMin= 1.34D-05
 ErrMax= 1.37D-05  0.00D+00 EMaxC= 1.00D-01 BMatC= 1.78D-07 BMatP= 3.39D-07
 IDIUse=1 WtCom= 1.00D+00 WtEn= 0.00D+00
 Coeff-Com: -0.409D-03 0.727D-03 0.612D-03 0.439D-03-0.417D-02-0.210D-01
 Coeff-Com: -0.561D-01-0.310D-01 0.494D+00 0.617D+00
 Coeff:     -0.409D-03 0.727D-03 0.612D-03 0.439D-03-0.417D-02-0.210D-01
 Coeff:     -0.561D-01-0.310D-01 0.494D+00 0.617D+00
 Gap=     0.196 Goal=   None    Shift=    0.000
 Gap=     0.117 Goal=   None    Shift=    0.000
 RMSDP=5.38D-06 MaxDP=4.12D-04 DE=-2.04D-07 OVMax= 2.11D-04

 Cycle  11  Pass 1  IDiag  1:
 RMSU=  3.26D-06    CP:  8.69D-01  1.63D+00  6.29D-01  7.11D-01  8.43D-01
                    CP:  8.27D-01  1.15D+00  1.01D+00  1.06D+00  7.32D-01
 E= -364.254660669352     Delta-E=       -0.000000060743 Rises=F Damp=F
 DIIS: error= 7.80D-06 at cycle  11 NSaved=  11.
 NSaved=11 IEnMin=11 EnMin= -364.254660669352     IErMin=11 ErrMin= 7.80D-06
 ErrMax= 7.80D-06  0.00D+00 EMaxC= 1.00D-01 BMatC= 4.78D-08 BMatP= 1.78D-07
 IDIUse=1 WtCom= 1.00D+00 WtEn= 0.00D+00
 Coeff-Com: -0.228D-03 0.339D-03 0.102D-02 0.169D-02 0.424D-02-0.141D-02
 Coeff-Com: -0.422D-01-0.645D-01 0.564D-01 0.383D+00 0.662D+00
 Coeff:     -0.228D-03 0.339D-03 0.102D-02 0.169D-02 0.424D-02-0.141D-02
 Coeff:     -0.422D-01-0.645D-01 0.564D-01 0.383D+00 0.662D+00
 Gap=     0.196 Goal=   None    Shift=    0.000
 Gap=     0.117 Goal=   None    Shift=    0.000
 RMSDP=2.47D-06 MaxDP=1.42D-04 DE=-6.07D-08 OVMax= 9.73D-05

 Cycle  12  Pass 1  IDiag  1:
 RMSU=  1.41D-06    CP:  8.69D-01  1.63D+00  6.29D-01  7.11D-01  8.44D-01
                    CP:  8.29D-01  1.15D+00  1.01D+00  1.10D+00  8.98D-01
                    CP:  9.08D-01
 E= -364.254660685898     Delta-E=       -0.000000016546 Rises=F Damp=F
 DIIS: error= 3.17D-06 at cycle  12 NSaved=  12.
 NSaved=12 IEnMin=12 EnMin= -364.254660685898     IErMin=12 ErrMin= 3.17D-06
 ErrMax= 3.17D-06  0.00D+00 EMaxC= 1.00D-01 BMatC= 1.14D-08 BMatP= 4.78D-08
 IDIUse=1 WtCom= 1.00D+00 WtEn= 0.00D+00
 Coeff-Com: -0.304D-04 0.176D-04 0.513D-03 0.940D-03 0.375D-02 0.442D-02
 Coeff-Com: -0.132D-01-0.325D-01-0.818D-01 0.982D-01 0.402D+00 0.618D+00
 Coeff:     -0.304D-04 0.176D-04 0.513D-03 0.940D-03 0.375D-02 0.442D-02
 Coeff:     -0.132D-01-0.325D-01-0.818D-01 0.982D-01 0.402D+00 0.618D+00
 Gap=     0.196 Goal=   None    Shift=    0.000
 Gap=     0.117 Goal=   None    Shift=    0.000
 RMSDP=1.27D-06 MaxDP=8.89D-05 DE=-1.65D-08 OVMax= 3.21D-05

 Cycle  13  Pass 1  IDiag  1:
 RMSU=  6.28D-07    CP:  8.69D-01  1.63D+00  6.29D-01  7.11D-01  8.43D-01
                    CP:  8.27D-01  1.15D+00  1.03D+00  1.10D+00  9.04D-01
                    CP:  1.07D+00  9.67D-01
 E= -364.254660689830     Delta-E=       -0.000000003933 Rises=F Damp=F
 DIIS: error= 1.08D-06 at cycle  13 NSaved=  13.
 NSaved=13 IEnMin=13 EnMin= -364.254660689830     IErMin=13 ErrMin= 1.08D-06
 ErrMax= 1.08D-06  0.00D+00 EMaxC= 1.00D-01 BMatC= 1.08D-09 BMatP= 1.14D-08
 IDIUse=1 WtCom= 1.00D+00 WtEn= 0.00D+00
 Coeff-Com:  0.441D-04-0.717D-04-0.211D-04-0.275D-04 0.475D-03 0.212D-02
 Coeff-Com:  0.407D-02 0.314D-02-0.419D-01-0.506D-01-0.974D-02 0.220D+00
 Coeff-Com:  0.872D+00
 Coeff:      0.441D-04-0.717D-04-0.211D-04-0.275D-04 0.475D-03 0.212D-02
 Coeff:      0.407D-02 0.314D-02-0.419D-01-0.506D-01-0.974D-02 0.220D+00
 Coeff:      0.872D+00
 Gap=     0.196 Goal=   None    Shift=    0.000
 Gap=     0.117 Goal=   None    Shift=    0.000
 RMSDP=5.74D-07 MaxDP=3.44D-05 DE=-3.93D-09 OVMax= 2.17D-05

 Cycle  14  Pass 1  IDiag  1:
 RMSU=  2.78D-07    CP:  8.69D-01  1.63D+00  6.29D-01  7.11D-01  8.43D-01
                    CP:  8.28D-01  1.15D+00  1.02D+00  1.10D+00  9.41D-01
                    CP:  1.10D+00  1.09D+00  9.85D-01
 E= -364.254660690444     Delta-E=       -0.000000000614 Rises=F Damp=F
 DIIS: error= 3.86D-07 at cycle  14 NSaved=  14.
 NSaved=14 IEnMin=14 EnMin= -364.254660690444     IErMin=14 ErrMin= 3.86D-07
 ErrMax= 3.86D-07  0.00D+00 EMaxC= 1.00D-01 BMatC= 1.96D-10 BMatP= 1.08D-09
 IDIUse=1 WtCom= 1.00D+00 WtEn= 0.00D+00
 Coeff-Com:  0.197D-04-0.290D-04-0.538D-04-0.109D-03-0.187D-03 0.367D-03
 Coeff-Com:  0.289D-02 0.467D-02-0.801D-02-0.298D-01-0.487D-01 0.186D-01
 Coeff-Com:  0.363D+00 0.697D+00
 Coeff:      0.197D-04-0.290D-04-0.538D-04-0.109D-03-0.187D-03 0.367D-03
 Coeff:      0.289D-02 0.467D-02-0.801D-02-0.298D-01-0.487D-01 0.186D-01
 Coeff:      0.363D+00 0.697D+00
 Gap=     0.196 Goal=   None    Shift=    0.000
 Gap=     0.117 Goal=   None    Shift=    0.000
 RMSDP=2.26D-07 MaxDP=1.40D-05 DE=-6.14D-10 OVMax= 5.85D-06

 Cycle  15  Pass 1  IDiag  1:
 RMSU=  1.01D-07    CP:  8.69D-01  1.63D+00  6.29D-01  7.11D-01  8.43D-01
                    CP:  8.28D-01  1.15D+00  1.03D+00  1.10D+00  9.42D-01
                    CP:  1.10D+00  1.12D+00  1.15D+00  1.00D+00
 E= -364.254660690524     Delta-E=       -0.000000000080 Rises=F Damp=F
 DIIS: error= 1.54D-07 at cycle  15 NSaved=  15.
 NSaved=15 IEnMin=15 EnMin= -364.254660690524     IErMin=15 ErrMin= 1.54D-07
 ErrMax= 1.54D-07  0.00D+00 EMaxC= 1.00D-01 BMatC= 4.73D-11 BMatP= 1.96D-10
 IDIUse=1 WtCom= 1.00D+00 WtEn= 0.00D+00
 Coeff-Com: -0.205D-05 0.465D-05-0.143D-04-0.454D-04-0.190D-03-0.406D-03
 Coeff-Com:  0.123D-03 0.114D-02 0.739D-02 0.133D-02-0.212D-01-0.526D-01
 Coeff-Com: -0.515D-01 0.297D+00 0.819D+00
 Coeff:     -0.205D-05 0.465D-05-0.143D-04-0.454D-04-0.190D-03-0.406D-03
 Coeff:      0.123D-03 0.114D-02 0.739D-02 0.133D-02-0.212D-01-0.526D-01
 Coeff:     -0.515D-01 0.297D+00 0.819D+00
 Gap=     0.196 Goal=   None    Shift=    0.000
 Gap=     0.117 Goal=   None    Shift=    0.000
 RMSDP=1.24D-07 MaxDP=9.29D-06 DE=-8.03D-11 OVMax= 6.56D-06

 Cycle  16  Pass 1  IDiag  1:
 RMSU=  5.40D-08    CP:  8.69D-01  1.63D+00  6.29D-01  7.11D-01  8.43D-01
                    CP:  8.28D-01  1.15D+00  1.03D+00  1.10D+00  9.42D-01
                    CP:  1.10D+00  1.15D+00  1.20D+00  1.13D+00  1.13D+00
 E= -364.254660690551     Delta-E=       -0.000000000027 Rises=F Damp=F
 DIIS: error= 9.19D-08 at cycle  16 NSaved=  16.
 NSaved=16 IEnMin=16 EnMin= -364.254660690551     IErMin=16 ErrMin= 9.19D-08
 ErrMax= 9.19D-08  0.00D+00 EMaxC= 1.00D-01 BMatC= 1.18D-11 BMatP= 4.73D-11
 IDIUse=1 WtCom= 1.00D+00 WtEn= 0.00D+00
 Coeff-Com: -0.324D-05 0.528D-05 0.885D-05 0.363D-05-0.126D-04-0.194D-03
 Coeff-Com: -0.565D-03-0.539D-03 0.354D-02 0.732D-02 0.950D-03-0.204D-01
 Coeff-Com: -0.738D-01-0.646D-01 0.263D+00 0.886D+00
 Coeff:     -0.324D-05 0.528D-05 0.885D-05 0.363D-05-0.126D-04-0.194D-03
 Coeff:     -0.565D-03-0.539D-03 0.354D-02 0.732D-02 0.950D-03-0.204D-01
 Coeff:     -0.738D-01-0.646D-01 0.263D+00 0.886D+00
 Gap=     0.196 Goal=   None    Shift=    0.000
 Gap=     0.117 Goal=   None    Shift=    0.000
 RMSDP=6.94D-08 MaxDP=4.01D-06 DE=-2.68D-11 OVMax= 3.08D-06

 Cycle  17  Pass 1  IDiag  1:
 RMSU=  2.22D-08    CP:  8.69D-01  1.63D+00  6.29D-01  7.11D-01  8.43D-01
                    CP:  8.28D-01  1.15D+00  1.03D+00  1.10D+00  9.45D-01
                    CP:  1.10D+00  1.16D+00  1.24D+00  1.19D+00  1.37D+00
                    CP:  1.26D+00
 E= -364.254660690556     Delta-E=       -0.000000000005 Rises=F Damp=F
 DIIS: error= 5.57D-08 at cycle  17 NSaved=  17.
 NSaved=17 IEnMin=17 EnMin= -364.254660690556     IErMin=17 ErrMin= 5.57D-08
 ErrMax= 5.57D-08  0.00D+00 EMaxC= 1.00D-01 BMatC= 2.76D-12 BMatP= 1.18D-11
 IDIUse=1 WtCom= 1.00D+00 WtEn= 0.00D+00
 Coeff-Com: -0.706D-06 0.119D-05 0.727D-05 0.684D-05 0.241D-04-0.281D-04
 Coeff-Com: -0.296D-03-0.373D-03 0.497D-03 0.333D-02 0.275D-02-0.236D-02
 Coeff-Com: -0.203D-01-0.762D-01 0.828D-02 0.338D+00 0.747D+00
 Coeff:     -0.706D-06 0.119D-05 0.727D-05 0.684D-05 0.241D-04-0.281D-04
 Coeff:     -0.296D-03-0.373D-03 0.497D-03 0.333D-02 0.275D-02-0.236D-02
 Coeff:     -0.203D-01-0.762D-01 0.828D-02 0.338D+00 0.747D+00
 Gap=     0.196 Goal=   None    Shift=    0.000
 Gap=     0.117 Goal=   None    Shift=    0.000
 RMSDP=2.60D-08 MaxDP=1.61D-06 DE=-5.23D-12 OVMax= 1.34D-06

 Cycle  18  Pass 1  IDiag  1:
 RMSU=  9.12D-09    CP:  8.69D-01  1.63D+00  6.29D-01  7.11D-01  8.43D-01
                    CP:  8.28D-01  1.15D+00  1.03D+00  1.10D+00  9.46D-01
                    CP:  1.10D+00  1.16D+00  1.25D+00  1.21D+00  1.45D+00
                    CP:  1.47D+00  1.09D+00
 E= -364.254660690557     Delta-E=       -0.000000000001 Rises=F Damp=F
 DIIS: error= 2.67D-08 at cycle  18 NSaved=  18.
 NSaved=18 IEnMin=18 EnMin= -364.254660690557     IErMin=18 ErrMin= 2.67D-08
 ErrMax= 2.67D-08  0.00D+00 EMaxC= 1.00D-01 BMatC= 8.90D-13 BMatP= 2.76D-12
 IDIUse=1 WtCom= 1.00D+00 WtEn= 0.00D+00
 Coeff-Com:  0.677D-06-0.103D-05 0.265D-05 0.290D-05 0.200D-04 0.382D-04
 Coeff-Com: -0.421D-04-0.648D-04-0.635D-03 0.487D-04 0.921D-03 0.358D-02
 Coeff-Com:  0.104D-01-0.244D-01-0.583D-01-0.962D-01 0.363D+00 0.802D+00
 Coeff:      0.677D-06-0.103D-05 0.265D-05 0.290D-05 0.200D-04 0.382D-04
 Coeff:     -0.421D-04-0.648D-04-0.635D-03 0.487D-04 0.921D-03 0.358D-02
 Coeff:      0.104D-01-0.244D-01-0.583D-01-0.962D-01 0.363D+00 0.802D+00
 Gap=     0.196 Goal=   None    Shift=    0.000
 Gap=     0.117 Goal=   None    Shift=    0.000
 RMSDP=1.77D-08 MaxDP=9.81D-07 DE=-1.14D-12 OVMax= 9.88D-07

 Cycle  19  Pass 1  IDiag  1:
 RMSU=  4.49D-09    CP:  8.69D-01  1.63D+00  6.29D-01  7.11D-01  8.43D-01
                    CP:  8.28D-01  1.15D+00  1.03D+00  1.10D+00  9.46D-01
                    CP:  1.10D+00  1.17D+00  1.26D+00  1.21D+00  1.49D+00
                    CP:  1.59D+00  1.32D+00  1.18D+00
 E= -364.254660690558     Delta-E=       -0.000000000000 Rises=F Damp=F
 DIIS: error= 1.16D-08 at cycle  19 NSaved=  19.
 NSaved=19 IEnMin=19 EnMin= -364.254660690558     IErMin=19 ErrMin= 1.16D-08
 ErrMax= 1.16D-08  0.00D+00 EMaxC= 1.00D-01 BMatC= 1.65D-13 BMatP= 8.90D-13
 IDIUse=1 WtCom= 1.00D+00 WtEn= 0.00D+00
 Coeff-Com:  0.215D-06-0.310D-06-0.307D-06-0.114D-05-0.180D-05 0.731D-05
 Coeff-Com:  0.323D-04 0.668D-04-0.775D-04-0.520D-03-0.705D-03 0.330D-04
 Coeff-Com:  0.564D-02 0.145D-01 0.329D-02-0.969D-01-0.154D+00 0.976D-01
 Coeff-Com:  0.113D+01
 Coeff:      0.215D-06-0.310D-06-0.307D-06-0.114D-05-0.180D-05 0.731D-05
 Coeff:      0.323D-04 0.668D-04-0.775D-04-0.520D-03-0.705D-03 0.330D-04
 Coeff:      0.564D-02 0.145D-01 0.329D-02-0.969D-01-0.154D+00 0.976D-01
 Coeff:      0.113D+01
 Gap=     0.196 Goal=   None    Shift=    0.000
 Gap=     0.117 Goal=   None    Shift=    0.000
 RMSDP=1.05D-08 MaxDP=5.59D-07 DE=-2.27D-13 OVMax= 5.82D-07

 Cycle  20  Pass 1  IDiag  1:
 RMSU=  1.90D-09    CP:  8.69D-01  1.63D+00  6.29D-01  7.11D-01  8.43D-01
                    CP:  8.28D-01  1.15D+00  1.03D+00  1.10D+00  9.46D-01
                    CP:  1.10D+00  1.17D+00  1.27D+00  1.22D+00  1.52D+00
                    CP:  1.67D+00  1.47D+00  1.48D+00  1.25D+00
 E= -364.254660690557     Delta-E=        0.000000000001 Rises=F Damp=F
 DIIS: error= 4.11D-09 at cycle  20 NSaved=  20.
 NSaved=20 IEnMin=19 EnMin= -364.254660690558     IErMin=20 ErrMin= 4.11D-09
 ErrMax= 4.11D-09  0.00D+00 EMaxC= 1.00D-01 BMatC= 1.76D-14 BMatP= 1.65D-13
 IDIUse=1 WtCom= 1.00D+00 WtEn= 0.00D+00
 Coeff-Com: -0.233D-07 0.433D-07-0.128D-06-0.573D-06-0.225D-05-0.358D-05
 Coeff-Com:  0.457D-05 0.164D-04 0.754D-04-0.633D-04-0.255D-03-0.603D-03
 Coeff-Com: -0.131D-03 0.574D-02 0.950D-02-0.113D-01-0.823D-01-0.746D-01
 Coeff-Com:  0.244D+00 0.910D+00
 Coeff:     -0.233D-07 0.433D-07-0.128D-06-0.573D-06-0.225D-05-0.358D-05
 Coeff:      0.457D-05 0.164D-04 0.754D-04-0.633D-04-0.255D-03-0.603D-03
 Coeff:     -0.131D-03 0.574D-02 0.950D-02-0.113D-01-0.823D-01-0.746D-01
 Coeff:      0.244D+00 0.910D+00
 Gap=     0.196 Goal=   None    Shift=    0.000
 Gap=     0.117 Goal=   None    Shift=    0.000
 RMSDP=3.27D-09 MaxDP=1.70D-07 DE= 5.68D-13 OVMax= 1.51D-07

 SCF Done:  E(UB3LYP) =  -364.254660691     A.U. after   20 cycles
            NFock= 20  Conv=0.33D-08     -V/T= 2.0047
 <Sx>= 0.0000 <Sy>= 0.0000 <Sz>= 0.5000 <S**2>= 0.7590 S= 0.5045
 <L.S>=  0.00000000000    
 KE= 3.625459879121D+02 PE=-1.723827333286D+03 EE= 5.574725700441D+02
 Annihilation of the first spin contaminant:
 S**2 before annihilation     0.7590,   after     0.7500
 Leave Link  502 at Mon Mar 20 05:06:11 2023, MaxMem=  8053063680 cpu:             705.7 elap:              22.1
 (Enter /public3/home/scg5914/software-scg5914/g16/l601.exe)
 Copying SCF densities to generalized density rwf, IOpCl= 1 IROHF=0.

 **********************************************************************

            Population analysis using the SCF Density.

 **********************************************************************

 Orbital symmetries:
 Alpha Orbitals:
       Occupied  (A) (A) (A) (A) (A) (A) (A) (A) (A) (A) (A) (A)
                 (A) (A) (A) (A) (A) (A) (A) (A) (A) (A) (A) (A)
                 (A) (A) (A) (A) (A) (A) (A) (A)
       Virtual   (A) (A) (A) (A) (A) (A) (A) (A) (A) (A) (A) (A)
                 (A) (A) (A) (A) (A) (A) (A) (A) (A) (A) (A) (A)
                 (A) (A) (A) (A) (A) (A) (A) (A) (A) (A) (A) (A)
                 (A) (A) (A) (A) (A) (A) (A) (A) (A) (A) (A) (A)
                 (A) (A) (A) (A) (A) (A) (A) (A) (A) (A) (A) (A)
                 (A) (A) (A) (A) (A) (A) (A) (A) (A) (A) (A) (A)
                 (A) (A) (A) (A) (A) (A) (A) (A) (A) (A) (A) (A)
                 (A) (A) (A) (A) (A) (A) (A) (A) (A) (A) (A) (A)
                 (A) (A) (A) (A) (A) (A) (A) (A) (A) (A) (A) (A)
                 (A) (A) (A) (A) (A) (A) (A) (A) (A) (A) (A) (A)
                 (A) (A) (A) (A) (A) (A) (A) (A) (A) (A) (A) (A)
                 (A) (A) (A) (A) (A) (A) (A) (A) (A) (A) (A) (A)
                 (A) (A) (A) (A) (A) (A) (A) (A) (A) (A) (A) (A)
                 (A) (A) (A) (A) (A) (A) (A) (A) (A) (A) (A) (A)
                 (A) (A) (A) (A) (A) (A) (A) (A) (A) (A) (A) (A)
                 (A) (A) (A) (A) (A) (A) (A) (A) (A) (A) (A) (A)
                 (A) (A) (A) (A) (A) (A) (A) (A) (A) (A) (A) (A)
                 (A) (A) (A) (A) (A) (A) (A) (A) (A) (A)
 Beta  Orbitals:
       Occupied  (A) (A) (A) (A) (A) (A) (A) (A) (A) (A) (A) (A)
                 (A) (A) (A) (A) (A) (A) (A) (A) (A) (A) (A) (A)
                 (A) (A) (A) (A) (A) (A) (A)
       Virtual   (A) (A) (A) (A) (A) (A) (A) (A) (A) (A) (A) (A)
                 (A) (A) (A) (A) (A) (A) (A) (A) (A) (A) (A) (A)
                 (A) (A) (A) (A) (A) (A) (A) (A) (A) (A) (A) (A)
                 (A) (A) (A) (A) (A) (A) (A) (A) (A) (A) (A) (A)
                 (A) (A) (A) (A) (A) (A) (A) (A) (A) (A) (A) (A)
                 (A) (A) (A) (A) (A) (A) (A) (A) (A) (A) (A) (A)
                 (A) (A) (A) (A) (A) (A) (A) (A) (A) (A) (A) (A)
                 (A) (A) (A) (A) (A) (A) (A) (A) (A) (A) (A) (A)
                 (A) (A) (A) (A) (A) (A) (A) (A) (A) (A) (A) (A)
                 (A) (A) (A) (A) (A) (A) (A) (A) (A) (A) (A) (A)
                 (A) (A) (A) (A) (A) (A) (A) (A) (A) (A) (A) (A)
                 (A) (A) (A) (A) (A) (A) (A) (A) (A) (A) (A) (A)
                 (A) (A) (A) (A) (A) (A) (A) (A) (A) (A) (A) (A)
                 (A) (A) (A) (A) (A) (A) (A) (A) (A) (A) (A) (A)
                 (A) (A) (A) (A) (A) (A) (A) (A) (A) (A) (A) (A)
                 (A) (A) (A) (A) (A) (A) (A) (A) (A) (A) (A) (A)
                 (A) (A) (A) (A) (A) (A) (A) (A) (A) (A) (A) (A)
                 (A) (A) (A) (A) (A) (A) (A) (A) (A) (A) (A)
 The electronic state is 2-A.
 Alpha  occ. eigenvalues --  -14.34584 -10.25549 -10.24096 -10.22672 -10.22156
 Alpha  occ. eigenvalues --  -10.21244 -10.19705 -10.19581 -10.18981  -1.04957
 Alpha  occ. eigenvalues --   -0.84612  -0.79620  -0.78560  -0.71686  -0.62235
 Alpha  occ. eigenvalues --   -0.57203  -0.55939  -0.54351  -0.51493  -0.50638
 Alpha  occ. eigenvalues --   -0.43806  -0.42988  -0.40982  -0.40804  -0.39741
 Alpha  occ. eigenvalues --   -0.38756  -0.37676  -0.33842  -0.31143  -0.28437
 Alpha  occ. eigenvalues --   -0.25824  -0.21269
 Alpha virt. eigenvalues --   -0.01690  -0.00335   0.00883   0.01782   0.02575
 Alpha virt. eigenvalues --    0.03557   0.04304   0.04636   0.05059   0.05486
 Alpha virt. eigenvalues --    0.06375   0.07188   0.07575   0.08961   0.09057
 Alpha virt. eigenvalues --    0.09725   0.10442   0.10901   0.11135   0.11422
 Alpha virt. eigenvalues --    0.12846   0.13056   0.14169   0.14723   0.14994
 Alpha virt. eigenvalues --    0.15785   0.16159   0.16397   0.17581   0.17701
 Alpha virt. eigenvalues --    0.18172   0.18835   0.19132   0.19291   0.20095
 Alpha virt. eigenvalues --    0.20997   0.21859   0.22363   0.22696   0.23401
 Alpha virt. eigenvalues --    0.23814   0.24854   0.25119   0.25724   0.26747
 Alpha virt. eigenvalues --    0.27142   0.27921   0.28881   0.30489   0.30699
 Alpha virt. eigenvalues --    0.32103   0.33528   0.34378   0.36094   0.37019
 Alpha virt. eigenvalues --    0.38721   0.40393   0.43502   0.44725   0.45640
 Alpha virt. eigenvalues --    0.49247   0.51308   0.53218   0.54362   0.55742
 Alpha virt. eigenvalues --    0.56824   0.58795   0.59643   0.61415   0.62378
 Alpha virt. eigenvalues --    0.62958   0.63507   0.64202   0.64646   0.65068
 Alpha virt. eigenvalues --    0.65971   0.66294   0.67014   0.68020   0.68871
 Alpha virt. eigenvalues --    0.70255   0.71330   0.71681   0.73139   0.73939
 Alpha virt. eigenvalues --    0.77522   0.79355   0.81096   0.83353   0.85739
 Alpha virt. eigenvalues --    0.87780   0.91648   0.93064   0.96309   1.00035
 Alpha virt. eigenvalues --    1.01784   1.02685   1.04184   1.06540   1.07626
 Alpha virt. eigenvalues --    1.13422   1.17393   1.22229   1.29660   1.30567
 Alpha virt. eigenvalues --    1.34056   1.36907   1.38790   1.42146   1.43943
 Alpha virt. eigenvalues --    1.45911   1.46685   1.50672   1.52536   1.54497
 Alpha virt. eigenvalues --    1.55523   1.56195   1.57125   1.60166   1.61804
 Alpha virt. eigenvalues --    1.63638   1.64447   1.65230   1.67075   1.68224
 Alpha virt. eigenvalues --    1.71241   1.73051   1.74950   1.76543   1.78022
 Alpha virt. eigenvalues --    1.80472   1.83171   1.84710   1.86277   1.87633
 Alpha virt. eigenvalues --    1.89849   1.90055   1.90879   1.92659   1.98195
 Alpha virt. eigenvalues --    2.00548   2.02314   2.03162   2.06556   2.09001
 Alpha virt. eigenvalues --    2.10653   2.12001   2.12449   2.15587   2.18891
 Alpha virt. eigenvalues --    2.22405   2.26450   2.31436   2.33944   2.35480
 Alpha virt. eigenvalues --    2.42369   2.43611   2.43916   2.46206   2.48877
 Alpha virt. eigenvalues --    2.50433   2.54615   2.55264   2.57527   2.58578
 Alpha virt. eigenvalues --    2.62023   2.62827   2.65720   2.67712   2.72927
 Alpha virt. eigenvalues --    2.74342   2.76751   2.77812   2.80470   2.83898
 Alpha virt. eigenvalues --    2.84657   2.88426   2.89648   2.91313   2.95394
 Alpha virt. eigenvalues --    3.01822   3.07603   3.12136   3.17544   3.22770
 Alpha virt. eigenvalues --    3.27098   3.30388   3.39338   3.44783   3.51357
 Alpha virt. eigenvalues --    3.53200   3.66868   3.76078   3.77800   3.81672
 Alpha virt. eigenvalues --    3.85523   3.97140   4.05608   4.07515   4.17152
 Alpha virt. eigenvalues --    4.24422   4.33995   4.53545   4.61778   4.83136
 Alpha virt. eigenvalues --   23.67900  23.73849  23.80173  23.88542  23.89631
 Alpha virt. eigenvalues --   23.94418  23.97806  24.01477  35.57158
  Beta  occ. eigenvalues --  -14.34527 -10.25384 -10.23110 -10.22589 -10.22090
  Beta  occ. eigenvalues --  -10.21239 -10.19621 -10.18983 -10.18915  -1.04630
  Beta  occ. eigenvalues --   -0.84311  -0.79342  -0.78173  -0.71495  -0.61872
  Beta  occ. eigenvalues --   -0.56982  -0.55649  -0.53620  -0.50988  -0.50215
  Beta  occ. eigenvalues --   -0.43621  -0.42898  -0.40821  -0.40289  -0.38803
  Beta  occ. eigenvalues --   -0.38345  -0.37311  -0.32874  -0.30277  -0.27368
  Beta  occ. eigenvalues --   -0.22543
  Beta virt. eigenvalues --   -0.10858  -0.01076  -0.00169   0.00946   0.01813
  Beta virt. eigenvalues --    0.02630   0.03744   0.04384   0.04745   0.05140
  Beta virt. eigenvalues --    0.05661   0.06750   0.07342   0.07719   0.09028
  Beta virt. eigenvalues --    0.09364   0.09880   0.10675   0.11017   0.11467
  Beta virt. eigenvalues --    0.11618   0.12935   0.13243   0.14268   0.14777
  Beta virt. eigenvalues --    0.15141   0.15821   0.16249   0.16588   0.17669
  Beta virt. eigenvalues --    0.17819   0.18257   0.18948   0.19295   0.19479
  Beta virt. eigenvalues --    0.20365   0.21096   0.22045   0.22617   0.22974
  Beta virt. eigenvalues --    0.23747   0.24021   0.25175   0.25449   0.26179
  Beta virt. eigenvalues --    0.26999   0.27283   0.28047   0.29159   0.30703
  Beta virt. eigenvalues --    0.30959   0.32452   0.33733   0.34579   0.36335
  Beta virt. eigenvalues --    0.37460   0.39157   0.40883   0.43607   0.44979
  Beta virt. eigenvalues --    0.45711   0.49389   0.51499   0.53442   0.54803
  Beta virt. eigenvalues --    0.55994   0.56949   0.59025   0.59812   0.61634
  Beta virt. eigenvalues --    0.62537   0.63337   0.63901   0.64432   0.65034
  Beta virt. eigenvalues --    0.65528   0.66602   0.66743   0.67478   0.68384
  Beta virt. eigenvalues --    0.69099   0.70462   0.71708   0.72395   0.73385
  Beta virt. eigenvalues --    0.74393   0.77695   0.79717   0.81438   0.83748
  Beta virt. eigenvalues --    0.86097   0.88331   0.91787   0.93361   0.96552
  Beta virt. eigenvalues --    1.00383   1.02004   1.03024   1.05123   1.06832
  Beta virt. eigenvalues --    1.07798   1.14046   1.18171   1.22500   1.30260
  Beta virt. eigenvalues --    1.31170   1.34415   1.37212   1.39267   1.42603
  Beta virt. eigenvalues --    1.44049   1.46161   1.47021   1.50837   1.52978
  Beta virt. eigenvalues --    1.54819   1.55788   1.56481   1.57387   1.60737
  Beta virt. eigenvalues --    1.62129   1.63879   1.65016   1.65645   1.67383
  Beta virt. eigenvalues --    1.68376   1.71562   1.73432   1.75341   1.77111
  Beta virt. eigenvalues --    1.78368   1.80832   1.83510   1.85167   1.86615
  Beta virt. eigenvalues --    1.88061   1.90227   1.90969   1.91248   1.93333
  Beta virt. eigenvalues --    1.98769   2.00984   2.03230   2.03623   2.07176
  Beta virt. eigenvalues --    2.09657   2.11415   2.12313   2.13064   2.16480
  Beta virt. eigenvalues --    2.19485   2.22926   2.26765   2.31771   2.34361
  Beta virt. eigenvalues --    2.35911   2.42700   2.43743   2.44266   2.46416
  Beta virt. eigenvalues --    2.48979   2.50652   2.54895   2.55480   2.57673
  Beta virt. eigenvalues --    2.58800   2.62176   2.63175   2.65901   2.68079
  Beta virt. eigenvalues --    2.73308   2.74559   2.76945   2.78082   2.80842
  Beta virt. eigenvalues --    2.84322   2.84912   2.88752   2.89726   2.91517
  Beta virt. eigenvalues --    2.95668   3.02080   3.07784   3.12642   3.17896
  Beta virt. eigenvalues --    3.23389   3.27566   3.30906   3.39496   3.45423
  Beta virt. eigenvalues --    3.51717   3.54148   3.67884   3.76150   3.77848
  Beta virt. eigenvalues --    3.81725   3.86054   3.97524   4.05830   4.07631
  Beta virt. eigenvalues --    4.17315   4.24688   4.34239   4.54025   4.62038
  Beta virt. eigenvalues --    4.83282  23.68689  23.74373  23.80565  23.88710
  Beta virt. eigenvalues --   23.89704  23.94431  23.97980  24.01666  35.57222
          Condensed to atoms (all electrons):
               1          2          3          4          5          6
     1  C    7.657579  -0.415607  -0.477919  -0.500955  -0.018862   0.025676
     2  C   -0.415607  10.500157  -2.645999   0.000292  -0.282743  -0.237223
     3  C   -0.477919  -2.645999   8.639587   0.163219  -0.050944   0.204070
     4  N   -0.500955   0.000292   0.163219   6.914973   0.364358  -0.087478
     5  C   -0.018862  -0.282743  -0.050944   0.364358   7.048459  -0.627489
     6  C    0.025676  -0.237223   0.204070  -0.087478  -0.627489   6.199601
     7  C   -1.396492  -1.463592   1.092990   0.258795  -0.400818   0.044598
     8  C   -0.510479   0.276975  -0.680341   0.149311   0.768843  -0.266200
     9  C    0.289534   0.481841   0.003507  -0.180644  -1.001040   0.390575
    10  H    0.462576  -0.137751   0.046366  -0.001761   0.004667  -0.008331
    11  H    0.315666   0.025290  -0.036931   0.023279  -0.001539   0.003199
    12  H    0.448944  -0.016794  -0.008583  -0.025389  -0.005506   0.002941
    13  H   -0.000135  -0.022345   0.057259  -0.056570   0.331093  -0.004784
    14  H    0.003448   0.037151  -0.015926   0.011925  -0.020917   0.381568
    15  H   -0.003910   0.007226   0.001980   0.000173  -0.038127   0.411121
    16  H   -0.057561  -0.031688   0.016485   0.008602   0.022478  -0.009749
    17  H   -0.011702  -0.077326   0.052058   0.004021  -0.007403   0.030541
               7          8          9         10         11         12
     1  C   -1.396492  -0.510479   0.289534   0.462576   0.315666   0.448944
     2  C   -1.463592   0.276975   0.481841  -0.137751   0.025290  -0.016794
     3  C    1.092990  -0.680341   0.003507   0.046366  -0.036931  -0.008583
     4  N    0.258795   0.149311  -0.180644  -0.001761   0.023279  -0.025389
     5  C   -0.400818   0.768843  -1.001040   0.004667  -0.001539  -0.005506
     6  C    0.044598  -0.266200   0.390575  -0.008331   0.003199   0.002941
     7  C    8.036465  -0.364972   0.101667   0.027588   0.006933  -0.028881
     8  C   -0.364972   7.433385  -1.011555  -0.018441   0.036473  -0.004200
     9  C    0.101667  -1.011555   7.006509  -0.000498  -0.005798   0.003181
    10  H    0.027588  -0.018441  -0.000498   0.506867  -0.024015  -0.025166
    11  H    0.006933   0.036473  -0.005798  -0.024015   0.541569  -0.034845
    12  H   -0.028881  -0.004200   0.003181  -0.025166  -0.034845   0.543600
    13  H    0.025051  -0.042404   0.020968   0.000059   0.000032  -0.000113
    14  H   -0.060249   0.011807   0.003883   0.000009  -0.000024  -0.000014
    15  H   -0.064491   0.030418   0.005744  -0.000065   0.000074   0.000252
    16  H    0.417840   0.001320  -0.002929  -0.000117   0.001004   0.000267
    17  H   -0.045379   0.431199  -0.041922   0.000152   0.000479  -0.000088
              13         14         15         16         17
     1  C   -0.000135   0.003448  -0.003910  -0.057561  -0.011702
     2  C   -0.022345   0.037151   0.007226  -0.031688  -0.077326
     3  C    0.057259  -0.015926   0.001980   0.016485   0.052058
     4  N   -0.056570   0.011925   0.000173   0.008602   0.004021
     5  C    0.331093  -0.020917  -0.038127   0.022478  -0.007403
     6  C   -0.004784   0.381568   0.411121  -0.009749   0.030541
     7  C    0.025051  -0.060249  -0.064491   0.417840  -0.045379
     8  C   -0.042404   0.011807   0.030418   0.001320   0.431199
     9  C    0.020968   0.003883   0.005744  -0.002929  -0.041922
    10  H    0.000059   0.000009  -0.000065  -0.000117   0.000152
    11  H    0.000032  -0.000024   0.000074   0.001004   0.000479
    12  H   -0.000113  -0.000014   0.000252   0.000267  -0.000088
    13  H    0.534006  -0.001942  -0.002791  -0.000029   0.000255
    14  H   -0.001942   0.517141  -0.020236  -0.001214  -0.000509
    15  H   -0.002791  -0.020236   0.523041  -0.000745  -0.000184
    16  H   -0.000029  -0.001214  -0.000745   0.497714  -0.000347
    17  H    0.000255  -0.000509  -0.000184  -0.000347   0.496185
          Atomic-Atomic Spin Densities.
               1          2          3          4          5          6
     1  C    0.097024  -0.108502  -0.022776   0.016831  -0.020243   0.032353
     2  C   -0.108502   0.131182  -0.106578   0.050688  -0.035880   0.082493
     3  C   -0.022776  -0.106578   0.810998  -0.058223   0.014252  -0.071036
     4  N    0.016831   0.050688  -0.058223   0.006445   0.025434  -0.013639
     5  C   -0.020243  -0.035880   0.014252   0.025434  -0.049110  -0.035517
     6  C    0.032353   0.082493  -0.071036  -0.013639  -0.035517   0.150483
     7  C   -0.009293   0.002410   0.049080  -0.023968   0.065288  -0.040076
     8  C   -0.013109   0.106555  -0.065447   0.015525  -0.059047  -0.052296
     9  C   -0.007271  -0.071362  -0.047679  -0.007336   0.096649   0.041689
    10  H   -0.004889   0.001424   0.005495  -0.001874   0.001108  -0.001672
    11  H   -0.002816   0.002074   0.002274  -0.000614   0.000799  -0.001830
    12  H    0.003299  -0.002850  -0.000980   0.001504  -0.001809   0.003342
    13  H    0.000198   0.003317   0.002547  -0.001263   0.011226  -0.020718
    14  H   -0.001836  -0.008197   0.003151   0.001441   0.009522  -0.015182
    15  H   -0.003746   0.001008   0.000554   0.001045   0.006837  -0.022613
    16  H    0.000783  -0.000691   0.000541   0.000209   0.000305  -0.004906
    17  H    0.002014   0.005615   0.005141   0.000146   0.001116  -0.006663
               7          8          9         10         11         12
     1  C   -0.009293  -0.013109  -0.007271  -0.004889  -0.002816   0.003299
     2  C    0.002410   0.106555  -0.071362   0.001424   0.002074  -0.002850
     3  C    0.049080  -0.065447  -0.047679   0.005495   0.002274  -0.000980
     4  N   -0.023968   0.015525  -0.007336  -0.001874  -0.000614   0.001504
     5  C    0.065288  -0.059047   0.096649   0.001108   0.000799  -0.001809
     6  C   -0.040076  -0.052296   0.041689  -0.001672  -0.001830   0.003342
     7  C   -0.071033   0.056580  -0.052565   0.001662   0.002167  -0.001676
     8  C    0.056580  -0.044761   0.156670   0.000082  -0.000675  -0.000354
     9  C   -0.052565   0.156670   0.169486  -0.000528  -0.000216   0.000438
    10  H    0.001662   0.000082  -0.000528   0.001432   0.000307  -0.000268
    11  H    0.002167  -0.000675  -0.000216   0.000307   0.000941   0.000267
    12  H   -0.001676  -0.000354   0.000438  -0.000268   0.000267  -0.001364
    13  H    0.004333   0.001090   0.000072   0.000004  -0.000003   0.000007
    14  H    0.002391   0.011139  -0.008099   0.000006   0.000012  -0.000023
    15  H    0.008277   0.003477  -0.000251   0.000035   0.000032  -0.000162
    16  H    0.004857  -0.003553   0.002576   0.000003  -0.000099   0.000057
    17  H    0.006835  -0.012384   0.008510  -0.000007  -0.000104   0.000017
              13         14         15         16         17
     1  C    0.000198  -0.001836  -0.003746   0.000783   0.002014
     2  C    0.003317  -0.008197   0.001008  -0.000691   0.005615
     3  C    0.002547   0.003151   0.000554   0.000541   0.005141
     4  N   -0.001263   0.001441   0.001045   0.000209   0.000146
     5  C    0.011226   0.009522   0.006837   0.000305   0.001116
     6  C   -0.020718  -0.015182  -0.022613  -0.004906  -0.006663
     7  C    0.004333   0.002391   0.008277   0.004857   0.006835
     8  C    0.001090   0.011139   0.003477  -0.003553  -0.012384
     9  C    0.000072  -0.008099  -0.000251   0.002576   0.008510
    10  H    0.000004   0.000006   0.000035   0.000003  -0.000007
    11  H   -0.000003   0.000012   0.000032  -0.000099  -0.000104
    12  H    0.000007  -0.000023  -0.000162   0.000057   0.000017
    13  H   -0.003636   0.001354   0.001063  -0.000029  -0.000085
    14  H    0.001354   0.005945   0.002721   0.000412   0.000249
    15  H    0.001063   0.002721   0.007776   0.000257   0.000045
    16  H   -0.000029   0.000412   0.000257  -0.001331  -0.000346
    17  H   -0.000085   0.000249   0.000045  -0.000346  -0.009340
 Mulliken charges and spin densities:
               1          2
     1  C    0.190198  -0.041977
     2  C    0.002136   0.052707
     3  C   -0.360877   0.521313
     4  N   -0.046150   0.012351
     5  C   -0.084511   0.030930
     6  C   -0.452635   0.024211
     7  C   -0.187055   0.005269
     8  C   -0.241141   0.099493
     9  C   -0.063024   0.280785
    10  H    0.167859   0.002319
    11  H    0.149154   0.002514
    12  H    0.150395  -0.000554
    13  H    0.162391  -0.000523
    14  H    0.154100   0.005006
    15  H    0.150520   0.006355
    16  H    0.138670  -0.000956
    17  H    0.169971   0.000759
 Sum of Mulliken charges =  -0.00000   1.00000
 Mulliken charges and spin densities with hydrogens summed into heavy atoms:
               1          2
     1  C    0.657606  -0.037699
     2  C    0.002136   0.052707
     3  C   -0.360877   0.521313
     4  N   -0.046150   0.012351
     5  C    0.077879   0.030406
     6  C   -0.148015   0.035572
     7  C   -0.048385   0.004313
     8  C   -0.071170   0.100252
     9  C   -0.063024   0.280785
 Electronic spatial extent (au):  <R**2>=            814.0608
 Charge=             -0.0000 electrons
 Dipole moment (field-independent basis, Debye):
    X=              1.4126    Y=              3.7680    Z=              1.4731  Tot=              4.2853
 Quadrupole moment (field-independent basis, Debye-Ang):
   XX=            -53.1022   YY=            -58.2059   ZZ=            -52.8352
   XY=             -2.7215   XZ=              2.4152   YZ=             -0.9534
 Traceless Quadrupole moment (field-independent basis, Debye-Ang):
   XX=              1.6122   YY=             -3.4915   ZZ=              1.8792
   XY=             -2.7215   XZ=              2.4152   YZ=             -0.9534
 Octapole moment (field-independent basis, Debye-Ang**2):
  XXX=             16.8923  YYY=             22.5297  ZZZ=              8.1160  XYY=              5.5321
  XXY=             11.3785  XXZ=             -5.6586  XZZ=             -1.2489  YZZ=              2.7299
  YYZ=             -0.3418  XYZ=             -0.6739
 Hexadecapole moment (field-independent basis, Debye-Ang**3):
 XXXX=           -576.9615 YYYY=           -348.1563 ZZZZ=           -252.4850 XXXY=            -24.1320
 XXXZ=              7.6552 YYYX=            -11.9192 YYYZ=              0.2104 ZZZX=             12.8965
 ZZZY=             -6.7073 XXYY=           -161.0837 XXZZ=           -135.5290 YYZZ=            -92.6626
 XXYZ=              5.6392 YYXZ=             -0.2987 ZZXY=              0.4322
 N-N= 4.395541146388D+02 E-N=-1.723827333071D+03  KE= 3.625459879121D+02
                          Isotropic Fermi Contact Couplings
        Atom                 a.u.       MegaHertz       Gauss      10(-4) cm-1
     1  C(13)              0.00102       1.14589       0.40888       0.38223
     2  C(13)             -0.00053      -0.59726      -0.21312      -0.19922
     3  C(13)              0.44482     500.05837     178.43326     166.80152
     4  N(14)              0.05138      16.59999       5.92329       5.53716
     5  C(13)              0.02156      24.23769       8.64861       8.08482
     6  C(13)              0.05403      60.74401      21.67497      20.26202
     7  C(13)             -0.00197      -2.21151      -0.78912      -0.73768
     8  C(13)              0.00872       9.80727       3.49948       3.27135
     9  C(13)              0.28278     317.89435     113.43261     106.03814
    10  H(1)               0.00025       1.10627       0.39474       0.36901
    11  H(1)               0.00074       3.31279       1.18209       1.10503
    12  H(1)               0.00061       2.74464       0.97936       0.91551
    13  H(1)              -0.00039      -1.72517      -0.61558      -0.57546
    14  H(1)               0.00104       4.63262       1.65303       1.54528
    15  H(1)               0.00095       4.25508       1.51832       1.41934
    16  H(1)              -0.00047      -2.09308      -0.74686      -0.69818
    17  H(1)              -0.00127      -5.65955      -2.01947      -1.88782
 --------------------------------------------------------
       Center         ----  Spin Dipole Couplings  ----
                      3XX-RR        3YY-RR        3ZZ-RR
 --------------------------------------------------------
     1   Atom        0.006210     -0.000638     -0.005572
     2   Atom       -0.071036      0.108313     -0.037277
     3   Atom       -0.116331      0.368814     -0.252483
     4   Atom       -0.025940      0.039183     -0.013243
     5   Atom       -0.025730      0.042281     -0.016552
     6   Atom       -0.011862      0.029908     -0.018046
     7   Atom        0.012458     -0.001273     -0.011185
     8   Atom        0.074632     -0.021414     -0.053218
     9   Atom       -0.098184      0.293386     -0.195202
    10   Atom        0.006504     -0.002583     -0.003921
    11   Atom        0.003794     -0.001098     -0.002696
    12   Atom        0.002488      0.000470     -0.002958
    13   Atom       -0.002457     -0.002345      0.004802
    14   Atom       -0.000188      0.004183     -0.003995
    15   Atom       -0.002434      0.005330     -0.002896
    16   Atom       -0.002279      0.002128      0.000151
    17   Atom       -0.004387     -0.006359      0.010746
 --------------------------------------------------------
                        XY            XZ            YZ
 --------------------------------------------------------
     1   Atom        0.004453      0.001542     -0.001281
     2   Atom       -0.029841      0.021405     -0.088857
     3   Atom       -0.314282     -0.004358      0.007426
     4   Atom       -0.036669     -0.014158      0.064451
     5   Atom       -0.004825      0.005904     -0.032623
     6   Atom       -0.018821      0.002904     -0.002037
     7   Atom        0.000359     -0.003419      0.005615
     8   Atom       -0.048661      0.019007     -0.004553
     9   Atom        0.185435     -0.001200     -0.001112
    10   Atom        0.003098     -0.003063     -0.001071
    11   Atom        0.003090      0.002449      0.001284
    12   Atom        0.003927     -0.001226     -0.000738
    13   Atom       -0.002774      0.006038     -0.005961
    14   Atom       -0.004367     -0.001533      0.000419
    15   Atom       -0.000711     -0.000408     -0.003412
    16   Atom        0.001586      0.000838      0.004641
    17   Atom       -0.002720      0.001719      0.001433
 --------------------------------------------------------


 ---------------------------------------------------------------------------------
              Anisotropic Spin Dipole Couplings in Principal Axis System
 ---------------------------------------------------------------------------------

       Atom             a.u.   MegaHertz   Gauss  10(-4) cm-1        Axes

              Baa    -0.0065    -0.875    -0.312    -0.292 -0.2399  0.3762  0.8949
     1 C(13)  Bbb    -0.0019    -0.259    -0.092    -0.086 -0.3646  0.8195 -0.4422
              Bcc     0.0085     1.134     0.405     0.378  0.8997  0.4324  0.0594
 
              Baa    -0.0847   -11.364    -4.055    -3.791 -0.6273  0.2435  0.7397
     2 C(13)  Bbb    -0.0714    -9.588    -3.421    -3.198  0.7627  0.3839  0.5205
              Bcc     0.1561    20.952     7.476     6.989 -0.1572  0.8907 -0.4266
 
              Baa    -0.2708   -36.337   -12.966   -12.121  0.8971  0.4404  0.0349
     3 C(13)  Bbb    -0.2526   -33.891   -12.093   -11.305 -0.0265 -0.0253  0.9993
              Bcc     0.5233    70.228    25.059    23.425 -0.4410  0.8974  0.0111
 
              Baa    -0.0598    -2.308    -0.823    -0.770 -0.3455 -0.5984  0.7229
     4 N(14)  Bbb    -0.0349    -1.347    -0.481    -0.449  0.8879  0.0409  0.4582
              Bcc     0.0948     3.655     1.304     1.219 -0.3037  0.8001  0.5173
 
              Baa    -0.0328    -4.408    -1.573    -1.470 -0.4612  0.3283  0.8243
     5 C(13)  Bbb    -0.0245    -3.288    -1.173    -1.097  0.8835  0.2556  0.3925
              Bcc     0.0574     7.696     2.746     2.567 -0.0818  0.9093 -0.4079
 
              Baa    -0.0207    -2.774    -0.990    -0.925  0.7403  0.2503 -0.6239
     6 C(13)  Bbb    -0.0166    -2.230    -0.796    -0.744  0.5679  0.2639  0.7797
              Bcc     0.0373     5.005     1.786     1.669 -0.3598  0.9315 -0.0532
 
              Baa    -0.0141    -1.895    -0.676    -0.632  0.1222 -0.4003  0.9082
     7 C(13)  Bbb     0.0012     0.156     0.056     0.052  0.0895  0.9158  0.3916
              Bcc     0.0130     1.739     0.620     0.580  0.9885 -0.0334 -0.1478
 
              Baa    -0.0563    -7.561    -2.698    -2.522 -0.1944 -0.1444  0.9702
     8 C(13)  Bbb    -0.0411    -5.515    -1.968    -1.840  0.3503  0.9137  0.2061
              Bcc     0.0974    13.077     4.666     4.362  0.9162 -0.3800  0.1271
 
              Baa    -0.1952   -26.198    -9.348    -8.739  0.0292 -0.0088  0.9995
     9 C(13)  Bbb    -0.1720   -23.086    -8.238    -7.701  0.9285 -0.3700 -0.0303
              Bcc     0.3673    49.284    17.586    16.439  0.3701  0.9290 -0.0026
 
              Baa    -0.0048    -2.556    -0.912    -0.853  0.2161  0.1636  0.9626
    10 H(1)   Bbb    -0.0035    -1.882    -0.672    -0.628 -0.3185  0.9437 -0.0889
              Bcc     0.0083     4.439     1.584     1.481  0.9229  0.2874 -0.2561
 
              Baa    -0.0036    -1.903    -0.679    -0.635 -0.2292 -0.2077  0.9510
    11 H(1)   Bbb    -0.0026    -1.380    -0.492    -0.460 -0.4599  0.8842  0.0823
              Bcc     0.0062     3.283     1.171     1.095  0.8579  0.4185  0.2982
 
              Baa    -0.0032    -1.724    -0.615    -0.575  0.2729 -0.0986  0.9570
    12 H(1)   Bbb    -0.0025    -1.352    -0.482    -0.451 -0.5605  0.7922  0.2414
              Bcc     0.0058     3.076     1.098     1.026  0.7819  0.6023 -0.1609
 
              Baa    -0.0062    -3.301    -1.178    -1.101  0.6121 -0.5038 -0.6096
    13 H(1)   Bbb    -0.0052    -2.758    -0.984    -0.920  0.6619  0.7481  0.0464
              Bcc     0.0114     6.059     2.162     2.021  0.4327 -0.4319  0.7914
 
              Baa    -0.0047    -2.531    -0.903    -0.844  0.4724  0.1907  0.8605
    14 H(1)   Bbb    -0.0023    -1.207    -0.431    -0.403  0.7024  0.5083 -0.4983
              Bcc     0.0070     3.738     1.334     1.247 -0.5325  0.8398  0.1062
 
              Baa    -0.0043    -2.313    -0.825    -0.772  0.3161  0.3364  0.8871
    15 H(1)   Bbb    -0.0023    -1.204    -0.430    -0.402  0.9469 -0.0539 -0.3170
              Bcc     0.0066     3.517     1.255     1.173 -0.0588  0.9402 -0.3356
 
              Baa    -0.0037    -1.981    -0.707    -0.661  0.2971 -0.6421  0.7067
    16 H(1)   Bbb    -0.0025    -1.352    -0.483    -0.451  0.9332  0.0383 -0.3574
              Bcc     0.0062     3.334     1.190     1.112  0.2024  0.7657  0.6106
 
              Baa    -0.0085    -4.540    -1.620    -1.514  0.5794  0.8074 -0.1118
    17 H(1)   Bbb    -0.0025    -1.336    -0.477    -0.446  0.8090 -0.5863 -0.0416
              Bcc     0.0110     5.876     2.097     1.960  0.0991  0.0664  0.9929
 

 ---------------------------------------------------------------------------------

 No NMR shielding tensors so no spin-rotation constants.
[...]
     9. BD (   1) C   3 - C   9          0.97421    -0.48723  31(g),230(g),242(v),233(g)
                                                    236(v),237(g),152(v),246(v)
                                                    231(v),52(v),50(v)
    10. BD (   1) N   4 - C   5          0.97881    -0.65453  31(v),226(v),245(v),51(v)
                                                    240(v),244(v),67(v),233(g)
                                                    230(v)
    11. BD (   1) C   5 - C   6          0.97877    -0.61627  243(v),234(v),138(v),239(g)
                                                    238(g),237(g),233(v),241(g)
    12. BD (   1) C   5 - C   9          0.97263    -0.57965  31(v),246(v),241(v),230(v)
                                                    245(g),238(g),153(v),231(v)
                                                    233(v),118(v)
    13. BD (   1) C   5 - H  13          0.99179    -0.53521  231(v),239(v),84(v),244(v)
                                                    245(v)
    14. BD (   1) C   6 - C   7          0.98012    -0.60210  238(v),246(v),231(v),226(v)
                                                    230(v),235(v),236(g),51(v)
                                                    232(g),243(g),152(v)
    15. BD (   1) C   6 - H  14          0.98645    -0.51770  235(v),232(v)
    16. BD (   1) C   6 - H  15          0.98900    -0.52013  237(v),242(v),235(v),101(v)
                                                    135(v)
    17. BD (   1) C   7 - C   8          0.98478    -0.62648  226(v),241(v),169(v),230(v)
                                                    31(r),245(g),234(v),118(v)
                                                    243(g),239(g),244(g),50(v)
                                                    52(v),232(g)
    18. BD (   1) C   7 - H  16          0.99174    -0.54263  244(v),231(v),236(v),230(v)
                                                    232(g)
    19. BD (   1) C   8 - C   9          0.99528    -0.64245  31(v),136(v),243(v),68(v)
                                                    102(v),238(v)
    20. BD (   2) C   8 - C   9          0.77183    -0.30444  31(v),234(g),243(v),238(v)
                                                    235(v),226(r),237(g),232(v)
                                                    67(v),242(g),245(g),137(v)
    21. BD (   1) C   8 - H  17          0.98903    -0.55543  245(g),31(r),237(v),239(v)
                                                    170(v),135(v),233(r)
    22. CR (   1) C   1                  0.99958   -10.03268  50(v),54(v),232(v),186(v)
    23. CR (   1) C   2                  0.99955   -10.11851  31(v),234(v),35(v)
    24. CR (   1) C   3                  0.99907   -10.10487  234(g),245(v),231(v),52(v)
                                                    172(v),87(v),226(v)
    25. CR (   1) N   4                  0.99969   -14.14929  51(v),67(v),31(v),231(g)
                                                    101(v),102(v)
    26. CR (   1) C   5                  0.99958   -10.08919  120(v),169(v)
    27. CR (   1) C   6                  0.99961   -10.04882  101(v),138(v),211(v)
    28. CR (   1) C   7                  0.99952   -10.06683  51(v),120(v),53(v),226(v)
                                                    153(v)
    29. CR (   1) C   8                  0.99950   -10.07834  245(g),31(r),169(v),136(v)
                                                    221(v),170(v)
    30. CR (   1) C   9                  0.99858   -10.05007  245(g),31(v),234(g),153(v)
                                                    230(v),68(v),102(v)
    31. LP*(   1) C   3                  0.28405    -0.06657  234(g),230(g),245(v),233(g)
                                                    226(v),232(v),237(v),235(v)
                                                    75(g),84(v),50(v),85(v)
                                                    69(g),79(g),172(v),152(r)
    32. LP (   1) N   4                  0.90598    -0.41865  31(v),67(v),232(v),238(v)
                                                    51(v),231(g),233(g),245(r)
                                                    101(v),50(v),226(v),103(v)
    33. RY*(   1) C   1                  0.00157     0.58581   
    34. RY*(   2) C   1                  0.00114     0.67326   
    35. RY*(   3) C   1                  0.00082     1.06735   
    36. RY*(   4) C   1                  0.00012     1.23539   
    37. RY*(   5) C   1                  0.00005     2.83333   
    38. RY*(   6) C   1                  0.00003     1.14680   
    39. RY*(   7) C   1                  0.00002     1.85138   
    40. RY*(   8) C   1                  0.00002     0.26482   
    41. RY*(   9) C   1                  0.00002     1.62309   
    42. RY*(  10) C   1                  0.00000    22.04838   
    43. RY*(  11) C   1                  0.00001     1.05558   
    44. RY*(  12) C   1                  0.00000     2.81007   
    45. RY*(  13) C   1                  0.00001     1.14097   
    46. RY*(  14) C   1                  0.00000     2.95936   
    47. RY*(  15) C   1                  0.00000     1.74255   
    48. RY*(  16) C   1                  0.00000     1.78124   
    49. RY*(  17) C   1                  0.00000     1.91550   
    50. RY*(   1) C   2                  0.00441     0.81757   
    51. RY*(   2) C   2                  0.00300     0.67263   
    52. RY*(   3) C   2                  0.00155     0.87844   
    53. RY*(   4) C   2                  0.00119     1.29653   
    54. RY*(   5) C   2                  0.00069     1.29546   
    55. RY*(   6) C   2                  0.00056     1.74299   
    56. RY*(   7) C   2                  0.00040     1.90476   
    57. RY*(   8) C   2                  0.00032     1.81789   
    58. RY*(   9) C   2                  0.00014     1.92777   
    59. RY*(  10) C   2                  0.00008     1.35957   
    60. RY*(  11) C   2                  0.00005     1.32924   
    61. RY*(  12) C   2                  0.00001     1.61079   
    62. RY*(  13) C   2                  0.00002     1.66397   
    63. RY*(  14) C   2                  0.00001     2.66488   
    64. RY*(  15) C   2                  0.00002     2.91801   
    65. RY*(  16) C   2                  0.00001     2.93377   
    66. RY*(  17) C   2                  0.00000    22.76372   
    67. RY*(   1) C   3                  0.00295     0.77046   
    68. RY*(   2) C   3                  0.00149     0.86150   
    69. RY*(   3) C   3                  0.00059     0.94255   
    70. RY*(   4) C   3                  0.00043     1.29498   
    71. RY*(   5) C   3                  0.00016     1.08635   
    72. RY*(   6) C   3                  0.00014     1.35191   
    73. RY*(   7) C   3                  0.00009     1.98975   
    74. RY*(   8) C   3                  0.00008     1.40477   
    75. RY*(   9) C   3                  0.00005     1.13112   
    76. RY*(  10) C   3                  0.00004     1.19063   
    77. RY*(  11) C   3                  0.00002     1.76197   
    78. RY*(  12) C   3                  0.00001     2.43516   
    79. RY*(  13) C   3                  0.00000    23.09772   
    80. RY*(  14) C   3                  0.00001     0.70019   
    81. RY*(  15) C   3                  0.00001     2.49524   
    82. RY*(  16) C   3                  0.00000     3.15294   
    83. RY*(  17) C   3                  0.00001     0.83338   
    84. RY*(   1) N   4                  0.00236     0.62796   
    85. RY*(   2) N   4                  0.00126     0.67222   
    86. RY*(   3) N   4                  0.00105     0.66141   
    87. RY*(   4) N   4                  0.00082     0.75615   
    88. RY*(   5) N   4                  0.00062     1.63817   
    89. RY*(   6) N   4                  0.00037     0.84088   
    90. RY*(   7) N   4                  0.00030     1.06533   
    91. RY*(   8) N   4                  0.00019     1.24385   
    92. RY*(   9) N   4                  0.00007     1.70225   
    93. RY*(  10) N   4                  0.00004     1.72272   
    94. RY*(  11) N   4                  0.00002     2.58230   
    95. RY*(  12) N   4                  0.00001     4.21375   
    96. RY*(  13) N   4                  0.00000    35.01639   
    97. RY*(  14) N   4                  0.00000     3.87077   
    98. RY*(  15) N   4                  0.00000     3.73037   
    99. RY*(  16) N   4                  0.00001     2.24638   
   100. RY*(  17) N   4                  0.00001     2.19319   
   101. RY*(   1) C   5                  0.00204     0.91449   
   102. RY*(   2) C   5                  0.00133     0.94955   
   103. RY*(   3) C   5                  0.00103     1.45558   
   104. RY*(   4) C   5                  0.00051     1.27853   
   105. RY*(   5) C   5                  0.00040     1.60259   
   106. RY*(   6) C   5                  0.00030     1.83801   
   107. RY*(   7) C   5                  0.00023     1.73649   
   108. RY*(   8) C   5                  0.00015     1.68600   
   109. RY*(   9) C   5                  0.00007     2.22570   
   110. RY*(  10) C   5                  0.00003     2.08265   
   111. RY*(  11) C   5                  0.00001     1.43485   
   112. RY*(  12) C   5                  0.00001     2.57973   
   113. RY*(  13) C   5                  0.00001     1.61853   
   114. RY*(  14) C   5                  0.00001     2.59622   
   115. RY*(  15) C   5                  0.00000     0.81112   
   116. RY*(  16) C   5                  0.00001     2.05076   
   117. RY*(  17) C   5                  0.00000    22.19503   
   118. RY*(   1) C   6                  0.00228     0.82293   
   119. RY*(   2) C   6                  0.00147     0.72101   
   120. RY*(   3) C   6                  0.00050     0.81407   
   121. RY*(   4) C   6                  0.00038     1.30725   
   122. RY*(   5) C   6                  0.00023     1.41042   
   123. RY*(   6) C   6                  0.00014     1.11449   
   124. RY*(   7) C   6                  0.00010     2.11132   
   125. RY*(   8) C   6                  0.00007     1.81841   
   126. RY*(   9) C   6                  0.00004     2.69763   
   127. RY*(  10) C   6                  0.00003     1.81173   
   128. RY*(  11) C   6                  0.00002     2.36329   
   129. RY*(  12) C   6                  0.00001     0.82433   
   130. RY*(  13) C   6                  0.00000    22.19753   
   131. RY*(  14) C   6                  0.00001     1.59419   
   132. RY*(  15) C   6                  0.00000     3.23492   
   133. RY*(  16) C   6                  0.00000     1.54775   
   134. RY*(  17) C   6                  0.00001     1.11695   
   135. RY*(   1) C   7                  0.00180     0.98004   
   136. RY*(   2) C   7                  0.00112     0.77002   
   137. RY*(   3) C   7                  0.00082     0.96852   
   138. RY*(   4) C   7                  0.00050     1.12992   
   139. RY*(   5) C   7                  0.00031     1.22395   
   140. RY*(   6) C   7                  0.00019     1.66488   
   141. RY*(   7) C   7                  0.00017     1.80347   
   142. RY*(   8) C   7                  0.00012     1.92456   
   143. RY*(   9) C   7                  0.00005     2.54190   
   144. RY*(  10) C   7                  0.00006     2.41672   
   145. RY*(  11) C   7                  0.00004     2.66657   
   146. RY*(  12) C   7                  0.00001     1.13190   
   147. RY*(  13) C   7                  0.00001     2.14294   
   148. RY*(  14) C   7                  0.00001     0.68758   
   149. RY*(  15) C   7                  0.00001     3.26674   
   150. RY*(  16) C   7                  0.00001     2.17772   
   151. RY*(  17) C   7                  0.00000    21.24163   
   152. RY*(   1) C   8                  0.00275     0.67699   
   153. RY*(   2) C   8                  0.00125     0.83651   
   154. RY*(   3) C   8                  0.00080     1.04469   
   155. RY*(   4) C   8                  0.00053     0.81194   
   156. RY*(   5) C   8                  0.00039     1.44343   
   157. RY*(   6) C   8                  0.00023     1.32363   
   158. RY*(   7) C   8                  0.00007     1.30682   
   159. RY*(   8) C   8                  0.00005     0.80112   
   160. RY*(   9) C   8                  0.00005     2.01592   
   161. RY*(  10) C   8                  0.00002     1.34065   
   162. RY*(  11) C   8                  0.00001     0.88918   
   163. RY*(  12) C   8                  0.00001     3.06657   
   164. RY*(  13) C   8                  0.00001     0.75756   
   165. RY*(  14) C   8                  0.00000    22.51695   
   166. RY*(  15) C   8                  0.00001     1.53140   
   167. RY*(  16) C   8                  0.00000     2.73910   
   168. RY*(  17) C   8                  0.00001     2.92846   
   169. RY*(   1) C   9                  0.00174     0.77131   
   170. RY*(   2) C   9                  0.00134     0.72480   
   171. RY*(   3) C   9                  0.00063     1.09807   
   172. RY*(   4) C   9                  0.00053     0.96641   
   173. RY*(   5) C   9                  0.00024     1.56093   
   174. RY*(   6) C   9                  0.00017     1.03670   
   175. RY*(   7) C   9                  0.00008     1.76292   
   176. RY*(   8) C   9                  0.00008     0.98665   
   177. RY*(   9) C   9                  0.00005     2.02308   
   178. RY*(  10) C   9                  0.00004     2.11838   
   179. RY*(  11) C   9                  0.00001     2.61060   
   180. RY*(  12) C   9                  0.00001     2.19166   
   181. RY*(  13) C   9                  0.00000    23.22881   
   182. RY*(  14) C   9                  0.00001     0.81891   
   183. RY*(  15) C   9                  0.00001     2.57410   
   184. RY*(  16) C   9                  0.00001     1.85880   
   185. RY*(  17) C   9                  0.00000     0.43460   
   186. RY*(   1) H  10                  0.00045     1.18611   
   187. RY*(   2) H  10                  0.00016     1.62418   
   188. RY*(   3) H  10                  0.00005     1.76001   
   189. RY*(   4) H  10                  0.00005     1.77824   
   190. RY*(   5) H  10                  0.00002     2.60192   
   191. RY*(   1) H  11                  0.00039     0.69557   
   192. RY*(   2) H  11                  0.00016     1.97409   
   193. RY*(   3) H  11                  0.00006     1.82153   
   194. RY*(   4) H  11                  0.00004     1.84024   
   195. RY*(   5) H  11                  0.00002     2.63046   
   196. RY*(   1) H  12                  0.00057     1.04496   
   197. RY*(   2) H  12                  0.00014     1.63473   
   198. RY*(   3) H  12                  0.00005     1.88983   
   199. RY*(   4) H  12                  0.00005     1.81782   
   200. RY*(   5) H  12                  0.00002     2.52684   
   201. RY*(   1) H  13                  0.00044     0.71745   
   202. RY*(   2) H  13                  0.00011     2.20884   
   203. RY*(   3) H  13                  0.00007     1.86432   
   204. RY*(   4) H  13                  0.00006     2.11793   
   205. RY*(   5) H  13                  0.00003     2.32685   
   206. RY*(   1) H  14                  0.00074     0.84574   
   207. RY*(   2) H  14                  0.00011     1.72058   
   208. RY*(   3) H  14                  0.00005     1.99013   
   209. RY*(   4) H  14                  0.00003     2.60161   
   210. RY*(   5) H  14                  0.00002     1.99574   
   211. RY*(   1) H  15                  0.00035     1.13857   
   212. RY*(   2) H  15                  0.00009     1.71589   
   213. RY*(   3) H  15                  0.00007     1.68492   
   214. RY*(   4) H  15                  0.00003     2.38925   
   215. RY*(   5) H  15                  0.00003     2.15635   
   216. RY*(   1) H  16                  0.00064     0.34005   
   217. RY*(   2) H  16                  0.00017     2.47117   
   218. RY*(   3) H  16                  0.00007     1.77644   
   219. RY*(   4) H  16                  0.00006     1.86063   
   220. RY*(   5) H  16                  0.00003     2.62550   
   221. RY*(   1) H  17                  0.00044     1.19610   
   222. RY*(   2) H  17                  0.00017     1.80103   
   223. RY*(   3) H  17                  0.00007     1.91535   
   224. RY*(   4) H  17                  0.00005     2.00966   
   225. RY*(   5) H  17                  0.00002     2.50619   
   226. BD*(   1) C   1 - C   2          0.01351     0.40944   
   227. BD*(   1) C   1 - H  10          0.00244     0.39075   
   228. BD*(   1) C   1 - H  11          0.00354     0.37994   
   229. BD*(   1) C   1 - H  12          0.00510     0.37655   
   230. BD*(   1) C   2 - C   3          0.04746     0.16522   
   231. BD*(   1) C   2 - N   4          0.02139     0.30780   
   232. BD*(   1) C   2 - C   7          0.02373     0.31843   
   233. BD*(   1) C   3 - N   4          0.01524     0.30871   
   234. BD*(   1) C   3 - C   9          0.02991     0.17715   
   235. BD*(   1) N   4 - C   5          0.01235     0.28344   
   236. BD*(   1) C   5 - C   6          0.00803     0.35952   
   237. BD*(   1) C   5 - C   9          0.01175     0.34933   
   238. BD*(   1) C   5 - H  13          0.01214     0.41432   
   239. BD*(   1) C   6 - C   7          0.00929     0.34408   
   240. BD*(   1) C   6 - H  14          0.00598     0.38990   
   241. BD*(   1) C   6 - H  15          0.00584     0.39477   
   242. BD*(   1) C   7 - C   8          0.00695     0.35359   
   243. BD*(   1) C   7 - H  16          0.01040     0.39995   
   244. BD*(   1) C   8 - C   9          0.01499     0.42702   
   245. BD*(   2) C   8 - C   9          0.08938     0.07219   
   246. BD*(   1) C   8 - H  17          0.00829     0.42742   
       -------------------------------
              Total Lewis   30.29479  ( 97.7251%)
        Valence non-Lewis    0.64175  (  2.0702%)
        Rydberg non-Lewis    0.06346  (  0.2047%)
       -------------------------------
            Total unit  1   31.00000  (100.0000%)
           Charge unit  1    0.50000
 Leave Link  607 at Mon Mar 20 05:12:08 2023, MaxMem=  8053063680 cpu:              73.5 elap:               2.3
 (Enter /public3/home/scg5914/software-scg5914/g16/l9999.exe)
 Unable to Open any file for archive entry.
 1\1\GINC-F1009\SP\UB3LYP\Gen\C8H8N1(2)\SCG5914\20-Mar-2023\0\\#p b3lyp
 /chkbas pop=nbo geom=allcheck guess=tcheck em=gd3bj\\dsgdb9nsd_133831-
 4\\0,2\C,0,7.1274468949,-0.2488180242,1.5218263089\C,0,5.9672942011,-0
 .5609382498,0.6399204395\C,0,5.2784841312,0.4997303805,-0.3609018104\N
 ,0,4.6606837857,0.0382814664,0.8741126244\C,0,3.6976264669,-0.87887914
 07,0.1645613329\C,0,4.2708239051,-2.2708108377,0.4188424986\C,0,5.6974
 431772,-1.9389080822,-0.0456594764\C,0,5.4612415563,-1.2252657004,-1.3
 538851255\C,0,4.315857398,-0.4277137943,-1.1875300203\H,0,7.1024949394
 ,0.8019146408,1.813006717\H,0,8.0670726451,-0.4423475603,0.9981620298\
 H,0,7.1020899382,-0.865719047,2.4264648725\H,0,2.6543284553,-0.6864386
 575,0.3910519983\H,0,3.798090248,-3.0259516469,-0.2145930434\H,0,4.216
 1828691,-2.5630852999,1.4690464741\H,0,6.4780178936,-2.6886623128,0.03
 16843305\H,0,6.2743056715,-0.9600428257,-2.0177506405\\Version=ES64L-G
 16RevC.01\State=2-A\HF=-364.2620985\S2=0.782732\S2-1=0.\S2A=0.750156\R
 MSD=5.256e-09\Dipole=0.5736908,-1.2820896,0.470853\Quadrupole=3.291932
 9,-1.8969772,-1.3949557,0.8596611,-1.1708638,0.8060049\PG=C01 [X(C8H8N
 1)]\\@
 The archive entry for this job was punched.


 DESK:  A WASTEBASKET WITH DRAWERS.
 Job cpu time:       0 days  0 hours  2 minutes 14.6 seconds.
 Elapsed time:       0 days  0 hours  0 minutes  4.3 seconds.
 File lengths (MBytes):  RWF=     61 Int=      0 D2E=      0 Chk=      7 Scr=      1
 Normal termination of Gaussian 16 at Mon Mar 20 05:12:08 2023.
