 Entering Gaussian System, Link 0=g16
 Initial command:
 /public/software/g16-c01AVX2/g16/l1.exe "/public/home/XGX_HG/tmp/Gau-192648.inp" -scrdir="/public/home/XGX_HG/tmp/"
 Entering Link 1 = /public/software/g16-c01AVX2/g16/l1.exe PID=    192649.
  
 Copyright (c) 1988-2019, Gaussian, Inc.  All Rights Reserved.
  
 This is part of the Gaussian(R) 16 program.  It is based on
 the Gaussian(R) 09 system (copyright 2009, Gaussian, Inc.),
 the Gaussian(R) 03 system (copyright 2003, Gaussian, Inc.),
 the Gaussian(R) 98 system (copyright 1998, Gaussian, Inc.),
 the Gaussian(R) 94 system (copyright 1995, Gaussian, Inc.),
 the Gaussian 92(TM) system (copyright 1992, Gaussian, Inc.),
 the Gaussian 90(TM) system (copyright 1990, Gaussian, Inc.),
 the Gaussian 88(TM) system (copyright 1988, Gaussian, Inc.),
 the Gaussian 86(TM) system (copyright 1986, Carnegie Mellon
 University), and the Gaussian 82(TM) system (copyright 1983,
 Carnegie Mellon University). Gaussian is a federally registered
 trademark of Gaussian, Inc.
  
 This software contains proprietary and confidential information,
 including trade secrets, belonging to Gaussian, Inc.
  
 This software is provided under written license and may be
 used, copied, transmitted, or stored only in accord with that
 written license.
  
 The following legend is applicable only to US Government
 contracts under FAR:
  
                    RESTRICTED RIGHTS LEGEND
  
 Use, reproduction and disclosure by the US Government is
 subject to restrictions as set forth in subparagraphs (a)
 and (c) of the Commercial Computer Software - Restricted
 Rights clause in FAR 52.227-19.
  
 Gaussian, Inc.
 340 Quinnipiac St., Bldg. 40, Wallingford CT 06492
  
  
 ---------------------------------------------------------------
 Warning -- This program may not be used in any manner that
 competes with the business of Gaussian, Inc. or will provide
 assistance to any competitor of Gaussian, Inc.  The licensee
 of this program is prohibited from giving any competitor of
 Gaussian, Inc. access to this program.  By using this program,
 the user acknowledges that Gaussian, Inc. is engaged in the
 business of creating and licensing software in the field of
 computational chemistry and represents and warrants to the
 licensee that it is not a competitor of Gaussian, Inc. and that
 it will not use this program in any manner prohibited above.
 ---------------------------------------------------------------
  

 Cite this work as:
 Gaussian 16, Revision C.01,
 M. J. Frisch, G. W. Trucks, H. B. Schlegel, G. E. Scuseria, 
 M. A. Robb, J. R. Cheeseman, G. Scalmani, V. Barone, 
 G. A. Petersson, H. Nakatsuji, X. Li, M. Caricato, A. V. Marenich, 
 J. Bloino, B. G. Janesko, R. Gomperts, B. Mennucci, H. P. Hratchian, 
 J. V. Ortiz, A. F. Izmaylov, J. L. Sonnenberg, D. Williams-Young, 
 F. Ding, F. Lipparini, F. Egidi, J. Goings, B. Peng, A. Petrone, 
 T. Henderson, D. Ranasinghe, V. G. Zakrzewski, J. Gao, N. Rega, 
 G. Zheng, W. Liang, M. Hada, M. Ehara, K. Toyota, R. Fukuda, 
 J. Hasegawa, M. Ishida, T. Nakajima, Y. Honda, O. Kitao, H. Nakai, 
 T. Vreven, K. Throssell, J. A. Montgomery, Jr., J. E. Peralta, 
 F. Ogliaro, M. J. Bearpark, J. J. Heyd, E. N. Brothers, K. N. Kudin, 
 V. N. Staroverov, T. A. Keith, R. Kobayashi, J. Normand, 
 K. Raghavachari, A. P. Rendell, J. C. Burant, S. S. Iyengar, 
 J. Tomasi, M. Cossi, J. M. Millam, M. Klene, C. Adamo, R. Cammi, 
 J. W. Ochterski, R. L. Martin, K. Morokuma, O. Farkas, 
 J. B. Foresman, and D. J. Fox, Gaussian, Inc., Wallingford CT, 2019.
 
 ******************************************
 Gaussian 16:  ES64L-G16RevC.01  3-Jul-2019
                25-Jan-2022 
 ******************************************
 %nprocshared=32
 Will use up to   32 processors via shared memory.
 %mem=60GB
 ----------------------------------------------------------------------
 # opt=(calcfc,ts,noeigen,maxcycle=200,maxstep=5) freq b3lyp/genecp emp
 iricaldispersion=gd3bj
 ----------------------------------------------------------------------
 1/5=1,6=200,8=5,10=4,11=1,18=20,26=3,38=1/1,3;
 2/9=110,12=2,17=6,18=5,40=1/2;
 3/5=7,11=2,16=1,17=8,25=1,30=1,71=2,74=-5,124=41,140=1/1,2,3;
 4//1;
 5/5=2,38=5/2;
 8/6=4,10=90,11=11/1;
 11/6=1,8=1,9=11,15=111,16=1/1,2,10;
 10/6=1,13=1/2;
 6/7=2,8=2,9=2,10=2,28=1/1;
 7/10=1,25=1/1,2,3,16;
 1/5=1,6=200,8=5,10=4,11=1,18=20,26=3/3(2);
 2/9=110/2;
 99//99;
 2/9=110/2;
 3/5=7,6=1,11=2,16=1,17=8,25=1,30=1,71=1,74=-5,82=7,124=41/1,2,3;
 4/5=5,16=3,69=1/1;
 5/5=2,38=5/2;
 7//1,2,3,16;
 1/5=1,6=200,8=5,11=1,18=20,26=3/3(-5);
 2/9=110/2;
 6/7=2,8=2,9=2,10=2,19=2,28=1/1;
 99/9=1/99;
 -------------------
 Title Card Required
 -------------------
 Symbolic Z-matrix:
 Charge =  0 Multiplicity = 3
 C                     1.56132   1.48349   0.04965 
 C                     2.86486   1.69944   0.48801 
 C                     3.73091   0.60521   0.63101 
 C                     3.27348  -0.67863   0.30728 
 C                     1.96026  -0.84632  -0.12856 
 N                     1.11641   0.22466  -0.23988 
 H                     4.74824   0.75334   0.97764 
 H                     3.20172   2.70872   0.7075 
 H                     3.93167  -1.53973   0.38273 
 C                     1.34504  -2.08652  -0.53357 
 H                     1.9411   -3.0028   -0.58231 
 C                     0.56692   2.50054  -0.19541 
 H                     0.84873   3.55655  -0.13204 
 N                     0.08073  -2.0644   -0.8412 
 N                    -0.63496   2.12704  -0.52352 
 C                    -0.56201  -3.2865   -1.27408 
 H                    -0.94842  -3.16003  -2.29177 
 H                     0.11103  -4.15681  -1.2561 
 H                    -1.42349  -3.4935   -0.62666 
 C                    -1.60043   3.15263  -0.86784 
 H                    -1.96211   2.9831   -1.88832 
 H                    -2.47029   3.08511  -0.20496 
 H                    -1.18712   4.17057  -0.80403 
 Co                   -0.74255  -0.09042  -0.55622 
 H                    -2.25531  -0.38997  -0.93033 
 C                    -2.53802  -0.55843   0.6491 
 C                    -1.38129  -0.36509   1.48469 
 H                    -2.84584  -1.59715   0.52089 
 H                    -1.26791   0.62123   1.93349 
 C                    -3.69223   0.42287   0.72055 
 H                    -3.31971   1.44558   0.82367 
 H                    -4.33035   0.37963  -0.16815 
 H                    -4.31041   0.20402   1.60128 
 C                    -0.67509  -1.49818   2.18134 
 H                     0.41585  -1.38184   2.16519 
 H                    -0.97735  -1.56384   3.23805 
 H                    -0.90887  -2.45894   1.7113 
 

 GradGradGradGradGradGradGradGradGradGradGradGradGradGradGradGradGradGrad
 Berny optimization.
 Initialization pass.
                           ----------------------------
                           !    Initial Parameters    !
                           ! (Angstroms and Degrees)  !
 --------------------------                            --------------------------
 ! Name  Definition              Value          Derivative Info.                !
 --------------------------------------------------------------------------------
 ! R1    R(1,2)                  1.3921         calculate D2E/DX2 analytically  !
 ! R2    R(1,6)                  1.3662         calculate D2E/DX2 analytically  !
 ! R3    R(1,12)                 1.4434         calculate D2E/DX2 analytically  !
 ! R4    R(2,3)                  1.4028         calculate D2E/DX2 analytically  !
 ! R5    R(2,8)                  1.0864         calculate D2E/DX2 analytically  !
 ! R6    R(3,4)                  1.4008         calculate D2E/DX2 analytically  !
 ! R7    R(3,7)                  1.0849         calculate D2E/DX2 analytically  !
 ! R8    R(4,5)                  1.3938         calculate D2E/DX2 analytically  !
 ! R9    R(4,9)                  1.0865         calculate D2E/DX2 analytically  !
 ! R10   R(5,6)                  1.368          calculate D2E/DX2 analytically  !
 ! R11   R(5,10)                 1.4424         calculate D2E/DX2 analytically  !
 ! R12   R(6,24)                 1.9118         calculate D2E/DX2 analytically  !
 ! R13   R(10,11)                1.0942         calculate D2E/DX2 analytically  !
 ! R14   R(10,14)                1.3014         calculate D2E/DX2 analytically  !
 ! R15   R(12,13)                1.0948         calculate D2E/DX2 analytically  !
 ! R16   R(12,15)                1.3006         calculate D2E/DX2 analytically  !
 ! R17   R(14,16)                1.4471         calculate D2E/DX2 analytically  !
 ! R18   R(14,24)                2.1577         calculate D2E/DX2 analytically  !
 ! R19   R(15,20)                1.45           calculate D2E/DX2 analytically  !
 ! R20   R(16,17)                1.0959         calculate D2E/DX2 analytically  !
 ! R21   R(16,18)                1.1003         calculate D2E/DX2 analytically  !
 ! R22   R(16,19)                1.0973         calculate D2E/DX2 analytically  !
 ! R23   R(20,21)                1.0959         calculate D2E/DX2 analytically  !
 ! R24   R(20,22)                1.0957         calculate D2E/DX2 analytically  !
 ! R25   R(20,23)                1.1005         calculate D2E/DX2 analytically  !
 ! R26   R(24,25)                1.5869         calculate D2E/DX2 analytically  !
 ! R27   R(24,26)                2.2126         calculate D2E/DX2 analytically  !
 ! R28   R(24,27)                2.1561         calculate D2E/DX2 analytically  !
 ! R29   R(26,27)                1.44           calculate D2E/DX2 analytically  !
 ! R30   R(26,28)                1.0909         calculate D2E/DX2 analytically  !
 ! R31   R(26,30)                1.5167         calculate D2E/DX2 analytically  !
 ! R32   R(27,29)                1.0895         calculate D2E/DX2 analytically  !
 ! R33   R(27,34)                1.506          calculate D2E/DX2 analytically  !
 ! R34   R(30,31)                1.0933         calculate D2E/DX2 analytically  !
 ! R35   R(30,32)                1.0949         calculate D2E/DX2 analytically  !
 ! R36   R(30,33)                1.0981         calculate D2E/DX2 analytically  !
 ! R37   R(34,35)                1.0972         calculate D2E/DX2 analytically  !
 ! R38   R(34,36)                1.101          calculate D2E/DX2 analytically  !
 ! R39   R(34,37)                1.0948         calculate D2E/DX2 analytically  !
 ! A1    A(2,1,6)              120.971          calculate D2E/DX2 analytically  !
 ! A2    A(2,1,12)             126.1053         calculate D2E/DX2 analytically  !
 ! A3    A(6,1,12)             112.8878         calculate D2E/DX2 analytically  !
 ! A4    A(1,2,3)              119.2876         calculate D2E/DX2 analytically  !
 ! A5    A(1,2,8)              119.8717         calculate D2E/DX2 analytically  !
 ! A6    A(3,2,8)              120.8391         calculate D2E/DX2 analytically  !
 ! A7    A(2,3,4)              119.3231         calculate D2E/DX2 analytically  !
 ! A8    A(2,3,7)              120.3304         calculate D2E/DX2 analytically  !
 ! A9    A(4,3,7)              120.3426         calculate D2E/DX2 analytically  !
 ! A10   A(3,4,5)              119.3538         calculate D2E/DX2 analytically  !
 ! A11   A(3,4,9)              120.8314         calculate D2E/DX2 analytically  !
 ! A12   A(5,4,9)              119.812          calculate D2E/DX2 analytically  !
 ! A13   A(4,5,6)              120.827          calculate D2E/DX2 analytically  !
 ! A14   A(4,5,10)             126.3774         calculate D2E/DX2 analytically  !
 ! A15   A(6,5,10)             112.7787         calculate D2E/DX2 analytically  !
 ! A16   A(1,6,5)              120.2141         calculate D2E/DX2 analytically  !
 ! A17   A(1,6,24)             120.237          calculate D2E/DX2 analytically  !
 ! A18   A(5,6,24)             118.9619         calculate D2E/DX2 analytically  !
 ! A19   A(5,10,11)            120.0111         calculate D2E/DX2 analytically  !
 ! A20   A(5,10,14)            117.7824         calculate D2E/DX2 analytically  !
 ! A21   A(11,10,14)           122.2044         calculate D2E/DX2 analytically  !
 ! A22   A(1,12,13)            119.5052         calculate D2E/DX2 analytically  !
 ! A23   A(1,12,15)            118.4975         calculate D2E/DX2 analytically  !
 ! A24   A(13,12,15)           121.9687         calculate D2E/DX2 analytically  !
 ! A25   A(10,14,16)           119.2001         calculate D2E/DX2 analytically  !
 ! A26   A(10,14,24)           110.7945         calculate D2E/DX2 analytically  !
 ! A27   A(16,14,24)           129.9911         calculate D2E/DX2 analytically  !
 ! A28   A(12,15,20)           118.1685         calculate D2E/DX2 analytically  !
 ! A29   A(14,16,17)           109.6905         calculate D2E/DX2 analytically  !
 ! A30   A(14,16,18)           113.0423         calculate D2E/DX2 analytically  !
 ! A31   A(14,16,19)           109.3606         calculate D2E/DX2 analytically  !
 ! A32   A(17,16,18)           108.7918         calculate D2E/DX2 analytically  !
 ! A33   A(17,16,19)           107.0286         calculate D2E/DX2 analytically  !
 ! A34   A(18,16,19)           108.7446         calculate D2E/DX2 analytically  !
 ! A35   A(15,20,21)           109.3571         calculate D2E/DX2 analytically  !
 ! A36   A(15,20,22)           109.9585         calculate D2E/DX2 analytically  !
 ! A37   A(15,20,23)           112.9794         calculate D2E/DX2 analytically  !
 ! A38   A(21,20,22)           106.9664         calculate D2E/DX2 analytically  !
 ! A39   A(21,20,23)           108.7258         calculate D2E/DX2 analytically  !
 ! A40   A(22,20,23)           108.6675         calculate D2E/DX2 analytically  !
 ! A41   A(6,24,14)             78.558          calculate D2E/DX2 analytically  !
 ! A42   A(6,24,26)            137.2029         calculate D2E/DX2 analytically  !
 ! A43   A(6,24,27)             98.7679         calculate D2E/DX2 analytically  !
 ! A44   A(14,24,25)            99.2013         calculate D2E/DX2 analytically  !
 ! A45   A(14,24,26)           100.8397         calculate D2E/DX2 analytically  !
 ! A46   A(14,24,27)            96.9794         calculate D2E/DX2 analytically  !
 ! A47   A(25,24,26)            46.7574         calculate D2E/DX2 analytically  !
 ! A48   A(25,24,27)            85.2213         calculate D2E/DX2 analytically  !
 ! A49   A(24,26,28)           111.4905         calculate D2E/DX2 analytically  !
 ! A50   A(24,26,30)           120.422          calculate D2E/DX2 analytically  !
 ! A51   A(27,26,28)           115.0044         calculate D2E/DX2 analytically  !
 ! A52   A(27,26,30)           119.8088         calculate D2E/DX2 analytically  !
 ! A53   A(28,26,30)           114.0073         calculate D2E/DX2 analytically  !
 ! A54   A(24,27,29)           104.1087         calculate D2E/DX2 analytically  !
 ! A55   A(24,27,34)           113.2538         calculate D2E/DX2 analytically  !
 ! A56   A(26,27,29)           116.3698         calculate D2E/DX2 analytically  !
 ! A57   A(26,27,34)           122.963          calculate D2E/DX2 analytically  !
 ! A58   A(29,27,34)           116.2164         calculate D2E/DX2 analytically  !
 ! A59   A(26,30,31)           110.5099         calculate D2E/DX2 analytically  !
 ! A60   A(26,30,32)           112.3166         calculate D2E/DX2 analytically  !
 ! A61   A(26,30,33)           109.7106         calculate D2E/DX2 analytically  !
 ! A62   A(31,30,32)           108.1841         calculate D2E/DX2 analytically  !
 ! A63   A(31,30,33)           107.6144         calculate D2E/DX2 analytically  !
 ! A64   A(32,30,33)           108.3638         calculate D2E/DX2 analytically  !
 ! A65   A(27,34,35)           112.3128         calculate D2E/DX2 analytically  !
 ! A66   A(27,34,36)           111.1065         calculate D2E/DX2 analytically  !
 ! A67   A(27,34,37)           111.1937         calculate D2E/DX2 analytically  !
 ! A68   A(35,34,36)           107.0614         calculate D2E/DX2 analytically  !
 ! A69   A(35,34,37)           107.3992         calculate D2E/DX2 analytically  !
 ! A70   A(36,34,37)           107.5228         calculate D2E/DX2 analytically  !
 ! A71   L(6,24,25,14,-1)      177.7593         calculate D2E/DX2 analytically  !
 ! A72   L(6,24,25,14,-2)      183.8418         calculate D2E/DX2 analytically  !
 ! D1    D(6,1,2,3)              0.0944         calculate D2E/DX2 analytically  !
 ! D2    D(6,1,2,8)            179.6335         calculate D2E/DX2 analytically  !
 ! D3    D(12,1,2,3)          -177.5695         calculate D2E/DX2 analytically  !
 ! D4    D(12,1,2,8)             1.9696         calculate D2E/DX2 analytically  !
 ! D5    D(2,1,6,5)             -1.3551         calculate D2E/DX2 analytically  !
 ! D6    D(2,1,6,24)           169.7702         calculate D2E/DX2 analytically  !
 ! D7    D(12,1,6,5)           176.5962         calculate D2E/DX2 analytically  !
 ! D8    D(12,1,6,24)          -12.2785         calculate D2E/DX2 analytically  !
 ! D9    D(2,1,12,13)            6.1578         calculate D2E/DX2 analytically  !
 ! D10   D(2,1,12,15)         -175.7506         calculate D2E/DX2 analytically  !
 ! D11   D(6,1,12,13)         -171.668          calculate D2E/DX2 analytically  !
 ! D12   D(6,1,12,15)            6.4236         calculate D2E/DX2 analytically  !
 ! D13   D(1,2,3,4)              1.1202         calculate D2E/DX2 analytically  !
 ! D14   D(1,2,3,7)           -179.5966         calculate D2E/DX2 analytically  !
 ! D15   D(8,2,3,4)           -178.4143         calculate D2E/DX2 analytically  !
 ! D16   D(8,2,3,7)              0.8689         calculate D2E/DX2 analytically  !
 ! D17   D(2,3,4,5)             -1.0896         calculate D2E/DX2 analytically  !
 ! D18   D(2,3,4,9)            178.3069         calculate D2E/DX2 analytically  !
 ! D19   D(7,3,4,5)            179.6272         calculate D2E/DX2 analytically  !
 ! D20   D(7,3,4,9)             -0.9763         calculate D2E/DX2 analytically  !
 ! D21   D(3,4,5,6)             -0.1554         calculate D2E/DX2 analytically  !
 ! D22   D(3,4,5,10)           178.2337         calculate D2E/DX2 analytically  !
 ! D23   D(9,4,5,6)           -179.5581         calculate D2E/DX2 analytically  !
 ! D24   D(9,4,5,10)            -1.169          calculate D2E/DX2 analytically  !
 ! D25   D(4,5,6,1)              1.3856         calculate D2E/DX2 analytically  !
 ! D26   D(4,5,6,24)          -169.8521         calculate D2E/DX2 analytically  !
 ! D27   D(10,5,6,1)          -177.2077         calculate D2E/DX2 analytically  !
 ! D28   D(10,5,6,24)           11.5546         calculate D2E/DX2 analytically  !
 ! D29   D(4,5,10,11)           -4.2783         calculate D2E/DX2 analytically  !
 ! D30   D(4,5,10,14)          176.2343         calculate D2E/DX2 analytically  !
 ! D31   D(6,5,10,11)          174.2214         calculate D2E/DX2 analytically  !
 ! D32   D(6,5,10,14)           -5.2661         calculate D2E/DX2 analytically  !
 ! D33   D(1,6,24,14)          178.8588         calculate D2E/DX2 analytically  !
 ! D34   D(1,6,24,26)          -87.4818         calculate D2E/DX2 analytically  !
 ! D35   D(1,6,24,27)          -85.7345         calculate D2E/DX2 analytically  !
 ! D36   D(5,6,24,14)           -9.9056         calculate D2E/DX2 analytically  !
 ! D37   D(5,6,24,26)           83.7538         calculate D2E/DX2 analytically  !
 ! D38   D(5,6,24,27)           85.5012         calculate D2E/DX2 analytically  !
 ! D39   D(5,10,14,16)         178.9295         calculate D2E/DX2 analytically  !
 ! D40   D(5,10,14,24)          -2.3098         calculate D2E/DX2 analytically  !
 ! D41   D(11,10,14,16)         -0.546          calculate D2E/DX2 analytically  !
 ! D42   D(11,10,14,24)        178.2147         calculate D2E/DX2 analytically  !
 ! D43   D(1,12,15,20)        -175.3553         calculate D2E/DX2 analytically  !
 ! D44   D(13,12,15,20)          2.6869         calculate D2E/DX2 analytically  !
 ! D45   D(10,14,16,17)       -119.0953         calculate D2E/DX2 analytically  !
 ! D46   D(10,14,16,18)          2.5068         calculate D2E/DX2 analytically  !
 ! D47   D(10,14,16,19)        123.8124         calculate D2E/DX2 analytically  !
 ! D48   D(24,14,16,17)         62.417          calculate D2E/DX2 analytically  !
 ! D49   D(24,14,16,18)       -175.9809         calculate D2E/DX2 analytically  !
 ! D50   D(24,14,16,19)        -54.6753         calculate D2E/DX2 analytically  !
 ! D51   D(10,14,24,6)           6.4219         calculate D2E/DX2 analytically  !
 ! D52   D(10,14,24,25)       -177.4199         calculate D2E/DX2 analytically  !
 ! D53   D(10,14,24,26)       -129.9214         calculate D2E/DX2 analytically  !
 ! D54   D(10,14,24,27)        -91.1578         calculate D2E/DX2 analytically  !
 ! D55   D(16,14,24,6)        -174.9902         calculate D2E/DX2 analytically  !
 ! D56   D(16,14,24,25)          1.1681         calculate D2E/DX2 analytically  !
 ! D57   D(16,14,24,26)         48.6666         calculate D2E/DX2 analytically  !
 ! D58   D(16,14,24,27)         87.4301         calculate D2E/DX2 analytically  !
 ! D59   D(12,15,20,21)        120.9572         calculate D2E/DX2 analytically  !
 ! D60   D(12,15,20,22)       -121.8724         calculate D2E/DX2 analytically  !
 ! D61   D(12,15,20,23)         -0.2799         calculate D2E/DX2 analytically  !
 ! D62   D(6,24,26,28)        -106.7237         calculate D2E/DX2 analytically  !
 ! D63   D(6,24,26,30)         115.693          calculate D2E/DX2 analytically  !
 ! D64   D(14,24,26,28)        -21.9155         calculate D2E/DX2 analytically  !
 ! D65   D(14,24,26,30)       -159.4989         calculate D2E/DX2 analytically  !
 ! D66   D(25,24,26,28)         70.573          calculate D2E/DX2 analytically  !
 ! D67   D(25,24,26,30)        -67.0104         calculate D2E/DX2 analytically  !
 ! D68   D(6,24,27,29)          68.2168         calculate D2E/DX2 analytically  !
 ! D69   D(6,24,27,34)         -58.9244         calculate D2E/DX2 analytically  !
 ! D70   D(14,24,27,29)        147.6525         calculate D2E/DX2 analytically  !
 ! D71   D(14,24,27,34)         20.5113         calculate D2E/DX2 analytically  !
 ! D72   D(25,24,27,29)       -113.6379         calculate D2E/DX2 analytically  !
 ! D73   D(25,24,27,34)        119.2208         calculate D2E/DX2 analytically  !
 ! D74   D(28,26,27,29)       -157.8339         calculate D2E/DX2 analytically  !
 ! D75   D(28,26,27,34)         -2.4447         calculate D2E/DX2 analytically  !
 ! D76   D(30,26,27,29)        -16.1513         calculate D2E/DX2 analytically  !
 ! D77   D(30,26,27,34)        139.2379         calculate D2E/DX2 analytically  !
 ! D78   D(24,26,30,31)        -41.9806         calculate D2E/DX2 analytically  !
 ! D79   D(24,26,30,32)         78.9311         calculate D2E/DX2 analytically  !
 ! D80   D(24,26,30,33)       -160.4844         calculate D2E/DX2 analytically  !
 ! D81   D(27,26,30,31)         39.3774         calculate D2E/DX2 analytically  !
 ! D82   D(27,26,30,32)        160.2892         calculate D2E/DX2 analytically  !
 ! D83   D(27,26,30,33)        -79.1263         calculate D2E/DX2 analytically  !
 ! D84   D(28,26,30,31)       -178.583          calculate D2E/DX2 analytically  !
 ! D85   D(28,26,30,32)        -57.6712         calculate D2E/DX2 analytically  !
 ! D86   D(28,26,30,33)         62.9132         calculate D2E/DX2 analytically  !
 ! D87   D(24,27,34,35)         56.2774         calculate D2E/DX2 analytically  !
 ! D88   D(24,27,34,36)        176.1688         calculate D2E/DX2 analytically  !
 ! D89   D(24,27,34,37)        -64.1074         calculate D2E/DX2 analytically  !
 ! D90   D(26,27,34,35)        140.3672         calculate D2E/DX2 analytically  !
 ! D91   D(26,27,34,36)        -99.7414         calculate D2E/DX2 analytically  !
 ! D92   D(26,27,34,37)         19.9824         calculate D2E/DX2 analytically  !
 ! D93   D(29,27,34,35)        -64.209          calculate D2E/DX2 analytically  !
 ! D94   D(29,27,34,36)         55.6825         calculate D2E/DX2 analytically  !
 ! D95   D(29,27,34,37)        175.4063         calculate D2E/DX2 analytically  !
 --------------------------------------------------------------------------------
 Trust Radius=5.00D-02 FncErr=1.00D-07 GrdErr=1.00D-06 EigMax=2.50D+02 EigMin=1.00D-04
 Number of steps in this run=    200 maximum allowed number of steps=    222.
 Search for a saddle point of order  1.
 GradGradGradGradGradGradGradGradGradGradGradGradGradGradGradGradGradGrad

                          Input orientation:                          
 ---------------------------------------------------------------------
 Center     Atomic      Atomic             Coordinates (Angstroms)
 Number     Number       Type             X           Y           Z
 ---------------------------------------------------------------------
      1          6           0        1.561323    1.483492    0.049651
      2          6           0        2.864856    1.699438    0.488012
      3          6           0        3.730914    0.605211    0.631008
      4          6           0        3.273481   -0.678632    0.307275
      5          6           0        1.960257   -0.846317   -0.128560
      6          7           0        1.116413    0.224657   -0.239881
      7          1           0        4.748240    0.753336    0.977638
      8          1           0        3.201717    2.708718    0.707498
      9          1           0        3.931670   -1.539734    0.382727
     10          6           0        1.345039   -2.086525   -0.533565
     11          1           0        1.941098   -3.002804   -0.582307
     12          6           0        0.566920    2.500538   -0.195411
     13          1           0        0.848733    3.556551   -0.132043
     14          7           0        0.080726   -2.064399   -0.841196
     15          7           0       -0.634962    2.127037   -0.523515
     16          6           0       -0.562009   -3.286502   -1.274081
     17          1           0       -0.948421   -3.160026   -2.291774
     18          1           0        0.111033   -4.156811   -1.256097
     19          1           0       -1.423487   -3.493503   -0.626658
     20          6           0       -1.600432    3.152632   -0.867839
     21          1           0       -1.962109    2.983098   -1.888323
     22          1           0       -2.470294    3.085109   -0.204959
     23          1           0       -1.187116    4.170570   -0.804031
     24         27           0       -0.742545   -0.090421   -0.556219
     25          1           0       -2.255312   -0.389970   -0.930328
     26          6           0       -2.538021   -0.558427    0.649100
     27          6           0       -1.381294   -0.365086    1.484685
     28          1           0       -2.845841   -1.597149    0.520894
     29          1           0       -1.267909    0.621228    1.933487
     30          6           0       -3.692232    0.422870    0.720554
     31          1           0       -3.319708    1.445579    0.823671
     32          1           0       -4.330345    0.379625   -0.168153
     33          1           0       -4.310407    0.204019    1.601282
     34          6           0       -0.675086   -1.498177    2.181339
     35          1           0        0.415851   -1.381842    2.165190
     36          1           0       -0.977351   -1.563844    3.238048
     37          1           0       -0.908866   -2.458936    1.711295
 ---------------------------------------------------------------------
                    Distance matrix (angstroms):
                    1          2          3          4          5
     1  C    0.000000
     2  C    1.392118   0.000000
     3  C    2.411738   1.402796   0.000000
     4  C    2.769952   2.419681   1.400821   0.000000
     5  C    2.370426   2.771160   2.412282   1.393782   0.000000
     6  N    1.366177   2.400387   2.781885   2.401719   1.368010
     7  H    3.398636   2.163788   1.084917   2.162136   3.399325
     8  H    2.150543   1.086414   2.170401   3.411667   3.857265
     9  H    3.856084   3.411951   2.168579   1.086463   2.151444
    10  C    3.623802   4.205589   3.780750   2.531415   1.442442
    11  H    4.546477   4.910193   4.206346   2.822831   2.203790
    12  C    1.443356   2.527714   3.779695   4.205388   3.625920
    13  H    2.199630   2.810354   4.195190   4.899916   4.541007
    14  N    3.946303   4.866687   4.755846   3.665108   2.350364
    15  N    2.359309   3.668072   4.765475   4.882409   3.966357
    16  C    5.386432   6.301426   6.099507   4.900271   3.691686
    17  H    5.774370   6.773676   6.679509   5.544080   4.300366
    18  H    5.968361   6.702321   6.272285   4.954083   3.956051
    19  H    5.842685   6.826347   6.704404   5.554929   4.324976
    20  C    3.691140   4.887627   6.095830   6.309874   5.405241
    21  H    4.291752   5.531215   6.664224   6.755762   5.757268
    22  H    4.345565   5.555548   6.730803   6.886151   5.923827
    23  H    3.937395   4.918775   6.241646   6.681818   5.960820
    24  Co   2.855186   4.160211   4.680304   4.149708   2.838910
    25  H    4.363132   5.709066   6.266024   5.672966   4.315334
    26  C    4.618809   5.857899   6.376043   5.822787   4.574073
    27  C    3.759728   4.825495   5.273036   4.811604   3.741672
    28  H    5.397732   6.593984   6.936586   6.191559   4.907557
    29  H    3.506692   4.509067   5.165747   4.995841   4.102046
    30  C    5.401377   6.684243   7.425925   7.064366   5.855123
    31  H    4.942166   6.198866   7.103141   6.946156   5.834172
    32  H    5.998142   7.344615   8.103915   7.691821   6.409070
    33  H    6.206595   7.413504   8.109576   7.743958   6.589142
    34  C    4.293713   5.061945   5.122558   4.446904   3.564490
    35  H    3.741357   4.278415   4.158333   3.480288   2.816605
    36  H    5.088909   5.742322   5.802518   5.238569   4.525311
    37  H    4.940206   5.747127   5.664237   4.757392   3.770606
                    6          7          8          9         10
     6  N    0.000000
     7  H    3.866784   0.000000
     8  H    3.378843   2.507634   0.000000
     9  H    3.380294   2.505768   4.322922   0.000000
    10  C    2.340958   4.682982   5.289787   2.798076   0.000000
    11  H    3.348711   4.941868   5.989511   2.652214   1.094180
    12  C    2.341699   4.681046   2.792980   5.289573   4.664865
    13  H    3.344368   4.929053   2.638216   5.978429   5.679071
    14  N    2.583410   5.747475   5.909457   4.074682   1.301389
    15  N    2.601310   5.754944   4.071100   5.926265   4.655600
    16  C    4.026774   7.041965   7.350847   5.097976   2.371738
    17  H    4.464290   7.645613   7.788545   5.795998   3.082801
    18  H    4.608768   7.113565   7.780972   4.912444   2.516129
    19  H    4.519447   7.661568   7.851116   5.789109   3.106926
    20  C    4.043342   7.033352   5.073399   7.361139   6.019660
    21  H    4.450130   7.629833   5.786076   7.768546   6.202715
    22  H    4.587796   7.677430   5.757253   7.919576   6.435103
    23  H    4.603775   7.076742   4.866578   7.760022   6.755457
    24  Co   1.911823   5.763104   4.998936   4.983013   2.888417
    25  H    3.496143   7.348280   6.485639   6.428438   3.999781
    26  C    3.841666   7.410685   6.604713   6.549108   4.337273
    27  C    3.092000   6.251332   5.572816   5.551729   3.803890
    28  H    4.426874   7.962629   7.426188   6.779162   4.349120
    29  H    3.250506   6.093041   5.083131   5.840397   4.499530
    30  C    4.907626   8.450850   7.263044   7.879710   5.765759
    31  H    4.722390   8.099055   6.643644   7.854235   6.006473
    32  H    5.449434   9.158231   7.932427   8.499900   6.198823
    33  H    5.730679   9.096690   7.968963   8.512190   6.464382
    34  C    3.469861   5.994220   5.907603   4.945597   3.434787
    35  H    2.975902   4.973817   5.159321   3.945008   2.939940
    36  H    4.436054   6.577322   6.490229   5.679078   4.460017
    37  H    3.887224   6.546739   6.679008   5.103020   3.202838
                   11         12         13         14         15
    11  H    0.000000
    12  C    5.685493   0.000000
    13  H    6.664918   1.094805   0.000000
    14  N    2.099669   4.635954   5.717326   0.000000
    15  N    5.740628   1.300644   2.097167   4.263950   0.000000
    16  C    2.612390   5.993984   7.079676   1.447078   5.465810
    17  H    3.360999   6.223583   7.280564   2.088952   5.583729
    18  H    2.266024   6.756714   7.829665   2.133366   6.370238
    19  H    3.400468   6.330578   7.423671   2.085910   5.676520
    20  C    7.107275   2.361102   2.589007   5.481279   1.450013
    21  H    7.264415   3.081364   3.363659   5.544987   2.087309
    22  H    7.527646   3.092973   3.353135   5.781862   2.094713
    23  H    7.828932   2.497212   2.230083   6.362676   2.135320
    24  Co   3.960378   2.925397   4.001562   2.157678   2.220307
    25  H    4.955590   4.106109   5.084032   2.875540   3.020986
    26  C    5.249176   4.439721   5.386402   3.368497   3.494049
    27  C    4.718930   3.850982   4.792292   3.230308   3.286420
    28  H    5.109570   5.380620   6.374702   3.261657   4.455147
    29  H    5.455323   3.380919   4.166858   4.090266   2.950414
    30  C    6.720647   4.826600   5.582763   4.781295   3.714673
    31  H    7.031427   4.154196   4.769223   5.162817   3.080123
    32  H    7.137461   5.336874   6.075937   5.087611   4.103119
    33  H    7.357519   5.682466   6.392231   5.513027   4.660650
    34  C    4.092195   4.814690   5.764029   3.166635   4.523276
    35  H    3.535907   4.546222   5.463734   3.101056   4.543740
    36  H    5.018273   5.540092   6.396135   4.243856   5.281022
    37  H    3.698472   5.514513   6.532468   2.765893   5.108869
                   16         17         18         19         20
    16  C    0.000000
    17  H    1.095906   0.000000
    18  H    1.100339   1.785679   0.000000
    19  H    1.097338   1.763379   1.786315   0.000000
    20  C    6.534968   6.504026   7.517168   6.652863   0.000000
    21  H    6.453329   6.239255   7.461630   6.620292   1.095874
    22  H    6.736616   6.758151   7.759739   6.674711   1.095732
    23  H    7.497975   7.483849   8.440073   7.669768   1.100500
    24  Co   3.280679   3.532281   4.213544   3.471255   3.369046
    25  H    3.372735   3.351822   4.460359   3.227393   3.603165
    26  C    3.878871   4.236022   4.857533   3.388866   4.117297
    27  C    4.100816   4.718126   4.910815   3.774459   4.237538
    28  H    3.360318   3.735490   4.295657   2.633652   5.102944
    29  H    5.104620   5.679154   5.908010   4.848666   3.790251
    30  C    5.247505   5.425842   6.272595   4.722305   3.788168
    31  H    5.864986   6.044882   6.890732   5.485767   2.954851
    32  H    5.372515   5.336319   6.441173   4.864275   3.953676
    33  H    5.873835   6.146189   6.835977   5.193235   4.704768
    34  C    3.892405   4.779665   4.416139   3.525092   5.637710
    35  H    4.051237   4.988758   4.415719   3.954326   5.816022
    36  H    4.847615   5.755655   5.301452   4.342646   6.284241
    37  H    3.117314   4.064192   3.567687   2.607909   6.214490
                   21         22         23         24         25
    21  H    0.000000
    22  H    1.761355   0.000000
    23  H    1.785047   1.784281   0.000000
    24  Co   3.564878   3.632147   4.291282   0.000000
    25  H    3.518709   3.556480   4.685672   1.586868   0.000000
    26  C    4.394609   3.742908   5.128347   2.212591   1.613349
    27  C    4.787992   3.993077   5.084103   2.156091   2.568426
    28  H    5.250140   4.753045   6.146005   2.802545   1.977891
    29  H    4.546051   3.476980   4.483120   2.642175   3.193575
    30  C    4.044049   3.072006   4.758699   3.254884   2.334708
    31  H    3.400287   2.113680   3.823995   3.302296   2.752942
    32  H    3.917346   3.283411   4.965430   3.639210   2.340716
    33  H    5.041342   3.866420   5.592317   4.179850   3.314406
    34  C    6.188732   5.470256   6.427231   3.079050   3.661654
    35  H    6.413919   5.822464   6.497311   3.227339   4.207274
    36  H    6.922724   5.974608   7.018968   4.077079   4.515144
    37  H    6.609259   6.070134   7.096100   3.283161   3.615482
                   26         27         28         29         30
    26  C    0.000000
    27  C    1.440000   0.000000
    28  H    1.090932   2.142842   0.000000
    29  H    2.157411   1.089539   3.066999   0.000000
    30  C    1.516658   2.558360   2.199254   2.718068   0.000000
    31  H    2.158136   2.733660   3.094256   2.474091   1.093316
    32  H    2.181804   3.461700   2.566354   3.722066   1.094924
    33  H    2.151587   2.986164   2.560546   3.088886   1.098052
    34  C    2.588709   1.505972   2.734785   2.214666   3.863610
    35  H    3.420804   2.174077   3.659057   2.626980   4.713842
    36  H    3.185782   2.162053   3.297770   2.561414   4.201831
    37  H    2.719253   2.158413   2.431379   3.108970   4.127166
                   31         32         33         34         35
    31  H    0.000000
    32  H    1.772388   0.000000
    33  H    1.768512   1.778239   0.000000
    34  C    4.183657   4.733621   4.055798   0.000000
    35  H    4.873231   5.574373   5.017017   1.097241   0.000000
    36  H    4.513588   5.159636   4.112615   1.101050   1.767812
    37  H    4.673893   4.826621   4.321332   1.094830   1.766643
                   36         37
    36  H    0.000000
    37  H    1.771117   0.000000
 Stoichiometry    C13H20CoN3(3)
 Framework group  C1[X(C13H20CoN3)]
 Deg. of freedom   105
 Full point group                 C1      NOp   1
 Largest Abelian subgroup         C1      NOp   1
 Largest concise Abelian subgroup C1      NOp   1
                         Standard orientation:                         
 ---------------------------------------------------------------------
 Center     Atomic      Atomic             Coordinates (Angstroms)
 Number     Number       Type             X           Y           Z
 ---------------------------------------------------------------------
      1          6           0        1.561323    1.483492    0.049651
      2          6           0        2.864856    1.699439    0.488012
      3          6           0        3.730914    0.605212    0.631008
      4          6           0        3.273481   -0.678631    0.307275
      5          6           0        1.960257   -0.846317   -0.128560
      6          7           0        1.116413    0.224657   -0.239881
      7          1           0        4.748240    0.753337    0.977638
      8          1           0        3.201717    2.708719    0.707498
      9          1           0        3.931670   -1.539733    0.382727
     10          6           0        1.345039   -2.086525   -0.533565
     11          1           0        1.941099   -3.002804   -0.582307
     12          6           0        0.566920    2.500538   -0.195411
     13          1           0        0.848732    3.556551   -0.132043
     14          7           0        0.080726   -2.064399   -0.841196
     15          7           0       -0.634962    2.127037   -0.523515
     16          6           0       -0.562008   -3.286502   -1.274081
     17          1           0       -0.948420   -3.160026   -2.291774
     18          1           0        0.111034   -4.156811   -1.256097
     19          1           0       -1.423486   -3.493503   -0.626658
     20          6           0       -1.600433    3.152632   -0.867839
     21          1           0       -1.962110    2.983098   -1.888323
     22          1           0       -2.470295    3.085109   -0.204959
     23          1           0       -1.187117    4.170570   -0.804031
     24         27           0       -0.742545   -0.090421   -0.556219
     25          1           0       -2.255312   -0.389970   -0.930328
     26          6           0       -2.538021   -0.558427    0.649100
     27          6           0       -1.381294   -0.365086    1.484685
     28          1           0       -2.845841   -1.597150    0.520894
     29          1           0       -1.267909    0.621228    1.933487
     30          6           0       -3.692232    0.422869    0.720554
     31          1           0       -3.319708    1.445578    0.823671
     32          1           0       -4.330345    0.379624   -0.168153
     33          1           0       -4.310407    0.204018    1.601282
     34          6           0       -0.675086   -1.498177    2.181339
     35          1           0        0.415851   -1.381842    2.165190
     36          1           0       -0.977351   -1.563844    3.238048
     37          1           0       -0.908866   -2.458936    1.711295
 ---------------------------------------------------------------------
 Rotational constants (GHZ):           0.5337315           0.4224311           0.2928548
 General basis read from cards:  (5D, 7F)
 ======================================================================================================
                                       Pseudopotential Parameters
 ======================================================================================================
  Center     Atomic      Valence      Angular      Power
  Number     Number     Electrons     Momentum     of R      Exponent        Coefficient   SO-Coeffient
 ======================================================================================================
    1          6
                                   No pseudopotential on this center.
    2          6
                                   No pseudopotential on this center.
    3          6
                                   No pseudopotential on this center.
    4          6
                                   No pseudopotential on this center.
    5          6
                                   No pseudopotential on this center.
    6          7
                                   No pseudopotential on this center.
    7          1
                                   No pseudopotential on this center.
    8          1
                                   No pseudopotential on this center.
    9          1
                                   No pseudopotential on this center.
   10          6
                                   No pseudopotential on this center.
   11          1
                                   No pseudopotential on this center.
   12          6
                                   No pseudopotential on this center.
   13          1
                                   No pseudopotential on this center.
   14          7
                                   No pseudopotential on this center.
   15          7
                                   No pseudopotential on this center.
   16          6
                                   No pseudopotential on this center.
   17          1
                                   No pseudopotential on this center.
   18          1
                                   No pseudopotential on this center.
   19          1
                                   No pseudopotential on this center.
   20          6
                                   No pseudopotential on this center.
   21          1
                                   No pseudopotential on this center.
   22          1
                                   No pseudopotential on this center.
   23          1
                                   No pseudopotential on this center.
   24         27           17
                                      D and up 
                                                     1      434.1076104      -10.00000000    0.00000000
                                                     2       78.8402758      -66.72402760    0.00000000
                                                     2       19.6037749      -11.71922430    0.00000000
                                      S - D
                                                     0      151.2307582        3.00000000    0.00000000
                                                     1      169.6790026       20.15531100    0.00000000
                                                     2       64.9909423      413.37622440    0.00000000
                                                     2       12.5076287      133.87277050    0.00000000
                                      P - D
                                                     0       92.7319924        5.00000000    0.00000000
                                                     1      121.1910183        6.18923530    0.00000000
                                                     2       48.6265909      326.32159190    0.00000000
                                                     2       11.9966971       73.87889700    0.00000000
   25          1
                                   No pseudopotential on this center.
   26          6
                                   No pseudopotential on this center.
   27          6
                                   No pseudopotential on this center.
   28          1
                                   No pseudopotential on this center.
   29          1
                                   No pseudopotential on this center.
   30          6
                                   No pseudopotential on this center.
   31          1
                                   No pseudopotential on this center.
   32          1
                                   No pseudopotential on this center.
   33          1
                                   No pseudopotential on this center.
   34          6
                                   No pseudopotential on this center.
   35          1
                                   No pseudopotential on this center.
   36          1
                                   No pseudopotential on this center.
   37          1
                                   No pseudopotential on this center.
 ======================================================================================================
 There are   304 symmetry adapted cartesian basis functions of A   symmetry.
 There are   286 symmetry adapted basis functions of A   symmetry.
   286 basis functions,   580 primitive gaussians,   304 cartesian basis functions
    69 alpha electrons       67 beta electrons
       nuclear repulsion energy      1462.0513558116 Hartrees.
 NAtoms=   37 NActive=   37 NUniq=   37 SFac= 1.00D+00 NAtFMM=   60 NAOKFM=F Big=F
 Integral buffers will be    131072 words long.
 Raffenetti 2 integral format.
 Two-electron integral symmetry is turned on.
 Nuclear repulsion after empirical dispersion term =     1461.9697537930 Hartrees.
 One-electron integrals computed using PRISM.
   1 Symmetry operations used in ECPInt.
 ECPInt:  NShTT=    6328 NPrTT=   37764 LenC2=    5995 LenP2D=   22041.
 LDataN:  DoStor=T MaxTD1= 4 Len=   56
 NBasis=   286 RedAO= T EigKep=  6.69D-04  NBF=   286
 NBsUse=   286 1.00D-06 EigRej= -1.00D+00 NBFU=   286
 ExpMin= 2.30D-02 ExpMax= 4.17D+03 ExpMxC= 6.27D+02 IAcc=3 IRadAn=         5 AccDes= 0.00D+00
 Harris functional with IExCor=  402 and IRadAn=       5 diagonalized for initial guess.
 HarFok:  IExCor=  402 AccDes= 0.00D+00 IRadAn=         5 IDoV= 1 UseB2=F ITyADJ=14
 ICtDFT=  3500011 ScaDFX=  1.000000  1.000000  1.000000  1.000000
 FoFCou: FMM=F IPFlag=           0 FMFlag=      100000 FMFlg1=           0
         NFxFlg=           0 DoJE=T BraDBF=F KetDBF=T FulRan=T
         wScrn=  0.000000 ICntrl=       500 IOpCl=  0 I1Cent=   200000004 NGrid=           0
         NMat0=    1 NMatS0=      1 NMatT0=    0 NMatD0=    1 NMtDS0=    0 NMtDT0=    0
 Petite list used in FoFCou.
 Initial guess <Sx>= 0.0000 <Sy>= 0.0000 <Sz>= 1.0000 <S**2>= 2.0000 S= 1.0000
 Requested convergence on RMS density matrix=1.00D-08 within 128 cycles.
 Requested convergence on MAX density matrix=1.00D-06.
 Requested convergence on             energy=1.00D-06.
 No special actions if energy rises.
 EnCoef did     1 forward-backward iterations
 Restarting incremental Fock formation.
 SCF Done:  E(UB3LYP) =  -816.782829122     A.U. after   34 cycles
            NFock= 34  Conv=0.54D-08     -V/T= 2.0829
 <Sx>= 0.0000 <Sy>= 0.0000 <Sz>= 1.0000 <S**2>= 2.1104 S= 1.0364
 <L.S>=  0.00000000000    
 Annihilation of the first spin contaminant:
 S**2 before annihilation     2.1104,   after     2.0023
 DoSCS=F DFT=T ScalE2(SS,OS)=  1.000000  1.000000
 Range of M.O.s used for correlation:     1   286
 NBasis=   286 NAE=    69 NBE=    67 NFC=     0 NFV=     0
 NROrb=    286 NOA=    69 NOB=    67 NVA=   217 NVB=   219

 **** Warning!!: The smallest alpha delta epsilon is  0.64057183D-01

   1 Symmetry operations used in ECPInt.
 ECPInt:  NShTT=    6328 NPrTT=   37764 LenC2=    5995 LenP2D=   22041.
 LDataN:  DoStor=T MaxTD1= 5 Len=  102
 Symmetrizing basis deriv contribution to polar:
 IMax=3 JMax=2 DiffMx= 0.00D+00
 G2DrvN: will do    38 centers at a time, making    1 passes.
 Calling FoFCou, ICntrl=  3107 FMM=F I1Cent=   0 AccDes= 0.00D+00.
 End of G2Drv F.D. properties file   721 does not exist.
 End of G2Drv F.D. properties file   722 does not exist.
 End of G2Drv F.D. properties file   788 does not exist.
          IDoAtm=1111111111111111111111111111111111111
          Differentiating once with respect to nuclear coordinates.
 Keep R1 and R2 ints in memory in canonical form, NReq=1720778365.
          There are   114 degrees of freedom in the 1st order CPHF.  IDoFFX=6 NUNeed=     0.
    108 vectors produced by pass  0 Test12= 2.96D-14 1.00D-09 XBig12= 5.41D-01 3.82D-01.
 AX will form   108 AO Fock derivatives at one time.
    108 vectors produced by pass  1 Test12= 2.96D-14 1.00D-09 XBig12= 2.02D-01 9.29D-02.
    108 vectors produced by pass  2 Test12= 2.96D-14 1.00D-09 XBig12= 4.94D-03 1.49D-02.
    108 vectors produced by pass  3 Test12= 2.96D-14 1.00D-09 XBig12= 5.93D-05 1.15D-03.
    108 vectors produced by pass  4 Test12= 2.96D-14 1.00D-09 XBig12= 2.97D-07 4.72D-05.
    108 vectors produced by pass  5 Test12= 2.96D-14 1.00D-09 XBig12= 1.66D-09 3.59D-06.
     87 vectors produced by pass  6 Test12= 2.96D-14 1.00D-09 XBig12= 7.16D-12 2.63D-07.
     17 vectors produced by pass  7 Test12= 2.96D-14 1.00D-09 XBig12= 2.16D-14 1.21D-08.
 InvSVY:  IOpt=1 It=  1 EMax= 7.77D-16
 Solved reduced A of dimension   752 with   114 vectors.
 End of Minotr F.D. properties file   721 does not exist.
 End of Minotr F.D. properties file   722 does not exist.
 End of Minotr F.D. properties file   788 does not exist.

 **********************************************************************

            Population analysis using the SCF Density.

 **********************************************************************

 Orbital symmetries:
 Alpha Orbitals:
       Occupied  (A) (A) (A) (A) (A) (A) (A) (A) (A) (A) (A) (A)
                 (A) (A) (A) (A) (A) (A) (A) (A) (A) (A) (A) (A)
                 (A) (A) (A) (A) (A) (A) (A) (A) (A) (A) (A) (A)
                 (A) (A) (A) (A) (A) (A) (A) (A) (A) (A) (A) (A)
                 (A) (A) (A) (A) (A) (A) (A) (A) (A) (A) (A) (A)
                 (A) (A) (A) (A) (A) (A) (A) (A) (A)
       Virtual   (A) (A) (A) (A) (A) (A) (A) (A) (A) (A) (A) (A)
                 (A) (A) (A) (A) (A) (A) (A) (A) (A) (A) (A) (A)
                 (A) (A) (A) (A) (A) (A) (A) (A) (A) (A) (A) (A)
                 (A) (A) (A) (A) (A) (A) (A) (A) (A) (A) (A) (A)
                 (A) (A) (A) (A) (A) (A) (A) (A) (A) (A) (A) (A)
                 (A) (A) (A) (A) (A) (A) (A) (A) (A) (A) (A) (A)
                 (A) (A) (A) (A) (A) (A) (A) (A) (A) (A) (A) (A)
                 (A) (A) (A) (A) (A) (A) (A) (A) (A) (A) (A) (A)
                 (A) (A) (A) (A) (A) (A) (A) (A) (A) (A) (A) (A)
                 (A) (A) (A) (A) (A) (A) (A) (A) (A) (A) (A) (A)
                 (A) (A) (A) (A) (A) (A) (A) (A) (A) (A) (A) (A)
                 (A) (A) (A) (A) (A) (A) (A) (A) (A) (A) (A) (A)
                 (A) (A) (A) (A) (A) (A) (A) (A) (A) (A) (A) (A)
                 (A) (A) (A) (A) (A) (A) (A) (A) (A) (A) (A) (A)
                 (A) (A) (A) (A) (A) (A) (A) (A) (A) (A) (A) (A)
                 (A) (A) (A) (A) (A) (A) (A) (A) (A) (A) (A) (A)
                 (A) (A) (A) (A) (A) (A) (A) (A) (A) (A) (A) (A)
                 (A) (A) (A) (A) (A) (A) (A) (A) (A) (A) (A) (A)
                 (A)
 Beta  Orbitals:
       Occupied  (A) (A) (A) (A) (A) (A) (A) (A) (A) (A) (A) (A)
                 (A) (A) (A) (A) (A) (A) (A) (A) (A) (A) (A) (A)
                 (A) (A) (A) (A) (A) (A) (A) (A) (A) (A) (A) (A)
                 (A) (A) (A) (A) (A) (A) (A) (A) (A) (A) (A) (A)
                 (A) (A) (A) (A) (A) (A) (A) (A) (A) (A) (A) (A)
                 (A) (A) (A) (A) (A) (A) (A)
       Virtual   (A) (A) (A) (A) (A) (A) (A) (A) (A) (A) (A) (A)
                 (A) (A) (A) (A) (A) (A) (A) (A) (A) (A) (A) (A)
                 (A) (A) (A) (A) (A) (A) (A) (A) (A) (A) (A) (A)
                 (A) (A) (A) (A) (A) (A) (A) (A) (A) (A) (A) (A)
                 (A) (A) (A) (A) (A) (A) (A) (A) (A) (A) (A) (A)
                 (A) (A) (A) (A) (A) (A) (A) (A) (A) (A) (A) (A)
                 (A) (A) (A) (A) (A) (A) (A) (A) (A) (A) (A) (A)
                 (A) (A) (A) (A) (A) (A) (A) (A) (A) (A) (A) (A)
                 (A) (A) (A) (A) (A) (A) (A) (A) (A) (A) (A) (A)
                 (A) (A) (A) (A) (A) (A) (A) (A) (A) (A) (A) (A)
                 (A) (A) (A) (A) (A) (A) (A) (A) (A) (A) (A) (A)
                 (A) (A) (A) (A) (A) (A) (A) (A) (A) (A) (A) (A)
                 (A) (A) (A) (A) (A) (A) (A) (A) (A) (A) (A) (A)
                 (A) (A) (A) (A) (A) (A) (A) (A) (A) (A) (A) (A)
                 (A) (A) (A) (A) (A) (A) (A) (A) (A) (A) (A) (A)
                 (A) (A) (A) (A) (A) (A) (A) (A) (A) (A) (A) (A)
                 (A) (A) (A) (A) (A) (A) (A) (A) (A) (A) (A) (A)
                 (A) (A) (A) (A) (A) (A) (A) (A) (A) (A) (A) (A)
                 (A) (A) (A)
 The electronic state is 3-A.
 Alpha  occ. eigenvalues --  -14.33381 -14.33273 -14.32488 -10.21585 -10.21416
 Alpha  occ. eigenvalues --  -10.21127 -10.21105 -10.19730 -10.19722 -10.19667
 Alpha  occ. eigenvalues --  -10.19172 -10.19142 -10.18608 -10.16132 -10.15575
 Alpha  occ. eigenvalues --  -10.15231  -3.70652  -2.41100  -2.39698  -2.39574
 Alpha  occ. eigenvalues --   -0.95034  -0.91842  -0.89974  -0.79397  -0.78380
 Alpha  occ. eigenvalues --   -0.77853  -0.71574  -0.70875  -0.69998  -0.64601
 Alpha  occ. eigenvalues --   -0.62539  -0.62452  -0.57163  -0.57047  -0.53863
 Alpha  occ. eigenvalues --   -0.51291  -0.48946  -0.48101  -0.46115  -0.45183
 Alpha  occ. eigenvalues --   -0.44041  -0.43664  -0.43429  -0.42683  -0.42372
 Alpha  occ. eigenvalues --   -0.41875  -0.40791  -0.40587  -0.39464  -0.38749
 Alpha  occ. eigenvalues --   -0.37990  -0.35976  -0.35647  -0.34887  -0.33772
 Alpha  occ. eigenvalues --   -0.33255  -0.32723  -0.31721  -0.30482  -0.29030
 Alpha  occ. eigenvalues --   -0.28677  -0.27850  -0.24582  -0.23890  -0.21904
 Alpha  occ. eigenvalues --   -0.21296  -0.19884  -0.16150  -0.11906
 Alpha virt. eigenvalues --   -0.05500  -0.03068   0.01771   0.02193   0.02476
 Alpha virt. eigenvalues --    0.03216   0.05585   0.06995   0.09495   0.10585
 Alpha virt. eigenvalues --    0.11893   0.12209   0.13945   0.14492   0.14986
 Alpha virt. eigenvalues --    0.15619   0.16013   0.16236   0.17096   0.17172
 Alpha virt. eigenvalues --    0.17335   0.18149   0.18778   0.18975   0.19536
 Alpha virt. eigenvalues --    0.20110   0.21273   0.22131   0.22289   0.22874
 Alpha virt. eigenvalues --    0.24803   0.25694   0.26921   0.27090   0.28823
 Alpha virt. eigenvalues --    0.29743   0.30678   0.31928   0.32431   0.33349
 Alpha virt. eigenvalues --    0.35227   0.37779   0.38117   0.42875   0.43981
 Alpha virt. eigenvalues --    0.46181   0.49688   0.49902   0.51720   0.51877
 Alpha virt. eigenvalues --    0.52579   0.53132   0.53629   0.55253   0.55645
 Alpha virt. eigenvalues --    0.56005   0.57508   0.58433   0.59587   0.60250
 Alpha virt. eigenvalues --    0.60435   0.60821   0.62217   0.62465   0.63637
 Alpha virt. eigenvalues --    0.64070   0.66295   0.66672   0.67014   0.68231
 Alpha virt. eigenvalues --    0.69131   0.69885   0.71761   0.72872   0.74696
 Alpha virt. eigenvalues --    0.75936   0.77435   0.78369   0.79391   0.79963
 Alpha virt. eigenvalues --    0.80526   0.82124   0.83093   0.84165   0.85156
 Alpha virt. eigenvalues --    0.85703   0.86225   0.86676   0.87590   0.88654
 Alpha virt. eigenvalues --    0.89842   0.90429   0.91444   0.91620   0.93279
 Alpha virt. eigenvalues --    0.93580   0.94003   0.95411   0.95830   0.96647
 Alpha virt. eigenvalues --    0.96880   0.98228   0.98914   0.99040   1.00148
 Alpha virt. eigenvalues --    1.00873   1.01607   1.03764   1.04530   1.05143
 Alpha virt. eigenvalues --    1.05914   1.07339   1.08829   1.10105   1.10943
 Alpha virt. eigenvalues --    1.12382   1.12797   1.15224   1.17941   1.19649
 Alpha virt. eigenvalues --    1.22849   1.24537   1.25265   1.28734   1.29385
 Alpha virt. eigenvalues --    1.31748   1.33181   1.34093   1.37039   1.39098
 Alpha virt. eigenvalues --    1.39554   1.41397   1.44982   1.46274   1.48104
 Alpha virt. eigenvalues --    1.48751   1.49750   1.52542   1.54119   1.54800
 Alpha virt. eigenvalues --    1.56825   1.57724   1.62532   1.63381   1.64204
 Alpha virt. eigenvalues --    1.68137   1.69632   1.71835   1.74902   1.78008
 Alpha virt. eigenvalues --    1.78737   1.82684   1.83442   1.83810   1.84756
 Alpha virt. eigenvalues --    1.88131   1.89991   1.90940   1.92483   1.93891
 Alpha virt. eigenvalues --    1.95396   1.96923   1.97308   1.99516   2.02033
 Alpha virt. eigenvalues --    2.03296   2.04468   2.05967   2.06694   2.09572
 Alpha virt. eigenvalues --    2.10746   2.12152   2.13126   2.14954   2.17604
 Alpha virt. eigenvalues --    2.19474   2.22762   2.24883   2.25411   2.25904
 Alpha virt. eigenvalues --    2.27349   2.29279   2.29778   2.31148   2.31259
 Alpha virt. eigenvalues --    2.32682   2.33491   2.34104   2.36456   2.37848
 Alpha virt. eigenvalues --    2.39095   2.40179   2.44229   2.44736   2.46180
 Alpha virt. eigenvalues --    2.49796   2.51731   2.56001   2.56492   2.62823
 Alpha virt. eigenvalues --    2.64595   2.66362   2.67929   2.69432   2.76217
 Alpha virt. eigenvalues --    2.80416   2.82434   2.85966   2.85970   2.87347
 Alpha virt. eigenvalues --    2.90911   2.95401   3.00240   3.11760   3.25818
 Alpha virt. eigenvalues --    3.44859   4.88018
  Beta  occ. eigenvalues --  -14.33091 -14.32952 -14.32012 -10.21504 -10.21342
  Beta  occ. eigenvalues --  -10.21022 -10.20993 -10.19740 -10.19729 -10.19558
  Beta  occ. eigenvalues --  -10.19269 -10.19233 -10.18398 -10.16151 -10.15863
  Beta  occ. eigenvalues --  -10.15219  -3.63024  -2.34152  -2.32070  -2.29897
  Beta  occ. eigenvalues --   -0.94406  -0.91368  -0.89439  -0.79066  -0.78071
  Beta  occ. eigenvalues --   -0.77988  -0.71315  -0.70984  -0.69982  -0.64126
  Beta  occ. eigenvalues --   -0.62517  -0.62398  -0.56788  -0.56721  -0.54073
  Beta  occ. eigenvalues --   -0.51113  -0.48769  -0.47882  -0.45919  -0.45020
  Beta  occ. eigenvalues --   -0.43597  -0.43382  -0.43262  -0.42490  -0.42264
  Beta  occ. eigenvalues --   -0.41788  -0.40613  -0.39970  -0.39431  -0.38472
  Beta  occ. eigenvalues --   -0.37895  -0.35911  -0.35501  -0.34742  -0.33264
  Beta  occ. eigenvalues --   -0.32582  -0.32357  -0.29714  -0.28926  -0.28692
  Beta  occ. eigenvalues --   -0.28071  -0.25828  -0.23814  -0.20058  -0.18325
  Beta  occ. eigenvalues --   -0.17861  -0.17455
  Beta virt. eigenvalues --   -0.05662  -0.04518   0.00130   0.02311   0.02952
  Beta virt. eigenvalues --    0.03212   0.04468   0.05340   0.07204   0.07870
  Beta virt. eigenvalues --    0.09541   0.10856   0.11941   0.12426   0.13997
  Beta virt. eigenvalues --    0.14550   0.15170   0.15749   0.16179   0.16674
  Beta virt. eigenvalues --    0.17241   0.17565   0.17841   0.18371   0.18892
  Beta virt. eigenvalues --    0.19226   0.19666   0.20435   0.21321   0.22338
  Beta virt. eigenvalues --    0.22648   0.23001   0.24986   0.25892   0.27050
  Beta virt. eigenvalues --    0.27192   0.28947   0.29847   0.30929   0.32041
  Beta virt. eigenvalues --    0.32625   0.33519   0.35543   0.37852   0.38217
  Beta virt. eigenvalues --    0.43176   0.44245   0.46524   0.49902   0.50141
  Beta virt. eigenvalues --    0.51805   0.52023   0.52663   0.53328   0.53878
  Beta virt. eigenvalues --    0.55463   0.55756   0.56223   0.57592   0.58694
  Beta virt. eigenvalues --    0.59670   0.60282   0.60567   0.60908   0.62542
  Beta virt. eigenvalues --    0.62734   0.63978   0.64301   0.66523   0.66792
  Beta virt. eigenvalues --    0.67283   0.68725   0.69323   0.70222   0.71972
  Beta virt. eigenvalues --    0.73012   0.74804   0.75961   0.77678   0.78557
  Beta virt. eigenvalues --    0.79517   0.80270   0.80684   0.82203   0.83138
  Beta virt. eigenvalues --    0.84222   0.85349   0.85814   0.86417   0.86913
  Beta virt. eigenvalues --    0.87724   0.88794   0.90054   0.90583   0.91615
  Beta virt. eigenvalues --    0.91906   0.93423   0.93907   0.94152   0.95509
  Beta virt. eigenvalues --    0.95985   0.96774   0.97159   0.98344   0.99188
  Beta virt. eigenvalues --    0.99322   1.00552   1.01313   1.01917   1.04097
  Beta virt. eigenvalues --    1.04774   1.05904   1.06620   1.07914   1.09178
  Beta virt. eigenvalues --    1.10715   1.11502   1.12705   1.13385   1.15314
  Beta virt. eigenvalues --    1.18252   1.19854   1.22961   1.24687   1.25556
  Beta virt. eigenvalues --    1.29028   1.29586   1.31986   1.33789   1.34593
  Beta virt. eigenvalues --    1.37469   1.39521   1.39895   1.41745   1.44957
  Beta virt. eigenvalues --    1.46723   1.48299   1.49010   1.49886   1.52663
  Beta virt. eigenvalues --    1.54415   1.55042   1.56983   1.57913   1.62698
  Beta virt. eigenvalues --    1.63842   1.64628   1.68447   1.70019   1.72178
  Beta virt. eigenvalues --    1.75261   1.78303   1.79003   1.82690   1.83622
  Beta virt. eigenvalues --    1.84237   1.85040   1.88319   1.90199   1.91162
  Beta virt. eigenvalues --    1.92812   1.94004   1.95623   1.97041   1.97533
  Beta virt. eigenvalues --    1.99691   2.02076   2.02905   2.04847   2.06043
  Beta virt. eigenvalues --    2.06973   2.09935   2.10975   2.12507   2.13399
  Beta virt. eigenvalues --    2.15193   2.18048   2.19656   2.22931   2.25081
  Beta virt. eigenvalues --    2.25723   2.25926   2.27595   2.29327   2.30153
  Beta virt. eigenvalues --    2.31299   2.31893   2.32909   2.33527   2.34414
  Beta virt. eigenvalues --    2.36369   2.38042   2.39290   2.40640   2.44243
  Beta virt. eigenvalues --    2.45075   2.45934   2.50402   2.51953   2.56620
  Beta virt. eigenvalues --    2.57141   2.63125   2.64429   2.66464   2.68077
  Beta virt. eigenvalues --    2.70085   2.76136   2.80618   2.82339   2.86178
  Beta virt. eigenvalues --    2.86567   2.87697   2.91163   2.95757   3.00389
  Beta virt. eigenvalues --    3.11917   3.25961   3.44998   4.87798
          Condensed to atoms (all electrons):
               1          2          3          4          5          6
     1  C    4.633244   0.532149  -0.001710  -0.036394  -0.014499   0.359592
     2  C    0.532149   5.000521   0.489246  -0.032397  -0.035476  -0.054787
     3  C   -0.001710   0.489246   4.929415   0.492479  -0.002150  -0.037092
     4  C   -0.036394  -0.032397   0.492479   5.000609   0.529637  -0.054597
     5  C   -0.014499  -0.035476  -0.002150   0.529637   4.628351   0.350994
     6  N    0.359592  -0.054787  -0.037092  -0.054597   0.350994   7.033503
     7  H    0.003719  -0.039878   0.362410  -0.039922   0.003681   0.000140
     8  H   -0.045582   0.358254  -0.043950   0.004939   0.000256   0.005041
     9  H    0.000239   0.004950  -0.044065   0.358289  -0.045627   0.005038
    10  C    0.006934   0.001457   0.004481  -0.069365   0.403130  -0.056690
    11  H   -0.000023  -0.000048   0.000145  -0.003018  -0.057360   0.003713
    12  C    0.399000  -0.068487   0.004386   0.001435   0.006885  -0.056364
    13  H   -0.059537  -0.003040   0.000159  -0.000052  -0.000022   0.003672
    14  N    0.000731  -0.000051  -0.000128   0.003820  -0.050137  -0.022749
    15  N   -0.051904   0.003604  -0.000119  -0.000054   0.000758  -0.020881
    16  C   -0.000007   0.000001   0.000003  -0.000171   0.006682   0.000458
    17  H   -0.000001  -0.000000  -0.000000   0.000005  -0.000033   0.000009
    18  H    0.000001  -0.000000   0.000000  -0.000019  -0.000576  -0.000003
    19  H   -0.000000   0.000000  -0.000000   0.000006  -0.000021   0.000021
    20  C    0.007123  -0.000167   0.000003   0.000001  -0.000007   0.000390
    21  H    0.000033   0.000006  -0.000000  -0.000000  -0.000001   0.000006
    22  H   -0.000084   0.000006  -0.000000  -0.000000   0.000000   0.000020
    23  H   -0.000723  -0.000023   0.000000  -0.000000   0.000001  -0.000002
    24  Co  -0.041323   0.003122  -0.000375   0.003557  -0.041143   0.151557
    25  H    0.000578   0.000010  -0.000002   0.000011   0.000685  -0.008715
    26  C    0.000488   0.000007  -0.000002   0.000007   0.000600  -0.005925
    27  C   -0.001663  -0.000032   0.000038   0.000035  -0.000994   0.017194
    28  H   -0.000010  -0.000000   0.000000  -0.000001  -0.000062   0.000204
    29  H    0.000220  -0.000071  -0.000004  -0.000001  -0.000136  -0.000716
    30  C   -0.000030  -0.000000   0.000000  -0.000000  -0.000005   0.000160
    31  H   -0.000028  -0.000000   0.000000  -0.000000  -0.000001   0.000015
    32  H    0.000000  -0.000000   0.000000  -0.000000  -0.000000   0.000001
    33  H    0.000001   0.000000  -0.000000   0.000000   0.000000  -0.000003
    34  C   -0.000042   0.000012   0.000018  -0.000442  -0.002539  -0.002940
    35  H    0.000351   0.000001  -0.000205   0.000905   0.007585  -0.001711
    36  H   -0.000018  -0.000001   0.000002  -0.000002  -0.000086   0.000165
    37  H   -0.000013  -0.000000   0.000001  -0.000022  -0.000354   0.000158
               7          8          9         10         11         12
     1  C    0.003719  -0.045582   0.000239   0.006934  -0.000023   0.399000
     2  C   -0.039878   0.358254   0.004950   0.001457  -0.000048  -0.068487
     3  C    0.362410  -0.043950  -0.044065   0.004481   0.000145   0.004386
     4  C   -0.039922   0.004939   0.358289  -0.069365  -0.003018   0.001435
     5  C    0.003681   0.000256  -0.045627   0.403130  -0.057360   0.006885
     6  N    0.000140   0.005041   0.005038  -0.056690   0.003713  -0.056364
     7  H    0.589340  -0.005277  -0.005346  -0.000149   0.000001  -0.000148
     8  H   -0.005277   0.594604  -0.000130   0.000018  -0.000000  -0.005748
     9  H   -0.005346  -0.000130   0.594278  -0.005741   0.003543   0.000018
    10  C   -0.000149   0.000018  -0.005741   5.019983   0.349176  -0.000516
    11  H    0.000001  -0.000000   0.003543   0.349176   0.606512   0.000010
    12  C   -0.000148  -0.005748   0.000018  -0.000516   0.000010   5.012440
    13  H    0.000001   0.003634  -0.000000   0.000010  -0.000000   0.348349
    14  N    0.000001   0.000000   0.000114   0.437033  -0.045884   0.000330
    15  N    0.000001   0.000115   0.000000   0.000302  -0.000000   0.446424
    16  C   -0.000000  -0.000000  -0.000012  -0.041080  -0.011981  -0.000003
    17  H    0.000000   0.000000   0.000000  -0.000298  -0.000088   0.000000
    18  H    0.000000   0.000000   0.000003  -0.010714   0.013527   0.000000
    19  H    0.000000  -0.000000  -0.000000   0.001367  -0.000268  -0.000000
    20  C   -0.000000  -0.000013  -0.000000  -0.000003  -0.000000  -0.041754
    21  H    0.000000   0.000000   0.000000   0.000000   0.000000  -0.000173
    22  H    0.000000  -0.000000  -0.000000  -0.000000  -0.000000   0.001165
    23  H    0.000000   0.000003   0.000000   0.000000   0.000000  -0.011940
    24  Co   0.000506   0.000751   0.000865  -0.049002   0.011069  -0.040282
    25  H   -0.000000   0.000000   0.000000  -0.000576  -0.000014  -0.000593
    26  C   -0.000000   0.000000   0.000000  -0.000305  -0.000012  -0.000305
    27  C   -0.000000  -0.000004  -0.000004  -0.002531  -0.000060  -0.001381
    28  H    0.000000  -0.000000  -0.000000   0.000054  -0.000000   0.000005
    29  H   -0.000000  -0.000000   0.000000   0.000030   0.000002   0.001749
    30  C    0.000000  -0.000000  -0.000000   0.000002   0.000000   0.000060
    31  H    0.000000  -0.000000  -0.000000   0.000000   0.000000   0.000003
    32  H    0.000000   0.000000   0.000000   0.000000   0.000000  -0.000001
    33  H   -0.000000   0.000000   0.000000  -0.000000  -0.000000  -0.000001
    34  C    0.000000   0.000000  -0.000001   0.000926   0.000008   0.000009
    35  H   -0.000002   0.000001   0.000026   0.004011  -0.000061   0.000012
    36  H   -0.000000  -0.000000  -0.000000  -0.000073   0.000001  -0.000005
    37  H   -0.000000   0.000000  -0.000001   0.000760  -0.000023   0.000002
              13         14         15         16         17         18
     1  C   -0.059537   0.000731  -0.051904  -0.000007  -0.000001   0.000001
     2  C   -0.003040  -0.000051   0.003604   0.000001  -0.000000  -0.000000
     3  C    0.000159  -0.000128  -0.000119   0.000003  -0.000000   0.000000
     4  C   -0.000052   0.003820  -0.000054  -0.000171   0.000005  -0.000019
     5  C   -0.000022  -0.050137   0.000758   0.006682  -0.000033  -0.000576
     6  N    0.003672  -0.022749  -0.020881   0.000458   0.000009  -0.000003
     7  H    0.000001   0.000001   0.000001  -0.000000   0.000000   0.000000
     8  H    0.003634   0.000000   0.000115  -0.000000   0.000000   0.000000
     9  H   -0.000000   0.000114   0.000000  -0.000012   0.000000   0.000003
    10  C    0.000010   0.437033   0.000302  -0.041080  -0.000298  -0.010714
    11  H   -0.000000  -0.045884  -0.000000  -0.011981  -0.000088   0.013527
    12  C    0.348349   0.000330   0.446424  -0.000003   0.000000   0.000000
    13  H    0.611394  -0.000000  -0.046267  -0.000000   0.000000   0.000000
    14  N   -0.000000   6.689963  -0.000514   0.310229  -0.036275  -0.036184
    15  N   -0.046267  -0.000514   6.674784   0.000008   0.000001  -0.000000
    16  C   -0.000000   0.310229   0.000008   4.968031   0.376131   0.360425
    17  H    0.000000  -0.036275   0.000001   0.376131   0.557186  -0.033405
    18  H    0.000000  -0.036184  -0.000000   0.360425  -0.033405   0.601785
    19  H    0.000000  -0.041777   0.000000   0.372644  -0.038858  -0.035487
    20  C   -0.013391   0.000005   0.311686  -0.000000  -0.000000   0.000000
    21  H   -0.000193   0.000001  -0.036528  -0.000000   0.000000   0.000000
    22  H   -0.000104  -0.000000  -0.042297  -0.000000  -0.000000   0.000000
    23  H    0.015074   0.000000  -0.035895   0.000000   0.000000   0.000000
    24  Co   0.010451   0.165763   0.156692  -0.020281  -0.001991   0.006339
    25  H   -0.000008  -0.001613   0.000413  -0.000367  -0.000332   0.000028
    26  C   -0.000009  -0.005258  -0.003802  -0.000313  -0.000035   0.000000
    27  C   -0.000026  -0.006260  -0.006521   0.000199   0.000006  -0.000038
    28  H    0.000000  -0.000801   0.000103   0.000173   0.000018  -0.000035
    29  H   -0.000039   0.000144  -0.001168  -0.000010   0.000000   0.000000
    30  C   -0.000001   0.000165  -0.000668   0.000001   0.000000   0.000000
    31  H   -0.000000   0.000003   0.001402  -0.000001   0.000000   0.000000
    32  H    0.000000   0.000008   0.000007  -0.000001  -0.000001   0.000000
    33  H   -0.000000  -0.000003  -0.000010   0.000000  -0.000000  -0.000000
    34  C    0.000001  -0.002461   0.000253  -0.000545   0.000029  -0.000011
    35  H    0.000000  -0.003026   0.000018   0.000043  -0.000007  -0.000003
    36  H   -0.000000   0.000332  -0.000001  -0.000007   0.000000  -0.000000
    37  H    0.000000   0.000367  -0.000003   0.000298   0.000012  -0.000043
              19         20         21         22         23         24
     1  C   -0.000000   0.007123   0.000033  -0.000084  -0.000723  -0.041323
     2  C    0.000000  -0.000167   0.000006   0.000006  -0.000023   0.003122
     3  C   -0.000000   0.000003  -0.000000  -0.000000   0.000000  -0.000375
     4  C    0.000006   0.000001  -0.000000  -0.000000  -0.000000   0.003557
     5  C   -0.000021  -0.000007  -0.000001   0.000000   0.000001  -0.041143
     6  N    0.000021   0.000390   0.000006   0.000020  -0.000002   0.151557
     7  H    0.000000  -0.000000   0.000000   0.000000   0.000000   0.000506
     8  H   -0.000000  -0.000013   0.000000  -0.000000   0.000003   0.000751
     9  H   -0.000000  -0.000000   0.000000  -0.000000   0.000000   0.000865
    10  C    0.001367  -0.000003   0.000000  -0.000000   0.000000  -0.049002
    11  H   -0.000268  -0.000000   0.000000  -0.000000   0.000000   0.011069
    12  C   -0.000000  -0.041754  -0.000173   0.001165  -0.011940  -0.040282
    13  H    0.000000  -0.013391  -0.000193  -0.000104   0.015074   0.010451
    14  N   -0.041777   0.000005   0.000001  -0.000000   0.000000   0.165763
    15  N    0.000000   0.311686  -0.036528  -0.042297  -0.035895   0.156692
    16  C    0.372644  -0.000000  -0.000000  -0.000000   0.000000  -0.020281
    17  H   -0.038858  -0.000000   0.000000  -0.000000   0.000000  -0.001991
    18  H   -0.035487   0.000000   0.000000   0.000000   0.000000   0.006339
    19  H    0.573368  -0.000000  -0.000000   0.000000   0.000000  -0.000519
    20  C   -0.000000   4.979982   0.377465   0.369226   0.357101  -0.018327
    21  H   -0.000000   0.377465   0.554149  -0.038764  -0.033853  -0.001242
    22  H    0.000000   0.369226  -0.038764   0.572904  -0.034395  -0.000756
    23  H    0.000000   0.357101  -0.033853  -0.034395   0.605839   0.005896
    24  Co  -0.000519  -0.018327  -0.001242  -0.000756   0.005896  16.145017
    25  H   -0.000001  -0.000194  -0.000245   0.000061   0.000013   0.234255
    26  C    0.000222   0.000362  -0.000056   0.000111  -0.000013   0.099496
    27  C    0.000031   0.000071   0.000012   0.000063  -0.000020   0.167989
    28  H    0.002062  -0.000016   0.000000   0.000005   0.000000  -0.021080
    29  H    0.000005   0.000004   0.000015  -0.000080  -0.000014  -0.006932
    30  C   -0.000012  -0.002011   0.000119  -0.000028   0.000035  -0.028551
    31  H    0.000001  -0.001506  -0.000040   0.006099   0.000025  -0.001615
    32  H   -0.000002   0.000062  -0.000038   0.000103   0.000003   0.002273
    33  H   -0.000000   0.000041  -0.000002  -0.000044  -0.000001   0.006165
    34  C    0.000038  -0.000001  -0.000000  -0.000002   0.000000  -0.012619
    35  H    0.000043  -0.000001  -0.000000   0.000000   0.000000  -0.006678
    36  H   -0.000053  -0.000000   0.000000  -0.000000  -0.000000   0.004029
    37  H    0.001684  -0.000000   0.000000   0.000000   0.000000  -0.000811
              25         26         27         28         29         30
     1  C    0.000578   0.000488  -0.001663  -0.000010   0.000220  -0.000030
     2  C    0.000010   0.000007  -0.000032  -0.000000  -0.000071  -0.000000
     3  C   -0.000002  -0.000002   0.000038   0.000000  -0.000004   0.000000
     4  C    0.000011   0.000007   0.000035  -0.000001  -0.000001  -0.000000
     5  C    0.000685   0.000600  -0.000994  -0.000062  -0.000136  -0.000005
     6  N   -0.008715  -0.005925   0.017194   0.000204  -0.000716   0.000160
     7  H   -0.000000  -0.000000  -0.000000   0.000000  -0.000000   0.000000
     8  H    0.000000   0.000000  -0.000004  -0.000000  -0.000000  -0.000000
     9  H    0.000000   0.000000  -0.000004  -0.000000   0.000000  -0.000000
    10  C   -0.000576  -0.000305  -0.002531   0.000054   0.000030   0.000002
    11  H   -0.000014  -0.000012  -0.000060  -0.000000   0.000002   0.000000
    12  C   -0.000593  -0.000305  -0.001381   0.000005   0.001749   0.000060
    13  H   -0.000008  -0.000009  -0.000026   0.000000  -0.000039  -0.000001
    14  N   -0.001613  -0.005258  -0.006260  -0.000801   0.000144   0.000165
    15  N    0.000413  -0.003802  -0.006521   0.000103  -0.001168  -0.000668
    16  C   -0.000367  -0.000313   0.000199   0.000173  -0.000010   0.000001
    17  H   -0.000332  -0.000035   0.000006   0.000018   0.000000   0.000000
    18  H    0.000028   0.000000  -0.000038  -0.000035   0.000000   0.000000
    19  H   -0.000001   0.000222   0.000031   0.002062   0.000005  -0.000012
    20  C   -0.000194   0.000362   0.000071  -0.000016   0.000004  -0.002011
    21  H   -0.000245  -0.000056   0.000012   0.000000   0.000015   0.000119
    22  H    0.000061   0.000111   0.000063   0.000005  -0.000080  -0.000028
    23  H    0.000013  -0.000013  -0.000020   0.000000  -0.000014   0.000035
    24  Co   0.234255   0.099496   0.167989  -0.021080  -0.006932  -0.028551
    25  H    0.750396   0.100276  -0.044043  -0.031941   0.000495  -0.035344
    26  C    0.100276   4.937947   0.455052   0.372185  -0.050972   0.356804
    27  C   -0.044043   0.455052   5.031517  -0.040119   0.375391  -0.035621
    28  H   -0.031941   0.372185  -0.040119   0.599323   0.004786  -0.040136
    29  H    0.000495  -0.050972   0.375391   0.004786   0.582781  -0.005786
    30  C   -0.035344   0.356804  -0.035621  -0.040136  -0.005786   5.116457
    31  H   -0.003929  -0.032284  -0.005691   0.004781   0.004220   0.376314
    32  H    0.000873  -0.030260   0.003815  -0.002669   0.000249   0.366760
    33  H    0.002303  -0.030255  -0.003413  -0.003407  -0.000373   0.365699
    34  C    0.001643  -0.030580   0.361528  -0.006813  -0.046785   0.004101
    35  H    0.000134   0.003508  -0.033423  -0.000030  -0.000890  -0.000126
    36  H   -0.000134  -0.002268  -0.035020   0.000266  -0.003585  -0.000052
    37  H   -0.000091  -0.007404  -0.031490   0.005298   0.004447   0.000160
              31         32         33         34         35         36
     1  C   -0.000028   0.000000   0.000001  -0.000042   0.000351  -0.000018
     2  C   -0.000000  -0.000000   0.000000   0.000012   0.000001  -0.000001
     3  C    0.000000   0.000000  -0.000000   0.000018  -0.000205   0.000002
     4  C   -0.000000  -0.000000   0.000000  -0.000442   0.000905  -0.000002
     5  C   -0.000001  -0.000000   0.000000  -0.002539   0.007585  -0.000086
     6  N    0.000015   0.000001  -0.000003  -0.002940  -0.001711   0.000165
     7  H    0.000000   0.000000  -0.000000   0.000000  -0.000002  -0.000000
     8  H   -0.000000   0.000000   0.000000   0.000000   0.000001  -0.000000
     9  H   -0.000000   0.000000   0.000000  -0.000001   0.000026  -0.000000
    10  C    0.000000   0.000000  -0.000000   0.000926   0.004011  -0.000073
    11  H    0.000000   0.000000  -0.000000   0.000008  -0.000061   0.000001
    12  C    0.000003  -0.000001  -0.000001   0.000009   0.000012  -0.000005
    13  H   -0.000000   0.000000  -0.000000   0.000001   0.000000  -0.000000
    14  N    0.000003   0.000008  -0.000003  -0.002461  -0.003026   0.000332
    15  N    0.001402   0.000007  -0.000010   0.000253   0.000018  -0.000001
    16  C   -0.000001  -0.000001   0.000000  -0.000545   0.000043  -0.000007
    17  H    0.000000  -0.000001  -0.000000   0.000029  -0.000007   0.000000
    18  H    0.000000   0.000000  -0.000000  -0.000011  -0.000003  -0.000000
    19  H    0.000001  -0.000002  -0.000000   0.000038   0.000043  -0.000053
    20  C   -0.001506   0.000062   0.000041  -0.000001  -0.000001  -0.000000
    21  H   -0.000040  -0.000038  -0.000002  -0.000000  -0.000000   0.000000
    22  H    0.006099   0.000103  -0.000044  -0.000002   0.000000  -0.000000
    23  H    0.000025   0.000003  -0.000001   0.000000   0.000000  -0.000000
    24  Co  -0.001615   0.002273   0.006165  -0.012619  -0.006678   0.004029
    25  H   -0.003929   0.000873   0.002303   0.001643   0.000134  -0.000134
    26  C   -0.032284  -0.030260  -0.030255  -0.030580   0.003508  -0.002268
    27  C   -0.005691   0.003815  -0.003413   0.361528  -0.033423  -0.035020
    28  H    0.004781  -0.002669  -0.003407  -0.006813  -0.000030   0.000266
    29  H    0.004220   0.000249  -0.000373  -0.046785  -0.000890  -0.003585
    30  C    0.376314   0.366760   0.365699   0.004101  -0.000126  -0.000052
[...]
 00277,-0.00000896,-0.00000580,-0.00001560,-0.00000966,-0.00000474,0.00
 001024,0.00000785,-0.00020446,-0.00001057,-0.00007250,-0.00005510,0.00
 003174,0.00000633,-0.00032098,0.00008527,-0.00010991,-0.00001225,-0.00
 003998,0.,-0.00008003,0.00011611,0.00012427,0.00036457,0.00005514,0.00
 006930,-0.00009002,-0.00015469,-0.00001930,0.00001810,0.00001302,0.000
 00613,-0.00001565,0.00004250,0.00000482,0.00003027,0.00000052,-0.00000
 656,0.00000297,0.00005972,-0.00007302,-0.00000890,-0.00003709,0.000054
 10,-0.00008321,0.00000862,0.00001430,-0.00003223,-0.00006160,0.0000509
 5,-0.00158176,0.00110329,0.00127712,-0.00086715,0.00063882,0.00018893,
 -0.01725603,-0.00397997,0.01691324,0.00205398,0.00049632,0.00099953,0.
 00098590,0.00003590,-0.00018820,-0.00047644,-0.00035195,0.00023557,-0.
 13279024,-0.03115412,0.11606642,-0.00669573,-0.00199720,0.00871211,0.0
 1229739,0.00451207,-0.01410155,0.14422112,-0.00032893,0.00051348,-0.00
 009905,0.00028429,-0.00013229,0.00001037,-0.00002069,0.00039039,0.0000
 6574,-0.00025496,-0.00029024,-0.00017003,0.00024950,0.00009228,0.00002
 488,-0.00029530,-0.00014074,0.00027044,-0.00000176,0.00000617,0.000007
 08,0.00000925,-0.00000078,0.00002176,0.00000239,0.00000123,-0.00000801
 ,-0.00010761,-0.00010716,-0.00001360,0.00003164,-0.00002552,0.00000788
 ,0.00097121,-0.00007166,0.00027750,-0.00000059,0.00000506,-0.00002644,
 0.00031215,-0.00008726,-0.00009591,-0.00072755,-0.00020551,-0.00013418
 ,0.00007288,0.00009885,-0.00000203,-0.00001174,0.00000906,0.00000630,0
 .00000198,-0.00001584,0.00001030,-0.00001756,-0.00000293,0.00000966,0.
 00047529,-0.00047318,-0.00030547,-0.00003093,0.00008560,-0.00002563,-0
 .00032793,0.00041223,0.00028213,-0.00025402,0.00001049,0.00012886,0.00
 097417,-0.00049767,-0.00136995,0.00227862,-0.00037600,-0.00107968,0.01
 438695,0.00408082,-0.01481196,-0.00147208,-0.00009490,-0.00133558,-0.0
 0097671,0.00060566,-0.00012635,0.00003239,-0.00002973,0.00006255,-0.03
 009404,-0.05955030,0.04018086,-0.01714011,-0.00508617,0.02588691,0.001
 75101,-0.00026250,-0.00222696,0.03052237,0.06122890,0.00006969,0.00025
 141,0.00000391,-0.00014825,0.00009167,-0.00007760,0.00010796,-0.000042
 72,0.00003167,-0.00005440,-0.00003943,-0.00007536,0.00008646,-0.000411
 13,-0.00007606,-0.00013099,0.00015934,0.00023198,0.00000733,-0.0000007
 3,0.00000863,-0.00000034,0.00001039,0.00000153,0.00000350,-0.00000886,
 0.00000004,0.00049708,0.00021655,0.00016769,-0.00000187,0.00000221,-0.
 00003232,0.00027567,-0.00006526,0.00012504,-0.00000988,0.00000966,-0.0
 0000056,-0.00042754,0.00009934,0.00000473,-0.00024279,-0.00015233,-0.0
 0009914,-0.00002570,0.00011966,-0.00001593,-0.00001228,-0.00002474,-0.
 00001266,0.00001816,-0.00000260,0.00000369,-0.00001789,-0.00001748,0.0
 0000407,-0.00012966,-0.00007758,0.00003440,-0.00003746,-0.00002870,0.0
 0003514,0.00002718,0.00001303,-0.00010190,0.00005457,0.00000871,0.0000
 1723,-0.00056160,-0.00073883,-0.00040871,0.00181561,-0.00033071,0.0007
 9252,0.00047761,-0.00074641,-0.00020925,-0.00125086,-0.00011986,0.0009
 1864,0.00016550,-0.00052326,0.00014140,0.00012187,-0.00005062,-0.00008
 206,0.11494998,0.04197663,-0.21045839,-0.00288165,-0.00022457,0.003222
 30,0.01608449,0.00650243,-0.02049367,-0.12928916,-0.04580135,0.2265664
 6,-0.00059884,-0.00131113,0.00029151,0.00072391,-0.00046188,0.00044604
 ,-0.00065743,0.00002110,-0.00051351,0.00035940,0.00047101,0.00010012,-
 0.00159876,0.00219005,0.00181437,0.00137502,-0.00030874,-0.00271967,-0
 .00000322,0.00001132,0.00000911,0.00000304,-0.00000283,0.00004154,-0.0
 0003519,0.00003512,-0.00000579,-0.00203063,-0.00068623,0.00089193,0.00
 004491,0.00000771,-0.00009110,-0.00009019,0.00001670,-0.00022914,0.000
 03257,-0.00001529,-0.00018939,0.00081782,-0.00009603,0.00101645,-0.000
 12134,0.00021767,0.00093356,-0.00011459,-0.00044897,-0.00003366,0.0000
 1167,-0.00002413,0.00000781,0.00001517,-0.00007757,-0.00005660,-0.0000
 1358,0.00000044,-0.00019547,-0.00007370,0.00009367,-0.00007010,-0.0000
 1956,0.00002128,0.00000875,-0.00001061,-0.00002414,-0.00002891,0.00001
 983,-0.00005574,-0.00006013,0.00362556,-0.00219948,0.00590081,-0.00261
 674,-0.00075166,0.00300034,-0.01857527,0.02170876,-0.02129700,-0.09644
 311,0.04289312,-0.03984947,0.00028361,0.00134503,0.00353195,0.00274105
 ,-0.00290508,0.00175536,-0.00074706,-0.00027539,-0.00589535,-0.0000042
 8,0.00015054,0.00006535,-0.00157709,0.00098014,0.00020814,0.00042173,-
 0.00037290,0.00046353,0.54799140,0.00022887,0.00049640,-0.00011497,-0.
 00030066,0.00021003,-0.00024800,0.00020997,-0.00023473,0.00015319,0.00
 001667,-0.00000866,-0.00017211,0.00022512,-0.00139004,-0.00092666,-0.0
 0087741,-0.00015921,0.00147915,0.00001339,-0.00000386,-0.00000017,0.00
 001980,0.00002872,-0.00001446,-0.00000025,-0.00001198,0.00005316,0.002
 52562,0.00090658,0.00045676,0.00007403,-0.00005431,-0.00000182,0.00068
 260,0.00002324,0.00038281,0.00000098,0.00004174,0.00001838,-0.00179763
 ,-0.00036355,0.00023171,-0.00053776,-0.00035045,-0.00017045,0.00054285
 ,0.00014910,-0.00010975,-0.00022051,-0.00019732,0.00012120,-0.00005055
 ,-0.00019790,-0.00000819,-0.00060384,-0.00043015,-0.00039540,0.0000308
 5,-0.00002776,-0.00000252,-0.00002940,0.00001633,0.00001509,-0.0000757
 8,0.00002929,-0.00004236,0.00001305,0.00004979,0.00000619,0.00042398,-
 0.00004271,0.00075399,0.00046079,0.00010072,-0.00018289,0.00003669,0.0
 0632082,0.00350965,0.05015294,-0.16433876,0.04186174,-0.00151078,0.000
 96533,-0.00126196,0.01341047,-0.01811168,0.01522554,-0.00179044,-0.000
 72154,-0.00125912,0.00012817,0.00029071,-0.00006878,-0.00058328,0.0006
 2618,-0.00012647,-0.00002944,0.00003803,-0.00006184,0.02741414,0.53151
 078,0.00051108,0.00011224,-0.00035824,-0.00023384,0.00041800,-0.000148
 02,0.00018160,-0.00015993,0.00002787,-0.00011066,-0.00010555,-0.000218
 15,0.00016147,-0.00044805,-0.00002485,0.00047355,0.00076673,0.00107260
 ,0.00001168,0.00000446,0.00000941,0.00002813,0.00002478,0.00005886,0.0
 0007101,-0.00000955,-0.00000831,0.00090765,0.00051717,-0.00013333,0.00
 003074,0.00001803,-0.00014766,0.00065372,0.00019886,0.00036219,-0.0000
 0301,0.00002907,0.00001665,-0.00001287,0.00012149,-0.00221584,-0.00056
 836,-0.00016601,0.00012280,0.00035943,0.00070857,-0.00002032,-0.000109
 40,-0.00013746,0.00010802,-0.00001187,-0.00000876,-0.00001822,-0.00029
 011,-0.00018500,0.00012734,0.00008936,-0.00000458,-0.00005674,-0.00001
 747,-0.00001675,0.00001299,-0.00008663,0.00008189,-0.00005231,-0.00002
 024,0.00004678,0.00001954,-0.00450437,0.00386066,-0.01325161,0.0010436
 3,0.00065988,-0.00219233,-0.00465631,0.00989952,-0.00371804,-0.0480050
 7,0.04662816,-0.09835502,0.00076530,0.00088790,-0.00114670,0.00704543,
 -0.01026204,0.00716925,0.00025605,-0.00189026,0.00261264,-0.00002057,0
 .00022846,-0.00015713,0.00055233,-0.00001977,0.00034162,-0.00067802,0.
 00039976,-0.00009375,-0.00366091,0.03974749,0.52626996,0.00016575,0.00
 107366,-0.00004425,-0.00025504,0.00008505,-0.00022815,0.00026653,0.000
 07966,0.00027352,-0.00040517,-0.00030475,-0.00008553,0.00080511,-0.001
 60114,-0.00051396,-0.00103897,-0.00032335,0.00175890,0.00001138,0.0000
 0666,-0.00001570,-0.00000503,0.00000886,-0.00005108,0.00000258,-0.0000
 1313,0.00001239,0.00159118,0.00041135,0.00059305,0.00004196,-0.0000385
 0,-0.00001364,0.00038590,-0.00002080,0.00022584,-0.00000359,0.00000546
 ,0.00007575,-0.00116186,-0.00008422,-0.00022099,-0.00017079,-0.0002302
 2,-0.00047227,-0.00010044,0.00005903,0.00005448,0.00001325,-0.00000064
 ,-0.00002693,0.00002455,-0.00000587,-0.00001185,0.00001014,0.00003250,
 0.00000085,-0.00004061,-0.00003581,0.00005393,-0.00000352,0.00000683,0
 .00000506,0.00000304,-0.00001412,-0.00001134,0.00001890,0.00001985,0.0
 0001027,0.00005869,0.00004447,0.00008425,0.00056655,0.00008522,0.00058
 950,-0.00094422,0.00299948,0.00237315,-0.01325765,-0.00004548,-0.00551
 280,0.00018917,0.00000165,0.00034741,0.00017061,0.00049491,-0.00009190
 ,-0.00011892,-0.00012753,-0.00110167,-0.00000188,0.00006600,0.00002482
 ,-0.00035230,0.00022297,-0.00007250,0.00006676,-0.00006780,-0.00000474
 ,-0.30266320,-0.03668493,0.00340145,0.33120071,0.00007229,-0.00090827,
 0.00004021,-0.00007799,0.00005793,0.00001981,-0.00018412,-0.00035566,-
 0.00011272,0.00031051,0.00038768,0.00025505,-0.00078255,0.00063440,0.0
 0022025,0.00059204,0.00000508,-0.00011310,0.00000571,0.00000088,-0.000
 00753,0.00000785,-0.00001102,-0.00000445,0.00004045,-0.00000474,-0.000
 01370,0.00032306,-0.00005287,0.00020618,0.00004896,-0.00003344,-0.0001
 0007,-0.00056772,-0.00001925,-0.00023045,-0.00000578,-0.00000361,-0.00
 002219,-0.00063990,0.00001840,0.00030235,0.00040849,0.00022592,0.00021
 174,-0.00035811,-0.00016259,-0.00004894,0.00009719,-0.00000363,-0.0000
 5360,0.00003028,0.00001606,-0.00002492,0.00015529,0.00007579,-0.000035
 91,-0.00001746,0.00006058,-0.00001443,0.00001541,-0.00002412,0.0000082
 7,0.00001697,-0.00000697,0.00000412,-0.00000549,-0.00001321,0.00000481
 ,0.00040697,0.00006897,-0.00048292,-0.00021336,-0.00001842,-0.00045721
 ,0.00177447,-0.00349231,0.00012011,0.02548384,0.00465933,0.00334236,0.
 00022737,0.00025003,0.00002593,-0.00084508,0.00026364,-0.00033401,0.00
 049183,0.00040960,0.00118818,-0.00008207,0.00002512,-0.00001713,0.0004
 1403,-0.00029421,0.00004814,-0.00002583,0.00000097,-0.00004493,-0.0349
 6282,-0.05369938,-0.00160933,0.03691417,0.05549391,0.00074188,-0.00030
 740,0.00016631,-0.00076479,0.00046588,-0.00021197,0.00012365,-0.001050
 43,-0.00016345,0.00095593,0.00082854,0.00036652,0.00016651,-0.00068274
 ,-0.00063627,-0.00024794,0.00079152,-0.00009715,-0.00003115,-0.0000307
 0,0.00000159,-0.00001850,-0.00002451,0.00000443,-0.00002130,0.00001917
 ,0.00004147,0.00081220,-0.00018320,-0.00023607,0.00002148,0.00004269,0
 .00006538,-0.00091904,0.00012427,-0.00024143,-0.00000003,-0.00001773,0
 .00003309,-0.00081678,0.00025595,-0.00017407,0.00074507,0.00034826,0.0
 0004745,-0.00028009,-0.00013701,0.00003741,0.00007008,0.00000114,-0.00
 002374,0.00002097,0.00004143,-0.00000403,0.00010800,0.00006442,-0.0000
 3183,-0.00007451,0.00014377,0.00003947,0.00002281,-0.00005397,0.000015
 99,0.00006090,-0.00006781,-0.00002149,0.00000839,-0.00002054,-0.000001
 42,-0.00030585,-0.00018590,-0.00015017,-0.00006073,-0.00003540,0.00052
 423,-0.00267653,0.00298940,0.00004814,-0.01755444,-0.00281669,-0.00287
 911,0.00021671,0.00015307,0.00038244,0.00058146,0.00006417,0.00018748,
 -0.00033464,0.00009648,-0.00130815,-0.00001755,0.00005613,0.00004740,-
 0.00036173,0.00024199,0.00000957,0.00007448,-0.00006963,0.00001082,0.0
 0518646,-0.00121835,-0.04677610,-0.00304781,-0.00343622,0.05156054,0.0
 0032366,0.00037175,-0.00003148,-0.00034757,0.00019107,-0.00020232,0.00
 021063,-0.00021715,0.00009493,0.00012390,0.00006155,0.00000830,0.00053
 383,-0.00081342,-0.00049533,-0.00051242,0.00012615,0.00102098,-0.00001
 512,-0.00001334,0.00000061,-0.00000343,-0.00000712,-0.00001881,-0.0000
 0340,-0.00000592,0.00003501,0.00106514,0.00009506,0.00026981,0.0000269
 1,0.00000095,-0.00002767,-0.00008741,0.00001070,0.00009324,-0.00000472
 ,-0.00000040,0.00005951,-0.00081219,-0.00001424,-0.00010848,0.00012083
 ,-0.00000874,-0.00024235,-0.00001870,0.00005954,0.00002128,0.00000158,
 0.00000463,0.00000556,0.00001084,0.00000796,-0.00000443,0.00000004,0.0
 0001287,0.00003700,0.00000828,0.00001155,0.00003027,0.00000296,-0.0000
 1213,0.00000352,0.00000121,0.00000357,-0.00000352,-0.00000607,0.000011
 69,0.00001485,-0.00088669,0.00031301,-0.00114400,0.00054184,0.00015198
 ,-0.00044163,0.00093143,0.00076757,0.00108262,0.00300310,0.00143152,-0
 .01811172,0.00004936,-0.00012882,-0.00038628,0.00041264,-0.00053382,0.
 00067255,-0.00004663,-0.00021110,0.00050918,0.00000953,-0.00000282,-0.
 00000260,0.00005054,-0.00003613,0.00004607,-0.00023216,0.00010760,-0.0
 0000913,-0.07034668,-0.00345394,0.07053336,-0.01002976,0.00019242,0.03
 251211,0.07430845,-0.00058301,0.00021476,0.00008104,0.00052940,-0.0004
 4481,0.00019101,-0.00016756,0.00064203,0.00001947,-0.00043141,-0.00036
 288,-0.00007873,0.00026558,0.00068152,0.00020476,0.00008071,-0.0004582
 5,-0.00090258,-0.00001836,0.00000733,0.00000165,-0.00001933,-0.0000274
 8,-0.00001542,-0.00004159,0.00001381,-0.00001501,-0.00174936,-0.000430
 98,-0.00084162,-0.00005696,0.00002444,0.00008370,0.00022907,-0.0001175
 6,-0.00009258,-0.00001329,-0.00005056,-0.00003426,0.00175988,-0.000082
 94,-0.00066739,-0.00014938,-0.00014957,0.00013442,-0.00001117,0.000040
 39,0.00017220,0.00004097,0.00010377,-0.00000904,0.00000569,0.00007063,
 0.00001227,0.00017420,0.00018670,0.00021591,-0.00008630,0.00001579,-0.
 00003661,0.00000565,0.00002058,-0.00000703,0.00002195,0.00000269,0.000
 01368,0.00000349,-0.00006181,-0.00000607,0.00222724,-0.00033185,0.0031
 1616,-0.00065379,-0.00023732,0.00097247,-0.00236021,-0.00111851,-0.001
 75849,-0.00258678,-0.00191426,0.02476261,0.00005322,0.00012156,0.00015
 820,-0.00035541,0.00074541,-0.00084837,0.00008497,0.00026729,-0.000543
 68,-0.00002885,-0.00003571,0.00007509,-0.00007979,-0.00001811,-0.00000
 482,0.00027065,-0.00008658,0.00005334,-0.00494329,-0.04884074,0.008371
 61,-0.00202893,-0.00041687,0.00507237,0.00059386,0.04989094,-0.0000871
 3,0.00048922,-0.00009401,0.00005829,-0.00002322,-0.00005709,0.00012692
 ,0.00027055,0.00009455,-0.00029995,-0.00029078,-0.00020295,0.00035360,
 -0.00011059,0.00016095,-0.00059911,-0.00016925,0.00067804,0.00002511,0
 .00000789,0.00000892,0.00000895,0.00002906,0.00000512,0.00001717,-0.00
 002534,-0.00000857,-0.00045498,0.00001775,0.00008350,0.00001946,-0.000
 04314,0.00001553,0.00050938,-0.00005434,0.00024197,0.00001068,0.000046
 91,0.00003142,0.00020196,0.00004061,-0.00055565,-0.00043947,-0.0001686
 6,-0.00029060,0.00009729,0.00030227,0.00012741,-0.00002386,-0.00001637
 ,-0.00002571,0.00004244,-0.00004752,-0.00000798,0.00000737,0.00004147,
 0.00009961,0.00013868,-0.00014996,0.00004013,-0.00002645,0.00001808,-0
 .00002592,-0.00004386,0.00002542,0.00000467,0.00000074,0.00006976,0.00
 000370,-0.00106216,0.00082798,-0.00145932,0.00051328,0.00032235,-0.000
 75014,0.00157011,0.00069568,0.00242204,-0.00108617,0.00354431,-0.01531
 008,0.00012796,0.00005448,-0.00059614,-0.00020302,0.00035076,0.0007932
 1,-0.00007851,-0.00012910,0.00012664,0.00001004,-0.00000041,-0.0000208
 1,-0.00001101,0.00003026,-0.00004116,-0.00020788,0.00011072,-0.0000736
 5,0.07342368,0.00419146,-0.27273908,0.00124612,-0.00036252,-0.00024602
 ,-0.07820246,-0.01023222,0.30012932,-0.00020647,0.00061762,-0.00002792
 ,0.00028751,-0.00019715,0.00005141,0.00005227,0.00052860,0.00009643,-0
 .00033912,-0.00042440,-0.00010097,0.00032702,0.00022724,0.00019092,-0.
 00025011,-0.00034494,0.00011549,0.00000352,0.00000712,0.00000072,-0.00
 000289,0.00000602,0.00001202,-0.00001552,-0.00000367,-0.00002351,-0.00
 161784,-0.00039130,-0.00046078,-0.00008138,0.00003226,0.00010728,0.000
 39880,-0.00005278,0.00006269,0.00000704,-0.00000098,-0.00000143,0.0011
 8241,0.00003073,0.00006930,-0.00029290,-0.00012898,-0.00006745,0.00037
 667,0.00021305,0.00010586,-0.00004189,0.00006447,-0.00000820,-0.000076
 16,0.00003340,0.00009108,0.00003703,-0.00006078,0.00005503,0.00003650,
 -0.00006784,-0.00001307,-0.00000657,0.00002368,-0.00000760,-0.00001142
 ,0.00001754,0.00001499,-0.00000341,0.00000876,-0.00000342,-0.00019277,
 -0.00020340,0.00010689,0.00004050,-0.00000330,-0.00024170,0.00119183,0
 .00126423,0.00087121,0.00263005,0.01434289,0.00784475,-0.00022595,-0.0
 0045232,-0.00014103,-0.00077493,0.00245275,-0.00201399,-0.00005553,-0.
 00001534,0.00013789,-0.00004008,-0.00015754,-0.00004329,0.00004463,-0.
 00007688,-0.00003391,-0.00002065,0.00003953,0.00001001,-0.06012561,-0.
 04806437,-0.02408725,-0.00503980,-0.02926127,-0.01489565,0.00161625,0.
 01001823,0.00431679,0.06118897,-0.00062680,0.00079096,-0.00013267,0.00
 070893,-0.00046345,0.00020049,-0.00008549,0.00099724,0.00011228,-0.000
 67346,-0.00070541,-0.00026321,0.00062705,0.00075976,0.00041549,-0.0000
 9802,-0.00042442,-0.00027561,-0.00000240,0.00001369,0.00000149,-0.0000
 0078,-0.00000036,0.00000681,-0.00002106,0.00000120,-0.00003666,-0.0021
 6497,-0.00053932,-0.00087919,-0.00003552,-0.00000711,0.00014997,0.0010
 8467,-0.00007581,0.00018486,0.00000747,-0.00001346,-0.00004546,0.00212
 333,-0.00012712,-0.00104552,-0.00082473,-0.00043275,0.00017359,0.00007
 667,0.00021567,0.00003182,0.00006850,0.00010830,-0.00001495,0.00002750
 ,0.00004302,0.00001283,0.00021513,0.00025081,0.00023035,-0.00000534,-0
 .00005901,-0.00007309,-0.00001840,0.00003971,-0.00000712,-0.00004770,0
 .00005106,-0.00001708,0.00000773,-0.00001032,-0.00000908,0.00057281,0.
 00006286,0.00029172,-0.00016065,0.00006243,0.00012799,-0.00235757,0.00
 090726,-0.00118109,-0.00457682,-0.02368641,-0.01126096,0.00112133,0.00
 083118,0.00057964,0.00269496,-0.00240060,0.00296674,0.00021015,0.00031
 744,-0.00000994,-0.00019372,0.00024668,-0.00003701,0.00006509,0.000031
 44,0.00006112,0.00001600,-0.00004225,-0.00000043,-0.04765453,-0.252619
 06,-0.09870847,-0.00099056,-0.00313372,-0.00146240,0.00093210,0.002137
 13,0.00033645,0.04997913,0.27687269,0.00018408,-0.00040788,0.00003267,
 -0.00025006,0.00018180,-0.00004034,0.00001597,-0.00039381,-0.00004446,
 0.00032370,0.00029059,0.00012188,-0.00033504,-0.00041049,-0.00015715,0
 .00005039,0.00029495,-0.00000344,-0.00000208,-0.00000643,-0.00000503,0
 .00000116,-0.00000050,-0.00002044,-0.00001463,0.00000576,0.00001658,0.
 00101744,0.00021132,-0.00028747,-0.00004586,0.00005907,0.00003154,-0.0
 0052658,0.00004695,-0.00011911,-0.00000613,0.00000297,0.00001028,-0.00
 011284,0.00024569,-0.00114320,0.00042929,0.00018994,-0.00006811,0.0003
 1335,-0.00006275,-0.00070849,-0.00004504,-0.00000312,0.00006932,-0.000
 08591,0.00003396,0.00006469,-0.00018376,-0.00025789,-0.00009588,-0.000
 03167,0.00004130,0.00002125,0.00001233,-0.00002056,0.00000497,0.000029
 69,-0.00002479,-0.00000141,0.00000276,-0.00000722,0.00000491,-0.000049
 54,0.00000286,0.00046497,0.00008165,0.00001952,0.00005125,0.00059922,0
 .00055869,0.00050523,0.00409223,0.01547132,0.00703410,0.00002632,-0.00
 024270,0.00018984,-0.00200547,0.00252276,-0.00068307,0.00006156,0.0001
 9500,-0.00000620,-0.00008180,-0.00008755,-0.00003541,0.00001409,-0.000
 05268,-0.00001025,0.00003357,-0.00006190,-0.00001089,-0.02420060,-0.10
 182120,-0.09649998,0.00039635,0.00152878,-0.00038724,-0.00761855,-0.02
 761804,-0.01256183,0.02791042,0.10957628,0.10426592\\-0.00000018,0.000
 00039,-0.00000014,-0.00000058,0.00000076,-0.00000010,0.00000024,0.0000
 0060,0.00000069,-0.00000035,0.00000010,0.00000047,0.00000067,-0.000000
 26,0.00000047,-0.00000141,0.00000022,-0.00000017,-0.00000020,0.0000007
 3,0.00000055,-0.00000042,0.00000050,-0.00000014,0.00000009,0.00000047,
 0.00000099,0.00000109,0.00000035,0.00000111,0.00000036,-0.00000002,0.0
 0000142,0.00000047,-0.00000017,-0.00000122,-0.00000039,0.00000004,-0.0
 0000053,0.00000048,-0.00000064,-0.00000202,-0.00000037,-0.00000060,0.0
 0000030,0.00000032,-0.00000043,0.00000157,0.00000089,-0.00000077,0.000
 00056,0.00000062,-0.00000033,0.00000130,0.00000030,-0.00000025,0.00000
 049,-0.00000014,-0.00000069,-0.00000140,0.00000011,-0.00000053,-0.0000
 0107,-0.00000043,-0.00000046,-0.00000134,-0.00000031,-0.00000038,-0.00
 000091,-0.00000209,-0.00000071,-0.00000251,0.00000491,0.00000146,-0.00
 000357,-0.00000148,0.00000032,0.00000493,-0.00000021,-0.00000014,-0.00
 000126,0.00000114,0.00000030,0.00000122,-0.00000243,0.,0.00000121,0.00
 000107,-0.00000031,-0.00000070,-0.00000031,-0.00000022,-0.00000126,-0.
 00000032,-0.00000063,-0.00000050,0.00000045,-0.00000032,-0.00000046,-0
 .00000102,-0.00000014,0.00000115,-0.00000025,0.00000058,0.00000015,-0.
 00000034,0.00000085,0.00000015,-0.00000002,0.00000032,0.00000051\\\@
 The archive entry for this job was punched.


 THAT'S WHAT MAKES US A GREAT COUNTRY.
 THE LITTLE THINGS ARE SERIOUS AND THE BIG ONES ARE NOT.
           WILL ROGERS
 Job cpu time:       0 days  2 hours  1 minutes 41.9 seconds.
 Elapsed time:       0 days  0 hours  3 minutes 49.4 seconds.
 File lengths (MBytes):  RWF=    809 Int=      0 D2E=      0 Chk=     12 Scr=      2
 Normal termination of Gaussian 16 at Tue Jan 25 16:04:04 2022.
