 Entering Gaussian System, Link 0=g16
 Initial command:
 /public/software/apps/Gaussian/g16/l1.exe "/public/home/QGL_HG/tmp/Gau-17851.inp" -scrdir="/public/home/QGL_HG/tmp/"
 Entering Link 1 = /public/software/apps/Gaussian/g16/l1.exe PID=     17852.
  
 Copyright (c) 1988-2019, Gaussian, Inc.  All Rights Reserved.
  
 This is part of the Gaussian(R) 16 program.  It is based on
 the Gaussian(R) 09 system (copyright 2009, Gaussian, Inc.),
 the Gaussian(R) 03 system (copyright 2003, Gaussian, Inc.),
 the Gaussian(R) 98 system (copyright 1998, Gaussian, Inc.),
 the Gaussian(R) 94 system (copyright 1995, Gaussian, Inc.),
 the Gaussian 92(TM) system (copyright 1992, Gaussian, Inc.),
 the Gaussian 90(TM) system (copyright 1990, Gaussian, Inc.),
 the Gaussian 88(TM) system (copyright 1988, Gaussian, Inc.),
 the Gaussian 86(TM) system (copyright 1986, Carnegie Mellon
 University), and the Gaussian 82(TM) system (copyright 1983,
 Carnegie Mellon University). Gaussian is a federally registered
 trademark of Gaussian, Inc.
  
 This software contains proprietary and confidential information,
 including trade secrets, belonging to Gaussian, Inc.
  
 This software is provided under written license and may be
 used, copied, transmitted, or stored only in accord with that
 written license.
  
 The following legend is applicable only to US Government
 contracts under FAR:
  
                    RESTRICTED RIGHTS LEGEND
  
 Use, reproduction and disclosure by the US Government is
 subject to restrictions as set forth in subparagraphs (a)
 and (c) of the Commercial Computer Software - Restricted
 Rights clause in FAR 52.227-19.
  
 Gaussian, Inc.
 340 Quinnipiac St., Bldg. 40, Wallingford CT 06492
  
  
 ---------------------------------------------------------------
 Warning -- This program may not be used in any manner that
 competes with the business of Gaussian, Inc. or will provide
 assistance to any competitor of Gaussian, Inc.  The licensee
 of this program is prohibited from giving any competitor of
 Gaussian, Inc. access to this program.  By using this program,
 the user acknowledges that Gaussian, Inc. is engaged in the
 business of creating and licensing software in the field of
 computational chemistry and represents and warrants to the
 licensee that it is not a competitor of Gaussian, Inc. and that
 it will not use this program in any manner prohibited above.
 ---------------------------------------------------------------
  

 Cite this work as:
 Gaussian 16, Revision C.01,
 M. J. Frisch, G. W. Trucks, H. B. Schlegel, G. E. Scuseria, 
 M. A. Robb, J. R. Cheeseman, G. Scalmani, V. Barone, 
 G. A. Petersson, H. Nakatsuji, X. Li, M. Caricato, A. V. Marenich, 
 J. Bloino, B. G. Janesko, R. Gomperts, B. Mennucci, H. P. Hratchian, 
 J. V. Ortiz, A. F. Izmaylov, J. L. Sonnenberg, D. Williams-Young, 
 F. Ding, F. Lipparini, F. Egidi, J. Goings, B. Peng, A. Petrone, 
 T. Henderson, D. Ranasinghe, V. G. Zakrzewski, J. Gao, N. Rega, 
 G. Zheng, W. Liang, M. Hada, M. Ehara, K. Toyota, R. Fukuda, 
 J. Hasegawa, M. Ishida, T. Nakajima, Y. Honda, O. Kitao, H. Nakai, 
 T. Vreven, K. Throssell, J. A. Montgomery, Jr., J. E. Peralta, 
 F. Ogliaro, M. J. Bearpark, J. J. Heyd, E. N. Brothers, K. N. Kudin, 
 V. N. Staroverov, T. A. Keith, R. Kobayashi, J. Normand, 
 K. Raghavachari, A. P. Rendell, J. C. Burant, S. S. Iyengar, 
 J. Tomasi, M. Cossi, J. M. Millam, M. Klene, C. Adamo, R. Cammi, 
 J. W. Ochterski, R. L. Martin, K. Morokuma, O. Farkas, 
 J. B. Foresman, and D. J. Fox, Gaussian, Inc., Wallingford CT, 2019.
 
 ******************************************
 Gaussian 16:  ES64L-G16RevC.01  3-Jul-2019
                12-Nov-2024 
 ******************************************
 %nprocshared=32
 Will use up to   32 processors via shared memory.
 %mem=100GB
 --------------------------------------------
 #p M062X def2tzvp scrf=(smd,solvent=toluene)
 --------------------------------------------
 1/38=1,172=1/1;
 2/12=2,17=6,18=5,40=1/2;
 3/5=44,7=101,11=2,25=1,30=1,70=32201,72=13,74=-55/1,2,3;
 4//1;
 5/5=2,38=5,53=13/2;
 6/7=2,8=2,9=2,10=2,28=1/1;
 99/5=1,9=1/99;
 Leave Link    1 at Tue Nov 12 10:29:05 2024, MaxMem= 13421772800 cpu:               2.3 elap:               0.1
 (Enter /public/software/apps/Gaussian/g16/l101.exe)
 -------------------------------
 Title: Major-E_thred10_1_Ts_Opt
 -------------------------------
 Symbolic Z-matrix:
 Charge =  0 Multiplicity = 1
 C                     2.98098  -1.61047   0.18297 
 C                     4.36866  -1.32254  -1.58848 
 N                     1.43517  -4.67198   1.73021 
 N                    -3.49034  -1.53088   1.67586 
 N                    -5.83746  -1.59642   1.95426 
 C                    -0.20802   1.31205  -1.97034 
 C                     0.52222   0.49383  -3.0487 
 C                    -0.31435  -0.74196  -3.39543 
 C                    -1.75672  -0.26227  -3.67765 
 C                    -2.36757   0.18224  -2.32822 
 C                    -0.32352  -1.68271  -2.18417 
 C                    -0.57581  -0.86879  -0.9026 
 C                    -1.27722  -1.64731   0.21079 
 C                    -2.63132  -1.2919   -4.33524 
 C                    -3.13797  -1.16264  -5.55979 
 C                    -1.83042   1.17341  -0.05654 
 C                    -2.50178   2.4975   -0.2995 
 C                    -3.9018    2.53518  -0.53838 
 C                    -4.75353   1.38388  -0.49421 
 C                    -6.10238   1.47198  -0.7184 
 C                    -6.70955   2.71788  -1.03165 
 C                    -5.94088   3.84789  -1.08 
 C                    -4.53699   3.80131  -0.821 
 C                    -3.76923   4.96743  -0.82051 
 C                    -2.41235   4.95869  -0.49653 
 C                    -1.66619   6.17522  -0.43553 
 C                    -0.35456   6.1797   -0.05234 
 C                     0.27607   4.9536    0.29518 
 C                    -0.38786   3.75867   0.20124 
 C                    -1.7587    3.7017   -0.20591 
 C                    -0.3802   -2.72601   0.77075 
 C                    -0.23869  -3.94817   0.15473 
 C                     0.68196  -4.88964   0.67355 
 C                     1.29576  -3.48064   2.37663 
 C                     2.11253  -3.2371    3.50764 
 C                     2.04151  -2.05127   4.20021 
 C                     1.12652  -1.04928   3.78625 
 C                     0.3834   -2.45881   1.9499 
 C                     0.31651  -1.25756   2.68593 
 C                    -3.62047  -2.04748   0.46643 
 C                    -4.60362  -1.31889   2.39789 
 C                    -5.9411   -2.1133    0.74107 
 C                    -4.86427  -2.38811  -0.11381 
 C                    -4.95859  -2.92998  -1.48907 
 C                    -5.71308  -2.27286  -2.47058 
 C                    -5.79657  -2.79074  -3.7611 
 C                    -5.12117  -3.96583  -4.09049 
 C                    -4.35015  -4.61621  -3.12488 
 C                    -4.26777  -4.10159  -1.83309 
 C                    -4.44323  -0.72389   3.73631 
 C                    -5.56812  -0.35302   4.48779 
 C                    -5.40524   0.23254   5.73938 
 C                    -4.12427   0.4521    6.25192 
 C                    -3.00144   0.07792   5.51043 
 C                    -3.15847  -0.509     4.2599 
 C                     1.97516   0.55282   5.34643 
 H                     0.47801   1.62526  -1.18929 
 H                    -0.73008   2.18204  -2.36858 
 H                     1.51059   0.19905  -2.69161 
 H                     0.66565   1.11891  -3.93574 
 H                     0.09347  -1.2544   -4.26949 
 H                    -1.69565   0.60668  -4.34353 
 H                    -2.94684   1.09621  -2.43335 
 H                    -3.0064   -0.59263  -1.91108 
 H                    -1.09513  -2.44722  -2.30569 
 H                     0.63538  -2.19397  -2.09423 
 H                     0.35691  -0.50869  -0.46191 
 H                    -1.53348  -0.98888   1.02747 
 H                    -2.85056  -2.18906  -3.75857 
 H                    -3.75315  -1.93883  -6.0044 
 H                    -2.95476  -0.27891  -6.16797 
 H                    -0.96723   1.25708   0.60195 
 H                    -2.53456   0.48798   0.40139 
 H                    -4.34241   0.41293  -0.25678 
 H                    -6.7173    0.57993  -0.64061 
 H                    -7.778     2.76712  -1.21703 
 H                    -6.38724   4.81334  -1.30279 
 H                    -4.2503    5.91553  -1.04925 
 H                    -2.17339   7.10065  -0.69458 
 H                     0.21874   7.09984  -0.02271 
 H                     1.30545   4.96063   0.63422 
 H                     0.15276   2.85515   0.45258 
 H                    -0.81737  -4.19396  -0.72865 
 H                     0.80317  -5.85112   0.17751 
 H                     2.80025  -4.02217   3.80387 
 H                     2.68242  -1.88751   5.05829 
 H                    -0.31697  -0.43409   2.38731 
 H                    -6.22787  -1.35051  -2.22361 
 H                    -6.38281  -2.26903  -4.51123 
 H                    -5.19011  -4.37173  -5.09552 
 H                    -3.8186   -5.52945  -3.37567 
 H                    -3.6765   -4.61229  -1.07974 
 H                    -6.55556  -0.52589   4.07449 
 H                    -6.27869   0.52148   6.31654 
 H                    -4.00238   0.9126    7.2283 
 H                    -2.0011    0.24302   5.89933 
 H                    -2.29199  -0.81576   3.68708 
 H                     1.95225  -0.06445   6.25414 
 H                     1.73289   1.58342   5.60567 
 H                     2.9735    0.52654   4.897 
 Cl                   -7.58078  -2.46547   0.22012 
 O                    -2.51664  -2.19644  -0.3009 
 N                    -1.28268   0.4543   -1.30407 
 O                     0.97704   0.1461    4.41539 
 N                     4.06362  -0.02574  -1.80338 
 C                     3.75979  -2.2541   -2.61288 
 F                     2.69447  -1.71515  -3.25285 
 F                     4.63666  -2.63065  -3.578 
 F                     3.30211  -3.42246  -2.06366 
 C                     4.48721   0.95346  -1.0438 
 C                     4.00971   2.30337  -1.2478 
 H                     5.21415   0.81206  -0.24321 
 C                     4.33046   3.31574  -0.31709 
 C                     3.20694   2.64873  -2.36074 
 C                     3.84428   4.60293  -0.46314 
 H                     4.94286   3.07318   0.54501 
 C                     2.71924   3.93193  -2.51924 
 H                     2.99655   1.88132  -3.09495 
 C                     3.03433   4.90547  -1.56242 
 H                     4.06647   5.37391   0.26338 
 H                     2.09846   4.20531  -3.36355 
 N                     2.4737    6.23178  -1.68629 
 O                     2.69452   7.04665  -0.77649 
 O                     1.78138   6.4894   -2.67783 
 C                     5.66585  -1.81123  -1.02339 
 C                     5.80105  -3.09868  -0.4712 
 C                     6.81879  -1.00917  -1.07392 
 C                     7.01396  -3.55038   0.04011 
 H                     4.9525   -3.77129  -0.45242 
 C                     8.0382   -1.44398  -0.56259 
 H                     6.77022  -0.03303  -1.54176 
 C                     8.12521  -2.71272   0.00331 
 H                     7.09433  -4.54451   0.46635 
 H                     8.91557  -0.80819  -0.61409 
 Cl                    9.65771  -3.26738   0.66938 
 H                     2.0921   -1.53191  -0.42577 
 H                     3.34845  -2.61367   0.34269 
 C                     3.27702  -0.62367   1.09557 
 H                     4.09988  -0.78675   1.7797 
 C                     2.54154   0.5938    1.20044 
 O                     1.45858   0.85956   0.63661 
 N                     3.05089   1.56359   2.1194 
 C                     2.3216    2.65423   2.56193 
 C                     4.32469   1.62899   2.67548 
 C                     3.11739   3.40052   3.3943 
 H                     1.29363   2.76914   2.26704 
 C                     4.39149   2.75269   3.46214 
 H                     5.08151   0.90448   2.42466 
 H                     2.82335   4.30883   3.90244 
 H                     5.25903   3.08147   4.01857 
 
 ITRead=  0  0  0  0  0  0  0  0  0  0  0  0  0  0  0  0  0  0  0  0
 ITRead=  0  0  0  0  0  0  0  0  0  0  0  0  0  0  0  0  0  0  0  0
 ITRead=  0  0  0  0  0  0  0  0  0  0  0  0  0  0  0  0  0  0  0  0
 ITRead=  0  0  0  0  0  0  0  0  0  0  0  0  0  0  0  0  0  0  0  0
 ITRead=  0  0  0  0  0  0  0  0  0  0  0  0  0  0  0  0  0  0  0  0
 ITRead=  0  0  0  0  0  0  0  0  0  0  0  0  0  0  0  0  0  0  0  0
 ITRead=  0  0  0  0  0  0  0  0  0  0  0  0  0  0  0  0  0  0  0  0
 ITRead=  0  0  0  0  0  0  0  0  0  0
 MicOpt= -1 -1 -1 -1 -1 -1 -1 -1 -1 -1 -1 -1 -1 -1 -1 -1 -1 -1 -1 -1
 MicOpt= -1 -1 -1 -1 -1 -1 -1 -1 -1 -1 -1 -1 -1 -1 -1 -1 -1 -1 -1 -1
 MicOpt= -1 -1 -1 -1 -1 -1 -1 -1 -1 -1 -1 -1 -1 -1 -1 -1 -1 -1 -1 -1
 MicOpt= -1 -1 -1 -1 -1 -1 -1 -1 -1 -1 -1 -1 -1 -1 -1 -1 -1 -1 -1 -1
 MicOpt= -1 -1 -1 -1 -1 -1 -1 -1 -1 -1 -1 -1 -1 -1 -1 -1 -1 -1 -1 -1
 MicOpt= -1 -1 -1 -1 -1 -1 -1 -1 -1 -1 -1 -1 -1 -1 -1 -1 -1 -1 -1 -1
 MicOpt= -1 -1 -1 -1 -1 -1 -1 -1 -1 -1 -1 -1 -1 -1 -1 -1 -1 -1 -1 -1
 MicOpt= -1 -1 -1 -1 -1 -1 -1 -1 -1 -1
 NAtoms=    150 NQM=      150 NQMF=       0 NMMI=      0 NMMIF=      0
                NMic=       0 NMicF=      0.
                    Isotopes and Nuclear Properties:
 (Nuclear quadrupole moments (NQMom) in fm**2, nuclear magnetic moments (NMagM)
  in nuclear magnetons)

  Atom         1           2           3           4           5           6           7           8           9          10
 IAtWgt=          12          12          14          14          14          12          12          12          12          12
 AtmWgt=  12.0000000  12.0000000  14.0030740  14.0030740  14.0030740  12.0000000  12.0000000  12.0000000  12.0000000  12.0000000
 NucSpn=           0           0           2           2           2           0           0           0           0           0
 AtZEff=  -0.0000000  -0.0000000  -0.0000000  -0.0000000  -0.0000000  -0.0000000  -0.0000000  -0.0000000  -0.0000000  -0.0000000
 NQMom=    0.0000000   0.0000000   2.0440000   2.0440000   2.0440000   0.0000000   0.0000000   0.0000000   0.0000000   0.0000000
 NMagM=    0.0000000   0.0000000   0.4037610   0.4037610   0.4037610   0.0000000   0.0000000   0.0000000   0.0000000   0.0000000
 AtZNuc=   6.0000000   6.0000000   7.0000000   7.0000000   7.0000000   6.0000000   6.0000000   6.0000000   6.0000000   6.0000000

  Atom        11          12          13          14          15          16          17          18          19          20
 IAtWgt=          12          12          12          12          12          12          12          12          12          12
 AtmWgt=  12.0000000  12.0000000  12.0000000  12.0000000  12.0000000  12.0000000  12.0000000  12.0000000  12.0000000  12.0000000
 NucSpn=           0           0           0           0           0           0           0           0           0           0
 AtZEff=  -0.0000000  -0.0000000  -0.0000000  -0.0000000  -0.0000000  -0.0000000  -0.0000000  -0.0000000  -0.0000000  -0.0000000
 NQMom=    0.0000000   0.0000000   0.0000000   0.0000000   0.0000000   0.0000000   0.0000000   0.0000000   0.0000000   0.0000000
 NMagM=    0.0000000   0.0000000   0.0000000   0.0000000   0.0000000   0.0000000   0.0000000   0.0000000   0.0000000   0.0000000
 AtZNuc=   6.0000000   6.0000000   6.0000000   6.0000000   6.0000000   6.0000000   6.0000000   6.0000000   6.0000000   6.0000000

  Atom        21          22          23          24          25          26          27          28          29          30
 IAtWgt=          12          12          12          12          12          12          12          12          12          12
 AtmWgt=  12.0000000  12.0000000  12.0000000  12.0000000  12.0000000  12.0000000  12.0000000  12.0000000  12.0000000  12.0000000
 NucSpn=           0           0           0           0           0           0           0           0           0           0
 AtZEff=  -0.0000000  -0.0000000  -0.0000000  -0.0000000  -0.0000000  -0.0000000  -0.0000000  -0.0000000  -0.0000000  -0.0000000
 NQMom=    0.0000000   0.0000000   0.0000000   0.0000000   0.0000000   0.0000000   0.0000000   0.0000000   0.0000000   0.0000000
 NMagM=    0.0000000   0.0000000   0.0000000   0.0000000   0.0000000   0.0000000   0.0000000   0.0000000   0.0000000   0.0000000
 AtZNuc=   6.0000000   6.0000000   6.0000000   6.0000000   6.0000000   6.0000000   6.0000000   6.0000000   6.0000000   6.0000000

  Atom        31          32          33          34          35          36          37          38          39          40
 IAtWgt=          12          12          12          12          12          12          12          12          12          12
 AtmWgt=  12.0000000  12.0000000  12.0000000  12.0000000  12.0000000  12.0000000  12.0000000  12.0000000  12.0000000  12.0000000
 NucSpn=           0           0           0           0           0           0           0           0           0           0
 AtZEff=  -0.0000000  -0.0000000  -0.0000000  -0.0000000  -0.0000000  -0.0000000  -0.0000000  -0.0000000  -0.0000000  -0.0000000
 NQMom=    0.0000000   0.0000000   0.0000000   0.0000000   0.0000000   0.0000000   0.0000000   0.0000000   0.0000000   0.0000000
 NMagM=    0.0000000   0.0000000   0.0000000   0.0000000   0.0000000   0.0000000   0.0000000   0.0000000   0.0000000   0.0000000
 AtZNuc=   6.0000000   6.0000000   6.0000000   6.0000000   6.0000000   6.0000000   6.0000000   6.0000000   6.0000000   6.0000000

  Atom        41          42          43          44          45          46          47          48          49          50
 IAtWgt=          12          12          12          12          12          12          12          12          12          12
 AtmWgt=  12.0000000  12.0000000  12.0000000  12.0000000  12.0000000  12.0000000  12.0000000  12.0000000  12.0000000  12.0000000
 NucSpn=           0           0           0           0           0           0           0           0           0           0
 AtZEff=  -0.0000000  -0.0000000  -0.0000000  -0.0000000  -0.0000000  -0.0000000  -0.0000000  -0.0000000  -0.0000000  -0.0000000
 NQMom=    0.0000000   0.0000000   0.0000000   0.0000000   0.0000000   0.0000000   0.0000000   0.0000000   0.0000000   0.0000000
 NMagM=    0.0000000   0.0000000   0.0000000   0.0000000   0.0000000   0.0000000   0.0000000   0.0000000   0.0000000   0.0000000
 AtZNuc=   6.0000000   6.0000000   6.0000000   6.0000000   6.0000000   6.0000000   6.0000000   6.0000000   6.0000000   6.0000000

  Atom        51          52          53          54          55          56          57          58          59          60
 IAtWgt=          12          12          12          12          12          12           1           1           1           1
 AtmWgt=  12.0000000  12.0000000  12.0000000  12.0000000  12.0000000  12.0000000   1.0078250   1.0078250   1.0078250   1.0078250
 NucSpn=           0           0           0           0           0           0           1           1           1           1
 AtZEff=  -0.0000000  -0.0000000  -0.0000000  -0.0000000  -0.0000000  -0.0000000  -0.0000000  -0.0000000  -0.0000000  -0.0000000
 NQMom=    0.0000000   0.0000000   0.0000000   0.0000000   0.0000000   0.0000000   0.0000000   0.0000000   0.0000000   0.0000000
 NMagM=    0.0000000   0.0000000   0.0000000   0.0000000   0.0000000   0.0000000   2.7928460   2.7928460   2.7928460   2.7928460
 AtZNuc=   6.0000000   6.0000000   6.0000000   6.0000000   6.0000000   6.0000000   1.0000000   1.0000000   1.0000000   1.0000000

  Atom        61          62          63          64          65          66          67          68          69          70
 IAtWgt=           1           1           1           1           1           1           1           1           1           1
 AtmWgt=   1.0078250   1.0078250   1.0078250   1.0078250   1.0078250   1.0078250   1.0078250   1.0078250   1.0078250   1.0078250
 NucSpn=           1           1           1           1           1           1           1           1           1           1
 AtZEff=  -0.0000000  -0.0000000  -0.0000000  -0.0000000  -0.0000000  -0.0000000  -0.0000000  -0.0000000  -0.0000000  -0.0000000
 NQMom=    0.0000000   0.0000000   0.0000000   0.0000000   0.0000000   0.0000000   0.0000000   0.0000000   0.0000000   0.0000000
 NMagM=    2.7928460   2.7928460   2.7928460   2.7928460   2.7928460   2.7928460   2.7928460   2.7928460   2.7928460   2.7928460
 AtZNuc=   1.0000000   1.0000000   1.0000000   1.0000000   1.0000000   1.0000000   1.0000000   1.0000000   1.0000000   1.0000000

  Atom        71          72          73          74          75          76          77          78          79          80
 IAtWgt=           1           1           1           1           1           1           1           1           1           1
 AtmWgt=   1.0078250   1.0078250   1.0078250   1.0078250   1.0078250   1.0078250   1.0078250   1.0078250   1.0078250   1.0078250
 NucSpn=           1           1           1           1           1           1           1           1           1           1
 AtZEff=  -0.0000000  -0.0000000  -0.0000000  -0.0000000  -0.0000000  -0.0000000  -0.0000000  -0.0000000  -0.0000000  -0.0000000
 NQMom=    0.0000000   0.0000000   0.0000000   0.0000000   0.0000000   0.0000000   0.0000000   0.0000000   0.0000000   0.0000000
 NMagM=    2.7928460   2.7928460   2.7928460   2.7928460   2.7928460   2.7928460   2.7928460   2.7928460   2.7928460   2.7928460
 AtZNuc=   1.0000000   1.0000000   1.0000000   1.0000000   1.0000000   1.0000000   1.0000000   1.0000000   1.0000000   1.0000000

  Atom        81          82          83          84          85          86          87          88          89          90
 IAtWgt=           1           1           1           1           1           1           1           1           1           1
 AtmWgt=   1.0078250   1.0078250   1.0078250   1.0078250   1.0078250   1.0078250   1.0078250   1.0078250   1.0078250   1.0078250
 NucSpn=           1           1           1           1           1           1           1           1           1           1
 AtZEff=  -0.0000000  -0.0000000  -0.0000000  -0.0000000  -0.0000000  -0.0000000  -0.0000000  -0.0000000  -0.0000000  -0.0000000
 NQMom=    0.0000000   0.0000000   0.0000000   0.0000000   0.0000000   0.0000000   0.0000000   0.0000000   0.0000000   0.0000000
 NMagM=    2.7928460   2.7928460   2.7928460   2.7928460   2.7928460   2.7928460   2.7928460   2.7928460   2.7928460   2.7928460
 AtZNuc=   1.0000000   1.0000000   1.0000000   1.0000000   1.0000000   1.0000000   1.0000000   1.0000000   1.0000000   1.0000000

  Atom        91          92          93          94          95          96          97          98          99         100
 IAtWgt=           1           1           1           1           1           1           1           1           1           1
 AtmWgt=   1.0078250   1.0078250   1.0078250   1.0078250   1.0078250   1.0078250   1.0078250   1.0078250   1.0078250   1.0078250
 NucSpn=           1           1           1           1           1           1           1           1           1           1
 AtZEff=  -0.0000000  -0.0000000  -0.0000000  -0.0000000  -0.0000000  -0.0000000  -0.0000000  -0.0000000  -0.0000000  -0.0000000
 NQMom=    0.0000000   0.0000000   0.0000000   0.0000000   0.0000000   0.0000000   0.0000000   0.0000000   0.0000000   0.0000000
 NMagM=    2.7928460   2.7928460   2.7928460   2.7928460   2.7928460   2.7928460   2.7928460   2.7928460   2.7928460   2.7928460
 AtZNuc=   1.0000000   1.0000000   1.0000000   1.0000000   1.0000000   1.0000000   1.0000000   1.0000000   1.0000000   1.0000000

  Atom       101         102         103         104         105         106         107         108         109         110
 IAtWgt=          35          16          14          16          14          12          19          19          19          12
 AtmWgt=  34.9688527  15.9949146  14.0030740  15.9949146  14.0030740  12.0000000  18.9984032  18.9984032  18.9984032  12.0000000
 NucSpn=           3           0           2           0           2           0           1           1           1           0
 AtZEff=  -0.0000000  -0.0000000  -0.0000000  -0.0000000  -0.0000000  -0.0000000  -0.0000000  -0.0000000  -0.0000000  -0.0000000
 NQMom=   -8.1650000   0.0000000   2.0440000   0.0000000   2.0440000   0.0000000   0.0000000   0.0000000   0.0000000   0.0000000
 NMagM=    0.8218740   0.0000000   0.4037610   0.0000000   0.4037610   0.0000000   2.6288670   2.6288670   2.6288670   0.0000000
 AtZNuc=  17.0000000   8.0000000   7.0000000   8.0000000   7.0000000   6.0000000   9.0000000   9.0000000   9.0000000   6.0000000

  Atom       111         112         113         114         115         116         117         118         119         120
 IAtWgt=          12           1          12          12          12           1          12           1          12           1
 AtmWgt=  12.0000000   1.0078250  12.0000000  12.0000000  12.0000000   1.0078250  12.0000000   1.0078250  12.0000000   1.0078250
 NucSpn=           0           1           0           0           0           1           0           1           0           1
 AtZEff=  -0.0000000  -0.0000000  -0.0000000  -0.0000000  -0.0000000  -0.0000000  -0.0000000  -0.0000000  -0.0000000  -0.0000000
 NQMom=    0.0000000   0.0000000   0.0000000   0.0000000   0.0000000   0.0000000   0.0000000   0.0000000   0.0000000   0.0000000
 NMagM=    0.0000000   2.7928460   0.0000000   0.0000000   0.0000000   2.7928460   0.0000000   2.7928460   0.0000000   2.7928460
 AtZNuc=   6.0000000   1.0000000   6.0000000   6.0000000   6.0000000   1.0000000   6.0000000   1.0000000   6.0000000   1.0000000

  Atom       121         122         123         124         125         126         127         128         129         130
 IAtWgt=           1          14          16          16          12          12          12          12           1          12
 AtmWgt=   1.0078250  14.0030740  15.9949146  15.9949146  12.0000000  12.0000000  12.0000000  12.0000000   1.0078250  12.0000000
 NucSpn=           1           2           0           0           0           0           0           0           1           0
 AtZEff=  -0.0000000  -0.0000000  -0.0000000  -0.0000000  -0.0000000  -0.0000000  -0.0000000  -0.0000000  -0.0000000  -0.0000000
 NQMom=    0.0000000   2.0440000   0.0000000   0.0000000   0.0000000   0.0000000   0.0000000   0.0000000   0.0000000   0.0000000
 NMagM=    2.7928460   0.4037610   0.0000000   0.0000000   0.0000000   0.0000000   0.0000000   0.0000000   2.7928460   0.0000000
 AtZNuc=   1.0000000   7.0000000   8.0000000   8.0000000   6.0000000   6.0000000   6.0000000   6.0000000   1.0000000   6.0000000

  Atom       131         132         133         134         135         136         137         138         139         140
 IAtWgt=           1          12           1           1          35           1           1          12           1          12
 AtmWgt=   1.0078250  12.0000000   1.0078250   1.0078250  34.9688527   1.0078250   1.0078250  12.0000000   1.0078250  12.0000000
 NucSpn=           1           0           1           1           3           1           1           0           1           0
 AtZEff=  -0.0000000  -0.0000000  -0.0000000  -0.0000000  -0.0000000  -0.0000000  -0.0000000  -0.0000000  -0.0000000  -0.0000000
 NQMom=    0.0000000   0.0000000   0.0000000   0.0000000  -8.1650000   0.0000000   0.0000000   0.0000000   0.0000000   0.0000000
 NMagM=    2.7928460   0.0000000   2.7928460   2.7928460   0.8218740   2.7928460   2.7928460   0.0000000   2.7928460   0.0000000
 AtZNuc=   1.0000000   6.0000000   1.0000000   1.0000000  17.0000000   1.0000000   1.0000000   6.0000000   1.0000000   6.0000000

  Atom       141         142         143         144         145         146         147         148         149         150
 IAtWgt=          16          14          12          12          12           1          12           1           1           1
 AtmWgt=  15.9949146  14.0030740  12.0000000  12.0000000  12.0000000   1.0078250  12.0000000   1.0078250   1.0078250   1.0078250
 NucSpn=           0           2           0           0           0           1           0           1           1           1
 AtZEff=  -0.0000000  -0.0000000  -0.0000000  -0.0000000  -0.0000000  -0.0000000  -0.0000000  -0.0000000  -0.0000000  -0.0000000
 NQMom=    0.0000000   2.0440000   0.0000000   0.0000000   0.0000000   0.0000000   0.0000000   0.0000000   0.0000000   0.0000000
 NMagM=    0.0000000   0.4037610   0.0000000   0.0000000   0.0000000   2.7928460   0.0000000   2.7928460   2.7928460   2.7928460
 AtZNuc=   8.0000000   7.0000000   6.0000000   6.0000000   6.0000000   1.0000000   6.0000000   1.0000000   1.0000000   1.0000000
 Leave Link  101 at Tue Nov 12 10:29:05 2024, MaxMem= 13421772800 cpu:               3.2 elap:               0.1
 (Enter /public/software/apps/Gaussian/g16/l202.exe)
 Stoichiometry    C73H60Cl2F3N7O5
 Framework group  C1[X(C73H60Cl2F3N7O5)]
 Deg. of freedom   444
 Full point group                 C1      NOp   1
 Largest Abelian subgroup         C1      NOp   1
 Largest concise Abelian subgroup C1      NOp   1
                         Standard orientation:                         
 ---------------------------------------------------------------------
 Center     Atomic      Atomic             Coordinates (Angstroms)
 Number     Number       Type             X           Y           Z
 ---------------------------------------------------------------------
      1          6           0        2.980984   -1.610474    0.182965
      2          6           0        4.368663   -1.322539   -1.588484
      3          7           0        1.435166   -4.671981    1.730214
      4          7           0       -3.490344   -1.530879    1.675861
      5          7           0       -5.837455   -1.596418    1.954258
      6          6           0       -0.208021    1.312047   -1.970343
      7          6           0        0.522222    0.493833   -3.048699
      8          6           0       -0.314345   -0.741963   -3.395426
      9          6           0       -1.756721   -0.262274   -3.677648
     10          6           0       -2.367573    0.182238   -2.328217
     11          6           0       -0.323518   -1.682710   -2.184173
     12          6           0       -0.575806   -0.868787   -0.902597
     13          6           0       -1.277216   -1.647311    0.210790
     14          6           0       -2.631316   -1.291897   -4.335239
     15          6           0       -3.137972   -1.162639   -5.559787
     16          6           0       -1.830422    1.173409   -0.056537
     17          6           0       -2.501781    2.497497   -0.299504
     18          6           0       -3.901796    2.535180   -0.538380
     19          6           0       -4.753534    1.383881   -0.494210
     20          6           0       -6.102375    1.471977   -0.718404
     21          6           0       -6.709548    2.717878   -1.031649
     22          6           0       -5.940875    3.847894   -1.080003
     23          6           0       -4.536986    3.801310   -0.820999
     24          6           0       -3.769231    4.967434   -0.820511
     25          6           0       -2.412352    4.958685   -0.496529
     26          6           0       -1.666185    6.175217   -0.435532
     27          6           0       -0.354557    6.179704   -0.052341
     28          6           0        0.276069    4.953597    0.295176
     29          6           0       -0.387858    3.758667    0.201242
     30          6           0       -1.758701    3.701701   -0.205906
     31          6           0       -0.380199   -2.726012    0.770747
     32          6           0       -0.238692   -3.948169    0.154734
     33          6           0        0.681957   -4.889643    0.673548
     34          6           0        1.295760   -3.480638    2.376634
     35          6           0        2.112527   -3.237096    3.507643
     36          6           0        2.041513   -2.051271    4.200207
     37          6           0        1.126519   -1.049281    3.786247
     38          6           0        0.383397   -2.458806    1.949897
     39          6           0        0.316505   -1.257561    2.685934
     40          6           0       -3.620473   -2.047476    0.466434
     41          6           0       -4.603619   -1.318885    2.397888
     42          6           0       -5.941095   -2.113305    0.741066
     43          6           0       -4.864272   -2.388107   -0.113809
     44          6           0       -4.958592   -2.929979   -1.489068
     45          6           0       -5.713083   -2.272859   -2.470583
     46          6           0       -5.796572   -2.790742   -3.761101
     47          6           0       -5.121166   -3.965829   -4.090490
     48          6           0       -4.350152   -4.616211   -3.124875
     49          6           0       -4.267769   -4.101587   -1.833085
     50          6           0       -4.443227   -0.723891    3.736306
     51          6           0       -5.568116   -0.353023    4.487786
     52          6           0       -5.405241    0.232544    5.739378
     53          6           0       -4.124268    0.452102    6.251916
     54          6           0       -3.001445    0.077918    5.510429
     55          6           0       -3.158472   -0.509004    4.259899
     56          6           0        1.975158    0.552821    5.346434
     57          1           0        0.478006    1.625258   -1.189293
     58          1           0       -0.730081    2.182039   -2.368579
     59          1           0        1.510593    0.199048   -2.691607
     60          1           0        0.665653    1.118911   -3.935741
     61          1           0        0.093468   -1.254402   -4.269488
     62          1           0       -1.695650    0.606682   -4.343525
     63          1           0       -2.946841    1.096210   -2.433349
     64          1           0       -3.006399   -0.592633   -1.911075
     65          1           0       -1.095132   -2.447223   -2.305689
     66          1           0        0.635383   -2.193974   -2.094229
     67          1           0        0.356913   -0.508686   -0.461913
     68          1           0       -1.533481   -0.988883    1.027469
     69          1           0       -2.850558   -2.189063   -3.758569
     70          1           0       -3.753154   -1.938834   -6.004396
     71          1           0       -2.954759   -0.278913   -6.167972
     72          1           0       -0.967232    1.257076    0.601949
     73          1           0       -2.534557    0.487982    0.401393
     74          1           0       -4.342414    0.412930   -0.256781
     75          1           0       -6.717298    0.579927   -0.640609
     76          1           0       -7.778004    2.767124   -1.217025
     77          1           0       -6.387238    4.813338   -1.302787
     78          1           0       -4.250299    5.915534   -1.049253
     79          1           0       -2.173387    7.100648   -0.694576
     80          1           0        0.218743    7.099844   -0.022707
     81          1           0        1.305451    4.960629    0.634218
     82          1           0        0.152762    2.855149    0.452577
     83          1           0       -0.817367   -4.193964   -0.728653
     84          1           0        0.803174   -5.851117    0.177505
     85          1           0        2.800253   -4.022165    3.803869
     86          1           0        2.682415   -1.887511    5.058292
     87          1           0       -0.316965   -0.434093    2.387311
     88          1           0       -6.227872   -1.350512   -2.223607
     89          1           0       -6.382812   -2.269028   -4.511226
     90          1           0       -5.190108   -4.371727   -5.095517
     91          1           0       -3.818603   -5.529451   -3.375667
     92          1           0       -3.676502   -4.612289   -1.079744
     93          1           0       -6.555564   -0.525885    4.074488
     94          1           0       -6.278690    0.521479    6.316540
     95          1           0       -4.002383    0.912604    7.228295
     96          1           0       -2.001103    0.243022    5.899325
     97          1           0       -2.291990   -0.815755    3.687083
     98          1           0        1.952249   -0.064448    6.254141
     99          1           0        1.732888    1.583424    5.605667
    100          1           0        2.973496    0.526535    4.897002
    101         17           0       -7.580776   -2.465474    0.220119
    102          8           0       -2.516636   -2.196437   -0.300901
    103          7           0       -1.282682    0.454297   -1.304072
    104          8           0        0.977040    0.146097    4.415385
    105          7           0        4.063618   -0.025741   -1.803382
    106          6           0        3.759790   -2.254103   -2.612882
    107          9           0        2.694467   -1.715151   -3.252852
    108          9           0        4.636661   -2.630647   -3.578000
    109          9           0        3.302112   -3.422463   -2.063655
    110          6           0        4.487215    0.953458   -1.043801
    111          6           0        4.009714    2.303367   -1.247801
    112          1           0        5.214154    0.812062   -0.243212
    113          6           0        4.330460    3.315741   -0.317093
    114          6           0        3.206937    2.648731   -2.360741
    115          6           0        3.844280    4.602933   -0.463137
    116          1           0        4.942862    3.073179    0.545012
    117          6           0        2.719241    3.931934   -2.519239
    118          1           0        2.996549    1.881324   -3.094949
    119          6           0        3.034330    4.905471   -1.562421
    120          1           0        4.066470    5.373906    0.263384
    121          1           0        2.098462    4.205312   -3.363552
    122          7           0        2.473700    6.231778   -1.686294
    123          8           0        2.694521    7.046654   -0.776488
    124          8           0        1.781384    6.489403   -2.677834
    125          6           0        5.665854   -1.811231   -1.023387
    126          6           0        5.801053   -3.098679   -0.471199
    127          6           0        6.818794   -1.009175   -1.073919
    128          6           0        7.013961   -3.550380    0.040109
    129          1           0        4.952499   -3.771285   -0.452416
    130          6           0        8.038200   -1.443984   -0.562593
    131          1           0        6.770222   -0.033031   -1.541761
    132          6           0        8.125214   -2.712718    0.003311
    133          1           0        7.094330   -4.544510    0.466350
    134          1           0        8.915572   -0.808189   -0.614094
    135         17           0        9.657712   -3.267383    0.669381
    136          1           0        2.092103   -1.531908   -0.425768
    137          1           0        3.348452   -2.613667    0.342694
    138          6           0        3.277023   -0.623669    1.095565
    139          1           0        4.099876   -0.786748    1.779695
    140          6           0        2.541544    0.593797    1.200435
    141          8           0        1.458580    0.859559    0.636606
    142          7           0        3.050892    1.563588    2.119403
    143          6           0        2.321595    2.654231    2.561931
    144          6           0        4.324693    1.628992    2.675480
    145          6           0        3.117390    3.400524    3.394300
    146          1           0        1.293632    2.769139    2.267041
    147          6           0        4.391495    2.752688    3.462141
    148          1           0        5.081507    0.904478    2.424664
    149          1           0        2.823346    4.308829    3.902441
    150          1           0        5.259033    3.081469    4.018573
 ---------------------------------------------------------------------
 Rotational constants (GHZ):           0.0271049           0.0171339           0.0153810
 Leave Link  202 at Tue Nov 12 10:29:06 2024, MaxMem= 13421772800 cpu:               0.2 elap:               0.0
 (Enter /public/software/apps/Gaussian/g16/l301.exe)
 Standard basis: def2TZVP (5D, 7F)
 Ernie: Thresh=  0.10000D-02 Tol=  0.10000D-05 Strict=F.
 There are  3612 symmetry adapted cartesian basis functions of A   symmetry.
 There are  3162 symmetry adapted basis functions of A   symmetry.
  3162 basis functions,  5106 primitive gaussians,  3612 cartesian basis functions
   324 alpha electrons      324 beta electrons
       nuclear repulsion energy     18547.9665404823 Hartrees.
 IExCor= 4336 DFT=T Ex+Corr=M062X ExCW=0 ScaHFX=  0.540000
 ScaDFX=  1.000000  1.000000  1.000000  1.000000 ScalE2=  1.000000  1.000000
 IRadAn=      5 IRanWt=     -1 IRanGd=            0 ICorTp=0 IEmpDi=  4
 NAtoms=  150 NActive=  150 NUniq=  150 SFac= 1.00D+00 NAtFMM=   60 NAOKFM=T Big=T
 Integral buffers will be    131072 words long.
 Raffenetti 2 integral format.
 Two-electron integral symmetry is turned on.
 ------------------------------------------------------------------------------
 Polarizable Continuum Model (PCM)
 =================================
 Model                : PCM.
 Atomic radii         : SMD-Coulomb.
 Polarization charges : Total charges.
 Charge compensation  : None.
 Solution method      : On-the-fly selection.
 Cavity type          : VdW (van der Waals Surface) (Alpha=1.000).
 Cavity algorithm     : GePol (No added spheres)
                        Default sphere list used, NSphG=  150.
                        Lebedev-Laikov grids with approx.  5.0 points / Ang**2.
                        Smoothing algorithm: York/Karplus (Gamma=1.0000).
                        Polarization charges: spherical gaussians, with
                                              point-specific exponents (IZeta= 3).
                        Self-potential: point-specific (ISelfS= 7).
                        Self-field    : sphere-specific E.n sum rule (ISelfD= 2).
 Solvent              : Toluene, Eps=   2.374100 Eps(inf)=   2.238315
 ------------------------------------------------------------------------------
 GePol: Number of generator spheres                  =     150
 GePol: Total number of spheres                      =     150
 GePol: Number of exposed spheres                    =     150 (100.00%)
 GePol: Number of points                             =   10232
 GePol: Average weight of points                     =       0.11
 GePol: Minimum weight of points                     =   0.17D-11
 GePol: Maximum weight of points                     =    0.21501
 GePol: Number of points with low weight             =     681
 GePol: Fraction of low-weight points (<1% of avg)   =       6.66%
 GePol: Cavity surface area                          =   1115.327 Ang**2
 GePol: Cavity volume                                =   1294.056 Ang**3
 ------------------------------------------------------------------------------
 Atomic radii for non-electrostatic terms: SMD-CDS.
 ------------------------------------------------------------------------------
 PCM non-electrostatic energy =        -0.0376499953 Hartrees.
 Nuclear repulsion after PCM non-electrostatic terms =    18547.9288904870 Hartrees.
 Leave Link  301 at Tue Nov 12 10:29:06 2024, MaxMem= 13421772800 cpu:               6.3 elap:               0.2
 (Enter /public/software/apps/Gaussian/g16/l302.exe)
 NPDir=0 NMtPBC=     1 NCelOv=     1 NCel=       1 NClECP=     1 NCelD=      1
         NCelK=      1 NCelE2=     1 NClLst=     1 CellRange=     0.0.
 One-electron integrals computed using PRISM.
 One-electron integral symmetry used in STVInt
   1 Symmetry operations used in ECPInt.
 ECPInt:  NShTT=  761995 NPrTT= 2366413 LenC2=  504814 LenP2D=  969333.
 LDataN:  DoStor=T MaxTD1= 6 Len=  172
 Number of processors reduced to  30 by ecpmxn.
 NBasis=  3162 RedAO= T EigKep=  2.15D-06  NBF=  3162
 NBsUse=  3162 1.00D-06 EigRej= -1.00D+00 NBFU=  3162
 Precomputing XC quadrature grid using
 IXCGrd= 4 IRadAn=           5 IRanWt=          -1 IRanGd=           0 AccXCQ= 0.00D+00.
 Generated NRdTot=       0 NPtTot=           0 NUsed=           0 NTot=          32
 NSgBfM=  3133  3084  3106  3117  3133 MxSgAt=   150 MxSgA2=   150.
 Leave Link  302 at Tue Nov 12 10:29:28 2024, MaxMem= 13421772800 cpu:             715.4 elap:              22.4
 (Enter /public/software/apps/Gaussian/g16/l303.exe)
 DipDrv:  MaxL=1.
 Leave Link  303 at Tue Nov 12 10:29:30 2024, MaxMem= 13421772800 cpu:              32.5 elap:               1.3
 (Enter /public/software/apps/Gaussian/g16/l401.exe)
 ExpMin= 9.52D-02 ExpMax= 6.95D+04 ExpMxC= 2.37D+03 IAcc=3 IRadAn=         5 AccDes= 0.00D+00
 Harris functional with IExCor= 1009 and IRadAn=       5 diagonalized for initial guess.
 HarFok:  IExCor= 1009 AccDes= 0.00D+00 IRadAn=         5 IDoV= 1 UseB2=F ITyADJ=14
 ICtDFT=  3500011 ScaDFX=  1.000000  1.000000  1.000000  1.000000
 FoFCou: FMM=F IPFlag=           0 FMFlag=      100000 FMFlg1=        2001
         NFxFlg=           0 DoJE=T BraDBF=F KetDBF=T FulRan=T
         wScrn=  0.000000 ICntrl=       500 IOpCl=  0 I1Cent=   200000004 NGrid=           0
         NMat0=    1 NMatS0=      1 NMatT0=    0 NMatD0=    1 NMtDS0=    0 NMtDT0=    0
 Petite list used in FoFCou.
 Harris En= -4794.51127623407    
 JPrj=0 DoOrth=F DoCkMO=F.
 Leave Link  401 at Tue Nov 12 10:30:03 2024, MaxMem= 13421772800 cpu:            1048.0 elap:              32.9
 (Enter /public/software/apps/Gaussian/g16/l502.exe)
 Integral symmetry usage will be decided dynamically.
 Closed shell SCF:
 Using DIIS extrapolation, IDIIS=  1040.
 NGot= 13421772800 LenX= 13395529794 LenY= 13382479638
 Requested convergence on RMS density matrix=1.00D-08 within 128 cycles.
 Requested convergence on MAX density matrix=1.00D-06.
 Requested convergence on             energy=1.00D-06.
 No special actions if energy rises.
 Fock matrices will be formed incrementally for  20 cycles.

 Cycle   1  Pass 1  IDiag  1:
 FoFJK:  IHMeth= 1 ICntrl=       0 DoSepK=F KAlg= 0 I1Cent=           0 FoldK=F
 IRaf= 630000000 NMat=       1 IRICut=       1 DoRegI=T DoRafI=F ISym2E= 0 IDoP0=0 IntGTp=1.
 FoFCou: FMM=T IPFlag=           0 FMFlag=      100000 FMFlg1=        2001
         NFxFlg=           0 DoJE=F BraDBF=F KetDBF=F FulRan=T
         wScrn=  0.000000 ICntrl=         0 IOpCl=  0 I1Cent=           0 NGrid=           0
         NMat0=    1 NMatS0=      1 NMatT0=    0 NMatD0=    1 NMtDS0=    0 NMtDT0=    0
 Symmetry not used in FoFCou.
 FMM levels:  10  Number of levels for PrismC:   9
 Inv3:  Mode=1 IEnd=   314081472.
 Iteration    1 A*A^-1 deviation from unit magnitude is 7.11D-15 for   9517.
 Iteration    1 A*A^-1 deviation from orthogonality  is 7.99D-15 for   9517   8330.
 Iteration    1 A^-1*A deviation from unit magnitude is 7.55D-15 for   8330.
 Iteration    1 A^-1*A deviation from orthogonality  is 5.27D-14 for   9560   9529.
 E= -4794.95588427498    
 DIIS: error= 1.47D-02 at cycle   1 NSaved=   1.
 NSaved= 1 IEnMin= 1 EnMin= -4794.95588427498     IErMin= 1 ErrMin= 1.47D-02
 ErrMax= 1.47D-02  0.00D+00 EMaxC= 1.00D-01 BMatC= 2.72D+00 BMatP= 2.72D+00
 IDIUse=3 WtCom= 8.53D-01 WtEn= 1.47D-01
 Coeff-Com:  0.100D+01
 Coeff-En:   0.100D+01
 Coeff:      0.100D+01
 Gap=     0.192 Goal=   None    Shift=    0.000
 GapD=    0.192 DampG=1.000 DampE=0.500 DampFc=0.5000 IDamp=-1.
 Damping current iteration by 5.00D-01
 RMSDP=1.99D-03 MaxDP=4.56D-01              OVMax= 2.57D-01

 Cycle   2  Pass 1  IDiag  1:
 RMSU=  9.97D-04    CP:  9.94D-01
 E= -4795.97572700016     Delta-E=       -1.019842725182 Rises=F Damp=T
 DIIS: error= 4.78D-03 at cycle   2 NSaved=   2.
 NSaved= 2 IEnMin= 2 EnMin= -4795.97572700016     IErMin= 2 ErrMin= 4.78D-03
 ErrMax= 4.78D-03  0.00D+00 EMaxC= 1.00D-01 BMatC= 2.74D-01 BMatP= 2.72D+00
 IDIUse=3 WtCom= 9.52D-01 WtEn= 4.78D-02
 Coeff-Com: -0.954D-01 0.110D+01
 Coeff-En:   0.000D+00 0.100D+01
 Coeff:     -0.908D-01 0.109D+01
 Gap=     0.199 Goal=   None    Shift=    0.000
 RMSDP=7.71D-04 MaxDP=1.89D-01 DE=-1.02D+00 OVMax= 2.38D-01

 Cycle   3  Pass 1  IDiag  1:
 RMSU=  7.40D-04    CP:  9.31D-01  9.71D-01
 E= -4796.92864267586     Delta-E=       -0.952915675698 Rises=F Damp=F
 DIIS: error= 8.90D-03 at cycle   3 NSaved=   3.
 NSaved= 3 IEnMin= 3 EnMin= -4796.92864267586     IErMin= 2 ErrMin= 4.78D-03
 ErrMax= 8.90D-03  0.00D+00 EMaxC= 1.00D-01 BMatC= 1.43D-01 BMatP= 2.74D-01
 IDIUse=3 WtCom= 9.11D-01 WtEn= 8.90D-02
 Coeff-Com: -0.128D+00 0.491D+00 0.637D+00
 Coeff-En:   0.000D+00 0.000D+00 0.100D+01
 Coeff:     -0.117D+00 0.447D+00 0.669D+00
 Gap=     0.147 Goal=   None    Shift=    0.000
 RMSDP=2.58D-04 MaxDP=7.59D-02 DE=-9.53D-01 OVMax= 6.92D-02

 Cycle   4  Pass 1  IDiag  1:
 RMSU=  2.40D-04    CP:  9.34D-01  1.04D+00  9.15D-01
 E= -4797.02031047051     Delta-E=       -0.091667794659 Rises=F Damp=F
 DIIS: error= 4.17D-03 at cycle   4 NSaved=   4.
 NSaved= 4 IEnMin= 4 EnMin= -4797.02031047051     IErMin= 4 ErrMin= 4.17D-03
 ErrMax= 4.17D-03  0.00D+00 EMaxC= 1.00D-01 BMatC= 2.93D-02 BMatP= 1.43D-01
 IDIUse=3 WtCom= 9.58D-01 WtEn= 4.17D-02
 Coeff-Com: -0.465D-01 0.123D+00 0.362D+00 0.562D+00
 Coeff-En:   0.000D+00 0.000D+00 0.156D+00 0.844D+00
 Coeff:     -0.446D-01 0.117D+00 0.353D+00 0.574D+00
 Gap=     0.149 Goal=   None    Shift=    0.000
 RMSDP=1.13D-04 MaxDP=5.24D-02 DE=-9.17D-02 OVMax= 2.59D-02

 Cycle   5  Pass 1  IDiag  1:
 RMSU=  7.29D-05    CP:  9.31D-01  1.02D+00  9.44D-01  6.73D-01
 E= -4797.04369741086     Delta-E=       -0.023386940346 Rises=F Damp=F
 DIIS: error= 3.54D-04 at cycle   5 NSaved=   5.
 NSaved= 5 IEnMin= 5 EnMin= -4797.04369741086     IErMin= 5 ErrMin= 3.54D-04
 ErrMax= 3.54D-04  0.00D+00 EMaxC= 1.00D-01 BMatC= 1.13D-03 BMatP= 2.93D-02
 IDIUse=3 WtCom= 9.96D-01 WtEn= 3.54D-03
 Coeff-Com: -0.120D-01 0.233D-01 0.118D+00 0.258D+00 0.613D+00
 Coeff-En:   0.000D+00 0.000D+00 0.000D+00 0.000D+00 0.100D+01
 Coeff:     -0.120D-01 0.233D-01 0.117D+00 0.257D+00 0.615D+00
 Gap=     0.149 Goal=   None    Shift=    0.000
 RMSDP=2.70D-05 MaxDP=1.30D-02 DE=-2.34D-02 OVMax= 6.76D-03

 Cycle   6  Pass 1  IDiag  1:
 RMSU=  2.04D-05    CP:  9.31D-01  1.02D+00  9.42D-01  7.04D-01  8.13D-01
 E= -4797.04466881081     Delta-E=       -0.000971399953 Rises=F Damp=F
 DIIS: error= 9.50D-05 at cycle   6 NSaved=   6.
 NSaved= 6 IEnMin= 6 EnMin= -4797.04466881081     IErMin= 6 ErrMin= 9.50D-05
 ErrMax= 9.50D-05  0.00D+00 EMaxC= 1.00D-01 BMatC= 8.33D-05 BMatP= 1.13D-03
 IDIUse=1 WtCom= 1.00D+00 WtEn= 0.00D+00
 Coeff-Com: -0.756D-03-0.796D-03 0.174D-01 0.542D-01 0.251D+00 0.679D+00
 Coeff:     -0.756D-03-0.796D-03 0.174D-01 0.542D-01 0.251D+00 0.679D+00
 Gap=     0.150 Goal=   None    Shift=    0.000
 RMSDP=9.29D-06 MaxDP=2.23D-03 DE=-9.71D-04 OVMax= 5.15D-03

 Cycle   7  Pass 1  IDiag  1:
 RMSU=  7.42D-06    CP:  9.31D-01  1.02D+00  9.45D-01  7.04D-01  8.69D-01
                    CP:  1.04D+00
 E= -4797.04475592074     Delta-E=       -0.000087109926 Rises=F Damp=F
 DIIS: error= 2.92D-05 at cycle   7 NSaved=   7.
 NSaved= 7 IEnMin= 7 EnMin= -4797.04475592074     IErMin= 7 ErrMin= 2.92D-05
 ErrMax= 2.92D-05  0.00D+00 EMaxC= 1.00D-01 BMatC= 1.26D-05 BMatP= 8.33D-05
 IDIUse=1 WtCom= 1.00D+00 WtEn= 0.00D+00
 Coeff-Com:  0.141D-02-0.384D-02-0.848D-02-0.125D-01 0.223D-01 0.289D+00
 Coeff-Com:  0.712D+00
 Coeff:      0.141D-02-0.384D-02-0.848D-02-0.125D-01 0.223D-01 0.289D+00
 Coeff:      0.712D+00
 Gap=     0.150 Goal=   None    Shift=    0.000
 RMSDP=4.18D-06 MaxDP=9.02D-04 DE=-8.71D-05 OVMax= 1.39D-03

 Cycle   8  Pass 1  IDiag  1:
 RMSU=  3.14D-06    CP:  9.31D-01  1.02D+00  9.45D-01  7.09D-01  8.89D-01
                    CP:  1.12D+00  1.02D+00
 E= -4797.04477053313     Delta-E=       -0.000014612389 Rises=F Damp=F
 DIIS: error= 2.36D-05 at cycle   8 NSaved=   8.
 NSaved= 8 IEnMin= 8 EnMin= -4797.04477053313     IErMin= 8 ErrMin= 2.36D-05
 ErrMax= 2.36D-05  0.00D+00 EMaxC= 1.00D-01 BMatC= 2.83D-06 BMatP= 1.26D-05
 IDIUse=1 WtCom= 1.00D+00 WtEn= 0.00D+00
 Coeff-Com:  0.818D-03-0.175D-02-0.690D-02-0.154D-01-0.290D-01 0.410D-01
 Coeff-Com:  0.365D+00 0.646D+00
 Coeff:      0.818D-03-0.175D-02-0.690D-02-0.154D-01-0.290D-01 0.410D-01
 Coeff:      0.365D+00 0.646D+00
 Gap=     0.150 Goal=   None    Shift=    0.000
 RMSDP=1.84D-06 MaxDP=4.78D-04 DE=-1.46D-05 OVMax= 1.36D-03

 Cycle   9  Pass 1  IDiag  1:
 RMSU=  1.39D-06    CP:  9.31D-01  1.02D+00  9.45D-01  7.09D-01  8.93D-01
                    CP:  1.15D+00  1.14D+00  8.91D-01
 E= -4797.04477396981     Delta-E=       -0.000003436686 Rises=F Damp=F
 DIIS: error= 1.15D-05 at cycle   9 NSaved=   9.
 NSaved= 9 IEnMin= 9 EnMin= -4797.04477396981     IErMin= 9 ErrMin= 1.15D-05
 ErrMax= 1.15D-05  0.00D+00 EMaxC= 1.00D-01 BMatC= 4.93D-07 BMatP= 2.83D-06
 IDIUse=1 WtCom= 1.00D+00 WtEn= 0.00D+00
 Coeff-Com:  0.221D-03-0.368D-03-0.227D-02-0.611D-02-0.172D-01-0.160D-01
 Coeff-Com:  0.805D-01 0.334D+00 0.627D+00
 Coeff:      0.221D-03-0.368D-03-0.227D-02-0.611D-02-0.172D-01-0.160D-01
 Coeff:      0.805D-01 0.334D+00 0.627D+00
 Gap=     0.150 Goal=   None    Shift=    0.000
 RMSDP=6.98D-07 MaxDP=1.10D-04 DE=-3.44D-06 OVMax= 3.99D-04

 Cycle  10  Pass 1  IDiag  1:
 RMSU=  5.26D-07    CP:  9.31D-01  1.02D+00  9.45D-01  7.09D-01  8.94D-01
                    CP:  1.17D+00  1.15D+00  1.01D+00  1.03D+00
 E= -4797.04477452978     Delta-E=       -0.000000559969 Rises=F Damp=F
 DIIS: error= 5.03D-06 at cycle  10 NSaved=  10.
 NSaved=10 IEnMin=10 EnMin= -4797.04477452978     IErMin=10 ErrMin= 5.03D-06
 ErrMax= 5.03D-06  0.00D+00 EMaxC= 1.00D-01 BMatC= 9.30D-08 BMatP= 4.93D-07
 IDIUse=1 WtCom= 1.00D+00 WtEn= 0.00D+00
 Coeff-Com: -0.743D-04 0.206D-03 0.469D-03 0.473D-03-0.205D-02-0.180D-01
 Coeff-Com: -0.517D-01 0.233D-01 0.329D+00 0.718D+00
 Coeff:     -0.743D-04 0.206D-03 0.469D-03 0.473D-03-0.205D-02-0.180D-01
 Coeff:     -0.517D-01 0.233D-01 0.329D+00 0.718D+00
 Gap=     0.150 Goal=   None    Shift=    0.000
 RMSDP=4.15D-07 MaxDP=6.48D-05 DE=-5.60D-07 OVMax= 2.46D-04

 Cycle  11  Pass 1  IDiag  1:
 RMSU=  2.44D-07    CP:  9.31D-01  1.02D+00  9.45D-01  7.10D-01  8.95D-01
                    CP:  1.17D+00  1.17D+00  1.06D+00  1.20D+00  1.05D+00
 E= -4797.04477466139     Delta-E=       -0.000000131611 Rises=F Damp=F
 DIIS: error= 1.68D-06 at cycle  11 NSaved=  11.
 NSaved=11 IEnMin=11 EnMin= -4797.04477466139     IErMin=11 ErrMin= 1.68D-06
 ErrMax= 1.68D-06  0.00D+00 EMaxC= 1.00D-01 BMatC= 1.27D-08 BMatP= 9.30D-08
 IDIUse=1 WtCom= 1.00D+00 WtEn= 0.00D+00
 Coeff-Com: -0.617D-04 0.142D-03 0.529D-03 0.104D-02 0.138D-02-0.591D-02
 Coeff-Com: -0.355D-01-0.328D-01 0.618D-01 0.336D+00 0.673D+00
 Coeff:     -0.617D-04 0.142D-03 0.529D-03 0.104D-02 0.138D-02-0.591D-02
 Coeff:     -0.355D-01-0.328D-01 0.618D-01 0.336D+00 0.673D+00
 Gap=     0.150 Goal=   None    Shift=    0.000
 RMSDP=1.30D-07 MaxDP=2.43D-05 DE=-1.32D-07 OVMax= 1.02D-04

 Cycle  12  Pass 1  IDiag  1:
 RMSU=  8.17D-08    CP:  9.31D-01  1.02D+00  9.45D-01  7.10D-01  8.95D-01
                    CP:  1.17D+00  1.17D+00  1.07D+00  1.24D+00  1.17D+00
                    CP:  1.02D+00
 E= -4797.04477467754     Delta-E=       -0.000000016149 Rises=F Damp=F
 DIIS: error= 5.44D-07 at cycle  12 NSaved=  12.
 NSaved=12 IEnMin=12 EnMin= -4797.04477467754     IErMin=12 ErrMin= 5.44D-07
 ErrMax= 5.44D-07  0.00D+00 EMaxC= 1.00D-01 BMatC= 2.59D-09 BMatP= 1.27D-08
 IDIUse=1 WtCom= 1.00D+00 WtEn= 0.00D+00
 Coeff-Com: -0.163D-04 0.332D-04 0.180D-03 0.427D-03 0.999D-03 0.133D-03
 Coeff-Com: -0.929D-02-0.193D-01-0.284D-01 0.461D-01 0.349D+00 0.660D+00
 Coeff:     -0.163D-04 0.332D-04 0.180D-03 0.427D-03 0.999D-03 0.133D-03
 Coeff:     -0.929D-02-0.193D-01-0.284D-01 0.461D-01 0.349D+00 0.660D+00
 Gap=     0.150 Goal=   None    Shift=    0.000
 RMSDP=5.71D-08 MaxDP=7.79D-06 DE=-1.61D-08 OVMax= 3.28D-05

 Cycle  13  Pass 1  IDiag  1:
 RMSU=  3.60D-08    CP:  9.31D-01  1.02D+00  9.45D-01  7.10D-01  8.95D-01
                    CP:  1.17D+00  1.17D+00  1.08D+00  1.26D+00  1.20D+00
                    CP:  1.12D+00  9.69D-01
 E= -4797.04477468108     Delta-E=       -0.000000003532 Rises=F Damp=F
 DIIS: error= 2.26D-07 at cycle  13 NSaved=  13.
 NSaved=13 IEnMin=13 EnMin= -4797.04477468108     IErMin=13 ErrMin= 2.26D-07
 ErrMax= 2.26D-07  0.00D+00 EMaxC= 1.00D-01 BMatC= 3.59D-10 BMatP= 2.59D-09
 IDIUse=1 WtCom= 1.00D+00 WtEn= 0.00D+00
 Coeff-Com:  0.166D-05-0.560D-05 0.667D-05 0.468D-04 0.275D-03 0.988D-03
 Coeff-Com:  0.574D-03-0.352D-02-0.233D-01-0.264D-01 0.783D-01 0.320D+00
 Coeff-Com:  0.653D+00
 Coeff:      0.166D-05-0.560D-05 0.667D-05 0.468D-04 0.275D-03 0.988D-03
 Coeff:      0.574D-03-0.352D-02-0.233D-01-0.264D-01 0.783D-01 0.320D+00
 Coeff:      0.653D+00
 Gap=     0.150 Goal=   None    Shift=    0.000
 RMSDP=2.15D-08 MaxDP=6.08D-06 DE=-3.53D-09 OVMax= 1.71D-05

 Cycle  14  Pass 1  IDiag  1:
 RMSU=  1.38D-08    CP:  9.31D-01  1.02D+00  9.45D-01  7.10D-01  8.95D-01
                    CP:  1.17D+00  1.17D+00  1.08D+00  1.26D+00  1.21D+00
                    CP:  1.15D+00  1.09D+00  9.93D-01
 E= -4797.04477468035     Delta-E=        0.000000000720 Rises=F Damp=F
 DIIS: error= 8.08D-08 at cycle  14 NSaved=  14.
 NSaved=14 IEnMin=13 EnMin= -4797.04477468108     IErMin=14 ErrMin= 8.08D-08
 ErrMax= 8.08D-08  0.00D+00 EMaxC= 1.00D-01 BMatC= 6.55D-11 BMatP= 3.59D-10
 IDIUse=1 WtCom= 1.00D+00 WtEn= 0.00D+00
 Coeff-Com:  0.325D-05-0.759D-05-0.270D-04-0.484D-04-0.280D-04 0.468D-03
 Coeff-Com:  0.169D-02 0.173D-02-0.698D-02-0.219D-01-0.255D-01 0.198D-01
 Coeff-Com:  0.311D+00 0.720D+00
 Coeff:      0.325D-05-0.759D-05-0.270D-04-0.484D-04-0.280D-04 0.468D-03
 Coeff:      0.169D-02 0.173D-02-0.698D-02-0.219D-01-0.255D-01 0.198D-01
 Coeff:      0.311D+00 0.720D+00
 Gap=     0.150 Goal=   None    Shift=    0.000
 RMSDP=1.09D-08 MaxDP=2.02D-06 DE= 7.20D-10 OVMax= 6.02D-06

 Cycle  15  Pass 1  IDiag  1:
 RMSU=  6.02D-09    CP:  9.31D-01  1.02D+00  9.45D-01  7.10D-01  8.95D-01
                    CP:  1.17D+00  1.17D+00  1.08D+00  1.26D+00  1.22D+00
                    CP:  1.17D+00  1.12D+00  1.14D+00  1.05D+00
 E= -4797.04477468129     Delta-E=       -0.000000000935 Rises=F Damp=F
 DIIS: error= 3.61D-08 at cycle  15 NSaved=  15.
 NSaved=15 IEnMin=15 EnMin= -4797.04477468129     IErMin=15 ErrMin= 3.61D-08
 ErrMax= 3.61D-08  0.00D+00 EMaxC= 1.00D-01 BMatC= 9.50D-12 BMatP= 6.55D-11
 IDIUse=1 WtCom= 1.00D+00 WtEn= 0.00D+00
 Coeff-Com:  0.110D-05-0.240D-05-0.133D-04-0.288D-04-0.525D-04 0.653D-04
 Coeff-Com:  0.653D-03 0.159D-02 0.599D-03-0.541D-02-0.221D-01-0.419D-01
 Coeff-Com:  0.519D-01 0.334D+00 0.680D+00
 Coeff:      0.110D-05-0.240D-05-0.133D-04-0.288D-04-0.525D-04 0.653D-04
 Coeff:      0.653D-03 0.159D-02 0.599D-03-0.541D-02-0.221D-01-0.419D-01
 Coeff:      0.519D-01 0.334D+00 0.680D+00
 Gap=     0.150 Goal=   None    Shift=    0.000
 RMSDP=4.00D-09 MaxDP=1.05D-06 DE=-9.35D-10 OVMax= 2.69D-06

 Cycle  16  Pass 1  IDiag  1:
 RMSU=  2.79D-09    CP:  9.31D-01  1.02D+00  9.45D-01  7.10D-01  8.95D-01
                    CP:  1.17D+00  1.17D+00  1.08D+00  1.26D+00  1.22D+00
                    CP:  1.17D+00  1.14D+00  1.18D+00  1.18D+00  9.99D-01
 E= -4797.04477468082     Delta-E=        0.000000000469 Rises=F Damp=F
 DIIS: error= 1.30D-08 at cycle  16 NSaved=  16.
 NSaved=16 IEnMin=15 EnMin= -4797.04477468129     IErMin=16 ErrMin= 1.30D-08
 ErrMax= 1.30D-08  0.00D+00 EMaxC= 1.00D-01 BMatC= 1.86D-12 BMatP= 9.50D-12
 IDIUse=1 WtCom= 1.00D+00 WtEn= 0.00D+00
 Coeff-Com: -0.842D-07 0.239D-06-0.155D-05-0.459D-05-0.182D-04-0.541D-04
 Coeff-Com: -0.168D-04 0.468D-03 0.144D-02 0.129D-02-0.538D-02-0.235D-01
 Coeff-Com: -0.305D-01 0.166D-01 0.326D+00 0.714D+00
 Coeff:     -0.842D-07 0.239D-06-0.155D-05-0.459D-05-0.182D-04-0.541D-04
 Coeff:     -0.168D-04 0.468D-03 0.144D-02 0.129D-02-0.538D-02-0.235D-01
 Coeff:     -0.305D-01 0.166D-01 0.326D+00 0.714D+00
 Gap=     0.150 Goal=   None    Shift=    0.000
 RMSDP=1.84D-09 MaxDP=3.57D-07 DE= 4.69D-10 OVMax= 1.30D-06

 Error on total polarization charges =  0.07703
 SCF Done:  E(RM062X) =  -4797.04477468     A.U. after   16 cycles
            NFock= 16  Conv=0.18D-08     -V/T= 2.0044
 KE= 4.775890802570D+03 PE=-4.830958975191D+04 EE= 2.018872528417D+04
 SMD-CDS (non-electrostatic) energy       (kcal/mol) =     -23.63
 (included in total energy above)
 Leave Link  502 at Tue Nov 12 12:59:38 2024, MaxMem= 13421772800 cpu:          284994.2 elap:            8974.9
 (Enter /public/software/apps/Gaussian/g16/l601.exe)
 Copying SCF densities to generalized density rwf, IOpCl= 0 IROHF=0.
 Hyperfine terms turned off by default for NAtoms > 100.

 **********************************************************************

            Population analysis using the SCF Density.

 **********************************************************************

 Orbital symmetries:
       Occupied  (A) (A) (A) (A) (A) (A) (A) (A) (A) (A) (A) (A)
                 (A) (A) (A) (A) (A) (A) (A) (A) (A) (A) (A) (A)
                 (A) (A) (A) (A) (A) (A) (A) (A) (A) (A) (A) (A)
                 (A) (A) (A) (A) (A) (A) (A) (A) (A) (A) (A) (A)
                 (A) (A) (A) (A) (A) (A) (A) (A) (A) (A) (A) (A)
                 (A) (A) (A) (A) (A) (A) (A) (A) (A) (A) (A) (A)
                 (A) (A) (A) (A) (A) (A) (A) (A) (A) (A) (A) (A)
                 (A) (A) (A) (A) (A) (A) (A) (A) (A) (A) (A) (A)
                 (A) (A) (A) (A) (A) (A) (A) (A) (A) (A) (A) (A)
                 (A) (A) (A) (A) (A) (A) (A) (A) (A) (A) (A) (A)
                 (A) (A) (A) (A) (A) (A) (A) (A) (A) (A) (A) (A)
                 (A) (A) (A) (A) (A) (A) (A) (A) (A) (A) (A) (A)
                 (A) (A) (A) (A) (A) (A) (A) (A) (A) (A) (A) (A)
                 (A) (A) (A) (A) (A) (A) (A) (A) (A) (A) (A) (A)
                 (A) (A) (A) (A) (A) (A) (A) (A) (A) (A) (A) (A)
                 (A) (A) (A) (A) (A) (A) (A) (A) (A) (A) (A) (A)
                 (A) (A) (A) (A) (A) (A) (A) (A) (A) (A) (A) (A)
                 (A) (A) (A) (A) (A) (A) (A) (A) (A) (A) (A) (A)
                 (A) (A) (A) (A) (A) (A) (A) (A) (A) (A) (A) (A)
                 (A) (A) (A) (A) (A) (A) (A) (A) (A) (A) (A) (A)
                 (A) (A) (A) (A) (A) (A) (A) (A) (A) (A) (A) (A)
                 (A) (A) (A) (A) (A) (A) (A) (A) (A) (A) (A) (A)
                 (A) (A) (A) (A) (A) (A) (A) (A) (A) (A) (A) (A)
                 (A) (A) (A) (A) (A) (A) (A) (A) (A) (A) (A) (A)
                 (A) (A) (A) (A) (A) (A) (A) (A) (A) (A) (A) (A)
                 (A) (A) (A) (A) (A) (A) (A) (A) (A) (A) (A) (A)
                 (A) (A) (A) (A) (A) (A) (A) (A) (A) (A) (A) (A)
       Virtual   (A) (A) (A) (A) (A) (A) (A) (A) (A) (A) (A) (A)
                 (A) (A) (A) (A) (A) (A) (A) (A) (A) (A) (A) (A)
                 (A) (A) (A) (A) (A) (A) (A) (A) (A) (A) (A) (A)
                 (A) (A) (A) (A) (A) (A) (A) (A) (A) (A) (A) (A)
                 (A) (A) (A) (A) (A) (A) (A) (A) (A) (A) (A) (A)
                 (A) (A) (A) (A) (A) (A) (A) (A) (A) (A) (A) (A)
                 (A) (A) (A) (A) (A) (A) (A) (A) (A) (A) (A) (A)
                 (A) (A) (A) (A) (A) (A) (A) (A) (A) (A) (A) (A)
                 (A) (A) (A) (A) (A) (A) (A) (A) (A) (A) (A) (A)
                 (A) (A) (A) (A) (A) (A) (A) (A) (A) (A) (A) (A)
                 (A) (A) (A) (A) (A) (A) (A) (A) (A) (A) (A) (A)
                 (A) (A) (A) (A) (A) (A) (A) (A) (A) (A) (A) (A)
                 (A) (A) (A) (A) (A) (A) (A) (A) (A) (A) (A) (A)
                 (A) (A) (A) (A) (A) (A) (A) (A) (A) (A) (A) (A)
                 (A) (A) (A) (A) (A) (A) (A) (A) (A) (A) (A) (A)
                 (A) (A) (A) (A) (A) (A) (A) (A) (A) (A) (A) (A)
                 (A) (A) (A) (A) (A) (A) (A) (A) (A) (A) (A) (A)
                 (A) (A) (A) (A) (A) (A) (A) (A) (A) (A) (A) (A)
                 (A) (A) (A) (A) (A) (A) (A) (A) (A) (A) (A) (A)
                 (A) (A) (A) (A) (A) (A) (A) (A) (A) (A) (A) (A)
                 (A) (A) (A) (A) (A) (A) (A) (A) (A) (A) (A) (A)
                 (A) (A) (A) (A) (A) (A) (A) (A) (A) (A) (A) (A)
                 (A) (A) (A) (A) (A) (A) (A) (A) (A) (A) (A) (A)
                 (A) (A) (A) (A) (A) (A) (A) (A) (A) (A) (A) (A)
                 (A) (A) (A) (A) (A) (A) (A) (A) (A) (A) (A) (A)
                 (A) (A) (A) (A) (A) (A) (A) (A) (A) (A) (A) (A)
                 (A) (A) (A) (A) (A) (A) (A) (A) (A) (A) (A) (A)
                 (A) (A) (A) (A) (A) (A) (A) (A) (A) (A) (A) (A)
                 (A) (A) (A) (A) (A) (A) (A) (A) (A) (A) (A) (A)
                 (A) (A) (A) (A) (A) (A) (A) (A) (A) (A) (A) (A)
                 (A) (A) (A) (A) (A) (A) (A) (A) (A) (A) (A) (A)
                 (A) (A) (A) (A) (A) (A) (A) (A) (A) (A) (A) (A)
                 (A) (A) (A) (A) (A) (A) (A) (A) (A) (A) (A) (A)
                 (A) (A) (A) (A) (A) (A) (A) (A) (A) (A) (A) (A)
                 (A) (A) (A) (A) (A) (A) (A) (A) (A) (A) (A) (A)
                 (A) (A) (A) (A) (A) (A) (A) (A) (A) (A) (A) (A)
                 (A) (A) (A) (A) (A) (A) (A) (A) (A) (A) (A) (A)
                 (A) (A) (A) (A) (A) (A) (A) (A) (A) (A) (A) (A)
                 (A) (A) (A) (A) (A) (A) (A) (A) (A) (A) (A) (A)
                 (A) (A) (A) (A) (A) (A) (A) (A) (A) (A) (A) (A)
                 (A) (A) (A) (A) (A) (A) (A) (A) (A) (A) (A) (A)
                 (A) (A) (A) (A) (A) (A) (A) (A) (A) (A) (A) (A)
                 (A) (A) (A) (A) (A) (A) (A) (A) (A) (A) (A) (A)
                 (A) (A) (A) (A) (A) (A) (A) (A) (A) (A) (A) (A)
                 (A) (A) (A) (A) (A) (A) (A) (A) (A) (A) (A) (A)
                 (A) (A) (A) (A) (A) (A) (A) (A) (A) (A) (A) (A)
                 (A) (A) (A) (A) (A) (A) (A) (A) (A) (A) (A) (A)
                 (A) (A) (A) (A) (A) (A) (A) (A) (A) (A) (A) (A)
                 (A) (A) (A) (A) (A) (A) (A) (A) (A) (A) (A) (A)
                 (A) (A) (A) (A) (A) (A) (A) (A) (A) (A) (A) (A)
                 (A) (A) (A) (A) (A) (A) (A) (A) (A) (A) (A) (A)
                 (A) (A) (A) (A) (A) (A) (A) (A) (A) (A) (A) (A)
                 (A) (A) (A) (A) (A) (A) (A) (A) (A) (A) (A) (A)
                 (A) (A) (A) (A) (A) (A) (A) (A) (A) (A) (A) (A)
                 (A) (A) (A) (A) (A) (A) (A) (A) (A) (A) (A) (A)
                 (A) (A) (A) (A) (A) (A) (A) (A) (A) (A) (A) (A)
                 (A) (A) (A) (A) (A) (A) (A) (A) (A) (A) (A) (A)
                 (A) (A) (A) (A) (A) (A) (A) (A) (A) (A) (A) (A)
                 (A) (A) (A) (A) (A) (A) (A) (A) (A) (A) (A) (A)
                 (A) (A) (A) (A) (A) (A) (A) (A) (A) (A) (A) (A)
                 (A) (A) (A) (A) (A) (A) (A) (A) (A) (A) (A) (A)
                 (A) (A) (A) (A) (A) (A) (A) (A) (A) (A) (A) (A)
                 (A) (A) (A) (A) (A) (A) (A) (A) (A) (A) (A) (A)
                 (A) (A) (A) (A) (A) (A) (A) (A) (A) (A) (A) (A)
                 (A) (A) (A) (A) (A) (A) (A) (A) (A) (A) (A) (A)
                 (A) (A) (A) (A) (A) (A) (A) (A) (A) (A) (A) (A)
                 (A) (A) (A) (A) (A) (A) (A) (A) (A) (A) (A) (A)
                 (A) (A) (A) (A) (A) (A) (A) (A) (A) (A) (A) (A)
                 (A) (A) (A) (A) (A) (A) (A) (A) (A) (A) (A) (A)
                 (A) (A) (A) (A) (A) (A) (A) (A) (A) (A) (A) (A)
                 (A) (A) (A) (A) (A) (A) (A) (A) (A) (A) (A) (A)
                 (A) (A) (A) (A) (A) (A) (A) (A) (A) (A) (A) (A)
                 (A) (A) (A) (A) (A) (A) (A) (A) (A) (A) (A) (A)
                 (A) (A) (A) (A) (A) (A) (A) (A) (A) (A) (A) (A)
                 (A) (A) (A) (A) (A) (A) (A) (A) (A) (A) (A) (A)
                 (A) (A) (A) (A) (A) (A) (A) (A) (A) (A) (A) (A)
                 (A) (A) (A) (A) (A) (A) (A) (A) (A) (A) (A) (A)
                 (A) (A) (A) (A) (A) (A) (A) (A) (A) (A) (A) (A)
                 (A) (A) (A) (A) (A) (A) (A) (A) (A) (A) (A) (A)
                 (A) (A) (A) (A) (A) (A) (A) (A) (A) (A) (A) (A)
                 (A) (A) (A) (A) (A) (A) (A) (A) (A) (A) (A) (A)
                 (A) (A) (A) (A) (A) (A) (A) (A) (A) (A) (A) (A)
                 (A) (A) (A) (A) (A) (A) (A) (A) (A) (A) (A) (A)
                 (A) (A) (A) (A) (A) (A) (A) (A) (A) (A) (A) (A)
                 (A) (A) (A) (A) (A) (A) (A) (A) (A) (A) (A) (A)
                 (A) (A) (A) (A) (A) (A) (A) (A) (A) (A) (A) (A)
                 (A) (A) (A) (A) (A) (A) (A) (A) (A) (A) (A) (A)
                 (A) (A) (A) (A) (A) (A) (A) (A) (A) (A) (A) (A)
                 (A) (A) (A) (A) (A) (A) (A) (A) (A) (A) (A) (A)
                 (A) (A) (A) (A) (A) (A) (A) (A) (A) (A) (A) (A)
                 (A) (A) (A) (A) (A) (A) (A) (A) (A) (A) (A) (A)
                 (A) (A) (A) (A) (A) (A) (A) (A) (A) (A) (A) (A)
                 (A) (A) (A) (A) (A) (A) (A) (A) (A) (A) (A) (A)
                 (A) (A) (A) (A) (A) (A) (A) (A) (A) (A) (A) (A)
                 (A) (A) (A) (A) (A) (A) (A) (A) (A) (A) (A) (A)
                 (A) (A) (A) (A) (A) (A) (A) (A) (A) (A) (A) (A)
                 (A) (A) (A) (A) (A) (A) (A) (A) (A) (A) (A) (A)
                 (A) (A) (A) (A) (A) (A) (A) (A) (A) (A) (A) (A)
                 (A) (A) (A) (A) (A) (A) (A) (A) (A) (A) (A) (A)
                 (A) (A) (A) (A) (A) (A) (A) (A) (A) (A) (A) (A)
                 (A) (A) (A) (A) (A) (A) (A) (A) (A) (A) (A) (A)
                 (A) (A) (A) (A) (A) (A) (A) (A) (A) (A) (A) (A)
                 (A) (A) (A) (A) (A) (A) (A) (A) (A) (A) (A) (A)
                 (A) (A) (A) (A) (A) (A) (A) (A) (A) (A) (A) (A)
                 (A) (A) (A) (A) (A) (A) (A) (A) (A) (A) (A) (A)
                 (A) (A) (A) (A) (A) (A) (A) (A) (A) (A) (A) (A)
                 (A) (A) (A) (A) (A) (A) (A) (A) (A) (A) (A) (A)
                 (A) (A) (A) (A) (A) (A) (A) (A) (A) (A) (A) (A)
                 (A) (A) (A) (A) (A) (A) (A) (A) (A) (A) (A) (A)
                 (A) (A) (A) (A) (A) (A) (A) (A) (A) (A) (A) (A)
                 (A) (A) (A) (A) (A) (A) (A) (A) (A) (A) (A) (A)
                 (A) (A) (A) (A) (A) (A) (A) (A) (A) (A) (A) (A)
                 (A) (A) (A) (A) (A) (A) (A) (A) (A) (A) (A) (A)
                 (A) (A) (A) (A) (A) (A) (A) (A) (A) (A) (A) (A)
                 (A) (A) (A) (A) (A) (A) (A) (A) (A) (A) (A) (A)
                 (A) (A) (A) (A) (A) (A) (A) (A) (A) (A) (A) (A)
                 (A) (A) (A) (A) (A) (A) (A) (A) (A) (A) (A) (A)
                 (A) (A) (A) (A) (A) (A) (A) (A) (A) (A) (A) (A)
                 (A) (A) (A) (A) (A) (A) (A) (A) (A) (A) (A) (A)
                 (A) (A) (A) (A) (A) (A) (A) (A) (A) (A) (A) (A)
                 (A) (A) (A) (A) (A) (A) (A) (A) (A) (A) (A) (A)
                 (A) (A) (A) (A) (A) (A) (A) (A) (A) (A) (A) (A)
                 (A) (A) (A) (A) (A) (A) (A) (A) (A) (A) (A) (A)
                 (A) (A) (A) (A) (A) (A) (A) (A) (A) (A) (A) (A)
                 (A) (A) (A) (A) (A) (A) (A) (A) (A) (A) (A) (A)
                 (A) (A) (A) (A) (A) (A) (A) (A) (A) (A) (A) (A)
                 (A) (A) (A) (A) (A) (A) (A) (A) (A) (A) (A) (A)
                 (A) (A) (A) (A) (A) (A) (A) (A) (A) (A) (A) (A)
                 (A) (A) (A) (A) (A) (A) (A) (A) (A) (A) (A) (A)
                 (A) (A) (A) (A) (A) (A) (A) (A) (A) (A) (A) (A)
                 (A) (A) (A) (A) (A) (A) (A) (A) (A) (A) (A) (A)
                 (A) (A) (A) (A) (A) (A) (A) (A) (A) (A) (A) (A)
                 (A) (A) (A) (A) (A) (A) (A) (A) (A) (A) (A) (A)
                 (A) (A) (A) (A) (A) (A) (A) (A) (A) (A) (A) (A)
                 (A) (A) (A) (A) (A) (A) (A) (A) (A) (A) (A) (A)
                 (A) (A) (A) (A) (A) (A) (A) (A) (A) (A) (A) (A)
                 (A) (A) (A) (A) (A) (A) (A) (A) (A) (A) (A) (A)
                 (A) (A) (A) (A) (A) (A) (A) (A) (A) (A) (A) (A)
                 (A) (A) (A) (A) (A) (A) (A) (A) (A) (A) (A) (A)
                 (A) (A) (A) (A) (A) (A) (A) (A) (A) (A) (A) (A)
                 (A) (A) (A) (A) (A) (A) (A) (A) (A) (A) (A) (A)
                 (A) (A) (A) (A) (A) (A) (A) (A) (A) (A) (A) (A)
                 (A) (A) (A) (A) (A) (A) (A) (A) (A) (A) (A) (A)
                 (A) (A) (A) (A) (A) (A) (A) (A) (A) (A) (A) (A)
                 (A) (A) (A) (A) (A) (A) (A) (A) (A) (A) (A) (A)
                 (A) (A) (A) (A) (A) (A) (A) (A) (A) (A) (A) (A)
                 (A) (A) (A) (A) (A) (A) (A) (A) (A) (A) (A) (A)
                 (A) (A) (A) (A) (A) (A) (A) (A) (A) (A) (A) (A)
                 (A) (A) (A) (A) (A) (A) (A) (A) (A) (A) (A) (A)
                 (A) (A) (A) (A) (A) (A) (A) (A) (A) (A) (A) (A)
                 (A) (A) (A) (A) (A) (A) (A) (A) (A) (A) (A) (A)
                 (A) (A) (A) (A) (A) (A) (A) (A) (A) (A) (A) (A)
                 (A) (A) (A) (A) (A) (A) (A) (A) (A) (A) (A) (A)
                 (A) (A) (A) (A) (A) (A) (A) (A) (A) (A) (A) (A)
                 (A) (A) (A) (A) (A) (A) (A) (A) (A) (A) (A) (A)
                 (A) (A) (A) (A) (A) (A) (A) (A) (A) (A) (A) (A)
                 (A) (A) (A) (A) (A) (A) (A) (A) (A) (A) (A) (A)
                 (A) (A) (A) (A) (A) (A) (A) (A) (A) (A) (A) (A)
                 (A) (A) (A) (A) (A) (A) (A) (A) (A) (A) (A) (A)
                 (A) (A) (A) (A) (A) (A) (A) (A) (A) (A) (A) (A)
                 (A) (A) (A) (A) (A) (A) (A) (A) (A) (A) (A) (A)
                 (A) (A) (A) (A) (A) (A) (A) (A) (A) (A) (A) (A)
                 (A) (A) (A) (A) (A) (A) (A) (A) (A) (A) (A) (A)
                 (A) (A) (A) (A) (A) (A) (A) (A) (A) (A) (A) (A)
                 (A) (A) (A) (A) (A) (A) (A) (A) (A) (A) (A) (A)
                 (A) (A) (A) (A) (A) (A) (A) (A) (A) (A) (A) (A)
                 (A) (A) (A) (A) (A) (A) (A) (A) (A) (A) (A) (A)
                 (A) (A) (A) (A) (A) (A) (A) (A) (A) (A) (A) (A)
                 (A) (A) (A) (A) (A) (A) (A) (A) (A) (A) (A) (A)
                 (A) (A) (A) (A) (A) (A) (A) (A) (A) (A) (A) (A)
                 (A) (A) (A) (A) (A) (A) (A) (A) (A) (A) (A) (A)
                 (A) (A) (A) (A) (A) (A) (A) (A) (A) (A) (A) (A)
                 (A) (A) (A) (A) (A) (A) (A) (A) (A) (A) (A) (A)
                 (A) (A) (A) (A) (A) (A) (A) (A) (A) (A) (A) (A)
                 (A) (A) (A) (A) (A) (A) (A) (A) (A) (A) (A) (A)
                 (A) (A) (A) (A) (A) (A) (A) (A) (A) (A) (A) (A)
                 (A) (A) (A) (A) (A) (A) (A) (A) (A) (A) (A) (A)
                 (A) (A) (A) (A) (A) (A) (A) (A) (A) (A) (A) (A)
                 (A) (A) (A) (A) (A) (A) (A) (A) (A) (A) (A) (A)
                 (A) (A) (A) (A) (A) (A) (A) (A) (A) (A) (A) (A)
                 (A) (A) (A) (A) (A) (A) (A) (A) (A) (A) (A) (A)
                 (A) (A) (A) (A) (A) (A) (A) (A) (A) (A) (A) (A)
                 (A) (A) (A) (A) (A) (A) (A) (A) (A) (A) (A) (A)
                 (A) (A) (A) (A) (A) (A) (A) (A) (A) (A) (A) (A)
                 (A) (A) (A) (A) (A) (A) (A) (A) (A) (A) (A) (A)
                 (A) (A) (A) (A) (A) (A) (A) (A) (A) (A) (A) (A)
                 (A) (A) (A) (A) (A) (A) (A) (A) (A) (A) (A) (A)
                 (A) (A) (A) (A) (A) (A) (A) (A) (A) (A) (A) (A)
                 (A) (A) (A) (A) (A) (A) (A) (A) (A) (A) (A) (A)
                 (A) (A) (A) (A) (A) (A) (A) (A) (A) (A) (A) (A)
                 (A) (A) (A) (A) (A) (A) (A) (A) (A) (A) (A) (A)
                 (A) (A) (A) (A) (A) (A) (A) (A) (A) (A) (A) (A)
                 (A) (A) (A) (A) (A) (A) (A) (A) (A) (A) (A) (A)
                 (A) (A) (A) (A) (A) (A) (A) (A) (A) (A) (A) (A)
                 (A) (A) (A) (A) (A) (A) (A) (A) (A) (A) (A) (A)
                 (A) (A) (A) (A) (A) (A) (A) (A) (A) (A) (A) (A)
                 (A) (A) (A) (A) (A) (A) (A) (A) (A) (A) (A) (A)
                 (A) (A) (A) (A) (A) (A) (A) (A) (A) (A) (A) (A)
                 (A) (A) (A) (A) (A) (A) (A) (A) (A) (A) (A) (A)
                 (A) (A) (A) (A) (A) (A) (A) (A) (A) (A) (A) (A)
                 (A) (A) (A) (A) (A) (A) (A) (A) (A) (A) (A) (A)
                 (A) (A) (A) (A) (A) (A) (A) (A) (A) (A) (A) (A)
                 (A) (A) (A) (A) (A) (A) (A) (A) (A) (A) (A) (A)
                 (A) (A) (A) (A) (A) (A) (A) (A) (A) (A) (A) (A)
                 (A) (A) (A) (A) (A) (A) (A) (A) (A) (A) (A) (A)
                 (A) (A) (A) (A) (A) (A) (A) (A) (A) (A) (A) (A)
                 (A) (A) (A) (A) (A) (A) (A) (A) (A) (A) (A) (A)
                 (A) (A) (A) (A) (A) (A) (A) (A) (A) (A) (A) (A)
                 (A) (A) (A) (A) (A) (A) (A) (A) (A) (A) (A) (A)
                 (A) (A) (A) (A) (A) (A) (A) (A) (A) (A) (A) (A)
                 (A) (A) (A) (A) (A) (A) (A) (A) (A) (A) (A) (A)
                 (A) (A) (A) (A) (A) (A) (A) (A) (A) (A) (A) (A)
                 (A) (A) (A) (A) (A) (A) (A) (A) (A) (A) (A) (A)
                 (A) (A) (A) (A) (A) (A) (A) (A) (A) (A) (A) (A)
                 (A) (A) (A) (A) (A) (A) (A) (A) (A) (A) (A) (A)
                 (A) (A) (A) (A) (A) (A) (A) (A) (A) (A) (A) (A)
                 (A) (A) (A) (A) (A) (A) (A) (A) (A) (A) (A) (A)
                 (A) (A) (A) (A) (A) (A) (A) (A) (A) (A) (A) (A)
                 (A) (A) (A) (A) (A) (A) (A) (A) (A) (A) (A) (A)
                 (A) (A) (A) (A) (A) (A) (A) (A) (A) (A) (A) (A)
                 (A) (A) (A) (A) (A) (A) (A) (A) (A) (A) (A) (A)
                 (A) (A) (A) (A) (A) (A) (A) (A) (A) (A) (A) (A)
                 (A) (A) (A) (A) (A) (A) (A) (A) (A) (A) (A) (A)
                 (A) (A) (A) (A) (A) (A) (A) (A) (A) (A) (A) (A)
                 (A) (A) (A) (A) (A) (A) (A) (A) (A) (A) (A) (A)
                 (A) (A) (A) (A) (A) (A) (A) (A) (A) (A) (A) (A)
                 (A) (A) (A) (A) (A) (A) (A) (A) (A) (A) (A) (A)
                 (A) (A) (A) (A) (A) (A) (A) (A) (A) (A) (A) (A)
                 (A) (A) (A) (A) (A) (A) (A) (A) (A) (A) (A) (A)
                 (A) (A) (A) (A) (A) (A) (A) (A) (A) (A) (A) (A)
                 (A) (A) (A) (A) (A) (A) (A) (A) (A) (A) (A) (A)
                 (A) (A) (A) (A) (A) (A) (A) (A) (A) (A) (A) (A)
                 (A) (A) (A) (A) (A) (A) (A) (A) (A) (A) (A) (A)
                 (A) (A) (A) (A) (A) (A) (A) (A) (A) (A) (A) (A)
                 (A) (A) (A) (A) (A) (A) (A) (A) (A) (A) (A) (A)
                 (A) (A) (A) (A) (A) (A) (A) (A) (A) (A) (A) (A)
                 (A) (A) (A) (A) (A) (A)
 The electronic state is 1-A.
 Alpha  occ. eigenvalues -- -102.66309-102.64031 -25.26677 -25.26336 -25.26053
 Alpha  occ. eigenvalues --  -19.69803 -19.65843 -19.65309 -19.65140 -19.59611
 Alpha  occ. eigenvalues --  -14.98636 -14.87885 -14.79951 -14.77588 -14.77564
 Alpha  occ. eigenvalues --  -14.75512 -14.74001 -10.77875 -10.68057 -10.67083
 Alpha  occ. eigenvalues --  -10.64826 -10.64732 -10.62945 -10.61153 -10.61029
 Alpha  occ. eigenvalues --  -10.60789 -10.59925 -10.59815 -10.59224 -10.58965
 Alpha  occ. eigenvalues --  -10.58796 -10.58248 -10.58110 -10.58105 -10.57925
 Alpha  occ. eigenvalues --  -10.57576 -10.57491 -10.57403 -10.57388 -10.57081
 Alpha  occ. eigenvalues --  -10.56844 -10.56567 -10.56409 -10.56303 -10.56246
 Alpha  occ. eigenvalues --  -10.56210 -10.55917 -10.55881 -10.55881 -10.55861
 Alpha  occ. eigenvalues --  -10.55824 -10.55801 -10.55739 -10.55737 -10.55725
 Alpha  occ. eigenvalues --  -10.55671 -10.55598 -10.55566 -10.55536 -10.55495
 Alpha  occ. eigenvalues --  -10.55442 -10.55415 -10.55329 -10.55275 -10.55253
 Alpha  occ. eigenvalues --  -10.55143 -10.55141 -10.55089 -10.55035 -10.55026
 Alpha  occ. eigenvalues --  -10.55000 -10.54828 -10.54819 -10.54810 -10.54791
 Alpha  occ. eigenvalues --  -10.54710 -10.54710 -10.54706 -10.54566 -10.54432
 Alpha  occ. eigenvalues --  -10.54426 -10.54387 -10.54357 -10.54328 -10.54326
 Alpha  occ. eigenvalues --  -10.54217 -10.53919 -10.52875 -10.52631 -10.51806
 Alpha  occ. eigenvalues --   -9.82576  -9.80274  -7.54767  -7.54273  -7.54223
 Alpha  occ. eigenvalues --   -7.52468  -7.51965  -7.51954  -1.44232  -1.35499
[...]
 Alpha virt. eigenvalues --    4.53168   4.53234   4.53757   4.54010   4.54322
 Alpha virt. eigenvalues --    4.54658   4.54938   4.55764   4.56411   4.56487
 Alpha virt. eigenvalues --    4.56763   4.56951   4.57411   4.57878   4.58296
 Alpha virt. eigenvalues --    4.58393   4.58448   4.58720   4.59003   4.59606
 Alpha virt. eigenvalues --    4.59948   4.60447   4.60650   4.61139   4.61571
 Alpha virt. eigenvalues --    4.61961   4.62071   4.62990   4.63664   4.64208
 Alpha virt. eigenvalues --    4.64798   4.65280   4.65750   4.65930   4.66317
 Alpha virt. eigenvalues --    4.66716   4.67023   4.67354   4.68065   4.68270
 Alpha virt. eigenvalues --    4.68616   4.68774   4.68999   4.69309   4.70048
 Alpha virt. eigenvalues --    4.70510   4.70955   4.71489   4.71880   4.72142
 Alpha virt. eigenvalues --    4.72872   4.73638   4.73932   4.74151   4.74660
 Alpha virt. eigenvalues --    4.75030   4.75515   4.75793   4.75897   4.76466
 Alpha virt. eigenvalues --    4.76841   4.77210   4.77558   4.78034   4.78122
 Alpha virt. eigenvalues --    4.79214   4.79593   4.79908   4.80232   4.80388
 Alpha virt. eigenvalues --    4.80958   4.81098   4.81494   4.82180   4.82600
 Alpha virt. eigenvalues --    4.82970   4.83325   4.83494   4.83776   4.84070
 Alpha virt. eigenvalues --    4.85170   4.85639   4.86032   4.86305   4.86377
 Alpha virt. eigenvalues --    4.86456   4.87034   4.87349   4.87447   4.88306
 Alpha virt. eigenvalues --    4.88588   4.88859   4.89482   4.89506   4.90044
 Alpha virt. eigenvalues --    4.90326   4.91207   4.91635   4.91818   4.92319
 Alpha virt. eigenvalues --    4.92919   4.93548   4.93984   4.94216   4.94582
 Alpha virt. eigenvalues --    4.94810   4.95259   4.95499   4.95636   4.96184
 Alpha virt. eigenvalues --    4.96548   4.97219   4.98065   4.98368   4.99056
 Alpha virt. eigenvalues --    4.99734   5.00527   5.00605   5.01401   5.01811
 Alpha virt. eigenvalues --    5.02581   5.02862   5.03947   5.04223   5.04817
 Alpha virt. eigenvalues --    5.04986   5.05374   5.06296   5.06704   5.07125
 Alpha virt. eigenvalues --    5.07436   5.08114   5.09031   5.09655   5.09923
 Alpha virt. eigenvalues --    5.10338   5.10723   5.11199   5.11405   5.11805
 Alpha virt. eigenvalues --    5.12223   5.12829   5.13109   5.13861   5.14097
 Alpha virt. eigenvalues --    5.14221   5.14502   5.15180   5.15435   5.15739
 Alpha virt. eigenvalues --    5.15886   5.16537   5.16658   5.17647   5.17867
 Alpha virt. eigenvalues --    5.18212   5.19343   5.19435   5.19647   5.19991
 Alpha virt. eigenvalues --    5.21611   5.21691   5.21914   5.22611   5.23265
 Alpha virt. eigenvalues --    5.23483   5.23641   5.24287   5.25453   5.25633
 Alpha virt. eigenvalues --    5.26314   5.26965   5.27181   5.28175   5.28894
 Alpha virt. eigenvalues --    5.29990   5.31258   5.31819   5.32052   5.32371
 Alpha virt. eigenvalues --    5.32913   5.32997   5.33429   5.33806   5.34171
 Alpha virt. eigenvalues --    5.34533   5.34849   5.35588   5.36194   5.36621
 Alpha virt. eigenvalues --    5.37149   5.37580   5.37911   5.38770   5.38885
 Alpha virt. eigenvalues --    5.39214   5.40284   5.41154   5.41433   5.41667
 Alpha virt. eigenvalues --    5.42310   5.43058   5.43200   5.43307   5.44324
 Alpha virt. eigenvalues --    5.44559   5.45197   5.45585   5.46993   5.47913
 Alpha virt. eigenvalues --    5.48035   5.48417   5.49256   5.50300   5.50456
 Alpha virt. eigenvalues --    5.50542   5.51871   5.53194   5.54111   5.54313
 Alpha virt. eigenvalues --    5.55615   5.55874   5.56582   5.57725   5.59088
 Alpha virt. eigenvalues --    5.60030   5.60948   5.61968   5.62047   5.63393
 Alpha virt. eigenvalues --    5.64637   5.65515   5.65623   5.65945   5.67748
 Alpha virt. eigenvalues --    5.70670   5.70973   5.71405   5.72690   5.72919
 Alpha virt. eigenvalues --    5.73723   5.77248   5.77702   5.78066   5.79311
 Alpha virt. eigenvalues --    5.80712   5.81315   5.82282   5.82979   5.84191
 Alpha virt. eigenvalues --    5.85656   5.88372   5.89232   5.92586   5.93639
 Alpha virt. eigenvalues --    5.94994   5.95408   5.95691   5.97758   6.00171
 Alpha virt. eigenvalues --    6.00674   6.02790   6.03745   6.08361   6.08685
 Alpha virt. eigenvalues --    6.08933   6.12202   6.14419   6.18811   6.25096
 Alpha virt. eigenvalues --    6.30052   6.31941   6.32349   6.33881   6.36351
 Alpha virt. eigenvalues --    6.41236   6.41494   6.44306   6.46186   6.49272
 Alpha virt. eigenvalues --    6.50436   6.65314   6.67847   6.70394   6.70945
 Alpha virt. eigenvalues --    6.72441   6.74125   6.82607   6.84600   6.85908
 Alpha virt. eigenvalues --    6.86626   6.89568   6.89982   6.90282   6.90393
 Alpha virt. eigenvalues --    6.90553   6.91049   6.91217   6.91438   6.91734
 Alpha virt. eigenvalues --    6.92136   6.93110   6.93757   7.01954   7.02887
 Alpha virt. eigenvalues --    7.03783   7.05223   7.09944   7.11188   7.11920
 Alpha virt. eigenvalues --    7.15373   7.16698   7.18833   7.23248   7.33748
 Alpha virt. eigenvalues --    7.34205   7.34836   7.35546   7.37420   7.40899
 Alpha virt. eigenvalues --    7.41933   7.46574   7.51785   7.52164   7.57467
 Alpha virt. eigenvalues --    7.57559   7.58532   8.34849   8.36714   8.37795
 Alpha virt. eigenvalues --    8.50968   8.52266   8.59709   8.69751   8.76570
 Alpha virt. eigenvalues --    8.77882   8.90681   8.96742   9.06474   9.12607
 Alpha virt. eigenvalues --    9.16152   9.19674  10.82345  10.85552  10.89708
 Alpha virt. eigenvalues --   10.91643  11.40801  11.43828  22.23848  22.34535
 Alpha virt. eigenvalues --   22.36782  22.39181  22.41721  22.45513  22.54573
 Alpha virt. eigenvalues --   22.58122  22.59227  22.65954  22.67967  22.69654
 Alpha virt. eigenvalues --   22.69825  22.70990  22.71359  22.72591  22.74267
 Alpha virt. eigenvalues --   22.74420  22.76002  22.76207  22.77002  22.78869
 Alpha virt. eigenvalues --   22.81667  22.82456  22.84343  22.85475  22.86158
 Alpha virt. eigenvalues --   22.86664  22.87358  22.88084  22.88346  22.88388
 Alpha virt. eigenvalues --   22.88877  22.89318  22.90451  22.91017  22.91556
 Alpha virt. eigenvalues --   22.92120  22.92552  22.93399  22.93807  22.94414
 Alpha virt. eigenvalues --   22.95522  22.97063  22.97785  23.00362  23.02572
 Alpha virt. eigenvalues --   23.02897  23.06806  23.07309  23.09061  23.09842
 Alpha virt. eigenvalues --   23.10520  23.11074  23.14878  23.15726  23.18129
 Alpha virt. eigenvalues --   23.18834  23.19709  23.21588  23.22767  23.28436
 Alpha virt. eigenvalues --   23.29860  23.33674  23.35518  23.36990  23.42872
 Alpha virt. eigenvalues --   23.44921  23.47239  23.54768  23.56214  23.66033
 Alpha virt. eigenvalues --   23.94698  25.96893  26.09090  32.63335  32.64385
 Alpha virt. eigenvalues --   32.73930  32.98127  33.03978  33.17846  33.23473
 Alpha virt. eigenvalues --   44.23713  44.30699  44.57971  44.59354  44.81560
 Alpha virt. eigenvalues --   57.49257  57.63075  57.77925
          Condensed to atoms (all electrons):
 Mulliken charges:
               1
     1  C   -0.301751
     2  C   -0.138702
     3  N   -0.233812
     4  N   -0.314573
     5  N   -0.245571
     6  C   -0.351406
     7  C   -0.338484
     8  C    0.003443
     9  C   -0.032225
    10  C   -0.396783
    11  C   -0.560343
    12  C   -0.009186
    13  C   -0.230813
    14  C   -0.186337
    15  C   -0.303411
    16  C   -0.699042
    17  C    0.236699
    18  C    0.016668
    19  C   -0.087365
    20  C   -0.121493
    21  C   -0.189694
    22  C   -0.215462
    23  C    0.118118
    24  C   -0.218551
    25  C    0.116898
    26  C   -0.212369
    27  C   -0.170532
    28  C   -0.165906
    29  C   -0.213946
    30  C    0.073084
    31  C    0.160702
    32  C   -0.180768
    33  C   -0.098445
    34  C    0.112505
    35  C   -0.234989
    36  C   -0.190884
    37  C    0.209713
    38  C    0.149632
    39  C   -0.294630
    40  C    0.316213
    41  C    0.236518
    42  C    0.083293
    43  C   -0.119038
    44  C    0.156838
    45  C   -0.222436
    46  C   -0.189136
    47  C   -0.199018
    48  C   -0.114987
    49  C   -0.226327
    50  C    0.091090
    51  C   -0.207702
    52  C   -0.151159
    53  C   -0.139657
    54  C   -0.170476
    55  C   -0.183639
    56  C   -0.366113
    57  H    0.184696
    58  H    0.239415
    59  H    0.149099
    60  H    0.197741
    61  H    0.185695
    62  H    0.178393
    63  H    0.243374
    64  H    0.137771
    65  H    0.216225
    66  H    0.233381
    67  H    0.112649
    68  H    0.171115
    69  H    0.140674
    70  H    0.149628
    71  H    0.143128
    72  H    0.282003
    73  H    0.225794
    74  H   -0.026168
    75  H    0.184157
    76  H    0.166316
    77  H    0.159532
    78  H    0.163531
    79  H    0.157860
    80  H    0.182486
    81  H    0.218014
    82  H    0.099161
    83  H    0.191733
    84  H    0.162258
    85  H    0.165637
    86  H    0.183768
    87  H    0.223778
    88  H    0.192784
    89  H    0.171298
    90  H    0.172119
    91  H    0.168901
    92  H    0.187101
    93  H    0.180387
    94  H    0.167056
    95  H    0.166787
    96  H    0.168548
    97  H    0.186565
    98  H    0.172914
    99  H    0.179714
   100  H    0.186346
   101  Cl  -0.036227
   102  O   -0.260047
   103  N    0.371223
   104  O   -0.293682
   105  N   -0.220439
   106  C    0.584574
   107  F   -0.187397
   108  F   -0.191975
   109  F   -0.212664
   110  C   -0.321651
   111  C    0.291055
   112  H    0.203360
   113  C   -0.247362
   114  C   -0.269818
   115  C   -0.209983
   116  H    0.212884
   117  C   -0.163942
   118  H    0.218835
   119  C    0.017596
   120  H    0.200281
   121  H    0.189861
   122  N    0.458044
   123  O   -0.370651
   124  O   -0.358092
   125  C    0.118039
   126  C   -0.244546
   127  C   -0.243025
   128  C   -0.207719
   129  H    0.201080
   130  C   -0.179302
   131  H    0.211916
   132  C    0.083842
   133  H    0.174110
   134  H    0.173577
   135  Cl  -0.110544
   136  H    0.069580
   137  H    0.236910
   138  C   -0.274958
   139  H    0.178464
   140  C    0.374067
   141  O   -0.536695
   142  N    0.130317
   143  C   -0.186746
   144  C   -0.280636
   145  C   -0.211228
   146  H    0.205226
   147  C   -0.181975
   148  H    0.193338
   149  H    0.163354
   150  H    0.162151
 Sum of Mulliken charges =  -0.00000
 Mulliken charges with hydrogens summed into heavy atoms:
               1
     1  C    0.004739
     2  C   -0.138702
     3  N   -0.233812
     4  N   -0.314573
     5  N   -0.245571
     6  C    0.072705
     7  C    0.008357
     8  C    0.189138
     9  C    0.146168
    10  C   -0.015637
    11  C   -0.110737
    12  C    0.103463
    13  C   -0.059697
    14  C   -0.045663
    15  C   -0.010654
    16  C   -0.191246
    17  C    0.236699
    18  C    0.016668
    19  C   -0.113533
    20  C    0.062664
    21  C   -0.023378
    22  C   -0.055930
    23  C    0.118118
    24  C   -0.055020
    25  C    0.116898
    26  C   -0.054510
    27  C    0.011954
    28  C    0.052107
    29  C   -0.114785
    30  C    0.073084
    31  C    0.160702
    32  C    0.010965
    33  C    0.063813
    34  C    0.112505
    35  C   -0.069351
    36  C   -0.007117
    37  C    0.209713
    38  C    0.149632
    39  C   -0.070853
    40  C    0.316213
    41  C    0.236518
    42  C    0.083293
    43  C   -0.119038
    44  C    0.156838
    45  C   -0.029652
    46  C   -0.017838
    47  C   -0.026899
    48  C    0.053914
    49  C   -0.039226
    50  C    0.091090
    51  C   -0.027315
    52  C    0.015897
    53  C    0.027130
    54  C   -0.001928
    55  C    0.002925
    56  C    0.172861
   101  Cl  -0.036227
   102  O   -0.260047
   103  N    0.371223
   104  O   -0.293682
   105  N   -0.220439
   106  C    0.584574
   107  F   -0.187397
   108  F   -0.191975
   109  F   -0.212664
   110  C   -0.118291
   111  C    0.291055
   113  C   -0.034477
   114  C   -0.050983
   115  C   -0.009701
   117  C    0.025919
   119  C    0.017596
   122  N    0.458044
   123  O   -0.370651
   124  O   -0.358092
   125  C    0.118039
   126  C   -0.043466
   127  C   -0.031109
   128  C   -0.033609
   130  C   -0.005725
   132  C    0.083842
   135  Cl  -0.110544
   138  C   -0.096495
   140  C    0.374067
   141  O   -0.536695
   142  N    0.130317
   143  C    0.018480
   144  C   -0.087298
   145  C   -0.047874
   147  C   -0.019824
 Electronic spatial extent (au):  <R**2>=          76725.0929
 Charge=             -0.0000 electrons
 Dipole moment (field-independent basis, Debye):
    X=            -11.7934    Y=             -1.6342    Z=              0.6763  Tot=             11.9253
 Quadrupole moment (field-independent basis, Debye-Ang):
   XX=           -558.8700   YY=           -579.4542   ZZ=           -504.4283
   XY=             -4.0165   XZ=             45.6840   YZ=             23.5696
 Traceless Quadrupole moment (field-independent basis, Debye-Ang):
   XX=            -11.2858   YY=            -31.8700   ZZ=             43.1558
   XY=             -4.0165   XZ=             45.6840   YZ=             23.5696
 Octapole moment (field-independent basis, Debye-Ang**2):
  XXX=           -342.6710  YYY=           -349.0817  ZZZ=             98.0619  XYY=           -235.7604
  XXY=            271.5584  XXZ=            -15.0134  XZZ=            -90.8627  YZZ=             -1.1190
  YYZ=              8.0346  XYZ=            -29.8057
 Hexadecapole moment (field-independent basis, Debye-Ang**3):
 XXXX=         -58371.1488 YYYY=         -30649.8562 ZZZZ=         -18697.3729 XXXY=            561.0130
 XXXZ=            545.4279 YYYX=          -1284.6466 YYYZ=           1197.8808 ZZZX=            340.8974
 ZZZY=            613.4272 XXYY=         -14520.5220 XXZZ=         -12221.8808 YYZZ=          -8473.5540
 XXYZ=            142.9133 YYXZ=            672.0362 ZZXY=            144.5863
 N-N= 1.854792889049D+04 E-N=-4.830958976571D+04  KE= 4.775890802570D+03
 Leave Link  601 at Tue Nov 12 12:59:41 2024, MaxMem= 13421772800 cpu:              67.5 elap:               3.3
 (Enter /public/software/apps/Gaussian/g16/l9999.exe)
 Unable to Open any file for archive entry.
 1\1\GINC-NODE18\SP\RM062X\def2TZVP\C73H60Cl2F3N7O5\QGL_HG\12-Nov-2024\
 0\\#p M062X def2tzvp scrf=(smd,solvent=toluene)\\Title: Major-E_thred1
 0_1_Ts_Opt\\0,1\C,0,2.980984,-1.610474,0.182965\C,0,4.368663,-1.322539
 ,-1.588484\N,0,1.435166,-4.671981,1.730214\N,0,-3.490344,-1.530879,1.6
 75861\N,0,-5.837455,-1.596418,1.954258\C,0,-0.208021,1.312047,-1.97034
 3\C,0,0.522222,0.493833,-3.048699\C,0,-0.314345,-0.741963,-3.395426\C,
 0,-1.756721,-0.262274,-3.677648\C,0,-2.367573,0.182238,-2.328217\C,0,-
 0.323518,-1.68271,-2.184173\C,0,-0.575806,-0.868787,-0.902597\C,0,-1.2
 77216,-1.647311,0.21079\C,0,-2.631316,-1.291897,-4.335239\C,0,-3.13797
 2,-1.162639,-5.559787\C,0,-1.830422,1.173409,-0.056537\C,0,-2.501781,2
 .497497,-0.299504\C,0,-3.901796,2.53518,-0.53838\C,0,-4.753534,1.38388
 1,-0.49421\C,0,-6.102375,1.471977,-0.718404\C,0,-6.709548,2.717878,-1.
 031649\C,0,-5.940875,3.847894,-1.080003\C,0,-4.536986,3.80131,-0.82099
 9\C,0,-3.769231,4.967434,-0.820511\C,0,-2.412352,4.958685,-0.496529\C,
 0,-1.666185,6.175217,-0.435532\C,0,-0.354557,6.179704,-0.052341\C,0,0.
 276069,4.953597,0.295176\C,0,-0.387858,3.758667,0.201242\C,0,-1.758701
 ,3.701701,-0.205906\C,0,-0.380199,-2.726012,0.770747\C,0,-0.238692,-3.
 948169,0.154734\C,0,0.681957,-4.889643,0.673548\C,0,1.29576,-3.480638,
 2.376634\C,0,2.112527,-3.237096,3.507643\C,0,2.041513,-2.051271,4.2002
 07\C,0,1.126519,-1.049281,3.786247\C,0,0.383397,-2.458806,1.949897\C,0
 ,0.316505,-1.257561,2.685934\C,0,-3.620473,-2.047476,0.466434\C,0,-4.6
 03619,-1.318885,2.397888\C,0,-5.941095,-2.113305,0.741066\C,0,-4.86427
 2,-2.388107,-0.113809\C,0,-4.958592,-2.929979,-1.489068\C,0,-5.713083,
 -2.272859,-2.470583\C,0,-5.796572,-2.790742,-3.761101\C,0,-5.121166,-3
 .965829,-4.09049\C,0,-4.350152,-4.616211,-3.124875\C,0,-4.267769,-4.10
 1587,-1.833085\C,0,-4.443227,-0.723891,3.736306\C,0,-5.568116,-0.35302
 3,4.487786\C,0,-5.405241,0.232544,5.739378\C,0,-4.124268,0.452102,6.25
 1916\C,0,-3.001445,0.077918,5.510429\C,0,-3.158472,-0.509004,4.259899\
 C,0,1.975158,0.552821,5.346434\H,0,0.478006,1.625258,-1.189293\H,0,-0.
 730081,2.182039,-2.368579\H,0,1.510593,0.199048,-2.691607\H,0,0.665653
 ,1.118911,-3.935741\H,0,0.093468,-1.254402,-4.269488\H,0,-1.69565,0.60
 6682,-4.343525\H,0,-2.946841,1.09621,-2.433349\H,0,-3.006399,-0.592633
 ,-1.911075\H,0,-1.095132,-2.447223,-2.305689\H,0,0.635383,-2.193974,-2
 .094229\H,0,0.356913,-0.508686,-0.461913\H,0,-1.533481,-0.988883,1.027
 469\H,0,-2.850558,-2.189063,-3.758569\H,0,-3.753154,-1.938834,-6.00439
 6\H,0,-2.954759,-0.278913,-6.167972\H,0,-0.967232,1.257076,0.601949\H,
 0,-2.534557,0.487982,0.401393\H,0,-4.342414,0.41293,-0.256781\H,0,-6.7
 17298,0.579927,-0.640609\H,0,-7.778004,2.767124,-1.217025\H,0,-6.38723
 8,4.813338,-1.302787\H,0,-4.250299,5.915534,-1.049253\H,0,-2.173387,7.
 100648,-0.694576\H,0,0.218743,7.099844,-0.022707\H,0,1.305451,4.960629
 ,0.634218\H,0,0.152762,2.855149,0.452577\H,0,-0.817367,-4.193964,-0.72
 8653\H,0,0.803174,-5.851117,0.177505\H,0,2.800253,-4.022165,3.803869\H
 ,0,2.682415,-1.887511,5.058292\H,0,-0.316965,-0.434093,2.387311\H,0,-6
 .227872,-1.350512,-2.223607\H,0,-6.382812,-2.269028,-4.511226\H,0,-5.1
 90108,-4.371727,-5.095517\H,0,-3.818603,-5.529451,-3.375667\H,0,-3.676
 502,-4.612289,-1.079744\H,0,-6.555564,-0.525885,4.074488\H,0,-6.27869,
 0.521479,6.31654\H,0,-4.002383,0.912604,7.228295\H,0,-2.001103,0.24302
 2,5.899325\H,0,-2.29199,-0.815755,3.687083\H,0,1.952249,-0.064448,6.25
 4141\H,0,1.732888,1.583424,5.605667\H,0,2.973496,0.526535,4.897002\Cl,
 0,-7.580776,-2.465474,0.220119\O,0,-2.516636,-2.196437,-0.300901\N,0,-
 1.282682,0.454297,-1.304072\O,0,0.97704,0.146097,4.415385\N,0,4.063618
 ,-0.025741,-1.803382\C,0,3.75979,-2.254103,-2.612882\F,0,2.694467,-1.7
 15151,-3.252852\F,0,4.636661,-2.630647,-3.578\F,0,3.302112,-3.422463,-
 2.063655\C,0,4.487215,0.953458,-1.043801\C,0,4.009714,2.303367,-1.2478
 01\H,0,5.214154,0.812062,-0.243212\C,0,4.33046,3.315741,-0.317093\C,0,
 3.206937,2.648731,-2.360741\C,0,3.84428,4.602933,-0.463137\H,0,4.94286
 2,3.073179,0.545012\C,0,2.719241,3.931934,-2.519239\H,0,2.996549,1.881
 324,-3.094949\C,0,3.03433,4.905471,-1.562421\H,0,4.06647,5.373906,0.26
 3384\H,0,2.098462,4.205312,-3.363552\N,0,2.4737,6.231778,-1.686294\O,0
 ,2.694521,7.046654,-0.776488\O,0,1.781384,6.489403,-2.677834\C,0,5.665
 854,-1.811231,-1.023387\C,0,5.801053,-3.098679,-0.471199\C,0,6.818794,
 -1.009175,-1.073919\C,0,7.013961,-3.55038,0.040109\H,0,4.952499,-3.771
 285,-0.452416\C,0,8.0382,-1.443984,-0.562593\H,0,6.770222,-0.033031,-1
 .541761\C,0,8.125214,-2.712718,0.003311\H,0,7.09433,-4.54451,0.46635\H
 ,0,8.915572,-0.808189,-0.614094\Cl,0,9.657712,-3.267383,0.669381\H,0,2
 .092103,-1.531908,-0.425768\H,0,3.348452,-2.613667,0.342694\C,0,3.2770
 23,-0.623669,1.095565\H,0,4.099876,-0.786748,1.779695\C,0,2.541544,0.5
 93797,1.200435\O,0,1.45858,0.859559,0.636606\N,0,3.050892,1.563588,2.1
 19403\C,0,2.321595,2.654231,2.561931\C,0,4.324693,1.628992,2.67548\C,0
 ,3.11739,3.400524,3.3943\H,0,1.293632,2.769139,2.267041\C,0,4.391495,2
 .752688,3.462141\H,0,5.081507,0.904478,2.424664\H,0,2.823346,4.308829,
 3.902441\H,0,5.259033,3.081469,4.018573\\Version=ES64L-G16RevC.01\Stat
 e=1-A\HF=-4797.0447747\RMSD=1.842e-09\Dipole=-4.6398931,-0.6429498,0.2
 660652\Quadrupole=-8.39075,-23.6945666,32.0853167,-2.9861467,33.964928
 6,17.5233866\PG=C01 [X(C73H60Cl2F3N7O5)]\\@
 The archive entry for this job was punched.


 TO ERR IS HUMAN - AND TO BLAME IT ON A COMPUTER IS EVEN MORE SO.
 Job cpu time:       3 days  7 hours 41 minutes 29.4 seconds.
 Elapsed time:       0 days  2 hours 30 minutes 35.9 seconds.
 File lengths (MBytes):  RWF=   6898 Int=      0 D2E=      0 Chk=    579 Scr=      2
 Normal termination of Gaussian 16 at Tue Nov 12 12:59:43 2024.
