 Entering Gaussian System, Link 0=g16
 Initial command:
 /public/software/apps/Gaussian/g16/l1.exe "/public/home/WCH_HG/tmp/Gau-51308.inp" -scrdir="/public/home/WCH_HG/tmp/"
 Entering Link 1 = /public/software/apps/Gaussian/g16/l1.exe PID=     51341.
  
 Copyright (c) 1988-2019, Gaussian, Inc.  All Rights Reserved.
  
 This is part of the Gaussian(R) 16 program.  It is based on
 the Gaussian(R) 09 system (copyright 2009, Gaussian, Inc.),
 the Gaussian(R) 03 system (copyright 2003, Gaussian, Inc.),
 the Gaussian(R) 98 system (copyright 1998, Gaussian, Inc.),
 the Gaussian(R) 94 system (copyright 1995, Gaussian, Inc.),
 the Gaussian 92(TM) system (copyright 1992, Gaussian, Inc.),
 the Gaussian 90(TM) system (copyright 1990, Gaussian, Inc.),
 the Gaussian 88(TM) system (copyright 1988, Gaussian, Inc.),
 the Gaussian 86(TM) system (copyright 1986, Carnegie Mellon
 University), and the Gaussian 82(TM) system (copyright 1983,
 Carnegie Mellon University). Gaussian is a federally registered
 trademark of Gaussian, Inc.
  
 This software contains proprietary and confidential information,
 including trade secrets, belonging to Gaussian, Inc.
  
 This software is provided under written license and may be
 used, copied, transmitted, or stored only in accord with that
 written license.
  
 The following legend is applicable only to US Government
 contracts under FAR:
  
                    RESTRICTED RIGHTS LEGEND
  
 Use, reproduction and disclosure by the US Government is
 subject to restrictions as set forth in subparagraphs (a)
 and (c) of the Commercial Computer Software - Restricted
 Rights clause in FAR 52.227-19.
  
 Gaussian, Inc.
 340 Quinnipiac St., Bldg. 40, Wallingford CT 06492
  
  
 ---------------------------------------------------------------
 Warning -- This program may not be used in any manner that
 competes with the business of Gaussian, Inc. or will provide
 assistance to any competitor of Gaussian, Inc.  The licensee
 of this program is prohibited from giving any competitor of
 Gaussian, Inc. access to this program.  By using this program,
 the user acknowledges that Gaussian, Inc. is engaged in the
 business of creating and licensing software in the field of
 computational chemistry and represents and warrants to the
 licensee that it is not a competitor of Gaussian, Inc. and that
 it will not use this program in any manner prohibited above.
 ---------------------------------------------------------------
  

 Cite this work as:
 Gaussian 16, Revision C.01,
 M. J. Frisch, G. W. Trucks, H. B. Schlegel, G. E. Scuseria, 
 M. A. Robb, J. R. Cheeseman, G. Scalmani, V. Barone, 
 G. A. Petersson, H. Nakatsuji, X. Li, M. Caricato, A. V. Marenich, 
 J. Bloino, B. G. Janesko, R. Gomperts, B. Mennucci, H. P. Hratchian, 
 J. V. Ortiz, A. F. Izmaylov, J. L. Sonnenberg, D. Williams-Young, 
 F. Ding, F. Lipparini, F. Egidi, J. Goings, B. Peng, A. Petrone, 
 T. Henderson, D. Ranasinghe, V. G. Zakrzewski, J. Gao, N. Rega, 
 G. Zheng, W. Liang, M. Hada, M. Ehara, K. Toyota, R. Fukuda, 
 J. Hasegawa, M. Ishida, T. Nakajima, Y. Honda, O. Kitao, H. Nakai, 
 T. Vreven, K. Throssell, J. A. Montgomery, Jr., J. E. Peralta, 
 F. Ogliaro, M. J. Bearpark, J. J. Heyd, E. N. Brothers, K. N. Kudin, 
 V. N. Staroverov, T. A. Keith, R. Kobayashi, J. Normand, 
 K. Raghavachari, A. P. Rendell, J. C. Burant, S. S. Iyengar, 
 J. Tomasi, M. Cossi, J. M. Millam, M. Klene, C. Adamo, R. Cammi, 
 J. W. Ochterski, R. L. Martin, K. Morokuma, O. Farkas, 
 J. B. Foresman, and D. J. Fox, Gaussian, Inc., Wallingford CT, 2019.
 
 ******************************************
 Gaussian 16:  ES64L-G16RevC.01  3-Jul-2019
                17-Apr-2024 
 ******************************************
 %nprocshared=32
 Will use up to   32 processors via shared memory.
 %mem=100GB
 %chk=/public/home/WCH_HG/PiAct/pcm/sp-smd/revDSDPBEP86D3/MnCO3C6H6PMe3-mod2-sp-s
 md-revDSDPBEP86d3.chk
 ----------------------------------------------------------------------
 #p scrf=(smd,solvent=nitromethane) def2tzvpp dsdpbep86 em=gd3bj iop(3/
 125=0079905785,3/78=0429604296,3/76=0310006900,3/74=1004, 3/174=043770
 0,3/175=-1,3/176=0,3/177=-1,3/178=5500000)
 ----------------------------------------------------------------------
 1/38=1,172=1/1;
 2/12=2,17=6,18=5,40=1/2;
 3/5=44,7=202,11=9,25=1,30=1,70=32201,72=15,74=1004,76=310006900,78=429604296,124=41,125=79905785,174=437700,175=-1,177=-1,178=5500000/1,2,3;
 4//1;
 5/5=2,38=5,53=15/2;
 8/10=1/1;
 9/16=-3/6;
 6/7=2,8=2,9=2,10=2/1;
 99/5=1,9=1/99;
 Leave Link    1 at Wed Apr 17 21:42:47 2024, MaxMem= 13421772800 cpu:             355.3 elap:              11.7
 (Enter /public/software/apps/Gaussian/g16/l101.exe)
 -------------------
 Title Card Required
 -------------------
 Symbolic Z-matrix:
 Charge =  1 Multiplicity = 1
 C                     0.38586   0.23512  -1.18487 
 C                    -0.12914  -1.06306  -1.30386 
 C                    -0.38087  -1.85213  -0.14494 
 C                    -0.12643  -1.25109   1.12141 
 C                     0.38718   0.05048   1.20198 
 H                     0.44963   0.86383  -2.07402 
 H                    -0.46776  -1.4249   -2.27672 
 H                    -0.80164  -2.85312  -0.22208 
 H                    -0.46308  -1.75821   2.02776 
 H                     0.45105   0.53572   2.17683 
 Mn                   -1.48636  -0.00665  -0.0008 
 C                    -2.73735  -0.16123  -1.30174 
 C                    -2.73612  -0.36719   1.25985 
 O                    -3.51786  -0.60711   2.06779 
 O                    -3.51995  -0.26793  -2.13693 
 C                    -1.62645   1.78603   0.14239 
 O                    -1.66504   2.93229   0.23429 
 C                     1.17911   0.61459   0.04468 
 H                     1.24372   1.70971   0.12897 
 P                     2.9627    0.0802    0.00535 
 C                     3.09558  -1.70764  -0.21505 
 H                     2.59646  -2.21989   0.61823 
 H                     2.62479  -1.99978  -1.16304 
 H                     4.15912  -1.98538  -0.23276 
 C                     3.73959   0.54486   1.56941 
 H                     4.79756   0.24642   1.55508 
 H                     3.66494   1.63275   1.70678 
 H                     3.22645   0.03216   2.39537 
 C                     3.78438   0.9163   -1.36926 
 H                     3.7265    2.00362  -1.21927 
 H                     4.83779   0.60466  -1.41265 
 H                     3.2836    0.64732  -2.31002 
 
 ITRead=  0  0  0  0  0  0  0  0  0  0  0  0  0  0  0  0  0  0  0  0
 ITRead=  0  0  0  0  0  0  0  0  0  0  0  0
 MicOpt= -1 -1 -1 -1 -1 -1 -1 -1 -1 -1 -1 -1 -1 -1 -1 -1 -1 -1 -1 -1
 MicOpt= -1 -1 -1 -1 -1 -1 -1 -1 -1 -1 -1 -1
 NAtoms=     32 NQM=       32 NQMF=       0 NMMI=      0 NMMIF=      0
                NMic=       0 NMicF=      0.
                    Isotopes and Nuclear Properties:
 (Nuclear quadrupole moments (NQMom) in fm**2, nuclear magnetic moments (NMagM)
  in nuclear magnetons)

  Atom         1           2           3           4           5           6           7           8           9          10
 IAtWgt=          12          12          12          12          12           1           1           1           1           1
 AtmWgt=  12.0000000  12.0000000  12.0000000  12.0000000  12.0000000   1.0078250   1.0078250   1.0078250   1.0078250   1.0078250
 NucSpn=           0           0           0           0           0           1           1           1           1           1
 AtZEff=  -0.0000000  -0.0000000  -0.0000000  -0.0000000  -0.0000000  -0.0000000  -0.0000000  -0.0000000  -0.0000000  -0.0000000
 NQMom=    0.0000000   0.0000000   0.0000000   0.0000000   0.0000000   0.0000000   0.0000000   0.0000000   0.0000000   0.0000000
 NMagM=    0.0000000   0.0000000   0.0000000   0.0000000   0.0000000   2.7928460   2.7928460   2.7928460   2.7928460   2.7928460
 AtZNuc=   6.0000000   6.0000000   6.0000000   6.0000000   6.0000000   1.0000000   1.0000000   1.0000000   1.0000000   1.0000000

  Atom        11          12          13          14          15          16          17          18          19          20
 IAtWgt=          55          12          12          16          16          12          16          12           1          31
 AtmWgt=  54.9380463  12.0000000  12.0000000  15.9949146  15.9949146  12.0000000  15.9949146  12.0000000   1.0078250  30.9737634
 NucSpn=           5           0           0           0           0           0           0           0           1           1
 AtZEff=  -0.0000000  -0.0000000  -0.0000000  -0.0000000  -0.0000000  -0.0000000  -0.0000000  -0.0000000  -0.0000000  -0.0000000
 NQMom=   33.0000000   0.0000000   0.0000000   0.0000000   0.0000000   0.0000000   0.0000000   0.0000000   0.0000000   0.0000000
 NMagM=    3.4532000   0.0000000   0.0000000   0.0000000   0.0000000   0.0000000   0.0000000   0.0000000   2.7928460   1.1316000
 AtZNuc=  25.0000000   6.0000000   6.0000000   8.0000000   8.0000000   6.0000000   8.0000000   6.0000000   1.0000000  15.0000000

  Atom        21          22          23          24          25          26          27          28          29          30
 IAtWgt=          12           1           1           1          12           1           1           1          12           1
 AtmWgt=  12.0000000   1.0078250   1.0078250   1.0078250  12.0000000   1.0078250   1.0078250   1.0078250  12.0000000   1.0078250
 NucSpn=           0           1           1           1           0           1           1           1           0           1
 AtZEff=  -0.0000000  -0.0000000  -0.0000000  -0.0000000  -0.0000000  -0.0000000  -0.0000000  -0.0000000  -0.0000000  -0.0000000
 NQMom=    0.0000000   0.0000000   0.0000000   0.0000000   0.0000000   0.0000000   0.0000000   0.0000000   0.0000000   0.0000000
 NMagM=    0.0000000   2.7928460   2.7928460   2.7928460   0.0000000   2.7928460   2.7928460   2.7928460   0.0000000   2.7928460
 AtZNuc=   6.0000000   1.0000000   1.0000000   1.0000000   6.0000000   1.0000000   1.0000000   1.0000000   6.0000000   1.0000000

  Atom        31          32
 IAtWgt=           1           1
 AtmWgt=   1.0078250   1.0078250
 NucSpn=           1           1
 AtZEff=  -0.0000000  -0.0000000
 NQMom=    0.0000000   0.0000000
 NMagM=    2.7928460   2.7928460
 AtZNuc=   1.0000000   1.0000000
 Leave Link  101 at Wed Apr 17 21:42:50 2024, MaxMem= 13421772800 cpu:               2.4 elap:               0.1
 (Enter /public/software/apps/Gaussian/g16/l202.exe)
                          Input orientation:                          
 ---------------------------------------------------------------------
 Center     Atomic      Atomic             Coordinates (Angstroms)
 Number     Number       Type             X           Y           Z
 ---------------------------------------------------------------------
      1          6           0        0.385861    0.235115   -1.184870
      2          6           0       -0.129137   -1.063063   -1.303862
      3          6           0       -0.380867   -1.852125   -0.144935
      4          6           0       -0.126433   -1.251085    1.121407
      5          6           0        0.387184    0.050484    1.201975
      6          1           0        0.449628    0.863825   -2.074020
      7          1           0       -0.467756   -1.424900   -2.276720
      8          1           0       -0.801638   -2.853124   -0.222080
      9          1           0       -0.463078   -1.758212    2.027764
     10          1           0        0.451052    0.535722    2.176832
     11         25           0       -1.486355   -0.006651   -0.000796
     12          6           0       -2.737348   -0.161225   -1.301735
     13          6           0       -2.736122   -0.367191    1.259848
     14          8           0       -3.517859   -0.607106    2.067792
     15          8           0       -3.519953   -0.267931   -2.136931
     16          6           0       -1.626450    1.786028    0.142390
     17          8           0       -1.665036    2.932293    0.234289
     18          6           0        1.179109    0.614585    0.044683
     19          1           0        1.243720    1.709709    0.128971
     20         15           0        2.962699    0.080199    0.005345
     21          6           0        3.095578   -1.707636   -0.215051
     22          1           0        2.596460   -2.219891    0.618230
     23          1           0        2.624794   -1.999776   -1.163041
     24          1           0        4.159123   -1.985383   -0.232763
     25          6           0        3.739587    0.544864    1.569413
     26          1           0        4.797556    0.246421    1.555078
     27          1           0        3.664943    1.632747    1.706779
     28          1           0        3.226453    0.032159    2.395372
     29          6           0        3.784378    0.916303   -1.369255
     30          1           0        3.726500    2.003616   -1.219268
     31          1           0        4.837785    0.604663   -1.412645
     32          1           0        3.283602    0.647324   -2.310020
 ---------------------------------------------------------------------
                    Distance matrix (angstroms):
                    1          2          3          4          5
     1  C    0.000000
     2  C    1.401659   0.000000
     3  C    2.454772   1.424464   0.000000
     4  C    2.791084   2.432548   1.424643   0.000000
     5  C    2.393976   2.790303   2.454382   1.401562   0.000000
     6  H    1.090839   2.154300   3.433289   3.874977   3.376028
     7  H    2.162510   1.091807   2.175909   3.419646   3.874145
     8  H    3.445916   2.197004   1.088576   2.197132   3.445602
     9  H    3.874928   3.419719   2.176281   1.091783   2.162465
    10  H    3.375745   3.874011   3.432857   2.154087   1.090817
    11  Mn   2.228379   2.157783   2.156074   2.158088   2.227122
    12  C    3.150425   2.759725   3.122552   3.725089   4.009499
    13  C    4.010760   3.721991   3.118601   2.758788   3.151641
    14  O    5.150551   4.802019   4.035710   3.579403   4.053569
    15  O    4.051525   3.581043   4.041235   4.806177   5.149311
    16  C    2.866417   3.528585   3.856189   3.525986   2.861740
    17  O    3.673549   4.548380   4.968255   4.544769   3.667812
    18  C    1.511635   2.518846   2.924746   2.518829   1.511516
    19  H    2.153260   3.409694   3.924407   3.410066   2.153606
    20  P    2.842658   3.546903   3.864698   3.544100   2.840085
    21  C    3.472376   3.464069   3.480153   3.517942   3.526237
    22  H    3.763638   3.530095   3.095505   2.933585   3.221220
    23  H    3.163548   2.912284   3.176844   3.653559   3.847566
    24  H    4.480472   4.515208   4.542794   4.554005   4.520039
    25  C    4.350804   5.080174   5.065835   4.286287   3.408523
    26  H    5.193313   5.844706   5.840377   5.164907   4.428821
    27  H    4.589922   5.543139   5.651704   4.799342   3.674519
    28  H    4.574744   5.113104   4.797546   3.809402   3.079932
    29  C    3.471013   4.386088   5.149021   5.118145   4.347619
    30  H    3.780033   4.927232   5.735102   5.560300   4.563789
    31  H    4.473039   5.240559   5.905694   5.874409   5.191455
    32  H    3.135727   3.947729   4.935906   5.196825   4.591249
                    6          7          8          9         10
     6  H    0.000000
     7  H    2.474054   0.000000
     8  H    4.337172   2.524450   0.000000
     9  H    4.953054   4.317372   2.524926   0.000000
    10  H    4.263496   4.952007   4.336852   2.473861   0.000000
    11  Mn   2.967156   2.868589   2.936020   2.868818   2.964756
    12  C    3.435690   2.774620   3.486968   4.336846   4.769912
    13  C    4.772743   4.332614   3.481121   2.773331   3.437178
    14  O    5.921081   5.370912   4.203090   3.264710   4.131610
    15  O    4.128245   3.267113   4.211783   5.376812   5.918048
    16  C    3.173804   4.183865   4.725980   4.179678   3.165159
    17  O    3.752153   5.169504   5.867263   5.163535   3.740970
    18  C    2.254588   3.501510   4.002440   3.501365   2.254406
    19  H    2.489834   4.306074   5.012601   4.306396   2.490041
    20  P    3.354602   4.386475   4.777692   4.382452   3.351302
    21  C    4.131492   4.126472   4.062079   4.206758   4.212752
    22  H    4.622381   4.289775   3.557271   3.400104   3.824319
    23  H    3.709642   3.336859   3.654319   4.446858   4.723204
    24  H    5.026785   5.089195   5.036094   5.150372   5.090374
    25  C    4.919367   6.031123   5.947982   4.814212   3.344175
    26  H    5.697018   6.723057   6.642021   5.649447   4.400269
    27  H    5.022343   6.503589   6.617695   5.351840   3.428339
    28  H    5.327090   6.131773   5.603698   4.117427   2.829167
    29  C    3.408813   4.938154   6.046167   6.060829   4.881663
    30  H    3.573180   5.519485   6.714636   6.499779   4.941333
    31  H    4.445279   5.745826   6.721371   6.746758   5.668556
    32  H    2.852013   4.285780   5.770773   6.216155   5.307319
                   11         12         13         14         15
    11  Mn   0.000000
    12  C    1.811441   0.000000
    13  C    1.811389   2.569850   0.000000
    14  O    2.960846   3.487366   1.149541   0.000000
    15  O    2.960889   1.149526   3.487456   4.218381   0.000000
    16  C    1.803837   2.666718   2.667665   3.607172   3.605469
    17  O    2.953741   3.616501   3.617401   4.395683   4.393727
    18  C    2.737280   4.213473   4.215394   5.258042   5.255422
    19  H    3.227389   4.625604   4.629421   5.639086   5.633645
    20  P    4.449906   5.852972   5.852392   6.835474   6.836323
    21  C    4.892174   6.131500   6.162860   7.082379   7.037871
    22  H    4.685190   6.031076   5.681602   6.487465   6.986528
    23  H    4.714330   5.670280   6.105337   7.078842   6.457992
    24  H    5.986703   7.213291   7.238151   8.131928   8.095907
    25  C    5.484541   7.119883   6.546944   7.365184   8.191370
    26  H    6.478605   8.068602   7.564389   8.374814   9.114628
    27  H    5.669154   7.297864   6.721096   7.532590   8.367163
    28  H    5.287125   7.019467   6.082861   6.782456   8.133008
    29  C    5.523147   6.610487   7.146780   8.213205   7.439421
    30  H    5.718366   6.817233   7.316572   8.372656   7.649386
    31  H    6.508592   7.614560   8.090166   9.132284   8.434322
    32  H    5.339727   6.158103   7.071794   8.185274   6.867024
                   16         17         18         19         20
    16  C    0.000000
    17  O    1.150590   0.000000
    18  C    3.041872   3.673810   0.000000
    19  H    2.871216   3.157003   1.100262   0.000000
    20  P    4.897849   5.440844   1.862340   2.371808   0.000000
    21  C    5.884811   6.662904   3.022090   3.902048   1.806263
    22  H    5.840101   6.697220   3.220574   4.184619   2.408355
    23  H    5.840337   6.684346   3.222342   4.163765   2.409482
    24  H    6.916440   7.636917   3.964504   4.720607   2.398907
    25  C    5.689573   6.057419   2.980891   3.108229   1.807146
    26  H    6.755289   7.122042   3.938273   4.099359   2.407489
    27  H    5.519932   5.680292   3.158890   2.890973   2.407993
    28  H    5.630511   6.083397   3.171211   3.447024   2.405016
    29  C    5.684941   6.027577   2.979544   3.054360   1.806586
    30  H    5.527706   5.660736   3.164835   2.840480   2.404704
    31  H    6.752784   7.100488   3.938250   4.063866   2.408673
    32  H    5.605316   6.015281   3.158257   3.352381   2.405312
                   21         22         23         24         25
    21  C    0.000000
    22  H    1.098126   0.000000
    23  H    1.098029   1.795043   0.000000
    24  H    1.099357   1.794742   1.794377   0.000000
    25  C    2.944964   3.139325   3.896699   3.134645   0.000000
    26  H    3.138220   3.435870   4.141795   2.930004   1.099351
    27  H    3.895609   4.143599   4.744787   4.134840   1.099059
    28  H    3.139797   2.937151   4.141625   3.442011   1.099264
    29  C    2.948167   3.898328   3.144945   3.138762   2.962388
    30  H    3.896140   4.742510   4.152597   4.131884   3.147200
    31  H    3.133088   4.138369   3.426767   2.925926   3.178409
    32  H    3.157544   4.155446   2.959177   3.465931   3.907483
                   26         27         28         29         30
    26  H    0.000000
    27  H    1.796587   0.000000
    28  H    1.794538   1.796751   0.000000
    29  C    3.166543   3.160624   3.907097   0.000000
    30  H    3.454257   2.950099   4.147567   1.099134   0.000000
    31  H    2.989538   3.487595   4.174344   1.099395   1.797058
    32  H    4.170343   4.153451   4.745778   1.099166   1.795947
                   31         32
    31  H    0.000000
    32  H    1.795156   0.000000
 Stoichiometry    C12H15MnO3P(1+)
 Framework group  C1[X(C12H15MnO3P)]
 Deg. of freedom    90
 Full point group                 C1      NOp   1
 Largest Abelian subgroup         C1      NOp   1
 Largest concise Abelian subgroup C1      NOp   1
                         Standard orientation:                         
 ---------------------------------------------------------------------
 Center     Atomic      Atomic             Coordinates (Angstroms)
 Number     Number       Type             X           Y           Z
 ---------------------------------------------------------------------
      1          6           0       -0.385861    0.235115    1.184870
      2          6           0        0.129137   -1.063063    1.303862
      3          6           0        0.380867   -1.852125    0.144935
      4          6           0        0.126433   -1.251085   -1.121407
      5          6           0       -0.387184    0.050484   -1.201975
      6          1           0       -0.449628    0.863825    2.074020
      7          1           0        0.467756   -1.424900    2.276720
      8          1           0        0.801638   -2.853124    0.222080
      9          1           0        0.463078   -1.758212   -2.027764
     10          1           0       -0.451052    0.535722   -2.176832
     11         25           0        1.486355   -0.006651    0.000796
     12          6           0        2.737348   -0.161225    1.301735
     13          6           0        2.736122   -0.367191   -1.259848
     14          8           0        3.517859   -0.607106   -2.067792
     15          8           0        3.519953   -0.267931    2.136931
     16          6           0        1.626450    1.786028   -0.142390
     17          8           0        1.665036    2.932293   -0.234289
     18          6           0       -1.179109    0.614585   -0.044683
     19          1           0       -1.243720    1.709709   -0.128971
     20         15           0       -2.962699    0.080199   -0.005345
     21          6           0       -3.095578   -1.707636    0.215051
     22          1           0       -2.596460   -2.219891   -0.618230
     23          1           0       -2.624794   -1.999776    1.163041
     24          1           0       -4.159123   -1.985383    0.232763
     25          6           0       -3.739587    0.544864   -1.569413
     26          1           0       -4.797556    0.246421   -1.555078
     27          1           0       -3.664943    1.632747   -1.706779
     28          1           0       -3.226453    0.032159   -2.395372
     29          6           0       -3.784378    0.916303    1.369255
     30          1           0       -3.726500    2.003616    1.219268
     31          1           0       -4.837785    0.604663    1.412645
     32          1           0       -3.283602    0.647324    2.310020
 ---------------------------------------------------------------------
 Rotational constants (GHZ):           0.7271019           0.2536681           0.2529945
 Leave Link  202 at Wed Apr 17 21:42:51 2024, MaxMem= 13421772800 cpu:               1.0 elap:               0.7
 (Enter /public/software/apps/Gaussian/g16/l301.exe)
 Standard basis: def2TZVPP (5D, 7F)
 Ernie: Thresh=  0.10000D-02 Tol=  0.10000D-05 Strict=F.
 There are   893 symmetry adapted cartesian basis functions of A   symmetry.
 There are   781 symmetry adapted basis functions of A   symmetry.
   781 basis functions,  1219 primitive gaussians,   893 cartesian basis functions
    75 alpha electrons       75 beta electrons
       nuclear repulsion energy      1767.4321916217 Hartrees.
 IExCor= 1004 DFT=T Ex=PBE+HF Corr=P86 ExCW=0 ScaHFX=  0.690000
 ScaDFX=  0.310000  0.310000  0.429600  0.429600 ScalE2=  0.079900  0.578500
 IRadAn=      5 IRanWt=     -1 IRanGd=            0 ICorTp=0 IEmpDi=141
 NAtoms=   32 NActive=   32 NUniq=   32 SFac= 1.00D+00 NAtFMM=   60 NAOKFM=F Big=F
 Integral buffers will be    131072 words long.
 Regular integral format.
 Two-electron integral symmetry is turned on.
 R6DIni: Non-standard D2/D3 S6 parameter, value=     0.437700
 R6DIni: Non-standard D2/D3 S8 parameter, value=    -1.000000
 R6DIni: Non-standard D3BJ A1 parameter, value=    -1.000000
 R6DIni: Non-standard D3BJ A2 parameter, value=     5.500000
 R6Disp:  Grimme-D3(BJ) Dispersion energy=       -0.0325688795 Hartrees.
 Nuclear repulsion after empirical dispersion term =     1767.3996227422 Hartrees.
 ------------------------------------------------------------------------------
 Polarizable Continuum Model (PCM)
 =================================
 Model                : PCM.
 Atomic radii         : SMD-Coulomb.
 Polarization charges : Total charges.
 Charge compensation  : None.
 Solution method      : On-the-fly selection.
 Cavity type          : VdW (van der Waals Surface) (Alpha=1.000).
 Cavity algorithm     : GePol (No added spheres)
                        Default sphere list used, NSphG=   32.
                        Lebedev-Laikov grids with approx.  5.0 points / Ang**2.
                        Smoothing algorithm: York/Karplus (Gamma=1.0000).
                        Polarization charges: spherical gaussians, with
                                              point-specific exponents (IZeta= 3).
                        Self-potential: point-specific (ISelfS= 7).
                        Self-field    : sphere-specific E.n sum rule (ISelfD= 2).
 Solvent              : NitroMethane, Eps=  36.562000 Eps(inf)=   1.909095
 ------------------------------------------------------------------------------
 GePol: Number of generator spheres                  =      32
 GePol: Total number of spheres                      =      32
 GePol: Number of exposed spheres                    =      31 ( 96.88%)
 GePol: Number of points                             =    2592
 GePol: Average weight of points                     =       0.13
 GePol: Minimum weight of points                     =   0.26D-09
 GePol: Maximum weight of points                     =    0.21918
 GePol: Number of points with low weight             =     162
 GePol: Fraction of low-weight points (<1% of avg)   =       6.25%
 GePol: Cavity surface area                          =    329.366 Ang**2
 GePol: Cavity volume                                =    314.116 Ang**3
 ------------------------------------------------------------------------------
 Atomic radii for non-electrostatic terms: SMD-CDS.
 ------------------------------------------------------------------------------
 PCM non-electrostatic energy =         0.0042713403 Hartrees.
 Nuclear repulsion after PCM non-electrostatic terms =     1767.4038940825 Hartrees.
 Leave Link  301 at Wed Apr 17 21:42:51 2024, MaxMem= 13421772800 cpu:               7.5 elap:               0.4
 (Enter /public/software/apps/Gaussian/g16/l302.exe)
 NPDir=0 NMtPBC=     1 NCelOv=     1 NCel=       1 NClECP=     1 NCelD=      1
         NCelK=      1 NCelE2=     1 NClLst=     1 CellRange=     0.0.
 One-electron integrals computed using PRISM.
 One-electron integral symmetry used in STVInt
   1 Symmetry operations used in ECPInt.
 ECPInt:  NShTT=   41328 NPrTT=  118810 LenC2=   37488 LenP2D=   80159.
 LDataN:  DoStor=T MaxTD1= 8 Len=  415
 NBasis=   781 RedAO= T EigKep=  6.79D-06  NBF=   781
 NBsUse=   781 1.00D-06 EigRej= -1.00D+00 NBFU=   781
 Precomputing XC quadrature grid using
 IXCGrd= 4 IRadAn=           5 IRanWt=          -1 IRanGd=           0 AccXCQ= 0.00D+00.
 Generated NRdTot=       0 NPtTot=           0 NUsed=           0 NTot=          32
 NSgBfM=   884   884   884   884   884 MxSgAt=    32 MxSgA2=    32.
 Leave Link  302 at Wed Apr 17 21:42:53 2024, MaxMem= 13421772800 cpu:              34.6 elap:               1.1
 (Enter /public/software/apps/Gaussian/g16/l303.exe)
 DipDrv:  MaxL=1.
 Leave Link  303 at Wed Apr 17 21:42:54 2024, MaxMem= 13421772800 cpu:              10.3 elap:               0.7
 (Enter /public/software/apps/Gaussian/g16/l401.exe)
 ExpMin= 3.93D-02 ExpMax= 2.77D+05 ExpMxC= 2.68D+03 IAcc=3 IRadAn=         5 AccDes= 0.00D+00
 Harris functional with IExCor= 1004 and IRadAn=       5 diagonalized for initial guess.
 HarFok:  IExCor= 1004 AccDes= 0.00D+00 IRadAn=         5 IDoV= 1 UseB2=F ITyADJ=14
 ICtDFT=  3500011 ScaDFX=  1.000000  1.000000  1.000000  1.000000
 FoFCou: FMM=F IPFlag=           0 FMFlag=      100000 FMFlg1=           0
         NFxFlg=           0 DoJE=T BraDBF=F KetDBF=T FulRan=T
         wScrn=  0.000000 ICntrl=       500 IOpCl=  0 I1Cent=   200000004 NGrid=           0
         NMat0=    1 NMatS0=      1 NMatT0=    0 NMatD0=    1 NMtDS0=    0 NMtDT0=    0
 Petite list used in FoFCou.
 Harris En= -2184.10256447443    
 JPrj=0 DoOrth=F DoCkMO=F.
 Leave Link  401 at Wed Apr 17 21:42:58 2024, MaxMem= 13421772800 cpu:              77.4 elap:               2.9
 (Enter /public/software/apps/Gaussian/g16/l502.exe)
 Integral symmetry usage will be decided dynamically.
 Closed shell SCF:
 Using DIIS extrapolation, IDIIS=  1040.
 NGot= 13421772800 LenX= 13420140750 LenY= 13419342408
 Requested convergence on RMS density matrix=1.00D-08 within 128 cycles.
 Requested convergence on MAX density matrix=1.00D-06.
 Requested convergence on             energy=1.00D-06.
 No special actions if energy rises.
 Fock matrices will be formed incrementally for  20 cycles.

 Cycle   1  Pass 1  IDiag  1:
 FoFJK:  IHMeth= 1 ICntrl=       0 DoSepK=F KAlg= 0 I1Cent=           0 FoldK=F
 IRaf= 850000000 NMat=       1 IRICut=       1 DoRegI=T DoRafI=F ISym2E= 0 IDoP0=0 IntGTp=1.
 FoFCou: FMM=F IPFlag=           0 FMFlag=      100000 FMFlg1=           0
         NFxFlg=           0 DoJE=F BraDBF=F KetDBF=F FulRan=T
         wScrn=  0.000000 ICntrl=         0 IOpCl=  0 I1Cent=           0 NGrid=           0
         NMat0=    1 NMatS0=      1 NMatT0=    0 NMatD0=    1 NMtDS0=    0 NMtDT0=    0
 Symmetry not used in FoFCou.
 Inv3:  Mode=1 IEnd=    20155392.
 Iteration    1 A*A^-1 deviation from unit magnitude is 3.33D-15 for   2242.
 Iteration    1 A*A^-1 deviation from orthogonality  is 1.92D-15 for   1122    125.
 Iteration    1 A^-1*A deviation from unit magnitude is 3.22D-15 for   2242.
 Iteration    1 A^-1*A deviation from orthogonality  is 2.26D-15 for    819    508.
 E= -2179.98448324345    
 DIIS: error= 3.58D-02 at cycle   1 NSaved=   1.
 NSaved= 1 IEnMin= 1 EnMin= -2179.98448324345     IErMin= 1 ErrMin= 3.58D-02
 ErrMax= 3.58D-02  0.00D+00 EMaxC= 1.00D-01 BMatC= 1.15D+00 BMatP= 1.15D+00
 IDIUse=3 WtCom= 6.42D-01 WtEn= 3.58D-01
 Coeff-Com:  0.100D+01
 Coeff-En:   0.100D+01
 Coeff:      0.100D+01
 Gap=     0.537 Goal=   None    Shift=    0.000
 GapD=    0.537 DampG=2.000 DampE=0.250 DampFc=0.5000 IDamp=-1.
 Damping current iteration by 5.00D-01
 RMSDP=1.82D-03 MaxDP=1.56D-01              OVMax= 3.12D-01

 Cycle   2  Pass 1  IDiag  1:
 RMSU=  8.88D-04    CP:  9.74D-01
 E= -2180.02558286049     Delta-E=       -0.041099617042 Rises=F Damp=T
 DIIS: error= 2.34D-02 at cycle   2 NSaved=   2.
 NSaved= 2 IEnMin= 2 EnMin= -2180.02558286049     IErMin= 2 ErrMin= 2.34D-02
 ErrMax= 2.34D-02  0.00D+00 EMaxC= 1.00D-01 BMatC= 6.56D-01 BMatP= 1.15D+00
 IDIUse=3 WtCom= 7.66D-01 WtEn= 2.34D-01
 Coeff-Com:  0.375D+00 0.625D+00
 Coeff-En:   0.469D+00 0.531D+00
 Coeff:      0.397D+00 0.603D+00
 Gap=     0.387 Goal=   None    Shift=    0.000
 RMSDP=1.42D-03 MaxDP=1.26D-01 DE=-4.11D-02 OVMax= 4.08D-01

 Cycle   3  Pass 1  IDiag  1:
 RMSU=  1.41D-03    CP:  9.58D-01  8.41D-01
 E= -2179.97722993048     Delta-E=        0.048352930010 Rises=F Damp=F
 DIIS: error= 4.51D-02 at cycle   3 NSaved=   3.
 NSaved= 3 IEnMin= 2 EnMin= -2180.02558286049     IErMin= 2 ErrMin= 2.34D-02
 ErrMax= 4.51D-02  0.00D+00 EMaxC= 1.00D-01 BMatC= 1.29D+00 BMatP= 6.56D-01
 IDIUse=2 WtCom= 0.00D+00 WtEn= 1.00D+00
 Coeff-En:   0.000D+00 0.517D+00 0.483D+00
 Coeff:      0.000D+00 0.517D+00 0.483D+00
 Gap=     0.430 Goal=   None    Shift=    0.000
 RMSDP=1.42D-03 MaxDP=1.24D-01 DE= 4.84D-02 OVMax= 2.96D-01

 Cycle   4  Pass 1  IDiag  1:
 RMSU=  6.43D-04    CP:  9.43D-01  1.39D+00  1.72D-01
 E= -2180.38910392089     Delta-E=       -0.411873990410 Rises=F Damp=F
 DIIS: error= 2.76D-02 at cycle   4 NSaved=   4.
 NSaved= 4 IEnMin= 4 EnMin= -2180.38910392089     IErMin= 2 ErrMin= 2.34D-02
 ErrMax= 2.76D-02  0.00D+00 EMaxC= 1.00D-01 BMatC= 6.62D-01 BMatP= 6.56D-01
 IDIUse=3 WtCom= 7.24D-01 WtEn= 2.76D-01
 Coeff-Com:  0.994D-01-0.165D+00 0.360D+00 0.705D+00
 Coeff-En:   0.000D+00 0.000D+00 0.370D+00 0.630D+00
 Coeff:      0.720D-01-0.119D+00 0.363D+00 0.684D+00
 Gap=     0.363 Goal=   None    Shift=    0.000
 RMSDP=5.36D-04 MaxDP=5.12D-02 DE=-4.12D-01 OVMax= 1.09D-01

 Cycle   5  Pass 1  IDiag  1:
 RMSU=  2.19D-04    CP:  9.46D-01  1.18D+00  4.76D-01  7.93D-01
 E= -2180.71881632375     Delta-E=       -0.329712402865 Rises=F Damp=F
 DIIS: error= 1.71D-03 at cycle   5 NSaved=   5.
 NSaved= 5 IEnMin= 5 EnMin= -2180.71881632375     IErMin= 5 ErrMin= 1.71D-03
 ErrMax= 1.71D-03  0.00D+00 EMaxC= 1.00D-01 BMatC= 2.84D-03 BMatP= 6.56D-01
 IDIUse=3 WtCom= 9.83D-01 WtEn= 1.71D-02
 Coeff-Com:  0.213D-01-0.101D+00 0.204D-01 0.142D+00 0.917D+00
 Coeff-En:   0.000D+00 0.000D+00 0.000D+00 0.000D+00 0.100D+01
 Coeff:      0.210D-01-0.993D-01 0.201D-01 0.140D+00 0.918D+00
 Gap=     0.325 Goal=   None    Shift=    0.000
 RMSDP=1.23D-04 MaxDP=1.02D-02 DE=-3.30D-01 OVMax= 3.07D-02

 Cycle   6  Pass 1  IDiag  1:
 RMSU=  9.03D-05    CP:  9.44D-01  1.20D+00  4.60D-01  9.07D-01  1.05D+00
 E= -2180.72363156418     Delta-E=       -0.004815240429 Rises=F Damp=F
 DIIS: error= 1.08D-03 at cycle   6 NSaved=   6.
 NSaved= 6 IEnMin= 6 EnMin= -2180.72363156418     IErMin= 6 ErrMin= 1.08D-03
 ErrMax= 1.08D-03  0.00D+00 EMaxC= 1.00D-01 BMatC= 1.38D-03 BMatP= 2.84D-03
 IDIUse=3 WtCom= 9.89D-01 WtEn= 1.08D-02
 Coeff-Com: -0.263D-02 0.700D-02-0.210D-01-0.604D-01 0.251D+00 0.826D+00
 Coeff-En:   0.000D+00 0.000D+00 0.000D+00 0.000D+00 0.000D+00 0.100D+01
 Coeff:     -0.261D-02 0.692D-02-0.208D-01-0.598D-01 0.249D+00 0.828D+00
 Gap=     0.323 Goal=   None    Shift=    0.000
 RMSDP=5.00D-05 MaxDP=3.34D-03 DE=-4.82D-03 OVMax= 1.49D-02

 Cycle   7  Pass 1  IDiag  1:
 RMSU=  4.24D-05    CP:  9.43D-01  1.21D+00  4.59D-01  9.20D-01  1.15D+00
                    CP:  1.11D+00
 E= -2180.72528547018     Delta-E=       -0.001653905994 Rises=F Damp=F
 DIIS: error= 6.30D-04 at cycle   7 NSaved=   7.
 NSaved= 7 IEnMin= 7 EnMin= -2180.72528547018     IErMin= 7 ErrMin= 6.30D-04
 ErrMax= 6.30D-04  0.00D+00 EMaxC= 1.00D-01 BMatC= 2.49D-04 BMatP= 1.38D-03
 IDIUse=3 WtCom= 9.94D-01 WtEn= 6.30D-03
 Coeff-Com: -0.512D-02 0.176D-01-0.126D-01-0.547D-01-0.531D-01 0.240D+00
 Coeff-Com:  0.868D+00
 Coeff-En:   0.000D+00 0.000D+00 0.000D+00 0.000D+00 0.000D+00 0.000D+00
 Coeff-En:   0.100D+01
 Coeff:     -0.508D-02 0.175D-01-0.125D-01-0.544D-01-0.528D-01 0.238D+00
 Coeff:      0.869D+00
 Gap=     0.322 Goal=   None    Shift=    0.000
 RMSDP=3.55D-05 MaxDP=2.30D-03 DE=-1.65D-03 OVMax= 1.08D-02

 Cycle   8  Pass 1  IDiag  1:
 RMSU=  1.73D-05    CP:  9.43D-01  1.21D+00  4.56D-01  9.31D-01  1.23D+00
                    CP:  1.29D+00  1.42D+00
 E= -2180.72582268370     Delta-E=       -0.000537213519 Rises=F Damp=F
 DIIS: error= 3.20D-04 at cycle   8 NSaved=   8.
 NSaved= 8 IEnMin= 8 EnMin= -2180.72582268370     IErMin= 8 ErrMin= 3.20D-04
 ErrMax= 3.20D-04  0.00D+00 EMaxC= 1.00D-01 BMatC= 9.26D-05 BMatP= 2.49D-04
 IDIUse=3 WtCom= 9.97D-01 WtEn= 3.20D-03
 Coeff-Com: -0.166D-02 0.532D-02 0.182D-02-0.945D-02-0.115D+00-0.239D+00
 Coeff-Com:  0.357D+00 0.100D+01
 Coeff-En:   0.000D+00 0.000D+00 0.000D+00 0.000D+00 0.000D+00 0.000D+00
 Coeff-En:   0.000D+00 0.100D+01
 Coeff:     -0.165D-02 0.531D-02 0.181D-02-0.942D-02-0.115D+00-0.238D+00
 Coeff:      0.356D+00 0.100D+01
 Gap=     0.321 Goal=   None    Shift=    0.000
 RMSDP=3.18D-05 MaxDP=2.34D-03 DE=-5.37D-04 OVMax= 1.11D-02

 Cycle   9  Pass 1  IDiag  1:
 RMSU=  9.51D-06    CP:  9.42D-01  1.22D+00  4.54D-01  9.45D-01  1.27D+00
                    CP:  1.44D+00  1.94D+00  1.36D+00
 E= -2180.72603256520     Delta-E=       -0.000209881499 Rises=F Damp=F
 DIIS: error= 8.36D-05 at cycle   9 NSaved=   9.
 NSaved= 9 IEnMin= 9 EnMin= -2180.72603256520     IErMin= 9 ErrMin= 8.36D-05
 ErrMax= 8.36D-05  0.00D+00 EMaxC= 1.00D-01 BMatC= 6.06D-06 BMatP= 9.26D-05
 IDIUse=1 WtCom= 1.00D+00 WtEn= 0.00D+00
 Coeff-Com:  0.818D-04-0.585D-03 0.196D-02 0.199D-02-0.205D-01-0.902D-01
 Coeff-Com:  0.162D-01 0.227D+00 0.864D+00
 Coeff:      0.818D-04-0.585D-03 0.196D-02 0.199D-02-0.205D-01-0.902D-01
 Coeff:      0.162D-01 0.227D+00 0.864D+00
 Gap=     0.321 Goal=   None    Shift=    0.000
 RMSDP=7.55D-06 MaxDP=4.69D-04 DE=-2.10D-04 OVMax= 2.37D-03

 Cycle  10  Pass 1  IDiag  1:
 RMSU=  3.29D-06    CP:  9.42D-01  1.22D+00  4.54D-01  9.44D-01  1.27D+00
                    CP:  1.45D+00  2.09D+00  1.49D+00  1.15D+00
 E= -2180.72604337477     Delta-E=       -0.000010809573 Rises=F Damp=F
 DIIS: error= 2.45D-05 at cycle  10 NSaved=  10.
 NSaved=10 IEnMin=10 EnMin= -2180.72604337477     IErMin=10 ErrMin= 2.45D-05
 ErrMax= 2.45D-05  0.00D+00 EMaxC= 1.00D-01 BMatC= 7.77D-07 BMatP= 6.06D-06
 IDIUse=1 WtCom= 1.00D+00 WtEn= 0.00D+00
 Coeff-Com:  0.324D-03-0.862D-03 0.234D-03 0.145D-02 0.145D-01 0.215D-01
 Coeff-Com: -0.351D-01-0.117D+00 0.115D+00 0.100D+01
 Coeff:      0.324D-03-0.862D-03 0.234D-03 0.145D-02 0.145D-01 0.215D-01
 Coeff:     -0.351D-01-0.117D+00 0.115D+00 0.100D+01
 Gap=     0.321 Goal=   None    Shift=    0.000
 RMSDP=2.86D-06 MaxDP=2.21D-04 DE=-1.08D-05 OVMax= 6.61D-04

 Cycle  11  Pass 1  IDiag  1:
 RMSU=  1.49D-06    CP:  9.42D-01  1.22D+00  4.54D-01  9.44D-01  1.27D+00
                    CP:  1.45D+00  2.12D+00  1.53D+00  1.30D+00  1.34D+00
 E= -2180.72604562170     Delta-E=       -0.000002246936 Rises=F Damp=F
 DIIS: error= 1.59D-05 at cycle  11 NSaved=  11.
 NSaved=11 IEnMin=11 EnMin= -2180.72604562170     IErMin=11 ErrMin= 1.59D-05
 ErrMax= 1.59D-05  0.00D+00 EMaxC= 1.00D-01 BMatC= 1.94D-07 BMatP= 7.77D-07
 IDIUse=1 WtCom= 1.00D+00 WtEn= 0.00D+00
 Coeff-Com:  0.193D-04 0.193D-04-0.392D-03-0.868D-04 0.910D-02 0.258D-01
 Coeff-Com: -0.132D-01-0.827D-01-0.171D+00 0.272D+00 0.960D+00
 Coeff:      0.193D-04 0.193D-04-0.392D-03-0.868D-04 0.910D-02 0.258D-01
 Coeff:     -0.132D-01-0.827D-01-0.171D+00 0.272D+00 0.960D+00
 Gap=     0.321 Goal=   None    Shift=    0.000
 RMSDP=2.00D-06 MaxDP=1.65D-04 DE=-2.25D-06 OVMax= 4.25D-04

 Cycle  12  Pass 1  IDiag  1:
 RMSU=  8.86D-07    CP:  9.42D-01  1.22D+00  4.54D-01  9.43D-01  1.27D+00
                    CP:  1.44D+00  2.13D+00  1.54D+00  1.36D+00  1.73D+00
                    CP:  1.32D+00
 E= -2180.72604642554     Delta-E=       -0.000000803838 Rises=F Damp=F
 DIIS: error= 1.12D-05 at cycle  12 NSaved=  12.
 NSaved=12 IEnMin=12 EnMin= -2180.72604642554     IErMin=12 ErrMin= 1.12D-05
 ErrMax= 1.12D-05  0.00D+00 EMaxC= 1.00D-01 BMatC= 6.01D-08 BMatP= 1.94D-07
 IDIUse=1 WtCom= 1.00D+00 WtEn= 0.00D+00
 Coeff-Com: -0.901D-04 0.226D-03-0.173D-03-0.253D-03-0.587D-03 0.124D-02
 Coeff-Com:  0.541D-03 0.516D-02-0.602D-01-0.138D+00 0.172D+00 0.102D+01
 Coeff:     -0.901D-04 0.226D-03-0.173D-03-0.253D-03-0.587D-03 0.124D-02
 Coeff:      0.541D-03 0.516D-02-0.602D-01-0.138D+00 0.172D+00 0.102D+01
 Gap=     0.321 Goal=   None    Shift=    0.000
 RMSDP=9.53D-07 MaxDP=9.62D-05 DE=-8.04D-07 OVMax= 3.16D-04

 Cycle  13  Pass 1  IDiag  1:
 RMSU=  3.76D-07    CP:  9.42D-01  1.22D+00  4.55D-01  9.43D-01  1.27D+00
                    CP:  1.44D+00  2.13D+00  1.55D+00  1.38D+00  1.88D+00
                    CP:  1.67D+00  1.42D+00
 E= -2180.72604668553     Delta-E=       -0.000000259993 Rises=F Damp=F
 DIIS: error= 5.50D-06 at cycle  13 NSaved=  13.
 NSaved=13 IEnMin=13 EnMin= -2180.72604668553     IErMin=13 ErrMin= 5.50D-06
 ErrMax= 5.50D-06  0.00D+00 EMaxC= 1.00D-01 BMatC= 1.73D-08 BMatP= 6.01D-08
 IDIUse=1 WtCom= 1.00D+00 WtEn= 0.00D+00
 Coeff-Com: -0.188D-04 0.678D-05 0.918D-04 0.166D-04-0.357D-02-0.858D-02
 Coeff-Com:  0.421D-02 0.306D-01 0.458D-01-0.113D+00-0.318D+00 0.214D+00
 Coeff-Com:  0.115D+01
 Coeff:     -0.188D-04 0.678D-05 0.918D-04 0.166D-04-0.357D-02-0.858D-02
 Coeff:      0.421D-02 0.306D-01 0.458D-01-0.113D+00-0.318D+00 0.214D+00
 Coeff:      0.115D+01
 Gap=     0.321 Goal=   None    Shift=    0.000
 RMSDP=7.07D-07 MaxDP=7.72D-05 DE=-2.60D-07 OVMax= 2.58D-04

 Cycle  14  Pass 1  IDiag  1:
 RMSU=  2.09D-07    CP:  9.42D-01  1.22D+00  4.55D-01  9.43D-01  1.27D+00
                    CP:  1.45D+00  2.13D+00  1.54D+00  1.38D+00  1.96D+00
                    CP:  1.89D+00  1.89D+00  1.71D+00
 E= -2180.72604676464     Delta-E=       -0.000000079101 Rises=F Damp=F
 DIIS: error= 3.01D-06 at cycle  14 NSaved=  14.
 NSaved=14 IEnMin=14 EnMin= -2180.72604676464     IErMin=14 ErrMin= 3.01D-06
 ErrMax= 3.01D-06  0.00D+00 EMaxC= 1.00D-01 BMatC= 9.90D-09 BMatP= 1.73D-08
 IDIUse=1 WtCom= 1.00D+00 WtEn= 0.00D+00
 Coeff-Com:  0.303D-04-0.788D-04 0.867D-04 0.453D-04-0.125D-02-0.297D-02
 Coeff-Com:  0.196D-02 0.102D-01 0.259D-01-0.180D-01-0.151D+00-0.112D+00
 Coeff-Com:  0.454D+00 0.793D+00
 Coeff:      0.303D-04-0.788D-04 0.867D-04 0.453D-04-0.125D-02-0.297D-02
 Coeff:      0.196D-02 0.102D-01 0.259D-01-0.180D-01-0.151D+00-0.112D+00
 Coeff:      0.454D+00 0.793D+00
 Gap=     0.321 Goal=   None    Shift=    0.000
 RMSDP=2.35D-07 MaxDP=3.18D-05 DE=-7.91D-08 OVMax= 8.81D-05

 Cycle  15  Pass 1  IDiag  1:
 RMSU=  8.92D-08    CP:  9.42D-01  1.22D+00  4.55D-01  9.43D-01  1.27D+00
                    CP:  1.45D+00  2.13D+00  1.54D+00  1.38D+00  1.97D+00
                    CP:  1.94D+00  2.00D+00  2.07D+00  1.36D+00
 E= -2180.72604679106     Delta-E=       -0.000000026421 Rises=F Damp=F
 DIIS: error= 1.47D-06 at cycle  15 NSaved=  15.
 NSaved=15 IEnMin=15 EnMin= -2180.72604679106     IErMin=15 ErrMin= 1.47D-06
 ErrMax= 1.47D-06  0.00D+00 EMaxC= 1.00D-01 BMatC= 3.71D-09 BMatP= 9.90D-09
 IDIUse=1 WtCom= 1.00D+00 WtEn= 0.00D+00
 Coeff-Com:  0.215D-04-0.324D-04 0.913D-05-0.235D-04 0.797D-03 0.209D-02
 Coeff-Com: -0.359D-03-0.682D-02-0.108D-01 0.252D-01 0.811D-01-0.721D-01
 Coeff-Com: -0.303D+00 0.766D-01 0.121D+01
 Coeff:      0.215D-04-0.324D-04 0.913D-05-0.235D-04 0.797D-03 0.209D-02
 Coeff:     -0.359D-03-0.682D-02-0.108D-01 0.252D-01 0.811D-01-0.721D-01
 Coeff:     -0.303D+00 0.766D-01 0.121D+01
 Gap=     0.321 Goal=   None    Shift=    0.000
 RMSDP=1.82D-07 MaxDP=2.36D-05 DE=-2.64D-08 OVMax= 7.72D-05

 Cycle  16  Pass 1  IDiag  1:
 RMSU=  5.61D-08    CP:  9.42D-01  1.22D+00  4.55D-01  9.43D-01  1.27D+00
                    CP:  1.45D+00  2.13D+00  1.54D+00  1.39D+00  1.97D+00
                    CP:  1.97D+00  2.03D+00  2.36D+00  1.77D+00  1.62D+00
 E= -2180.72604679941     Delta-E=       -0.000000008351 Rises=F Damp=F
 DIIS: error= 3.83D-07 at cycle  16 NSaved=  16.
 NSaved=16 IEnMin=16 EnMin= -2180.72604679941     IErMin=16 ErrMin= 3.83D-07
 ErrMax= 3.83D-07  0.00D+00 EMaxC= 1.00D-01 BMatC= 2.48D-10 BMatP= 3.71D-09
 IDIUse=1 WtCom= 1.00D+00 WtEn= 0.00D+00
 Coeff-Com: -0.323D-05 0.108D-04-0.931D-05-0.141D-04 0.317D-03 0.667D-03
 Coeff-Com: -0.401D-03-0.274D-02-0.519D-02 0.658D-02 0.401D-01 0.514D-03
 Coeff-Com: -0.134D+00-0.127D+00 0.255D+00 0.966D+00
 Coeff:     -0.323D-05 0.108D-04-0.931D-05-0.141D-04 0.317D-03 0.667D-03
 Coeff:     -0.401D-03-0.274D-02-0.519D-02 0.658D-02 0.401D-01 0.514D-03
 Coeff:     -0.134D+00-0.127D+00 0.255D+00 0.966D+00
 Gap=     0.321 Goal=   None    Shift=    0.000
 RMSDP=7.53D-08 MaxDP=7.06D-06 DE=-8.35D-09 OVMax= 2.32D-05

 Cycle  17  Pass 1  IDiag  1:
 RMSU=  2.36D-08    CP:  9.42D-01  1.22D+00  4.55D-01  9.43D-01  1.27D+00
                    CP:  1.45D+00  2.13D+00  1.54D+00  1.39D+00  1.97D+00
                    CP:  1.98D+00  2.03D+00  2.43D+00  1.91D+00  2.03D+00
                    CP:  1.55D+00
 E= -2180.72604680077     Delta-E=       -0.000000001363 Rises=F Damp=F
 DIIS: error= 2.99D-07 at cycle  17 NSaved=  17.
 NSaved=17 IEnMin=17 EnMin= -2180.72604680077     IErMin=17 ErrMin= 2.99D-07
 ErrMax= 2.99D-07  0.00D+00 EMaxC= 1.00D-01 BMatC= 8.66D-11 BMatP= 2.48D-10
 IDIUse=1 WtCom= 1.00D+00 WtEn= 0.00D+00
 Coeff-Com: -0.742D-05 0.106D-04-0.325D-05 0.928D-05-0.243D-03-0.683D-03
 Coeff-Com:  0.110D-03 0.198D-02 0.374D-02-0.728D-02-0.245D-01 0.151D-01
 Coeff-Com:  0.932D-01-0.160D-01-0.335D+00-0.614D-01 0.133D+01
 Coeff:     -0.742D-05 0.106D-04-0.325D-05 0.928D-05-0.243D-03-0.683D-03
 Coeff:      0.110D-03 0.198D-02 0.374D-02-0.728D-02-0.245D-01 0.151D-01
 Coeff:      0.932D-01-0.160D-01-0.335D+00-0.614D-01 0.133D+01
 Gap=     0.321 Goal=   None    Shift=    0.000
 RMSDP=6.17D-08 MaxDP=4.82D-06 DE=-1.36D-09 OVMax= 1.79D-05

 Cycle  18  Pass 1  IDiag  1:
 RMSU=  1.54D-08    CP:  9.42D-01  1.22D+00  4.55D-01  9.43D-01  1.27D+00
                    CP:  1.45D+00  2.13D+00  1.54D+00  1.39D+00  1.97D+00
                    CP:  1.99D+00  2.02D+00  2.45D+00  1.97D+00  2.31D+00
                    CP:  2.13D+00  1.81D+00
 E= -2180.72604680134     Delta-E=       -0.000000000566 Rises=F Damp=F
 DIIS: error= 1.55D-07 at cycle  18 NSaved=  18.
 NSaved=18 IEnMin=18 EnMin= -2180.72604680134     IErMin=18 ErrMin= 1.55D-07
 ErrMax= 1.55D-07  0.00D+00 EMaxC= 1.00D-01 BMatC= 2.21D-11 BMatP= 8.66D-11
 IDIUse=1 WtCom= 1.00D+00 WtEn= 0.00D+00
 Coeff-Com:  0.251D-05-0.566D-05 0.293D-05 0.351D-05-0.701D-04-0.111D-03
 Coeff-Com:  0.155D-03 0.698D-03 0.108D-02-0.173D-02-0.100D-01 0.181D-02
 Coeff-Com:  0.368D-01 0.343D-01-0.675D-01-0.321D+00-0.610D-01 0.139D+01
 Coeff:      0.251D-05-0.566D-05 0.293D-05 0.351D-05-0.701D-04-0.111D-03
 Coeff:      0.155D-03 0.698D-03 0.108D-02-0.173D-02-0.100D-01 0.181D-02
 Coeff:      0.368D-01 0.343D-01-0.675D-01-0.321D+00-0.610D-01 0.139D+01
 Gap=     0.321 Goal=   None    Shift=    0.000
 RMSDP=3.87D-08 MaxDP=4.21D-06 DE=-5.66D-10 OVMax= 1.33D-05

 Cycle  19  Pass 1  IDiag  1:
 RMSU=  6.55D-09    CP:  9.42D-01  1.22D+00  4.55D-01  9.43D-01  1.27D+00
                    CP:  1.45D+00  2.13D+00  1.54D+00  1.39D+00  1.97D+00
                    CP:  1.99D+00  2.02D+00  2.45D+00  2.00D+00  2.49D+00
                    CP:  2.50D+00  2.59D+00  1.81D+00
 E= -2180.72604680155     Delta-E=       -0.000000000215 Rises=F Damp=F
 DIIS: error= 5.15D-08 at cycle  19 NSaved=  19.
 NSaved=19 IEnMin=19 EnMin= -2180.72604680155     IErMin=19 ErrMin= 5.15D-08
 ErrMax= 5.15D-08  0.00D+00 EMaxC= 1.00D-01 BMatC= 3.45D-12 BMatP= 2.21D-11
 IDIUse=1 WtCom= 1.00D+00 WtEn= 0.00D+00
 Coeff-Com:  0.103D-05-0.163D-05 0.118D-05-0.293D-06 0.219D-04 0.686D-04
 Coeff-Com: -0.318D-04-0.169D-03-0.408D-03 0.813D-03 0.200D-02-0.116D-02
 Coeff-Com: -0.128D-01 0.134D-02 0.493D-01 0.431D-01-0.173D+00-0.230D+00
 Coeff-Com:  0.132D+01
 Coeff:      0.103D-05-0.163D-05 0.118D-05-0.293D-06 0.219D-04 0.686D-04
 Coeff:     -0.318D-04-0.169D-03-0.408D-03 0.813D-03 0.200D-02-0.116D-02
 Coeff:     -0.128D-01 0.134D-02 0.493D-01 0.431D-01-0.173D+00-0.230D+00
 Coeff:      0.132D+01
 Gap=     0.321 Goal=   None    Shift=    0.000
 RMSDP=1.26D-08 MaxDP=1.40D-06 DE=-2.15D-10 OVMax= 4.64D-06

 Cycle  20  Pass 1  IDiag  1:
 RMSU=  3.05D-09    CP:  9.42D-01  1.22D+00  4.55D-01  9.43D-01  1.27D+00
                    CP:  1.45D+00  2.13D+00  1.54D+00  1.39D+00  1.97D+00
                    CP:  1.99D+00  2.02D+00  2.44D+00  2.00D+00  2.53D+00
                    CP:  2.58D+00  2.84D+00  2.24D+00  1.71D+00
 E= -2180.72604680157     Delta-E=       -0.000000000022 Rises=F Damp=F
 DIIS: error= 2.10D-08 at cycle  20 NSaved=  20.
 NSaved=20 IEnMin=20 EnMin= -2180.72604680157     IErMin=20 ErrMin= 2.10D-08
 ErrMax= 2.10D-08  0.00D+00 EMaxC= 1.00D-01 BMatC= 9.24D-13 BMatP= 3.45D-12
 IDIUse=1 WtCom= 1.00D+00 WtEn= 0.00D+00
 Coeff-Com: -0.446D-06 0.102D-05-0.265D-06-0.373D-06 0.158D-04 0.279D-04
 Coeff-Com: -0.463D-04-0.161D-03-0.231D-03 0.678D-03 0.215D-02-0.731D-03
 Coeff-Com: -0.103D-01-0.760D-02 0.240D-01 0.862D-01-0.110D-01-0.421D+00
 Coeff-Com:  0.348D+00 0.990D+00
 Coeff:     -0.446D-06 0.102D-05-0.265D-06-0.373D-06 0.158D-04 0.279D-04
 Coeff:     -0.463D-04-0.161D-03-0.231D-03 0.678D-03 0.215D-02-0.731D-03
 Coeff:     -0.103D-01-0.760D-02 0.240D-01 0.862D-01-0.110D-01-0.421D+00
 Coeff:      0.348D+00 0.990D+00
 Gap=     0.321 Goal=   None    Shift=    0.000
 RMSDP=5.69D-09 MaxDP=5.55D-07 DE=-2.23D-11 OVMax= 1.97D-06

 Error on total polarization charges =  0.03219
 SCF Done:  E(RPBE+HF-P86) =  -2180.72604680     A.U. after   20 cycles
            NFock= 20  Conv=0.57D-08     -V/T= 2.0016
 KE= 2.177256245348D+03 PE=-8.670347952339D+03 EE= 2.544961766107D+03
 SMD-CDS (non-electrostatic) energy       (kcal/mol) =       2.68
 (included in total energy above)
 Leave Link  502 at Wed Apr 17 21:49:48 2024, MaxMem= 13421772800 cpu:           12970.3 elap:             409.6
 (Enter /public/software/apps/Gaussian/g16/l801.exe)
 DoSCS=T DFT=T ScalE2(SS,OS)=  0.079900  0.578500
 ExpMin= 3.93D-02 ExpMax= 2.77D+05 ExpMxC= 2.68D+03 IAcc=3 IRadAn=         5 AccDes= 0.00D+00
 HarFok:  IExCor=  205 AccDes= 0.00D+00 IRadAn=         5 IDoV=-2 UseB2=F ITyADJ=14
 ICtDFT= 12500011 ScaDFX=  1.000000  1.000000  1.000000  1.000000
 GSVD:  LWork=       -1073 too small for GESVD, short by        4640 words or        4640 for optimal perf.
 Largest valence mixing into a core orbital is  1.72D-03
 Largest core mixing into a valence orbital is  5.38D-04
 Range of M.O.s used for correlation:    30   781
 NBasis=   781 NAE=    75 NBE=    75 NFC=    29 NFV=     0
 NROrb=    752 NOA=    46 NOB=    46 NVA=   706 NVB=   706

 **** Warning!!: The largest alpha MO coefficient is  0.36910492D+02

 Leave Link  801 at Wed Apr 17 21:49:57 2024, MaxMem= 13421772800 cpu:              99.7 elap:               5.6
 (Enter /public/software/apps/Gaussian/g16/l906.exe)
 DoSCS=T DFT=T ScalE2(SS,OS)=  0.079900  0.578500
 FulOut=F Deriv=F AODrv=F NAtomX=    32
   MMem=          14  MDisk=          46 MDiskD=          46
  W3Min=    29001068 MinDsk=    29756819 NBas6D=         893
 NBas2D=      401121    NTT=      399171    LW2=     4508827
    MDV= 13418970352 MDiskM=       33388 NBas2p=      319246
 Disk-based method using OVN memory for 46 occupieds at a time.
 Estimated scratch disk usage= 33853182984 words.
 IMap=   1   2   3   4   5   6   7   8   9  10  11  12  13  14  15  16  17  18  19  20
 IMap=  21  22  23  24  25  26  27  28  29  30  31  32  33  34  35  36  37  38  39  40
 IMap=  41  42  43  44  45  46
 Actual    scratch disk usage= 31104341000 words.
 JobTyp=1 Pass  1:  I=   1 to  46 NPSUse= 32 ParTrn=T ParDer=T DoDerP=F.
 (rs|ai) integrals will be sorted in core.
 Spin components of T(2) and E(2):
     alpha-alpha T2 =       0.2581458851D+00 E2=     -0.4297663084D-01
     alpha-beta  T2 =       0.1164594201D+01 E2=     -0.1609779539D+01
     beta-beta   T2 =       0.2581458851D+00 E2=     -0.4297663084D-01
 The integrals were generated   1 times.
 E2 =    -0.1695732801D+01 EUMP2 =    -0.21824217796022D+04
 Leave Link  906 at Wed Apr 17 22:07:27 2024, MaxMem= 13421772800 cpu:           33052.1 elap:            1050.0
 (Enter /public/software/apps/Gaussian/g16/l601.exe)
 Copying SCF densities to generalized density rwf, IOpCl= 0 IROHF=0.

 **********************************************************************

            Population analysis using the SCF Density.

 **********************************************************************

 Orbital symmetries:
       Occupied  (A) (A) (A) (A) (A) (A) (A) (A) (A) (A) (A) (A)
                 (A) (A) (A) (A) (A) (A) (A) (A) (A) (A) (A) (A)
                 (A) (A) (A) (A) (A) (A) (A) (A) (A) (A) (A) (A)
                 (A) (A) (A) (A) (A) (A) (A) (A) (A) (A) (A) (A)
                 (A) (A) (A) (A) (A) (A) (A) (A) (A) (A) (A) (A)
                 (A) (A) (A) (A) (A) (A) (A) (A) (A) (A) (A) (A)
                 (A) (A) (A)
       Virtual   (A) (A) (A) (A) (A) (A) (A) (A) (A) (A) (A) (A)
                 (A) (A) (A) (A) (A) (A) (A) (A) (A) (A) (A) (A)
                 (A) (A) (A) (A) (A) (A) (A) (A) (A) (A) (A) (A)
                 (A) (A) (A) (A) (A) (A) (A) (A) (A) (A) (A) (A)
                 (A) (A) (A) (A) (A) (A) (A) (A) (A) (A) (A) (A)
                 (A) (A) (A) (A) (A) (A) (A) (A) (A) (A) (A) (A)
                 (A) (A) (A) (A) (A) (A) (A) (A) (A) (A) (A) (A)
                 (A) (A) (A) (A) (A) (A) (A) (A) (A) (A) (A) (A)
                 (A) (A) (A) (A) (A) (A) (A) (A) (A) (A) (A) (A)
                 (A) (A) (A) (A) (A) (A) (A) (A) (A) (A) (A) (A)
                 (A) (A) (A) (A) (A) (A) (A) (A) (A) (A) (A) (A)
                 (A) (A) (A) (A) (A) (A) (A) (A) (A) (A) (A) (A)
                 (A) (A) (A) (A) (A) (A) (A) (A) (A) (A) (A) (A)
                 (A) (A) (A) (A) (A) (A) (A) (A) (A) (A) (A) (A)
                 (A) (A) (A) (A) (A) (A) (A) (A) (A) (A) (A) (A)
                 (A) (A) (A) (A) (A) (A) (A) (A) (A) (A) (A) (A)
                 (A) (A) (A) (A) (A) (A) (A) (A) (A) (A) (A) (A)
                 (A) (A) (A) (A) (A) (A) (A) (A) (A) (A) (A) (A)
                 (A) (A) (A) (A) (A) (A) (A) (A) (A) (A) (A) (A)
                 (A) (A) (A) (A) (A) (A) (A) (A) (A) (A) (A) (A)
                 (A) (A) (A) (A) (A) (A) (A) (A) (A) (A) (A) (A)
                 (A) (A) (A) (A) (A) (A) (A) (A) (A) (A) (A) (A)
                 (A) (A) (A) (A) (A) (A) (A) (A) (A) (A) (A) (A)
                 (A) (A) (A) (A) (A) (A) (A) (A) (A) (A) (A) (A)
                 (A) (A) (A) (A) (A) (A) (A) (A) (A) (A) (A) (A)
                 (A) (A) (A) (A) (A) (A) (A) (A) (A) (A) (A) (A)
                 (A) (A) (A) (A) (A) (A) (A) (A) (A) (A) (A) (A)
                 (A) (A) (A) (A) (A) (A) (A) (A) (A) (A) (A) (A)
                 (A) (A) (A) (A) (A) (A) (A) (A) (A) (A) (A) (A)
                 (A) (A) (A) (A) (A) (A) (A) (A) (A) (A) (A) (A)
                 (A) (A) (A) (A) (A) (A) (A) (A) (A) (A) (A) (A)
                 (A) (A) (A) (A) (A) (A) (A) (A) (A) (A) (A) (A)
                 (A) (A) (A) (A) (A) (A) (A) (A) (A) (A) (A) (A)
                 (A) (A) (A) (A) (A) (A) (A) (A) (A) (A) (A) (A)
                 (A) (A) (A) (A) (A) (A) (A) (A) (A) (A) (A) (A)
                 (A) (A) (A) (A) (A) (A) (A) (A) (A) (A) (A) (A)
                 (A) (A) (A) (A) (A) (A) (A) (A) (A) (A) (A) (A)
                 (A) (A) (A) (A) (A) (A) (A) (A) (A) (A) (A) (A)
                 (A) (A) (A) (A) (A) (A) (A) (A) (A) (A) (A) (A)
                 (A) (A) (A) (A) (A) (A) (A) (A) (A) (A) (A) (A)
                 (A) (A) (A) (A) (A) (A) (A) (A) (A) (A) (A) (A)
                 (A) (A) (A) (A) (A) (A) (A) (A) (A) (A) (A) (A)
                 (A) (A) (A) (A) (A) (A) (A) (A) (A) (A) (A) (A)
                 (A) (A) (A) (A) (A) (A) (A) (A) (A) (A) (A) (A)
                 (A) (A) (A) (A) (A) (A) (A) (A) (A) (A) (A) (A)
                 (A) (A) (A) (A) (A) (A) (A) (A) (A) (A) (A) (A)
                 (A) (A) (A) (A) (A) (A) (A) (A) (A) (A) (A) (A)
                 (A) (A) (A) (A) (A) (A) (A) (A) (A) (A) (A) (A)
                 (A) (A) (A) (A) (A) (A) (A) (A) (A) (A) (A) (A)
                 (A) (A) (A) (A) (A) (A) (A) (A) (A) (A) (A) (A)
                 (A) (A) (A) (A) (A) (A) (A) (A) (A) (A) (A) (A)
                 (A) (A) (A) (A) (A) (A) (A) (A) (A) (A) (A) (A)
                 (A) (A) (A) (A) (A) (A) (A) (A) (A) (A) (A) (A)
                 (A) (A) (A) (A) (A) (A) (A) (A) (A) (A) (A) (A)
                 (A) (A) (A) (A) (A) (A) (A) (A) (A) (A) (A) (A)
                 (A) (A) (A) (A) (A) (A) (A) (A) (A) (A) (A) (A)
                 (A) (A) (A) (A) (A) (A) (A) (A) (A) (A) (A) (A)
                 (A) (A) (A) (A) (A) (A) (A) (A) (A) (A) (A) (A)
                 (A) (A) (A) (A) (A) (A) (A) (A) (A) (A)
 The electronic state is 1-A.
 Alpha  occ. eigenvalues -- -238.58491 -78.88941 -28.43761 -24.28067 -24.27799
 Alpha  occ. eigenvalues --  -24.27669 -20.08566 -20.08565 -20.08074 -10.94628
 Alpha  occ. eigenvalues --  -10.94626 -10.94374 -10.85715 -10.85204 -10.85193
 Alpha  occ. eigenvalues --  -10.83340 -10.83330 -10.82941 -10.82926 -10.82921
 Alpha  occ. eigenvalues --  -10.82764  -7.18903  -5.18300  -5.18296  -5.18279
 Alpha  occ. eigenvalues --   -3.55002  -2.29707  -2.29026  -2.28882  -1.35861
 Alpha  occ. eigenvalues --   -1.35785  -1.35370  -1.06301  -0.97765  -0.93256
 Alpha  occ. eigenvalues --   -0.92296  -0.86987  -0.86908  -0.78095  -0.74070
 Alpha  occ. eigenvalues --   -0.73008  -0.70606  -0.70567  -0.68509  -0.65204
 Alpha  occ. eigenvalues --   -0.61004  -0.59576  -0.57878  -0.57690  -0.57428
 Alpha  occ. eigenvalues --   -0.56531  -0.56429  -0.55993  -0.55714  -0.55544
 Alpha  occ. eigenvalues --   -0.55098  -0.54396  -0.53628  -0.53487  -0.53044
 Alpha  occ. eigenvalues --   -0.52182  -0.51187  -0.50858  -0.49898  -0.47560
 Alpha  occ. eigenvalues --   -0.45969  -0.45875  -0.44530  -0.43605  -0.42412
 Alpha  occ. eigenvalues --   -0.36297  -0.35188  -0.32675  -0.32330  -0.26999
 Alpha virt. eigenvalues --    0.05102   0.06469   0.06654   0.07216   0.07802
 Alpha virt. eigenvalues --    0.08976   0.09827   0.10037   0.11948   0.12023
 Alpha virt. eigenvalues --    0.12457   0.12602   0.12999   0.13873   0.14525
 Alpha virt. eigenvalues --    0.14849   0.15488   0.15522   0.15933   0.16483
 Alpha virt. eigenvalues --    0.16836   0.18197   0.18286   0.18793   0.19215
 Alpha virt. eigenvalues --    0.19445   0.19943   0.20119   0.20921   0.22002
 Alpha virt. eigenvalues --    0.22359   0.22739   0.24599   0.25069   0.25754
 Alpha virt. eigenvalues --    0.27277   0.27539   0.27947   0.28498   0.29732
 Alpha virt. eigenvalues --    0.30163   0.30424   0.30932   0.31650   0.31781
 Alpha virt. eigenvalues --    0.31926   0.33503   0.34186   0.34708   0.35575
 Alpha virt. eigenvalues --    0.35874   0.37566   0.37782   0.38709   0.38953
 Alpha virt. eigenvalues --    0.40252   0.40466   0.40700   0.42258   0.42527
 Alpha virt. eigenvalues --    0.43426   0.44075   0.44606   0.44917   0.45708
 Alpha virt. eigenvalues --    0.46278   0.46620   0.47523   0.48501   0.49127
 Alpha virt. eigenvalues --    0.49271   0.50338   0.50687   0.50862   0.51121
 Alpha virt. eigenvalues --    0.51519   0.52356   0.53010   0.53347   0.54172
 Alpha virt. eigenvalues --    0.54210   0.54737   0.55085   0.56152   0.56233
 Alpha virt. eigenvalues --    0.57170   0.57774   0.58217   0.58618   0.58869
 Alpha virt. eigenvalues --    0.59305   0.59513   0.60019   0.60393   0.61284
 Alpha virt. eigenvalues --    0.61541   0.63009   0.63607   0.64511   0.65276
 Alpha virt. eigenvalues --    0.66335   0.66502   0.67225   0.67677   0.67692
 Alpha virt. eigenvalues --    0.68890   0.69048   0.70932   0.71491   0.72152
 Alpha virt. eigenvalues --    0.72821   0.73072   0.74437   0.75205   0.76033
 Alpha virt. eigenvalues --    0.77068   0.77123   0.77721   0.77994   0.79289
 Alpha virt. eigenvalues --    0.79367   0.81187   0.82167   0.83136   0.83659
 Alpha virt. eigenvalues --    0.84811   0.86565   0.88217   0.88723   0.89079
 Alpha virt. eigenvalues --    0.90087   0.90629   0.91717   0.91925   0.92797
 Alpha virt. eigenvalues --    0.93103   0.94028   0.94299   0.95481   0.95639
 Alpha virt. eigenvalues --    0.96112   0.97113   0.98355   0.99799   1.00404
 Alpha virt. eigenvalues --    1.01183   1.01457   1.01588   1.01901   1.03090
 Alpha virt. eigenvalues --    1.03498   1.03895   1.04499   1.05426   1.06129
 Alpha virt. eigenvalues --    1.07659   1.08234   1.08770   1.09457   1.09994
 Alpha virt. eigenvalues --    1.10407   1.10850   1.11479   1.12422   1.12799
 Alpha virt. eigenvalues --    1.13171   1.15171   1.16249   1.17023   1.17672
 Alpha virt. eigenvalues --    1.19203   1.20211   1.21105   1.21504   1.21751
 Alpha virt. eigenvalues --    1.23333   1.24196   1.25078   1.26245   1.27379
 Alpha virt. eigenvalues --    1.28067   1.28446   1.29034   1.29404   1.30594
 Alpha virt. eigenvalues --    1.31486   1.31784   1.32731   1.33062   1.34330
 Alpha virt. eigenvalues --    1.34626   1.35372   1.36036   1.36864   1.37050
 Alpha virt. eigenvalues --    1.39288   1.39745   1.40827   1.41165   1.42419
 Alpha virt. eigenvalues --    1.43155   1.44691   1.45997   1.46099   1.46311
 Alpha virt. eigenvalues --    1.47088   1.47994   1.48718   1.49511   1.50393
 Alpha virt. eigenvalues --    1.50965   1.51423   1.51929   1.52658   1.53544
 Alpha virt. eigenvalues --    1.53655   1.54363   1.54619   1.55988   1.56609
 Alpha virt. eigenvalues --    1.56910   1.57422   1.57920   1.58636   1.59074
 Alpha virt. eigenvalues --    1.60306   1.60610   1.61103   1.61805   1.61960
 Alpha virt. eigenvalues --    1.62753   1.63521   1.63979   1.64434   1.64951
 Alpha virt. eigenvalues --    1.65804   1.66370   1.67995   1.68970   1.69208
 Alpha virt. eigenvalues --    1.69627   1.69818   1.70878   1.71484   1.72375
 Alpha virt. eigenvalues --    1.73625   1.74311   1.74654   1.75138   1.75747
 Alpha virt. eigenvalues --    1.76647   1.76835   1.77537   1.78101   1.80615
 Alpha virt. eigenvalues --    1.81064   1.81687   1.83474   1.84797   1.85050
 Alpha virt. eigenvalues --    1.85122   1.87222   1.88020   1.88761   1.90123
 Alpha virt. eigenvalues --    1.90703   1.94264   1.95142   1.95574   1.96279
 Alpha virt. eigenvalues --    1.97334   2.00281   2.04106   2.05014   2.05746
 Alpha virt. eigenvalues --    2.07285   2.07990   2.09058   2.10675   2.11504
 Alpha virt. eigenvalues --    2.12207   2.13423   2.14380   2.16729   2.18300
 Alpha virt. eigenvalues --    2.18407   2.18986   2.19626   2.20482   2.23754
 Alpha virt. eigenvalues --    2.25300   2.26669   2.26866   2.30602   2.32973
 Alpha virt. eigenvalues --    2.33391   2.34351   2.35425   2.37516   2.37734
 Alpha virt. eigenvalues --    2.38804   2.40023   2.42545   2.42829   2.45408
 Alpha virt. eigenvalues --    2.45986   2.47053   2.47542   2.47675   2.51161
 Alpha virt. eigenvalues --    2.51256   2.53101   2.53543   2.55731   2.57003
 Alpha virt. eigenvalues --    2.58893   2.61257   2.62707   2.63307   2.64187
 Alpha virt. eigenvalues --    2.64583   2.70035   2.70232   2.72677   2.73171
 Alpha virt. eigenvalues --    2.73706   2.74800   2.76813   2.76996   2.78900
 Alpha virt. eigenvalues --    2.79378   2.81430   2.82283   2.83521   2.84112
 Alpha virt. eigenvalues --    2.86003   2.86229   2.86765   2.87538   2.88310
 Alpha virt. eigenvalues --    2.89507   2.90373   2.90932   2.91279   2.92898
 Alpha virt. eigenvalues --    2.94526   2.95731   2.96415   2.97035   2.97622
 Alpha virt. eigenvalues --    2.98557   2.99002   3.00531   3.01059   3.01409
 Alpha virt. eigenvalues --    3.02107   3.02264   3.03337   3.04174   3.04779
 Alpha virt. eigenvalues --    3.05239   3.06733   3.07773   3.09414   3.09813
 Alpha virt. eigenvalues --    3.10457   3.11862   3.12171   3.12924   3.13421
 Alpha virt. eigenvalues --    3.14130   3.14425   3.15365   3.15708   3.16458
 Alpha virt. eigenvalues --    3.17340   3.17838   3.18131   3.18454   3.19902
 Alpha virt. eigenvalues --    3.20454   3.20887   3.21396   3.22838   3.23881
 Alpha virt. eigenvalues --    3.24324   3.24561   3.25663   3.26352   3.26966
 Alpha virt. eigenvalues --    3.27833   3.28506   3.29337   3.29388   3.29934
 Alpha virt. eigenvalues --    3.30178   3.30905   3.31632   3.32087   3.32559
 Alpha virt. eigenvalues --    3.33193   3.34449   3.35105   3.35467   3.35655
 Alpha virt. eigenvalues --    3.36646   3.37037   3.37177   3.37840   3.38237
 Alpha virt. eigenvalues --    3.39280   3.39783   3.40569   3.41645   3.41871
 Alpha virt. eigenvalues --    3.43058   3.43482   3.43832   3.44583   3.45237
 Alpha virt. eigenvalues --    3.45805   3.47457   3.48007   3.49064   3.49601
 Alpha virt. eigenvalues --    3.50007   3.50761   3.51798   3.52331   3.52794
 Alpha virt. eigenvalues --    3.54340   3.54398   3.55111   3.56854   3.57696
 Alpha virt. eigenvalues --    3.58427   3.59226   3.60210   3.61212   3.62314
 Alpha virt. eigenvalues --    3.63510   3.63715   3.64176   3.64729   3.65766
 Alpha virt. eigenvalues --    3.66215   3.66981   3.67203   3.68907   3.69681
 Alpha virt. eigenvalues --    3.70723   3.71117   3.72132   3.72213   3.73857
 Alpha virt. eigenvalues --    3.73936   3.75131   3.75686   3.77615   3.77994
 Alpha virt. eigenvalues --    3.78192   3.80412   3.80873   3.82265   3.83555
 Alpha virt. eigenvalues --    3.84219   3.84829   3.85797   3.86511   3.86755
 Alpha virt. eigenvalues --    3.87730   3.88451   3.89924   3.91011   3.92233
 Alpha virt. eigenvalues --    3.93138   3.94133   3.95307   3.95339   3.95859
 Alpha virt. eigenvalues --    3.97479   3.98844   4.00503   4.01011   4.01474
 Alpha virt. eigenvalues --    4.01870   4.03655   4.04935   4.05414   4.07604
 Alpha virt. eigenvalues --    4.08579   4.09094   4.09765   4.09949   4.10332
 Alpha virt. eigenvalues --    4.11300   4.11716   4.11986   4.13502   4.14622
 Alpha virt. eigenvalues --    4.14886   4.15853   4.16604   4.18153   4.19107
 Alpha virt. eigenvalues --    4.19700   4.19909   4.21496   4.21772   4.21967
 Alpha virt. eigenvalues --    4.23477   4.23679   4.24152   4.24835   4.25771
 Alpha virt. eigenvalues --    4.26517   4.27288   4.28246   4.29617   4.30184
 Alpha virt. eigenvalues --    4.31248   4.31883   4.32580   4.33256   4.33535
 Alpha virt. eigenvalues --    4.34091   4.34889   4.36490   4.38414   4.39037
 Alpha virt. eigenvalues --    4.41060   4.43083   4.43240   4.43792   4.44650
 Alpha virt. eigenvalues --    4.45090   4.47150   4.47985   4.48284   4.49571
 Alpha virt. eigenvalues --    4.51363   4.53504   4.53803   4.54349   4.55079
 Alpha virt. eigenvalues --    4.56809   4.59535   4.60738   4.63126   4.65863
 Alpha virt. eigenvalues --    4.66877   4.67640   4.69269   4.72693   4.73107
 Alpha virt. eigenvalues --    4.73925   4.74512   4.75476   4.75998   4.76796
 Alpha virt. eigenvalues --    4.77399   4.77723   4.78334   4.81052   4.82932
 Alpha virt. eigenvalues --    4.84232   4.85609   4.86397   4.87837   4.95121
 Alpha virt. eigenvalues --    4.96940   5.01659   5.02731   5.05422   5.08512
 Alpha virt. eigenvalues --    5.09712   5.12514   5.17386   5.19054   5.20583
 Alpha virt. eigenvalues --    5.22739   5.24570   5.27095   5.27248   5.27501
 Alpha virt. eigenvalues --    5.27931   5.29357   5.29628   5.30218   5.32478
 Alpha virt. eigenvalues --    5.32575   5.33034   5.33546   5.34364   5.34595
 Alpha virt. eigenvalues --    5.35592   5.35949   5.36142   5.36170   5.36300
 Alpha virt. eigenvalues --    5.36399   5.36632   5.37570   5.39583   5.39908
 Alpha virt. eigenvalues --    5.40584   5.41127   5.42447   5.43671   5.45317
 Alpha virt. eigenvalues --    5.46398   5.47023   5.50543   5.51686   5.53512
 Alpha virt. eigenvalues --    5.55537   5.57475   5.60165   5.60699   5.61113
 Alpha virt. eigenvalues --    5.62862   5.67293   5.72294   5.75756   5.76021
 Alpha virt. eigenvalues --    5.76331   5.78038   5.79906   5.80846   5.81852
 Alpha virt. eigenvalues --    5.82414   5.82578   5.83874   5.86052   5.88223
 Alpha virt. eigenvalues --    5.90772   5.91720   5.95337   6.04006   6.11543
 Alpha virt. eigenvalues --    6.24732   6.26596   6.30005   6.49657   6.50930
 Alpha virt. eigenvalues --    6.51766   6.56656   6.56803   6.56969   6.57084
 Alpha virt. eigenvalues --    6.57793   6.58056   6.58471   6.63819   6.64082
 Alpha virt. eigenvalues --    6.65777   6.67745   6.68025   6.71329   6.89979
 Alpha virt. eigenvalues --    6.92418   6.92497   7.01524   7.06333   7.07062
 Alpha virt. eigenvalues --    7.11495   7.12372   7.13657   7.32350   7.38943
 Alpha virt. eigenvalues --    7.39341   7.52965   7.53153   7.54141   7.63637
 Alpha virt. eigenvalues --    7.70492   7.70958   7.75232   7.76156   7.83041
 Alpha virt. eigenvalues --    8.27188   8.30073   8.35917   8.47436   8.65364
 Alpha virt. eigenvalues --    8.79041   8.80992   8.99904   9.11963   9.12476
 Alpha virt. eigenvalues --   16.44968  23.72167  23.85732  23.88122  23.97010
 Alpha virt. eigenvalues --   24.01370  24.02015  24.17637  24.19970  24.21576
 Alpha virt. eigenvalues --   24.22690  24.27560  24.33688  44.80065  44.80938
 Alpha virt. eigenvalues --   44.85810
          Condensed to atoms (all electrons):
               1          2          3          4          5          6
     1  C    5.236173   0.321062  -0.034247  -0.125250   0.088965   0.441696
     2  C    0.321062   5.278133   0.239446   0.137107  -0.124171  -0.039073
     3  C   -0.034247   0.239446   5.077889   0.240979  -0.035016   0.007084
     4  C   -0.125250   0.137107   0.240979   5.277109   0.319666  -0.003887
     5  C    0.088965  -0.124171  -0.035016   0.319666   5.239717   0.013308
     6  H    0.441696  -0.039073   0.007084  -0.003887   0.013308   0.475909
     7  H   -0.020509   0.433783  -0.021673   0.003140  -0.001765  -0.002701
     8  H    0.011182  -0.042799   0.454571  -0.042998   0.011201   0.000029
     9  H   -0.001814   0.003209  -0.020920   0.433087  -0.019731   0.000036
    10  H    0.013088  -0.003722   0.007087  -0.039884   0.442648  -0.000142
    11  Mn   0.003288   0.072359   0.102086   0.073241   0.004932   0.001047
    12  C   -0.041138   0.041544  -0.016553   0.006028  -0.028428  -0.001733
    13  C   -0.029211   0.005939  -0.018365   0.042652  -0.041966  -0.000189
    14  O    0.000193  -0.000296  -0.000282  -0.003605  -0.000168   0.000000
    15  O   -0.000187  -0.003592  -0.000291  -0.000297   0.000192  -0.000054
    16  C   -0.003802  -0.039325   0.008344  -0.038931  -0.005085  -0.000370
    17  O   -0.003068  -0.000179   0.000017  -0.000206  -0.003067   0.000204
    18  C    0.209022   0.016542   0.001078   0.018661   0.202917  -0.038981
    19  H   -0.015057   0.003520  -0.001954   0.003573  -0.015658  -0.001361
    20  P   -0.028258   0.005186   0.007248   0.003993  -0.026428   0.001196
    21  C    0.006804  -0.000224  -0.000208  -0.000389   0.007141  -0.000085
    22  H    0.002695  -0.003865  -0.000004  -0.002050   0.000544   0.000022
    23  H    0.000099  -0.000736  -0.001502  -0.002883   0.002599   0.000132
    24  H   -0.000968   0.000336   0.000210   0.000330  -0.000944  -0.000011
    25  C    0.001182  -0.000282   0.000086  -0.002280   0.002940  -0.000146
    26  H   -0.000131   0.000020  -0.000000   0.000024  -0.000322   0.000004
    27  H    0.000021   0.000023  -0.000018   0.000205  -0.001008  -0.000014
    28  H    0.000198  -0.000125   0.000007   0.000054   0.003320   0.000006
    29  C    0.003584  -0.002068   0.000269  -0.000544   0.001820  -0.001672
    30  H   -0.000606   0.000075  -0.000004   0.000009   0.000169   0.000154
    31  H   -0.000287   0.000021   0.000001   0.000018  -0.000132   0.000074
    32  H    0.002085   0.000548  -0.000101  -0.000029  -0.000068  -0.001997
               7          8          9         10         11         12
     1  C   -0.020509   0.011182  -0.001814   0.013088   0.003288  -0.041138
     2  C    0.433783  -0.042799   0.003209  -0.003722   0.072359   0.041544
     3  C   -0.021673   0.454571  -0.020920   0.007087   0.102086  -0.016553
     4  C    0.003140  -0.042998   0.433087  -0.039884   0.073241   0.006028
     5  C   -0.001765   0.011201  -0.019731   0.442648   0.004932  -0.028428
     6  H   -0.002701   0.000029   0.000036  -0.000142   0.001047  -0.001733
     7  H    0.450342  -0.001731   0.000037   0.000038  -0.000519   0.000137
     8  H   -0.001731   0.471547  -0.001686   0.000029   0.008400  -0.003203
     9  H    0.000037  -0.001686   0.450123  -0.002709  -0.001113   0.000525
    10  H    0.000038   0.000029  -0.002709   0.475317   0.001108  -0.000188
    11  Mn  -0.000519   0.008400  -0.001113   0.001108  24.306133   0.163776
    12  C    0.000137  -0.003203   0.000525  -0.000188   0.163776   5.157627
    13  C    0.000561  -0.003344   0.000195  -0.001862   0.159951  -0.020957
    14  O   -0.000002   0.000097   0.001998  -0.000053  -0.028402  -0.003542
    15  O    0.001990   0.000097  -0.000002   0.000000  -0.028618   0.629594
    16  C    0.000214   0.000255   0.000218  -0.000372   0.093699  -0.051240
    17  O    0.000003   0.000000   0.000003   0.000214  -0.034317   0.000527
    18  C    0.001639  -0.003742   0.001602  -0.038906   0.070697   0.009303
    19  H   -0.000120   0.000025  -0.000122  -0.001363  -0.021500   0.000191
    20  P    0.000520   0.000291   0.000527   0.001196  -0.022886  -0.000534
    21  C    0.000312   0.000218   0.000192  -0.000061  -0.006330  -0.000039
    22  H   -0.000076   0.000332   0.000427   0.000095  -0.001690  -0.000012
    23  H    0.000527   0.000168  -0.000058   0.000022  -0.001626  -0.000009
    24  H    0.000004  -0.000025   0.000006  -0.000009   0.000267   0.000001
    25  C    0.000001   0.000004  -0.000068  -0.001741   0.000329   0.000003
    26  H    0.000000  -0.000000   0.000004   0.000090  -0.000003  -0.000000
    27  H   -0.000000  -0.000000  -0.000001   0.000096  -0.000182  -0.000000
    28  H   -0.000000   0.000001  -0.000053  -0.002088   0.000033   0.000000
    29  C   -0.000066   0.000006  -0.000002  -0.000162   0.000153   0.000001
    30  H   -0.000001  -0.000000  -0.000000  -0.000011  -0.000213  -0.000001
    31  H    0.000003  -0.000000   0.000000   0.000004  -0.000001  -0.000000
    32  H   -0.000029   0.000000   0.000000   0.000002   0.000138   0.000000
              13         14         15         16         17         18
     1  C   -0.029211   0.000193  -0.000187  -0.003802  -0.003068   0.209022
     2  C    0.005939  -0.000296  -0.003592  -0.039325  -0.000179   0.016542
     3  C   -0.018365  -0.000282  -0.000291   0.008344   0.000017   0.001078
     4  C    0.042652  -0.003605  -0.000297  -0.038931  -0.000206   0.018661
     5  C   -0.041966  -0.000168   0.000192  -0.005085  -0.003067   0.202917
     6  H   -0.000189   0.000000  -0.000054  -0.000370   0.000204  -0.038981
     7  H    0.000561  -0.000002   0.001990   0.000214   0.000003   0.001639
     8  H   -0.003344   0.000097   0.000097   0.000255   0.000000  -0.003742
     9  H    0.000195   0.001998  -0.000002   0.000218   0.000003   0.001602
    10  H   -0.001862  -0.000053   0.000000  -0.000372   0.000214  -0.038906
    11  Mn   0.159951  -0.028402  -0.028618   0.093699  -0.034317   0.070697
    12  C   -0.020957  -0.003542   0.629594  -0.051240   0.000527   0.009303
    13  C    5.165107   0.629331  -0.003580  -0.049325   0.000373   0.009280
    14  O    0.629331   7.604726   0.000215  -0.003891   0.000167  -0.000087
    15  O   -0.003580   0.000215   7.604762  -0.003841   0.000167  -0.000088
    16  C   -0.049325  -0.003891  -0.003841   5.272864   0.620356   0.024383
    17  O    0.000373   0.000167   0.000167   0.620356   7.621658  -0.000026
    18  C    0.009280  -0.000087  -0.000088   0.024383  -0.000026   4.866348
    19  H    0.000217  -0.000002  -0.000002   0.006738   0.003342   0.437205
    20  P   -0.000533   0.000001   0.000001  -0.002738  -0.000090   0.330131
    21  C   -0.000043  -0.000000  -0.000000  -0.000033  -0.000001  -0.031989
    22  H   -0.000014   0.000000  -0.000000  -0.000012   0.000000  -0.004375
    23  H   -0.000010  -0.000000   0.000000  -0.000014   0.000000  -0.004831
    24  H    0.000001   0.000000   0.000000  -0.000000  -0.000000   0.003593
    25  C    0.000000  -0.000000  -0.000000   0.000070   0.000002  -0.019083
    26  H   -0.000000   0.000000   0.000000  -0.000002  -0.000000   0.003021
    27  H   -0.000001   0.000000  -0.000000  -0.000013   0.000000  -0.000340
    28  H   -0.000001   0.000000  -0.000000   0.000012   0.000000  -0.003995
    29  C    0.000001  -0.000000  -0.000000   0.000097   0.000003  -0.020062
    30  H   -0.000000  -0.000000   0.000000  -0.000016  -0.000000  -0.001670
    31  H   -0.000000   0.000000   0.000000  -0.000002  -0.000000   0.003034
    32  H    0.000001  -0.000000   0.000000   0.000012   0.000000  -0.002313
              19         20         21         22         23         24
     1  C   -0.015057  -0.028258   0.006804   0.002695   0.000099  -0.000968
     2  C    0.003520   0.005186  -0.000224  -0.003865  -0.000736   0.000336
     3  C   -0.001954   0.007248  -0.000208  -0.000004  -0.001502   0.000210
     4  C    0.003573   0.003993  -0.000389  -0.002050  -0.002883   0.000330
     5  C   -0.015658  -0.026428   0.007141   0.000544   0.002599  -0.000944
     6  H   -0.001361   0.001196  -0.000085   0.000022   0.000132  -0.000011
     7  H   -0.000120   0.000520   0.000312  -0.000076   0.000527   0.000004
     8  H    0.000025   0.000291   0.000218   0.000332   0.000168  -0.000025
     9  H   -0.000122   0.000527   0.000192   0.000427  -0.000058   0.000006
    10  H   -0.001363   0.001196  -0.000061   0.000095   0.000022  -0.000009
    11  Mn  -0.021500  -0.022886  -0.006330  -0.001690  -0.001626   0.000267
    12  C    0.000191  -0.000534  -0.000039  -0.000012  -0.000009   0.000001
    13  C    0.000217  -0.000533  -0.000043  -0.000014  -0.000010   0.000001
    14  O   -0.000002   0.000001  -0.000000   0.000000  -0.000000   0.000000
    15  O   -0.000002   0.000001  -0.000000  -0.000000   0.000000   0.000000
    16  C    0.006738  -0.002738  -0.000033  -0.000012  -0.000014  -0.000000
    17  O    0.003342  -0.000090  -0.000001   0.000000   0.000000  -0.000000
    18  C    0.437205   0.330131  -0.031989  -0.004375  -0.004831   0.003593
    19  H    0.508217  -0.041136   0.002373  -0.000096  -0.000098  -0.000111
    20  P   -0.041136  13.266788   0.343152  -0.013898  -0.013659  -0.018367
    21  C    0.002373   0.343152   4.831022   0.410418   0.409895   0.414908
    22  H   -0.000096  -0.013898   0.410418   0.484524  -0.006645  -0.010336
    23  H   -0.000098  -0.013659   0.409895  -0.006645   0.485774  -0.010311
    24  H   -0.000111  -0.018367   0.414908  -0.010336  -0.010311   0.471773
    25  C    0.001341   0.355728  -0.024429  -0.001439   0.002812  -0.002373
    26  H   -0.000223  -0.018491  -0.002770  -0.000040  -0.000030   0.000537
    27  H    0.000527  -0.018020   0.002998  -0.000060  -0.000093  -0.000045
    28  H    0.000364  -0.015311  -0.001178   0.000417  -0.000047  -0.000022
    29  C    0.001540   0.354200  -0.024202   0.002797  -0.001366  -0.002587
    30  H    0.000577  -0.017198   0.002967  -0.000091  -0.000048  -0.000040
    31  H   -0.000233  -0.018524  -0.002716  -0.000026  -0.000067   0.000570
    32  H    0.000425  -0.016281  -0.001157  -0.000052   0.000348  -0.000025
              25         26         27         28         29         30
     1  C    0.001182  -0.000131   0.000021   0.000198   0.003584  -0.000606
     2  C   -0.000282   0.000020   0.000023  -0.000125  -0.002068   0.000075
     3  C    0.000086  -0.000000  -0.000018   0.000007   0.000269  -0.000004
     4  C   -0.002280   0.000024   0.000205   0.000054  -0.000544   0.000009
     5  C    0.002940  -0.000322  -0.001008   0.003320   0.001820   0.000169
     6  H   -0.000146   0.000004  -0.000014   0.000006  -0.001672   0.000154
     7  H    0.000001   0.000000  -0.000000  -0.000000  -0.000066  -0.000001
     8  H    0.000004  -0.000000  -0.000000   0.000001   0.000006  -0.000000
     9  H   -0.000068   0.000004  -0.000001  -0.000053  -0.000002  -0.000000
    10  H   -0.001741   0.000090   0.000096  -0.002088  -0.000162  -0.000011
    11  Mn   0.000329  -0.000003  -0.000182   0.000033   0.000153  -0.000213
    12  C    0.000003  -0.000000  -0.000000   0.000000   0.000001  -0.000001
    13  C    0.000000  -0.000000  -0.000001  -0.000001   0.000001  -0.000000
    14  O   -0.000000   0.000000   0.000000   0.000000  -0.000000  -0.000000
    15  O   -0.000000   0.000000  -0.000000  -0.000000  -0.000000   0.000000
    16  C    0.000070  -0.000002  -0.000013   0.000012   0.000097  -0.000016
    17  O    0.000002  -0.000000   0.000000   0.000000   0.000003  -0.000000
    18  C   -0.019083   0.003021  -0.000340  -0.003995  -0.020062  -0.001670
    19  H    0.001341  -0.000223   0.000527   0.000364   0.001540   0.000577
    20  P    0.355728  -0.018491  -0.018020  -0.015311   0.354200  -0.017198
    21  C   -0.024429  -0.002770   0.002998  -0.001178  -0.024202   0.002967
    22  H   -0.001439  -0.000040  -0.000060   0.000417   0.002797  -0.000091
    23  H    0.002812  -0.000030  -0.000093  -0.000047  -0.001366  -0.000048
    24  H   -0.002373   0.000537  -0.000045  -0.000022  -0.002587  -0.000040
    25  C    4.842520   0.416104   0.409798   0.407883  -0.026938  -0.001660
    26  H    0.416104   0.478151  -0.009376  -0.010795  -0.002573  -0.000043
    27  H    0.409798  -0.009376   0.483543  -0.009122  -0.001731   0.000368
    28  H    0.407883  -0.010795  -0.009122   0.484333   0.002994  -0.000043
    29  C   -0.026938  -0.002573  -0.001731   0.002994   4.842839   0.409638
    30  H   -0.001660  -0.000043   0.000368  -0.000043   0.409638   0.484428
    31  H   -0.002494   0.000543  -0.000040  -0.000040   0.416023  -0.009412
    32  H    0.002960  -0.000036  -0.000041  -0.000093   0.408351  -0.009377
              31         32
     1  C   -0.000287   0.002085
     2  C    0.000021   0.000548
     3  C    0.000001  -0.000101
     4  C    0.000018  -0.000029
     5  C   -0.000132  -0.000068
     6  H    0.000074  -0.001997
     7  H    0.000003  -0.000029
     8  H   -0.000000   0.000000
     9  H    0.000000   0.000000
    10  H    0.000004   0.000002
    11  Mn  -0.000001   0.000138
    12  C   -0.000000   0.000000
    13  C   -0.000000   0.000001
    14  O    0.000000  -0.000000
    15  O    0.000000   0.000000
    16  C   -0.000002   0.000012
    17  O   -0.000000   0.000000
    18  C    0.003034  -0.002313
    19  H   -0.000233   0.000425
    20  P   -0.018524  -0.016281
    21  C   -0.002716  -0.001157
    22  H   -0.000026  -0.000052
    23  H   -0.000067   0.000348
    24  H    0.000570  -0.000025
    25  C   -0.002494   0.002960
    26  H    0.000543  -0.000036
    27  H   -0.000040  -0.000041
    28  H   -0.000040  -0.000093
    29  C    0.416023   0.408351
    30  H   -0.009412  -0.009377
    31  H    0.479106  -0.010845
    32  H   -0.010845   0.484685
 Mulliken charges:
               1
     1  C   -0.036804
     2  C   -0.298397
     3  C    0.004736
     4  C   -0.296644
     5  C   -0.038120
     6  H    0.151514
     7  H    0.155941
     8  H    0.141074
     9  H    0.156090
    10  H    0.152238
    11  Mn   0.085762
    12  C    0.158321
    13  C    0.155795
    14  O   -0.196398
    15  O   -0.196466
    16  C    0.171751
    17  O   -0.206084
    18  C   -0.037968
    19  H    0.128863
    20  P    0.602196
    21  C   -0.336545
    22  H    0.142509
    23  H    0.141656
    24  H    0.153636
    25  C   -0.360831
    26  H    0.146338
    27  H    0.142526
    28  H    0.143292
    29  C   -0.360343
    30  H    0.142049
    31  H    0.145422
    32  H    0.142890
 Sum of Mulliken charges =   1.00000
 Mulliken charges with hydrogens summed into heavy atoms:
               1
     1  C    0.114710
     2  C   -0.142456
     3  C    0.145810
     4  C   -0.140554
     5  C    0.114119
    11  Mn   0.085762
    12  C    0.158321
    13  C    0.155795
    14  O   -0.196398
    15  O   -0.196466
    16  C    0.171751
    17  O   -0.206084
    18  C    0.090895
    20  P    0.602196
    21  C    0.101256
    25  C    0.071325
    29  C    0.070019
 Electronic spatial extent (au):  <R**2>=           4739.3940
 Charge=              1.0000 electrons
 Dipole moment (field-independent basis, Debye):
    X=            -15.0573    Y=             -1.6631    Z=              0.1327  Tot=             15.1494
 Quadrupole moment (field-independent basis, Debye-Ang):
   XX=            -76.5033   YY=           -108.5355   ZZ=           -106.2377
   XY=             -4.6659   XZ=              0.3698   YZ=              0.1843
 Traceless Quadrupole moment (field-independent basis, Debye-Ang):
   XX=             20.5889   YY=            -11.4434   ZZ=             -9.1455
   XY=             -4.6659   XZ=              0.3698   YZ=              0.1843
 Octapole moment (field-independent basis, Debye-Ang**2):
  XXX=           -191.3038  YYY=            -23.0890  ZZZ=             -0.5617  XYY=            -13.6936
  XXY=             12.9584  XXZ=             -0.9941  XZZ=            -28.5751  YZZ=              1.9370
  YYZ=              2.2079  XYZ=             -1.2501
 Hexadecapole moment (field-independent basis, Debye-Ang**3):
 XXXX=          -3503.6840 YYYY=          -1020.1979 ZZZZ=           -954.5125 XXXY=             24.8383
 XXXZ=             -2.4120 YYYX=            -61.4477 YYYZ=              7.2719 ZZZX=              0.1951
 ZZZY=             -2.7327 XXYY=           -797.7181 XXZZ=           -878.8654 YYZZ=           -307.8794
 XXYZ=             -6.4325 YYXZ=              4.9266 ZZXY=              1.1291
 N-N= 1.767403894082D+03 E-N=-8.670347957492D+03  KE= 2.177256245348D+03
 Leave Link  601 at Wed Apr 17 22:12:02 2024, MaxMem= 13421772800 cpu:              25.2 elap:              11.7
 (Enter /public/software/apps/Gaussian/g16/l9999.exe)

 Test job not archived.
 1\1\GINC-NODE12\SP\RDSDPBEP86-FC\def2TZVPP\C12H15Mn1O3P1(1+)\WCH_HG\17
 -Apr-2024\0\\#p scrf=(smd,solvent=nitromethane) def2tzvpp dsdpbep86 em
 =gd3bj iop(3/125=0079905785,3/78=0429604296,3/76=0310006900,3/74=1004,
  3/174=0437700,3/175=-1,3/176=0,3/177=-1,3/178=5500000)\\Title Card Re
 quired\\1,1\C,0,0.385861,0.235115,-1.18487\C,0,-0.129137,-1.063063,-1.
 303862\C,0,-0.380867,-1.852125,-0.144935\C,0,-0.126433,-1.251085,1.121
 407\C,0,0.387184,0.050484,1.201975\H,0,0.449628,0.863825,-2.07402\H,0,
 -0.467756,-1.4249,-2.27672\H,0,-0.801638,-2.853124,-0.22208\H,0,-0.463
 078,-1.758212,2.027764\H,0,0.451052,0.535722,2.176832\Mn,0,-1.486355,-
 0.006651,-0.000796\C,0,-2.737348,-0.161225,-1.301735\C,0,-2.736122,-0.
 367191,1.259848\O,0,-3.517859,-0.607106,2.067792\O,0,-3.519953,-0.2679
 31,-2.136931\C,0,-1.62645,1.786028,0.14239\O,0,-1.665036,2.932293,0.23
 4289\C,0,1.179109,0.614585,0.044683\H,0,1.24372,1.709709,0.128971\P,0,
 2.962699,0.080199,0.005345\C,0,3.095578,-1.707636,-0.215051\H,0,2.5964
 6,-2.219891,0.61823\H,0,2.624794,-1.999776,-1.163041\H,0,4.159123,-1.9
 85383,-0.232763\C,0,3.739587,0.544864,1.569413\H,0,4.797556,0.246421,1
 .555078\H,0,3.664943,1.632747,1.706779\H,0,3.226453,0.032159,2.395372\
 C,0,3.784378,0.916303,-1.369255\H,0,3.7265,2.003616,-1.219268\H,0,4.83
 7785,0.604663,-1.412645\H,0,3.283602,0.647324,-2.31002\\Version=ES64L-
 G16RevC.01\State=1-A\HF=-2180.7260468\MP2=-2182.4217796\RMSD=5.692e-09
 \PG=C01 [X(C12H15Mn1O3P1)]\\@


 THIS CURIOUS WORLD WHICH WE INHABIT IS MORE WONDERFUL THAN IT IS CONVENIENT;
 MORE BEAUTIFUL THAN IT IS USEFUL;
 IT IS MORE TO BE ADMIRED THAN IT IS TO BE USED.

                                                                 -- THOREAU
 Job cpu time:       0 days 12 hours 57 minutes 40.8 seconds.
 Elapsed time:       0 days  0 hours 24 minutes 55.8 seconds.
 File lengths (MBytes):  RWF= 237748 Int=      0 D2E=      0 Chk=     42 Scr=      2
 Normal termination of Gaussian 16 at Wed Apr 17 22:12:06 2024.
