 Entering Gaussian System, Link 0=g16
 Initial command:
 /home/cathayana/g16/l1.exe "/home/cathayana/g16/scratch/Gau-108059.inp" -scrdir="/home/cathayana/g16/scratch/"
 Default is to use a total of   5 processors:
                                5 via shared-memory
                                1 via Linda
 Entering Link 1 = /home/cathayana/g16/l1.exe PID=    108061.
  
 Copyright (c) 1988-2019, Gaussian, Inc.  All Rights Reserved.
  
 This is part of the Gaussian(R) 16 program.  It is based on
 the Gaussian(R) 09 system (copyright 2009, Gaussian, Inc.),
 the Gaussian(R) 03 system (copyright 2003, Gaussian, Inc.),
 the Gaussian(R) 98 system (copyright 1998, Gaussian, Inc.),
 the Gaussian(R) 94 system (copyright 1995, Gaussian, Inc.),
 the Gaussian 92(TM) system (copyright 1992, Gaussian, Inc.),
 the Gaussian 90(TM) system (copyright 1990, Gaussian, Inc.),
 the Gaussian 88(TM) system (copyright 1988, Gaussian, Inc.),
 the Gaussian 86(TM) system (copyright 1986, Carnegie Mellon
 University), and the Gaussian 82(TM) system (copyright 1983,
 Carnegie Mellon University). Gaussian is a federally registered
 trademark of Gaussian, Inc.
  
 This software contains proprietary and confidential information,
 including trade secrets, belonging to Gaussian, Inc.
  
 This software is provided under written license and may be
 used, copied, transmitted, or stored only in accord with that
 written license.
  
 The following legend is applicable only to US Government
 contracts under FAR:
  
                    RESTRICTED RIGHTS LEGEND
  
 Use, reproduction and disclosure by the US Government is
 subject to restrictions as set forth in subparagraphs (a)
 and (c) of the Commercial Computer Software - Restricted
 Rights clause in FAR 52.227-19.
  
 Gaussian, Inc.
 340 Quinnipiac St., Bldg. 40, Wallingford CT 06492
  
  
 ---------------------------------------------------------------
 Warning -- This program may not be used in any manner that
 competes with the business of Gaussian, Inc. or will provide
 assistance to any competitor of Gaussian, Inc.  The licensee
 of this program is prohibited from giving any competitor of
 Gaussian, Inc. access to this program.  By using this program,
 the user acknowledges that Gaussian, Inc. is engaged in the
 business of creating and licensing software in the field of
 computational chemistry and represents and warrants to the
 licensee that it is not a competitor of Gaussian, Inc. and that
 it will not use this program in any manner prohibited above.
 ---------------------------------------------------------------
  

 Cite this work as:
 Gaussian 16, Revision C.01,
 M. J. Frisch, G. W. Trucks, H. B. Schlegel, G. E. Scuseria, 
 M. A. Robb, J. R. Cheeseman, G. Scalmani, V. Barone, 
 G. A. Petersson, H. Nakatsuji, X. Li, M. Caricato, A. V. Marenich, 
 J. Bloino, B. G. Janesko, R. Gomperts, B. Mennucci, H. P. Hratchian, 
 J. V. Ortiz, A. F. Izmaylov, J. L. Sonnenberg, D. Williams-Young, 
 F. Ding, F. Lipparini, F. Egidi, J. Goings, B. Peng, A. Petrone, 
 T. Henderson, D. Ranasinghe, V. G. Zakrzewski, J. Gao, N. Rega, 
 G. Zheng, W. Liang, M. Hada, M. Ehara, K. Toyota, R. Fukuda, 
 J. Hasegawa, M. Ishida, T. Nakajima, Y. Honda, O. Kitao, H. Nakai, 
 T. Vreven, K. Throssell, J. A. Montgomery, Jr., J. E. Peralta, 
 F. Ogliaro, M. J. Bearpark, J. J. Heyd, E. N. Brothers, K. N. Kudin, 
 V. N. Staroverov, T. A. Keith, R. Kobayashi, J. Normand, 
 K. Raghavachari, A. P. Rendell, J. C. Burant, S. S. Iyengar, 
 J. Tomasi, M. Cossi, J. M. Millam, M. Klene, C. Adamo, R. Cammi, 
 J. W. Ochterski, R. L. Martin, K. Morokuma, O. Farkas, 
 J. B. Foresman, and D. J. Fox, Gaussian, Inc., Wallingford CT, 2019.
 
 ******************************************
 Gaussian 16:  ES64L-G16RevC.01  3-Jul-2019
                 1-Feb-2024 
 ******************************************
 %nprocshared=10
 Will use up to   10 processors via shared memory.
 %mem=10GB
 -----------------
 # opt b3lyp/6-31G
 -----------------
 1/18=20,19=15,26=3,38=1/1,3;
 2/9=110,12=2,17=6,18=5,40=1/2;
 3/5=1,6=6,11=2,25=1,30=1,71=1,74=-5/1,2,3;
 4//1;
 5/5=2,38=5/2;
 6/7=2,8=2,9=2,10=2,28=1/1;
 7//1,2,3,16;
 1/18=20,19=15,26=3/3(2);
 2/9=110/2;
 99//99;
 2/9=110/2;
 3/5=1,6=6,11=2,25=1,30=1,71=1,74=-5/1,2,3;
 4/5=5,16=3,69=1/1;
 5/5=2,38=5/2;
 7//1,2,3,16;
 1/18=20,19=15,26=3/3(-5);
 2/9=110/2;
 6/7=2,8=2,9=2,10=2,19=2,28=1/1;
 99/9=1/99;
 ----------
 molecule_0
 ----------
 Symbolic Z-matrix:
 Charge =  0 Multiplicity = 1
 C                    -2.44309  -0.78093   0.00538 
 C                    -0.95284  -0.66362  -0.21761 
 C                    -2.44324   0.78065   0.00523 
 C                    -0.95299   0.66357  -0.21772 
 C                     0.39913   1.27669  -0.34799 
 C                     1.21557   0.0001   -0.76793 
 C                     0.39931  -1.27659  -0.34801 
 C                     2.66607   0.00015  -0.30914 
 C                     0.83226   1.93511   0.96274 
 C                     0.83268  -1.93514   0.96259 
 H                    -2.739    -1.23366   0.95041 
 H                    -3.00355  -1.23853  -0.80839 
 H                    -2.73925   1.23349   0.95017 
 H                    -3.00376   1.23801  -0.80864 
 H                     0.45675   2.02706  -1.14331 
 H                     1.21805   0.00012  -1.86354 
 H                     0.45689  -2.02689  -1.14341 
 H                     3.17701  -0.88021  -0.6941 
 H                     3.17688   0.88069  -0.69387 
 H                     2.74679   0.00001   0.77311 
 H                     1.83968   2.33597   0.88751 
 H                     0.79567   1.22124   1.7816 
 H                     0.15478   2.75461   1.19544 
 H                     1.83978  -2.33669   0.88683 
 H                     0.15474  -2.7541    1.19574 
 H                     0.79705  -1.22112   1.78135 
 

 GradGradGradGradGradGradGradGradGradGradGradGradGradGradGradGradGradGrad
 Berny optimization.
 Initialization pass.
                           ----------------------------
                           !    Initial Parameters    !
                           ! (Angstroms and Degrees)  !
 --------------------------                            --------------------------
 ! Name  Definition              Value          Derivative Info.                !
 --------------------------------------------------------------------------------
 ! R1    R(1,2)                  1.5114         estimate D2E/DX2                !
 ! R2    R(1,3)                  1.5616         estimate D2E/DX2                !
 ! R3    R(1,11)                 1.0889         estimate D2E/DX2                !
 ! R4    R(1,12)                 1.0889         estimate D2E/DX2                !
 ! R5    R(2,4)                  1.3272         estimate D2E/DX2                !
 ! R6    R(2,7)                  1.4903         estimate D2E/DX2                !
 ! R7    R(3,4)                  1.5114         estimate D2E/DX2                !
 ! R8    R(3,13)                 1.0888         estimate D2E/DX2                !
 ! R9    R(3,14)                 1.0889         estimate D2E/DX2                !
 ! R10   R(4,5)                  1.4903         estimate D2E/DX2                !
 ! R11   R(5,6)                  1.5725         estimate D2E/DX2                !
 ! R12   R(5,9)                  1.5294         estimate D2E/DX2                !
 ! R13   R(5,15)                 1.0949         estimate D2E/DX2                !
 ! R14   R(6,7)                  1.5724         estimate D2E/DX2                !
 ! R15   R(6,8)                  1.5213         estimate D2E/DX2                !
 ! R16   R(6,16)                 1.0956         estimate D2E/DX2                !
 ! R17   R(7,10)                 1.5294         estimate D2E/DX2                !
 ! R18   R(7,17)                 1.095          estimate D2E/DX2                !
 ! R19   R(8,18)                 1.0883         estimate D2E/DX2                !
 ! R20   R(8,19)                 1.0883         estimate D2E/DX2                !
 ! R21   R(8,20)                 1.0853         estimate D2E/DX2                !
 ! R22   R(9,21)                 1.0868         estimate D2E/DX2                !
 ! R23   R(9,22)                 1.087          estimate D2E/DX2                !
 ! R24   R(9,23)                 1.0884         estimate D2E/DX2                !
 ! R25   R(10,24)                1.0868         estimate D2E/DX2                !
 ! R26   R(10,25)                1.0884         estimate D2E/DX2                !
 ! R27   R(10,26)                1.087          estimate D2E/DX2                !
 ! A1    A(2,1,3)               85.553          estimate D2E/DX2                !
 ! A2    A(2,1,11)             115.3587         estimate D2E/DX2                !
 ! A3    A(2,1,12)             115.4581         estimate D2E/DX2                !
 ! A4    A(3,1,11)             114.5721         estimate D2E/DX2                !
 ! A5    A(3,1,12)             114.8418         estimate D2E/DX2                !
 ! A6    A(11,1,12)            109.5123         estimate D2E/DX2                !
 ! A7    A(1,2,4)               94.4463         estimate D2E/DX2                !
 ! A8    A(1,2,7)              151.1135         estimate D2E/DX2                !
 ! A9    A(4,2,7)              114.2922         estimate D2E/DX2                !
 ! A10   A(1,3,4)               85.5525         estimate D2E/DX2                !
 ! A11   A(1,3,13)             114.5718         estimate D2E/DX2                !
 ! A12   A(1,3,14)             114.8432         estimate D2E/DX2                !
 ! A13   A(4,3,13)             115.3591         estimate D2E/DX2                !
 ! A14   A(4,3,14)             115.4572         estimate D2E/DX2                !
 ! A15   A(13,3,14)            109.5121         estimate D2E/DX2                !
 ! A16   A(2,4,3)               94.4482         estimate D2E/DX2                !
 ! A17   A(2,4,5)              114.2869         estimate D2E/DX2                !
 ! A18   A(3,4,5)              151.1159         estimate D2E/DX2                !
 ! A19   A(4,5,6)               99.2307         estimate D2E/DX2                !
 ! A20   A(4,5,9)              111.0469         estimate D2E/DX2                !
 ! A21   A(4,5,15)             113.1514         estimate D2E/DX2                !
 ! A22   A(6,5,9)              115.5522         estimate D2E/DX2                !
 ! A23   A(6,5,15)             109.576          estimate D2E/DX2                !
 ! A24   A(9,5,15)             108.2141         estimate D2E/DX2                !
 ! A25   A(5,6,7)              108.5609         estimate D2E/DX2                !
 ! A26   A(5,6,8)              114.4866         estimate D2E/DX2                !
 ! A27   A(5,6,16)             105.5584         estimate D2E/DX2                !
 ! A28   A(7,6,8)              114.4828         estimate D2E/DX2                !
 ! A29   A(7,6,16)             105.5598         estimate D2E/DX2                !
 ! A30   A(8,6,16)             107.4222         estimate D2E/DX2                !
 ! A31   A(2,7,6)               99.23           estimate D2E/DX2                !
 ! A32   A(2,7,10)             111.0515         estimate D2E/DX2                !
 ! A33   A(2,7,17)             113.1474         estimate D2E/DX2                !
 ! A34   A(6,7,10)             115.5536         estimate D2E/DX2                !
 ! A35   A(6,7,17)             109.5765         estimate D2E/DX2                !
 ! A36   A(10,7,17)            108.2123         estimate D2E/DX2                !
 ! A37   A(6,8,18)             109.9348         estimate D2E/DX2                !
 ! A38   A(6,8,19)             109.9346         estimate D2E/DX2                !
 ! A39   A(6,8,20)             111.8177         estimate D2E/DX2                !
 ! A40   A(18,8,19)            108.0064         estimate D2E/DX2                !
 ! A41   A(18,8,20)            108.526          estimate D2E/DX2                !
 ! A42   A(19,8,20)            108.526          estimate D2E/DX2                !
 ! A43   A(5,9,21)             111.2204         estimate D2E/DX2                !
 ! A44   A(5,9,22)             110.6929         estimate D2E/DX2                !
 ! A45   A(5,9,23)             109.3339         estimate D2E/DX2                !
 ! A46   A(21,9,22)            109.001          estimate D2E/DX2                !
 ! A47   A(21,9,23)            108.3037         estimate D2E/DX2                !
 ! A48   A(22,9,23)            108.2079         estimate D2E/DX2                !
 ! A49   A(7,10,24)            111.2184         estimate D2E/DX2                !
 ! A50   A(7,10,25)            109.3327         estimate D2E/DX2                !
 ! A51   A(7,10,26)            110.692          estimate D2E/DX2                !
 ! A52   A(24,10,25)           108.3062         estimate D2E/DX2                !
 ! A53   A(24,10,26)           109.0013         estimate D2E/DX2                !
 ! A54   A(25,10,26)           108.2094         estimate D2E/DX2                !
 ! D1    D(3,1,2,4)              0.0005         estimate D2E/DX2                !
 ! D2    D(3,1,2,7)            174.3356         estimate D2E/DX2                !
 ! D3    D(11,1,2,4)          -115.1317         estimate D2E/DX2                !
 ! D4    D(11,1,2,7)            59.2034         estimate D2E/DX2                !
 ! D5    D(12,1,2,4)           115.4473         estimate D2E/DX2                !
 ! D6    D(12,1,2,7)           -70.2175         estimate D2E/DX2                !
 ! D7    D(2,1,3,4)             -0.0004         estimate D2E/DX2                !
 ! D8    D(2,1,3,13)          -115.9001         estimate D2E/DX2                !
 ! D9    D(2,1,3,14)           116.0454         estimate D2E/DX2                !
 ! D10   D(11,1,3,4)           115.899          estimate D2E/DX2                !
 ! D11   D(11,1,3,13)           -0.0007         estimate D2E/DX2                !
 ! D12   D(11,1,3,14)         -128.0552         estimate D2E/DX2                !
 ! D13   D(12,1,3,4)          -116.0472         estimate D2E/DX2                !
 ! D14   D(12,1,3,13)          128.0531         estimate D2E/DX2                !
 ! D15   D(12,1,3,14)           -0.0014         estimate D2E/DX2                !
 ! D16   D(1,2,4,3)             -0.0005         estimate D2E/DX2                !
 ! D17   D(1,2,4,5)            176.9909         estimate D2E/DX2                !
 ! D18   D(7,2,4,3)           -177.0016         estimate D2E/DX2                !
 ! D19   D(7,2,4,5)             -0.0103         estimate D2E/DX2                !
 ! D20   D(1,2,7,6)            173.5644         estimate D2E/DX2                !
 ! D21   D(1,2,7,10)           -64.3752         estimate D2E/DX2                !
 ! D22   D(1,2,7,17)            57.5465         estimate D2E/DX2                !
 ! D23   D(4,2,7,6)            -12.634          estimate D2E/DX2                !
 ! D24   D(4,2,7,10)           109.4264         estimate D2E/DX2                !
 ! D25   D(4,2,7,17)          -128.6519         estimate D2E/DX2                !
 ! D26   D(1,3,4,2)              0.0005         estimate D2E/DX2                !
 ! D27   D(1,3,4,5)           -174.3155         estimate D2E/DX2                !
 ! D28   D(13,3,4,2)           115.1321         estimate D2E/DX2                !
 ! D29   D(13,3,4,5)           -59.1838         estimate D2E/DX2                !
 ! D30   D(14,3,4,2)          -115.4477         estimate D2E/DX2                !
 ! D31   D(14,3,4,5)            70.2364         estimate D2E/DX2                !
 ! D32   D(2,4,5,6)             12.6489         estimate D2E/DX2                !
 ! D33   D(2,4,5,9)           -109.4083         estimate D2E/DX2                !
 ! D34   D(2,4,5,15)           128.6682         estimate D2E/DX2                !
 ! D35   D(3,4,5,6)           -173.5703         estimate D2E/DX2                !
 ! D36   D(3,4,5,9)             64.3725         estimate D2E/DX2                !
 ! D37   D(3,4,5,15)           -57.5509         estimate D2E/DX2                !
 ! D38   D(4,5,6,7)            -19.9816         estimate D2E/DX2                !
 ! D39   D(4,5,6,8)           -149.275          estimate D2E/DX2                !
 ! D40   D(4,5,6,16)            92.7996         estimate D2E/DX2                !
 ! D41   D(9,5,6,7)             98.7682         estimate D2E/DX2                !
 ! D42   D(9,5,6,8)            -30.5252         estimate D2E/DX2                !
 ! D43   D(9,5,6,16)          -148.4506         estimate D2E/DX2                !
 ! D44   D(15,5,6,7)          -138.7028         estimate D2E/DX2                !
 ! D45   D(15,5,6,8)            92.0038         estimate D2E/DX2                !
 ! D46   D(15,5,6,16)          -25.9217         estimate D2E/DX2                !
 ! D47   D(4,5,9,21)           176.9156         estimate D2E/DX2                !
 ! D48   D(4,5,9,22)            55.5821         estimate D2E/DX2                !
 ! D49   D(4,5,9,23)           -63.529          estimate D2E/DX2                !
 ! D50   D(6,5,9,21)            64.9233         estimate D2E/DX2                !
 ! D51   D(6,5,9,22)           -56.4101         estimate D2E/DX2                !
 ! D52   D(6,5,9,23)          -175.5213         estimate D2E/DX2                !
 ! D53   D(15,5,9,21)          -58.3265         estimate D2E/DX2                !
 ! D54   D(15,5,9,22)         -179.66           estimate D2E/DX2                !
 ! D55   D(15,5,9,23)           61.2289         estimate D2E/DX2                !
 ! D56   D(5,6,7,2)             19.9763         estimate D2E/DX2                !
 ! D57   D(5,6,7,10)           -98.7792         estimate D2E/DX2                !
 ! D58   D(5,6,7,17)           138.6929         estimate D2E/DX2                !
 ! D59   D(8,6,7,2)            149.2718         estimate D2E/DX2                !
 ! D60   D(8,6,7,10)            30.5162         estimate D2E/DX2                !
 ! D61   D(8,6,7,17)           -92.0117         estimate D2E/DX2                !
 ! D62   D(16,6,7,2)           -92.804          estimate D2E/DX2                !
 ! D63   D(16,6,7,10)          148.4405         estimate D2E/DX2                !
 ! D64   D(16,6,7,17)           25.9126         estimate D2E/DX2                !
 ! D65   D(5,6,8,18)          -176.2394         estimate D2E/DX2                !
 ! D66   D(5,6,8,19)           -57.4677         estimate D2E/DX2                !
 ! D67   D(5,6,8,20)            63.1463         estimate D2E/DX2                !
 ! D68   D(7,6,8,18)            57.4814         estimate D2E/DX2                !
 ! D69   D(7,6,8,19)           176.253          estimate D2E/DX2                !
 ! D70   D(7,6,8,20)           -63.1329         estimate D2E/DX2                !
 ! D71   D(16,6,8,18)          -59.3788         estimate D2E/DX2                !
 ! D72   D(16,6,8,19)           59.3929         estimate D2E/DX2                !
 ! D73   D(16,6,8,20)         -179.993          estimate D2E/DX2                !
 ! D74   D(2,7,10,24)         -176.9704         estimate D2E/DX2                !
 ! D75   D(2,7,10,25)           63.4731         estimate D2E/DX2                !
 ! D76   D(2,7,10,26)          -55.6386         estimate D2E/DX2                !
 ! D77   D(6,7,10,24)          -64.975          estimate D2E/DX2                !
 ! D78   D(6,7,10,25)          175.4685         estimate D2E/DX2                !
 ! D79   D(6,7,10,26)           56.3568         estimate D2E/DX2                !
 ! D80   D(17,7,10,24)          58.275          estimate D2E/DX2                !
 ! D81   D(17,7,10,25)         -61.2815         estimate D2E/DX2                !
 ! D82   D(17,7,10,26)         179.6068         estimate D2E/DX2                !
 --------------------------------------------------------------------------------
 Trust Radius=3.00D-01 FncErr=1.00D-07 GrdErr=1.00D-06 EigMax=2.50D+02 EigMin=1.00D-04
 Number of steps in this run=    156 maximum allowed number of steps=    156.
 GradGradGradGradGradGradGradGradGradGradGradGradGradGradGradGradGradGrad

                          Input orientation:                          
 ---------------------------------------------------------------------
 Center     Atomic      Atomic             Coordinates (Angstroms)
 Number     Number       Type             X           Y           Z
 ---------------------------------------------------------------------
      1          6           0       -2.443090   -0.780933    0.005381
      2          6           0       -0.952845   -0.663619   -0.217608
      3          6           0       -2.443242    0.780648    0.005231
      4          6           0       -0.952989    0.663571   -0.217723
      5          6           0        0.399129    1.276694   -0.347991
      6          6           0        1.215567    0.000104   -0.767931
      7          6           0        0.399315   -1.276590   -0.348005
      8          6           0        2.666067    0.000147   -0.309144
      9          6           0        0.832263    1.935114    0.962742
     10          6           0        0.832685   -1.935136    0.962586
     11          1           0       -2.739001   -1.233658    0.950412
     12          1           0       -3.003545   -1.238533   -0.808387
     13          1           0       -2.739251    1.233489    0.950167
     14          1           0       -3.003765    1.238011   -0.808637
     15          1           0        0.456747    2.027061   -1.143309
     16          1           0        1.218047    0.000123   -1.863536
     17          1           0        0.456885   -2.026886   -1.143410
     18          1           0        3.177012   -0.880213   -0.694104
     19          1           0        3.176882    0.880687   -0.693868
     20          1           0        2.746791    0.000008    0.773109
     21          1           0        1.839679    2.335969    0.887506
     22          1           0        0.795668    1.221244    1.781602
     23          1           0        0.154779    2.754611    1.195439
     24          1           0        1.839783   -2.336692    0.886832
     25          1           0        0.154740   -2.754101    1.195737
     26          1           0        0.797046   -1.221118    1.781348
 ---------------------------------------------------------------------
                    Distance matrix (angstroms):
                    1          2          3          4          5
     1  C    0.000000
     2  C    1.511396   0.000000
     3  C    1.561581   2.087307   0.000000
     4  C    2.087287   1.327191   1.511380   0.000000
     5  C    3.526600   2.368470   2.906872   1.490341   0.000000
     6  C    3.820183   2.333536   3.820198   2.333571   1.572451
     7  C    2.906858   1.490326   3.526632   2.368528   2.553284
     8  C    5.178079   3.680420   5.178133   3.680498   2.601940
     9  C    4.361351   3.366489   3.602576   2.489467   1.529425
    10  C    3.602655   2.489524   4.361618   3.366755   3.495917
    11  H    1.088856   2.208975   2.244609   2.855495   4.223219
    12  H    1.088911   2.210185   2.247889   2.858612   4.256351
    13  H    2.244600   2.855515   1.088849   2.208960   3.396544
    14  H    2.247913   2.858633   1.088920   2.210167   3.434149
    15  H    4.196829   3.175474   3.358962   2.168680   1.094943
    16  H    4.184115   2.803997   4.184082   2.803972   2.144093
    17  H    3.358865   2.168627   4.196709   3.175406   3.398481
    18  H    5.664334   4.162893   5.902100   4.434762   3.533932
    19  H    5.902034   4.434675   5.664321   4.162894   2.827076
    20  H    5.304162   3.887059   5.304289   3.887215   2.897984
    21  H    5.369854   4.244643   4.641212   3.437651   2.173407
    22  H    4.201574   3.256816   3.720237   2.714057   2.166907
    23  H    4.545902   3.861066   3.473160   2.756198   2.150842
    24  H    4.641157   3.437692   5.370226   4.245138   4.081278
    25  H    3.472616   2.755794   4.545467   3.860754   4.323209
    26  H    3.721062   2.714544   4.202514   3.257447   3.306281
                    6          7          8          9         10
     6  C    0.000000
     7  C    1.572435   0.000000
     8  C    1.521328   2.601871   0.000000
     9  C    2.624198   3.495789   2.953749   0.000000
    10  C    2.624203   1.529425   2.953626   3.870250   0.000000
    11  H    4.484805   3.396580   5.685378   4.774430   3.639939
    12  H    4.397358   3.434073   5.824781   5.284161   4.282319
    13  H    4.484828   4.223310   5.685461   3.639800   4.774837
    14  H    4.397366   4.256330   5.824843   4.282388   5.284358
    15  H    2.196650   3.398517   3.112123   2.141242   4.502792
    16  H    1.095607   2.144097   2.124358   3.446863   3.446839
    17  H    2.196650   1.094956   3.112129   4.502691   2.141229
    18  H    2.151203   2.827101   1.088251   4.021075   3.058325
    19  H    2.151202   3.533885   1.088253   3.058334   4.020940
    20  H    2.172430   2.897800   1.085259   2.728739   2.728459
    21  H    2.930231   4.080651   2.751537   1.086845   4.388851
    22  H    2.857905   3.306281   3.059525   1.086960   3.261118
    23  H    3.545053   4.323493   4.019628   1.088443   4.744208
    24  H    2.930614   2.173382   2.752075   4.389667   1.086845
    25  H    3.544995   2.150813   4.019616   4.743633   1.088426
    26  H    2.857511   2.166890   3.058576   3.260852   1.086952
                   11         12         13         14         15
    11  H    0.000000
    12  H    1.778590   0.000000
    13  H    2.467147   3.045202   0.000000
    14  H    3.045242   2.476544   1.778589   0.000000
    15  H    5.022824   4.769686   3.902154   3.565074   0.000000
    16  H    5.009865   4.524317   5.009822   4.524253   2.281837
    17  H    3.902178   3.564873   5.022788   4.769457   4.053947
    18  H    6.150493   6.191990   6.494115   6.534676   4.006728
    19  H    6.493980   6.534668   6.150443   6.192031   2.985850
    20  H    5.625592   6.091099   5.625788   6.091262   3.609142
    21  H    5.806074   6.253794   4.710201   5.247987   2.476315
    22  H    4.383070   5.214649   3.631403   4.598403   3.052756
    23  H    4.933587   5.471337   3.278625   4.036434   2.467844
    24  H    4.710200   5.247623   5.806699   6.254044   5.007654
    25  H    3.278059   4.035867   4.933190   5.470889   5.331216
    26  H    3.632387   4.599078   4.384217   5.215506   4.384073
                   16         17         18         19         20
    16  H    0.000000
    17  H    2.281823   0.000000
    18  H    2.445426   2.985938   0.000000
    19  H    2.445517   4.006801   1.760900   0.000000
    20  H    3.047779   3.609018   1.764253   1.764255   0.000000
    21  H    3.662081   5.007119   3.825412   2.531146   2.508516
    22  H    3.867373   4.384155   4.026914   3.451682   2.513038
    23  H    4.251478   5.331435   5.090796   4.026683   3.805881
    24  H    3.662210   2.475938   2.531575   3.825960   2.509135
    25  H    4.251532   2.468146   4.027044   5.090740   3.805583
    26  H    3.867021   3.052733   3.450843   4.025904   2.511813
                   21         22         23         24         25
    21  H    0.000000
    22  H    1.769740   0.000000
    23  H    1.763228   1.762255   0.000000
    24  H    4.672660   3.814406   5.371763   0.000000
    25  H    5.370553   4.069077   5.508712   1.763242   0.000000
    26  H    3.812992   2.442362   4.069671   1.769735   1.762252
                   26
    26  H    0.000000
 Stoichiometry    C10H16
 Framework group  C1[X(C10H16)]
 Deg. of freedom    72
 Full point group                 C1      NOp   1
 Largest Abelian subgroup         C1      NOp   1
 Largest concise Abelian subgroup C1      NOp   1
                         Standard orientation:                         
 ---------------------------------------------------------------------
 Center     Atomic      Atomic             Coordinates (Angstroms)
 Number     Number       Type             X           Y           Z
 ---------------------------------------------------------------------
      1          6           0        2.477917    0.780935   -0.012970
      2          6           0        0.987930    0.663621   -0.237678
      3          6           0        2.478071   -0.780646   -0.013126
      4          6           0        0.988076   -0.663570   -0.237798
      5          6           0       -0.363891   -1.276693   -0.369628
      6          6           0       -1.179844   -0.000102   -0.790505
      7          6           0       -0.364078    1.276590   -0.369633
      8          6           0       -2.630873   -0.000148   -0.333392
      9          6           0       -0.798536   -1.935117    0.940603
     10          6           0       -0.798961    1.935133    0.940459
     11          1           0        2.772737    1.233657    0.932404
     12          1           0        3.039310    1.238538   -0.826089
     13          1           0        2.772990   -1.233490    0.932151
     14          1           0        3.039532   -1.238005   -0.826347
     15          1           0       -0.420591   -2.027058   -1.165014
     16          1           0       -1.181060   -0.000118   -1.886112
     17          1           0       -0.420732    2.026890   -1.165101
     18          1           0       -3.141374    0.880213   -0.718937
     19          1           0       -3.141243   -0.880688   -0.718707
     20          1           0       -2.712846   -0.000012    0.748768
     21          1           0       -1.805864   -2.335973    0.864204
     22          1           0       -0.762886   -1.221250    1.759507
     23          1           0       -0.121320   -2.754615    1.174078
     24          1           0       -1.805971    2.336687    0.863545
     25          1           0       -0.121286    2.754097    1.174395
     26          1           0       -0.764265    1.221112    1.759260
 ---------------------------------------------------------------------
 Rotational constants (GHZ):           1.9763773           1.2146360           0.9035193
 Standard basis: 6-31G (6D, 7F)
 There are   122 symmetry adapted cartesian basis functions of A   symmetry.
 There are   122 symmetry adapted basis functions of A   symmetry.
   122 basis functions,   284 primitive gaussians,   122 cartesian basis functions
    38 alpha electrons       38 beta electrons
       nuclear repulsion energy       556.0431456851 Hartrees.
 NAtoms=   26 NActive=   26 NUniq=   26 SFac= 1.00D+00 NAtFMM=   60 NAOKFM=F Big=F
 Integral buffers will be    131072 words long.
 Raffenetti 2 integral format.
 Two-electron integral symmetry is turned on.
 One-electron integrals computed using PRISM.
 NBasis=   122 RedAO= T EigKep=  1.04D-03  NBF=   122
 NBsUse=   122 1.00D-06 EigRej= -1.00D+00 NBFU=   122
 ExpMin= 1.61D-01 ExpMax= 3.05D+03 ExpMxC= 4.57D+02 IAcc=3 IRadAn=         5 AccDes= 0.00D+00
 Harris functional with IExCor=  402 and IRadAn=       5 diagonalized for initial guess.
 HarFok:  IExCor=  402 AccDes= 0.00D+00 IRadAn=         5 IDoV= 1 UseB2=F ITyADJ=14
 ICtDFT=  3500011 ScaDFX=  1.000000  1.000000  1.000000  1.000000
 FoFCou: FMM=F IPFlag=           0 FMFlag=      100000 FMFlg1=           0
         NFxFlg=           0 DoJE=T BraDBF=F KetDBF=T FulRan=T
         wScrn=  0.000000 ICntrl=       500 IOpCl=  0 I1Cent=   200000004 NGrid=           0
         NMat0=    1 NMatS0=      1 NMatT0=    0 NMatD0=    1 NMtDS0=    0 NMtDT0=    0
 Petite list used in FoFCou.
 Requested convergence on RMS density matrix=1.00D-08 within 128 cycles.
 Requested convergence on MAX density matrix=1.00D-06.
 Requested convergence on             energy=1.00D-06.
 No special actions if energy rises.
 Integral accuracy reduced to 1.0D-05 until final iterations.
 Initial convergence to 1.0D-05 achieved.  Increase integral accuracy.
 SCF Done:  E(RB3LYP) =  -390.531623156     A.U. after   13 cycles
            NFock= 13  Conv=0.45D-08     -V/T= 2.0043

 **********************************************************************

            Population analysis using the SCF Density.

 **********************************************************************

 Orbital symmetries:
       Occupied  (A) (A) (A) (A) (A) (A) (A) (A) (A) (A) (A) (A)
                 (A) (A) (A) (A) (A) (A) (A) (A) (A) (A) (A) (A)
                 (A) (A) (A) (A) (A) (A) (A) (A) (A) (A) (A) (A)
                 (A) (A)
       Virtual   (A) (A) (A) (A) (A) (A) (A) (A) (A) (A) (A) (A)
                 (A) (A) (A) (A) (A) (A) (A) (A) (A) (A) (A) (A)
                 (A) (A) (A) (A) (A) (A) (A) (A) (A) (A) (A) (A)
                 (A) (A) (A) (A) (A) (A) (A) (A) (A) (A) (A) (A)
                 (A) (A) (A) (A) (A) (A) (A) (A) (A) (A) (A) (A)
                 (A) (A) (A) (A) (A) (A) (A) (A) (A) (A) (A) (A)
                 (A) (A) (A) (A) (A) (A) (A) (A) (A) (A) (A) (A)
 The electronic state is 1-A.
 Alpha  occ. eigenvalues --  -10.17840 -10.17837 -10.17722 -10.17714 -10.17601
 Alpha  occ. eigenvalues --  -10.15996 -10.15996 -10.15939 -10.15673 -10.15590
 Alpha  occ. eigenvalues --   -0.88056  -0.80940  -0.75810  -0.71793  -0.68654
 Alpha  occ. eigenvalues --   -0.63966  -0.61511  -0.60347  -0.53442  -0.49376
 Alpha  occ. eigenvalues --   -0.47761  -0.46012  -0.45061  -0.42385  -0.41280
 Alpha  occ. eigenvalues --   -0.39314  -0.38239  -0.37869  -0.37646  -0.36681
 Alpha  occ. eigenvalues --   -0.36386  -0.35407  -0.31995  -0.31560  -0.30490
 Alpha  occ. eigenvalues --   -0.29439  -0.29079  -0.21768
 Alpha virt. eigenvalues --    0.04432   0.08130   0.11137   0.12138   0.12484
 Alpha virt. eigenvalues --    0.13850   0.14804   0.15065   0.16637   0.17124
 Alpha virt. eigenvalues --    0.17504   0.17814   0.18566   0.19309   0.19366
 Alpha virt. eigenvalues --    0.20225   0.21974   0.22427   0.22582   0.23290
 Alpha virt. eigenvalues --    0.23805   0.24571   0.27619   0.29962   0.31013
 Alpha virt. eigenvalues --    0.35480   0.38940   0.45602   0.52981   0.53952
 Alpha virt. eigenvalues --    0.55940   0.56171   0.56444   0.57751   0.58562
 Alpha virt. eigenvalues --    0.62031   0.62431   0.62480   0.66305   0.66349
 Alpha virt. eigenvalues --    0.68878   0.69075   0.70204   0.70589   0.76473
 Alpha virt. eigenvalues --    0.77969   0.79263   0.79547   0.81788   0.82992
 Alpha virt. eigenvalues --    0.83450   0.87034   0.88117   0.89706   0.90679
 Alpha virt. eigenvalues --    0.92058   0.92766   0.93448   0.93747   0.94195
 Alpha virt. eigenvalues --    0.95512   0.96419   0.96754   0.97780   0.99252
 Alpha virt. eigenvalues --    0.99887   1.01666   1.04497   1.06502   1.08340
 Alpha virt. eigenvalues --    1.09583   1.10636   1.15810   1.18916   1.30494
 Alpha virt. eigenvalues --    1.31407   1.37734   1.40464   1.48487   1.56587
 Alpha virt. eigenvalues --    1.66451   1.87270   1.99181   2.02092
          Condensed to atoms (all electrons):
               1          2          3          4          5          6
     1  C    5.221653   0.325153   0.276032  -0.177683   0.023433   0.004749
     2  C    0.325153   5.054807  -0.177663   0.733111  -0.083321  -0.055927
     3  C    0.276032  -0.177663   5.221648   0.325145  -0.032911   0.004746
     4  C   -0.177683   0.733111   0.325145   5.054801   0.312425  -0.055930
     5  C    0.023433  -0.083321  -0.032911   0.312425   5.187056   0.320709
     6  C    0.004749  -0.055927   0.004746  -0.055930   0.320709   5.187871
     7  C   -0.032913   0.312419   0.023433  -0.083331  -0.084962   0.320679
     8  C   -0.000131   0.005416  -0.000131   0.005417  -0.050532   0.315216
     9  C   -0.000558  -0.006080  -0.000836  -0.066215   0.328079  -0.049134
    10  C   -0.000838  -0.066194  -0.000558  -0.006060   0.001508  -0.049125
    11  H    0.349828  -0.027289  -0.025514  -0.003200  -0.000749   0.000128
    12  H    0.349025  -0.025686  -0.023728  -0.004004  -0.000652  -0.000202
    13  H   -0.025513  -0.003202   0.349826  -0.027288  -0.001126   0.000128
    14  H   -0.023726  -0.004004   0.349030  -0.025684  -0.000070  -0.000202
    15  H   -0.000502   0.002887  -0.001339  -0.042655   0.374363  -0.042823
    16  H   -0.000354  -0.000366  -0.000354  -0.000364  -0.040640   0.372957
    17  H   -0.001340  -0.042666  -0.000502   0.002882   0.006012  -0.042825
    18  H    0.000003   0.000400   0.000002  -0.000265   0.005718  -0.032517
    19  H    0.000002  -0.000265   0.000003   0.000400  -0.003527  -0.032522
    20  H   -0.000011   0.000132  -0.000011   0.000132  -0.007898  -0.035824
    21  H    0.000014  -0.000027   0.000031   0.006656  -0.031329  -0.005798
    22  H   -0.000172   0.002623  -0.000410  -0.003015  -0.039195  -0.005266
    23  H   -0.000011   0.000045   0.001158  -0.004149  -0.034099   0.005601
    24  H    0.000031   0.006656   0.000014  -0.000028   0.000025  -0.005785
    25  H    0.001160  -0.004158  -0.000012   0.000044  -0.000249   0.005601
    26  H   -0.000410  -0.003018  -0.000172   0.002618   0.002085  -0.005274
               7          8          9         10         11         12
     1  C   -0.032913  -0.000131  -0.000558  -0.000838   0.349828   0.349025
     2  C    0.312419   0.005416  -0.006080  -0.066194  -0.027289  -0.025686
     3  C    0.023433  -0.000131  -0.000836  -0.000558  -0.025514  -0.023728
     4  C   -0.083331   0.005417  -0.066215  -0.006060  -0.003200  -0.004004
     5  C   -0.084962  -0.050532   0.328079   0.001508  -0.000749  -0.000652
     6  C    0.320679   0.315216  -0.049134  -0.049125   0.000128  -0.000202
     7  C    5.187092  -0.050541   0.001511   0.328059  -0.001125  -0.000071
     8  C   -0.050541   5.125211  -0.003329  -0.003333   0.000004  -0.000002
     9  C    0.001511  -0.003329   5.135069   0.001330   0.000101  -0.000017
    10  C    0.328059  -0.003333   0.001330   5.135029   0.001190  -0.000223
    11  H   -0.001125   0.000004   0.000101   0.001190   0.611527  -0.039293
    12  H   -0.000071  -0.000002  -0.000017  -0.000223  -0.039293   0.609568
    13  H   -0.000749   0.000004   0.001191   0.000100   0.000078   0.001029
    14  H   -0.000652  -0.000002  -0.000223  -0.000017   0.001029  -0.000179
    15  H    0.006012   0.000877  -0.053487  -0.000302  -0.000010   0.000051
    16  H   -0.040636  -0.048429   0.005483   0.005483   0.000002   0.000004
    17  H    0.374386   0.000878  -0.000302  -0.053491  -0.000199   0.000919
    18  H   -0.003526   0.367814   0.000172  -0.001912  -0.000000   0.000000
    19  H    0.005720   0.367815  -0.001914   0.000171  -0.000000  -0.000000
    20  H   -0.007902   0.376980   0.004253   0.004257  -0.000000   0.000000
    21  H    0.000025   0.001783   0.361581  -0.000080  -0.000002   0.000000
    22  H    0.002086  -0.001287   0.374380  -0.001181  -0.000016   0.000005
    23  H   -0.000249   0.000223   0.369084   0.000014  -0.000000   0.000001
    24  H   -0.031322   0.001779  -0.000080   0.361582  -0.000028   0.000003
    25  H   -0.034109   0.000223   0.000014   0.369095   0.000195  -0.000003
    26  H   -0.039189  -0.001289  -0.001180   0.374388  -0.000058   0.000024
              13         14         15         16         17         18
     1  C   -0.025513  -0.023726  -0.000502  -0.000354  -0.001340   0.000003
     2  C   -0.003202  -0.004004   0.002887  -0.000366  -0.042666   0.000400
     3  C    0.349826   0.349030  -0.001339  -0.000354  -0.000502   0.000002
     4  C   -0.027288  -0.025684  -0.042655  -0.000364   0.002882  -0.000265
     5  C   -0.001126  -0.000070   0.374363  -0.040640   0.006012   0.005718
     6  C    0.000128  -0.000202  -0.042823   0.372957  -0.042825  -0.032517
     7  C   -0.000749  -0.000652   0.006012  -0.040636   0.374386  -0.003526
     8  C    0.000004  -0.000002   0.000877  -0.048429   0.000878   0.367814
     9  C    0.001191  -0.000223  -0.053487   0.005483  -0.000302   0.000172
    10  C    0.000100  -0.000017  -0.000302   0.005483  -0.053491  -0.001912
    11  H    0.000078   0.001029  -0.000010   0.000002  -0.000199  -0.000000
    12  H    0.001029  -0.000179   0.000051   0.000004   0.000919   0.000000
    13  H    0.611530  -0.039293  -0.000199   0.000002  -0.000010  -0.000000
    14  H   -0.039293   0.609555   0.000918   0.000004   0.000051  -0.000000
    15  H   -0.000199   0.000918   0.644466  -0.008607   0.000026  -0.000147
    16  H    0.000002   0.000004  -0.008607   0.640798  -0.008609  -0.004151
    17  H   -0.000010   0.000051   0.000026  -0.008609   0.644457   0.001314
    18  H   -0.000000  -0.000000  -0.000147  -0.004151   0.001314   0.602934
    19  H   -0.000000   0.000000   0.001314  -0.004148  -0.000147  -0.032982
    20  H   -0.000000   0.000000  -0.000045   0.005819  -0.000045  -0.033561
    21  H   -0.000028   0.000003  -0.002810   0.000062   0.000006  -0.000016
    22  H   -0.000058   0.000024   0.006119  -0.000023   0.000018  -0.000031
    23  H    0.000194  -0.000003  -0.003291  -0.000178   0.000004  -0.000007
    24  H   -0.000002   0.000000   0.000006   0.000062  -0.002819   0.001916
    25  H   -0.000000   0.000001   0.000004  -0.000178  -0.003282  -0.000034
    26  H   -0.000016   0.000005   0.000018  -0.000023   0.006119   0.000162
              19         20         21         22         23         24
     1  C    0.000002  -0.000011   0.000014  -0.000172  -0.000011   0.000031
     2  C   -0.000265   0.000132  -0.000027   0.002623   0.000045   0.006656
     3  C    0.000003  -0.000011   0.000031  -0.000410   0.001158   0.000014
     4  C    0.000400   0.000132   0.006656  -0.003015  -0.004149  -0.000028
     5  C   -0.003527  -0.007898  -0.031329  -0.039195  -0.034099   0.000025
     6  C   -0.032522  -0.035824  -0.005798  -0.005266   0.005601  -0.005785
     7  C    0.005720  -0.007902   0.000025   0.002086  -0.000249  -0.031322
     8  C    0.367815   0.376980   0.001783  -0.001287   0.000223   0.001779
     9  C   -0.001914   0.004253   0.361581   0.374380   0.369084  -0.000080
    10  C    0.000171   0.004257  -0.000080  -0.001181   0.000014   0.361582
    11  H   -0.000000  -0.000000  -0.000002  -0.000016  -0.000000  -0.000028
    12  H   -0.000000   0.000000   0.000000   0.000005   0.000001   0.000003
    13  H   -0.000000  -0.000000  -0.000028  -0.000058   0.000194  -0.000002
    14  H    0.000000   0.000000   0.000003   0.000024  -0.000003   0.000000
    15  H    0.001314  -0.000045  -0.002810   0.006119  -0.003291   0.000006
    16  H   -0.004148   0.005819   0.000062  -0.000023  -0.000178   0.000062
    17  H   -0.000147  -0.000045   0.000006   0.000018   0.000004  -0.002819
    18  H   -0.032982  -0.033561  -0.000016  -0.000031  -0.000007   0.001916
    19  H    0.602935  -0.033564   0.001919   0.000161  -0.000034  -0.000015
    20  H   -0.033564   0.585481   0.000543   0.000685  -0.000039   0.000541
    21  H    0.001919   0.000543   0.600492  -0.032115  -0.032408   0.000011
    22  H    0.000161   0.000685  -0.032115   0.589889  -0.031928   0.000015
    23  H   -0.000034  -0.000039  -0.032408  -0.031928   0.598675  -0.000000
    24  H   -0.000015   0.000541   0.000011   0.000015  -0.000000   0.600499
    25  H   -0.000007  -0.000039  -0.000000   0.000008  -0.000000  -0.032409
    26  H   -0.000031   0.000690   0.000015   0.004491   0.000008  -0.032116
              25         26
     1  C    0.001160  -0.000410
     2  C   -0.004158  -0.003018
     3  C   -0.000012  -0.000172
     4  C    0.000044   0.002618
     5  C   -0.000249   0.002085
     6  C    0.005601  -0.005274
     7  C   -0.034109  -0.039189
     8  C    0.000223  -0.001289
     9  C    0.000014  -0.001180
    10  C    0.369095   0.374388
    11  H    0.000195  -0.000058
    12  H   -0.000003   0.000024
    13  H   -0.000000  -0.000016
    14  H    0.000001   0.000005
    15  H    0.000004   0.000018
    16  H   -0.000178  -0.000023
    17  H   -0.003282   0.006119
    18  H   -0.000034   0.000162
    19  H   -0.000007  -0.000031
    20  H   -0.000039   0.000690
    21  H   -0.000000   0.000015
    22  H    0.000008   0.004491
    23  H   -0.000000   0.000008
    24  H   -0.032409  -0.032116
    25  H    0.598667  -0.031928
    26  H   -0.031928   0.589884
 Mulliken charges:
               1
     1  C   -0.286921
     2  C    0.056220
     3  C   -0.286929
     4  C    0.056239
     5  C   -0.150150
     6  C   -0.119230
     7  C   -0.150143
     8  C   -0.410638
     9  C   -0.398893
    10  C   -0.398892
    11  H    0.133401
    12  H    0.133431
    13  H    0.133401
    14  H    0.133436
    15  H    0.119155
    16  H    0.126381
    17  H    0.119165
    18  H    0.128715
    19  H    0.128716
    20  H    0.139425
    21  H    0.131471
    22  H    0.134191
    23  H    0.131392
    24  H    0.131465
    25  H    0.131396
    26  H    0.134195
 Sum of Mulliken charges =  -0.00000
 Mulliken charges with hydrogens summed into heavy atoms:
               1
     1  C   -0.020090
     2  C    0.056220
     3  C   -0.020092
     4  C    0.056239
     5  C   -0.030995
     6  C    0.007151
     7  C   -0.030978
     8  C   -0.013781
     9  C   -0.001839
    10  C   -0.001836
 Electronic spatial extent (au):  <R**2>=           1482.2170
 Charge=             -0.0000 electrons
 Dipole moment (field-independent basis, Debye):
    X=             -0.1240    Y=              0.0000    Z=             -0.0120  Tot=              0.1246
 Quadrupole moment (field-independent basis, Debye-Ang):
   XX=            -62.9198   YY=            -62.6868   ZZ=            -63.2293
   XY=             -0.0002   XZ=              0.5517   YZ=             -0.0000
 Traceless Quadrupole moment (field-independent basis, Debye-Ang):
   XX=              0.0255   YY=              0.2585   ZZ=             -0.2840
   XY=             -0.0002   XZ=              0.5517   YZ=             -0.0000
 Octapole moment (field-independent basis, Debye-Ang**2):
  XXX=              1.3174  YYY=             -0.0008  ZZZ=             -0.3261  XYY=             -0.1623
  XXY=              0.0003  XXZ=             -1.0912  XZZ=              0.5904  YZZ=              0.0003
  YYZ=             -1.4657  XYZ=              0.0008
 Hexadecapole moment (field-independent basis, Debye-Ang**3):
 XXXX=          -1145.5329 YYYY=           -666.2348 ZZZZ=           -253.3008 XXXY=             -0.0036
 XXXZ=             -1.9155 YYYX=             -0.0023 YYYZ=             -0.0005 ZZZX=              2.2723
 ZZZY=              0.0007 XXYY=           -295.2110 XXZZ=           -226.8182 YYZZ=           -154.1521
 XXYZ=             -0.0018 YYXZ=              4.1285 ZZXY=              0.0008
 N-N= 5.560431456851D+02 E-N=-2.016881961058D+03  KE= 3.888784480421D+02
 Calling FoFJK, ICntrl=      2127 FMM=F ISym2X=0 I1Cent= 0 IOpClX= 0 NMat=1 NMatS=1 NMatT=0.
 ***** Axes restored to original set *****
 -------------------------------------------------------------------
 Center     Atomic                   Forces (Hartrees/Bohr)
 Number     Number              X              Y              Z
 -------------------------------------------------------------------
      1        6          -0.006357493   -0.014256225    0.001530125
      2        6           0.003235427   -0.007358829   -0.005398467
      3        6          -0.006361144    0.014253852    0.001528791
      4        6           0.003265715    0.007356084   -0.005394660
      5        6          -0.003390502    0.004819803    0.001045899
      6        6           0.008087705   -0.000000645   -0.005871599
      7        6          -0.003397075   -0.004825839    0.001040547
      8        6          -0.000671167    0.000006781   -0.003902497
      9        6           0.001086009    0.003073879   -0.001552270
     10        6           0.001087205   -0.003058193   -0.001560425
     11        1          -0.004157075   -0.002595902    0.003425263
     12        1          -0.004476643   -0.002645971   -0.002014737
     13        1          -0.004158775    0.002599105    0.003428539
     14        1          -0.004474725    0.002639337   -0.002011231
     15        1           0.000949516    0.002179238   -0.002579684
     16        1          -0.000496831    0.000000408   -0.002718776
     17        1           0.000947401   -0.002174908   -0.002576027
     18        1           0.004683489   -0.003944132   -0.000794959
     19        1           0.004684263    0.003943576   -0.000793634
     20        1           0.002467582    0.000000119    0.005479253
     21        1           0.005429560    0.002881029    0.001639999
     22        1           0.000486483   -0.002373447    0.005260142
     23        1          -0.002191071    0.004579447    0.002939190
     24        1           0.005430107   -0.002882798    0.001641642
     25        1          -0.002194349   -0.004588153    0.002943161
     26        1           0.000486388    0.002372383    0.005266415
 -------------------------------------------------------------------
 Cartesian Forces:  Max     0.014256225 RMS     0.004218731

 GradGradGradGradGradGradGradGradGradGradGradGradGradGradGradGradGradGrad
 Berny optimization.
 FormGI is forming the generalized inverse of G from B-inverse, IUseBI=4.
 Internal  Forces:  Max     0.017639193 RMS     0.004074819
 Search for a local minimum.
 Step number   1 out of a maximum of  156
 All quantities printed in internal units (Hartrees-Bohrs-Radians)
 Mixed Optimization -- RFO/linear search
 Second derivative matrix not updated -- first step.
 ITU=  0
     Eigenvalues ---    0.00377   0.00377   0.00391   0.00484   0.00720
     Eigenvalues ---    0.00867   0.00987   0.02810   0.02853   0.03471
     Eigenvalues ---    0.03991   0.04100   0.04586   0.04840   0.04879
     Eigenvalues ---    0.04939   0.05346   0.05521   0.05522   0.05562
     Eigenvalues ---    0.05749   0.05749   0.05797   0.06118   0.06314
     Eigenvalues ---    0.06386   0.06922   0.07347   0.07768   0.07793
     Eigenvalues ---    0.10451   0.12378   0.15599   0.16000   0.16000
     Eigenvalues ---    0.16000   0.16000   0.16000   0.16000   0.16000
     Eigenvalues ---    0.16000   0.16000   0.18008   0.21026   0.23279
     Eigenvalues ---    0.24962   0.25005   0.26058   0.28624   0.29477
     Eigenvalues ---    0.29477   0.30239   0.30989   0.31195   0.32912
     Eigenvalues ---    0.34173   0.34246   0.34248   0.34938   0.34939
     Eigenvalues ---    0.34945   0.34946   0.34993   0.34995   0.35015
     Eigenvalues ---    0.35016   0.35166   0.35167   0.35180   0.35180
     Eigenvalues ---    0.35366   0.50525
 RFO step:  Lambda=-9.76526592D-03 EMin= 3.76705085D-03
 Linear search not attempted -- first point.
 Iteration  1 RMS(Cart)=  0.04767956 RMS(Int)=  0.00033683
 Iteration  2 RMS(Cart)=  0.00037597 RMS(Int)=  0.00013262
 Iteration  3 RMS(Cart)=  0.00000015 RMS(Int)=  0.00013262
 Variable       Old X    -DE/DX   Delta X   Delta X   Delta X     New X
                                 (Linear)    (Quad)   (Total)
    R1        2.85612   0.01536   0.00000   0.04805   0.04805   2.90418
    R2        2.95096   0.01764   0.00000   0.05867   0.05866   3.00962
    R3        2.05764   0.00518   0.00000   0.01442   0.01442   2.07206
    R4        2.05774   0.00492   0.00000   0.01371   0.01371   2.07145
    R5        2.50803   0.01314   0.00000   0.02671   0.02647   2.53450
    R6        2.81631   0.01205   0.00000   0.03718   0.03708   2.85339
    R7        2.85609   0.01536   0.00000   0.04807   0.04807   2.90416
    R8        2.05763   0.00519   0.00000   0.01443   0.01443   2.07206
    R9        2.05776   0.00492   0.00000   0.01369   0.01369   2.07145
   R10        2.81634   0.01205   0.00000   0.03719   0.03709   2.85342
   R11        2.97150   0.01513   0.00000   0.05104   0.05123   3.02274
   R12        2.89020   0.01198   0.00000   0.03934   0.03934   2.92953
   R13        2.06914   0.00342   0.00000   0.00970   0.00970   2.07884
   R14        2.97147   0.01515   0.00000   0.05108   0.05127   3.02275
   R15        2.87489   0.01064   0.00000   0.03410   0.03410   2.90899
   R16        2.07040   0.00272   0.00000   0.00773   0.00773   2.07813
   R17        2.89020   0.01198   0.00000   0.03934   0.03934   2.92954
   R18        2.06917   0.00341   0.00000   0.00968   0.00968   2.07885
   R19        2.05650   0.00567   0.00000   0.01575   0.01575   2.07225
   R20        2.05650   0.00567   0.00000   0.01575   0.01575   2.07225
   R21        2.05084   0.00565   0.00000   0.01555   0.01555   2.06639
   R22        2.05384   0.00598   0.00000   0.01654   0.01654   2.07038
   R23        2.05406   0.00551   0.00000   0.01523   0.01523   2.06929
   R24        2.05686   0.00544   0.00000   0.01513   0.01513   2.07198
   R25        2.05384   0.00598   0.00000   0.01654   0.01654   2.07038
   R26        2.05683   0.00545   0.00000   0.01515   0.01515   2.07198
   R27        2.05404   0.00551   0.00000   0.01524   0.01524   2.06929
    A1        1.49318  -0.00037   0.00000  -0.00432  -0.00428   1.48890
    A2        2.01339   0.00127   0.00000   0.01836   0.01833   2.03172
    A3        2.01512   0.00087   0.00000   0.01380   0.01376   2.02888
    A4        1.99966   0.00007   0.00000  -0.00309  -0.00312   1.99654
    A5        2.00437   0.00014   0.00000  -0.00183  -0.00184   2.00253
    A6        1.91135  -0.00155   0.00000  -0.01810  -0.01828   1.89307
    A7        1.64840   0.00038   0.00000   0.00432   0.00429   1.65269
    A8        2.63743  -0.00050   0.00000  -0.00532  -0.00535   2.63208
    A9        1.99478   0.00012   0.00000   0.00095   0.00101   1.99578
   A10        1.49317  -0.00037   0.00000  -0.00429  -0.00426   1.48891
   A11        1.99965   0.00007   0.00000  -0.00306  -0.00309   1.99656
   A12        2.00439   0.00014   0.00000  -0.00188  -0.00189   2.00250
   A13        2.01340   0.00127   0.00000   0.01837   0.01834   2.03173
   A14        2.01511   0.00087   0.00000   0.01379   0.01376   2.02886
   A15        1.91135  -0.00155   0.00000  -0.01810  -0.01828   1.89306
   A16        1.64843   0.00037   0.00000   0.00428   0.00425   1.65268
   A17        1.99468   0.00014   0.00000   0.00102   0.00108   1.99576
   A18        2.63747  -0.00050   0.00000  -0.00534  -0.00537   2.63210
   A19        1.73190  -0.00009   0.00000   0.00250   0.00233   1.73423
   A20        1.93813   0.00226   0.00000   0.02706   0.02676   1.96489
   A21        1.97487  -0.00098   0.00000  -0.00964  -0.00960   1.96527
   A22        2.01677   0.00067   0.00000   0.01313   0.01275   2.02952
   A23        1.91246  -0.00064   0.00000  -0.01583  -0.01589   1.89657
   A24        1.88869  -0.00116   0.00000  -0.01594  -0.01573   1.87297
   A25        1.89475  -0.00051   0.00000  -0.01184  -0.01175   1.88299
   A26        1.99817   0.00090   0.00000   0.01991   0.01961   2.01777
   A27        1.84234  -0.00036   0.00000  -0.01102  -0.01117   1.83117
   A28        1.99810   0.00091   0.00000   0.01997   0.01967   2.01777
   A29        1.84237  -0.00036   0.00000  -0.01104  -0.01118   1.83119
   A30        1.87487  -0.00080   0.00000  -0.01108  -0.01076   1.86412
   A31        1.73189  -0.00009   0.00000   0.00252   0.00235   1.73424
   A32        1.93822   0.00226   0.00000   0.02700   0.02670   1.96492
   A33        1.97479  -0.00098   0.00000  -0.00961  -0.00957   1.96522
   A34        2.01679   0.00067   0.00000   0.01313   0.01275   2.02954
   A35        1.91247  -0.00064   0.00000  -0.01585  -0.01591   1.89656
   A36        1.88866  -0.00116   0.00000  -0.01591  -0.01570   1.87297
   A37        1.91872   0.00256   0.00000   0.01537   0.01526   1.93399
   A38        1.91872   0.00256   0.00000   0.01539   0.01528   1.93400
   A39        1.95159   0.00174   0.00000   0.00959   0.00953   1.96112
   A40        1.88507  -0.00237   0.00000  -0.01270  -0.01284   1.87223
   A41        1.89414  -0.00237   0.00000  -0.01457  -0.01463   1.87950
   A42        1.89414  -0.00237   0.00000  -0.01458  -0.01464   1.87950
   A43        1.94116   0.00219   0.00000   0.01279   0.01272   1.95388
   A44        1.93195   0.00158   0.00000   0.00906   0.00900   1.94096
   A45        1.90824   0.00234   0.00000   0.01413   0.01404   1.92228
   A46        1.90243  -0.00211   0.00000  -0.01304  -0.01309   1.88934
   A47        1.89026  -0.00226   0.00000  -0.01282  -0.01292   1.87734
   A48        1.88858  -0.00195   0.00000  -0.01130  -0.01137   1.87722
   A49        1.94113   0.00219   0.00000   0.01281   0.01274   1.95387
   A50        1.90822   0.00234   0.00000   0.01414   0.01405   1.92227
   A51        1.93194   0.00158   0.00000   0.00909   0.00903   1.94097
   A52        1.89030  -0.00226   0.00000  -0.01285  -0.01294   1.87736
   A53        1.90243  -0.00211   0.00000  -0.01306  -0.01310   1.88933
   A54        1.88861  -0.00196   0.00000  -0.01133  -0.01140   1.87722
    D1        0.00001  -0.00000   0.00000  -0.00002  -0.00002  -0.00002
    D2        3.04273   0.00005   0.00000  -0.00041  -0.00043   3.04230
    D3       -2.00943  -0.00006   0.00000   0.00302   0.00307  -2.00636
    D4        1.03330  -0.00001   0.00000   0.00263   0.00266   1.03595
    D5        2.01494   0.00010   0.00000  -0.00224  -0.00228   2.01266
    D6       -1.22553   0.00015   0.00000  -0.00263  -0.00269  -1.22821
    D7       -0.00001   0.00000   0.00000   0.00002   0.00002   0.00001
    D8       -2.02284  -0.00124   0.00000  -0.01789  -0.01786  -2.04070
    D9        2.02537   0.00081   0.00000   0.01303   0.01300   2.03838
   D10        2.02282   0.00124   0.00000   0.01792   0.01788   2.04070
   D11       -0.00001  -0.00000   0.00000   0.00000   0.00000  -0.00001
   D12       -2.23498   0.00205   0.00000   0.03092   0.03087  -2.20412
   D13       -2.02541  -0.00081   0.00000  -0.01299  -0.01296  -2.03837
   D14        2.23495  -0.00205   0.00000  -0.03090  -0.03085   2.20410
   D15       -0.00002   0.00000   0.00000   0.00002   0.00002  -0.00000
   D16       -0.00001   0.00000   0.00000   0.00002   0.00002   0.00002
   D17        3.08907  -0.00002   0.00000  -0.00065  -0.00067   3.08840
   D18       -3.08926   0.00002   0.00000   0.00076   0.00077  -3.08849
   D19       -0.00018   0.00000   0.00000   0.00008   0.00008  -0.00010
   D20        3.02927  -0.00072   0.00000  -0.00747  -0.00755   3.02173
   D21       -1.12356   0.00099   0.00000   0.02078   0.02083  -1.10272
   D22        1.00438   0.00045   0.00000   0.01319   0.01314   1.01751
   D23       -0.22050  -0.00066   0.00000  -0.00791  -0.00801  -0.22851
   D24        1.90985   0.00105   0.00000   0.02035   0.02037   1.93022
   D25       -2.24540   0.00051   0.00000   0.01275   0.01267  -2.23272
   D26        0.00001  -0.00000   0.00000  -0.00002  -0.00002  -0.00002
   D27       -3.04238  -0.00006   0.00000   0.00025   0.00028  -3.04210
   D28        2.00943   0.00007   0.00000  -0.00302  -0.00307   2.00636
   D29       -1.03295   0.00001   0.00000  -0.00275  -0.00277  -1.03572
   D30       -2.01494  -0.00009   0.00000   0.00224   0.00227  -2.01267
   D31        1.22586  -0.00015   0.00000   0.00251   0.00257   1.22843
   D32        0.22076   0.00066   0.00000   0.00779   0.00789   0.22866
   D33       -1.90954  -0.00105   0.00000  -0.02047  -0.02050  -1.93003
   D34        2.24568  -0.00051   0.00000  -0.01287  -0.01278   2.23290
   D35       -3.02937   0.00072   0.00000   0.00748   0.00755  -3.02182
   D36        1.12351  -0.00099   0.00000  -0.02079  -0.02084   1.10267
   D37       -1.00445  -0.00045   0.00000  -0.01318  -0.01313  -1.01758
   D38       -0.34874  -0.00091   0.00000  -0.00955  -0.00965  -0.35839
   D39       -2.60534  -0.00245   0.00000  -0.04260  -0.04252  -2.64786
   D40        1.61966  -0.00172   0.00000  -0.03272  -0.03259   1.58707
   D41        1.72383   0.00204   0.00000   0.03026   0.03012   1.75395
   D42       -0.53276   0.00050   0.00000  -0.00280  -0.00275  -0.53552
   D43       -2.59095   0.00123   0.00000   0.00709   0.00718  -2.58377
   D44       -2.42082   0.00048   0.00000   0.00610   0.00592  -2.41491
   D45        1.60577  -0.00106   0.00000  -0.02696  -0.02696   1.57881
   D46       -0.45242  -0.00033   0.00000  -0.01708  -0.01702  -0.46944
   D47        3.08776   0.00072   0.00000   0.01044   0.01067   3.09843
   D48        0.97009   0.00083   0.00000   0.01212   0.01236   0.98245
   D49       -1.10879   0.00079   0.00000   0.01162   0.01187  -1.09692
   D50        1.13313  -0.00109   0.00000  -0.01886  -0.01909   1.11404
   D51       -0.98454  -0.00098   0.00000  -0.01718  -0.01739  -1.00193
   D52       -3.06342  -0.00102   0.00000  -0.01767  -0.01788  -3.08131
   D53       -1.01799   0.00018   0.00000   0.00523   0.00519  -1.01280
   D54       -3.13566   0.00029   0.00000   0.00691   0.00689  -3.12877
   D55        1.06865   0.00026   0.00000   0.00641   0.00640   1.07504
   D56        0.34865   0.00092   0.00000   0.00959   0.00970   0.35835
   D57       -1.72402  -0.00203   0.00000  -0.03016  -0.03002  -1.75405
   D58        2.42065  -0.00047   0.00000  -0.00602  -0.00584   2.41481
   D59        2.60528   0.00244   0.00000   0.04261   0.04253   2.64782
   D60        0.53261  -0.00050   0.00000   0.00286   0.00281   0.53542
   D61       -1.60591   0.00105   0.00000   0.02700   0.02700  -1.57891
   D62       -1.61973   0.00172   0.00000   0.03276   0.03263  -1.58711
   D63        2.59078  -0.00122   0.00000  -0.00699  -0.00709   2.58368
   D64        0.45226   0.00033   0.00000   0.01714   0.01709   0.46935
   D65       -3.07596   0.00034   0.00000   0.00787   0.00817  -3.06779
   D66       -1.00300   0.00057   0.00000   0.01114   0.01148  -0.99152
   D67        1.10211   0.00046   0.00000   0.00951   0.00983   1.11194
   D68        1.00324  -0.00057   0.00000  -0.01118  -0.01152   0.99172
   D69        3.07620  -0.00035   0.00000  -0.00791  -0.00821   3.06798
   D70       -1.10188  -0.00046   0.00000  -0.00954  -0.00986  -1.11174
   D71       -1.03635  -0.00011   0.00000  -0.00166  -0.00169  -1.03804
   D72        1.03660   0.00011   0.00000   0.00160   0.00162   1.03822
   D73       -3.14147  -0.00000   0.00000  -0.00003  -0.00003  -3.14150
   D74       -3.08872  -0.00072   0.00000  -0.01022  -0.01044  -3.09916
   D75        1.10781  -0.00079   0.00000  -0.01139  -0.01164   1.09618
   D76       -0.97108  -0.00082   0.00000  -0.01187  -0.01212  -0.98320
   D77       -1.13403   0.00110   0.00000   0.01907   0.01930  -1.11473
   D78        3.06250   0.00102   0.00000   0.01790   0.01811   3.08061
   D79        0.98361   0.00099   0.00000   0.01741   0.01762   1.00124
   D80        1.01709  -0.00018   0.00000  -0.00502  -0.00498   1.01211
   D81       -1.06956  -0.00026   0.00000  -0.00619  -0.00618  -1.07574
   D82        3.13473  -0.00029   0.00000  -0.00668  -0.00666   3.12807
         Item               Value     Threshold  Converged?
 Maximum Force            0.017639     0.000450     NO 
 RMS     Force            0.004075     0.000300     NO 
 Maximum Displacement     0.186106     0.001800     NO 
 RMS     Displacement     0.047699     0.001200     NO 
 Predicted change in Energy=-5.149779D-03
 GradGradGradGradGradGradGradGradGradGradGradGradGradGradGradGradGradGrad

                          Input orientation:                          
 ---------------------------------------------------------------------
 Center     Atomic      Atomic             Coordinates (Angstroms)
 Number     Number       Type             X           Y           Z
 ---------------------------------------------------------------------
      1          6           0       -2.490572   -0.796476   -0.009196
      2          6           0       -0.972936   -0.670650   -0.216014
      3          6           0       -2.490685    0.796148   -0.009239
      4          6           0       -0.973038    0.670551   -0.216071
      5          6           0        0.397925    1.293191   -0.329114
      6          6           0        1.236555    0.000096   -0.757139
      7          6           0        0.398081   -1.293115   -0.329140
      8          6           0        2.718465    0.000182   -0.340474
      9          6           0        0.841658    1.997161    0.978851
     10          6           0        0.841959   -1.997156    0.978741
     11          1           0       -2.818337   -1.249318    0.934090
     12          1           0       -3.055171   -1.255220   -0.829171
     13          1           0       -2.818520    1.249018    0.934008
     14          1           0       -3.055352    1.254742   -0.829250
     15          1           0        0.459389    2.036296   -1.137932
     16          1           0        1.215412    0.000114   -1.856634
     17          1           0        0.459559   -2.036148   -1.138027
     18          1           0        3.234473   -0.882773   -0.736243
     19          1           0        3.234333    0.883306   -0.736049
     20          1           0        2.845275    0.000075    0.745634
     21          1           0        1.854473    2.407402    0.899821
     22          1           0        0.816623    1.306772    1.828443
     23          1           0        0.164841    2.828696    1.208339
     24          1           0        1.854542   -2.407903    0.899363
     25          1           0        0.164808   -2.828321    1.208572
     26          1           0        0.817599   -1.306668    1.828270
 ---------------------------------------------------------------------
                    Distance matrix (angstroms):
                    1          2          3          4          5
     1  C    0.000000
     2  C    1.536823   0.000000
     3  C    1.592624   2.120805   0.000000
     4  C    2.120819   1.341200   1.536816   0.000000
     5  C    3.579451   2.397649   2.948464   1.509967   0.000000
     6  C    3.883996   2.371617   3.883989   2.371617   1.599563
     7  C    2.948445   1.509949   3.579430   2.397652   2.586306
     8  C    5.280008   3.753924   5.280012   3.753941   2.656485
     9  C    4.459193   3.440592   3.677399   2.545753   1.550241
    10  C    3.677420   2.545762   4.459279   3.440705   3.568478
    11  H    1.096487   2.250133   2.276216   2.900671   4.290032
    12  H    1.096165   2.247974   2.280141   2.901682   4.320686
    13  H    2.276232   2.900665   1.096487   2.250136   3.455857
    14  H    2.280124   2.901664   1.096164   2.247954   3.489518
    15  H    4.242748   3.198287   3.393354   2.183331   1.100077
    16  H    4.216859   2.816101   4.216834   2.816069   2.161863
    17  H    3.393276   2.183286   4.242641   3.198212   3.426754
    18  H    5.771671   4.244752   6.010386   4.515146   3.598135
    19  H    6.010368   4.515122   5.771627   4.244716   2.894618
    20  H    5.447524   3.994167   5.447571   3.994237   2.969302
    21  H    5.474538   4.325937   4.722598   3.500956   2.207551
    22  H    4.328754   3.360435   3.817866   2.790646   2.197850
    23  H    4.655694   3.945724   3.558872   2.825121   2.185376
    24  H    4.722520   3.500964   5.474714   4.326232   4.162810
    25  H    3.558426   2.824792   4.655264   3.945428   4.405188
    26  H    3.818451   2.790990   4.329320   3.360819   3.404365
                    6          7          8          9         10
     6  C    0.000000
     7  C    1.599568   0.000000
     8  C    1.539373   2.656488   0.000000
     9  C    2.675421   3.568406   3.041538   0.000000
    10  C    2.675445   1.550243   3.041539   3.994318   0.000000
    11  H    4.567651   3.455866   5.817383   4.892565   3.736177
    12  H    4.472127   3.489472   5.928722   5.388154   4.359661
    13  H    4.567650   4.290047   5.817397   3.736126   4.892725
    14  H    4.472114   4.320635   5.928726   4.359714   5.388201
    15  H    2.212487   3.426788   3.144062   2.151379   4.571149
    16  H    1.099698   2.161876   2.134926   3.488247   3.488252
    17  H    2.212485   1.100081   3.144104   4.571079   2.151385
    18  H    2.184392   2.894691   1.096588   4.118389   3.147561
    19  H    2.184404   3.598154   1.096589   3.147452   4.118376
    20  H    2.201433   2.969215   1.093486   2.838525   2.838405
    21  H    2.987049   4.162361   2.842450   1.095599   4.520127
    22  H    2.927282   3.404373   3.166763   1.095021   3.411537
    23  H    3.607306   4.405402   4.113431   1.096447   4.878530
    24  H    2.987368   2.207545   2.842962   4.520713   1.095599
    25  H    3.607299   2.185367   4.113530   4.878132   1.096444
    26  H    2.927029   2.197862   3.166165   3.411360   1.095019
                   11         12         13         14         15
    11  H    0.000000
    12  H    1.779105   0.000000
    13  H    2.498337   3.071809   0.000000
    14  H    3.071785   2.509962   1.779102   0.000000
    15  H    5.082521   4.825095   3.956948   3.613795   0.000000
    16  H    5.061654   4.568306   5.061626   4.568264   2.287824
    17  H    3.956940   3.613665   5.082466   4.824926   4.072444
    18  H    6.289743   6.301347   6.631214   6.643758   4.047642
    19  H    6.631158   6.643781   6.289664   6.301332   3.031701
    20  H    5.802843   6.234664   5.802923   6.234729   3.658752
    21  H    5.933627   6.364654   4.814550   5.331481   2.497282
    22  H    4.532813   5.349533   3.744010   4.696619   3.075582
    23  H    5.060115   5.585544   3.386899   4.122953   2.493922
    24  H    4.814491   5.331209   5.933952   6.364757   5.084086
    25  H    3.386406   4.122537   5.059677   5.585119   5.409006
    26  H    3.744713   4.697125   4.533497   5.350045   4.483534
                   16         17         18         19         20
    16  H    0.000000
    17  H    2.287809   0.000000
    18  H    2.472119   3.031806   0.000000
    19  H    2.472201   4.047736   1.766079   0.000000
    20  H    3.070546   3.658691   1.768291   1.768290   0.000000
    21  H    3.715034   5.083675   3.925093   2.627347   2.607812
    22  H    3.930163   4.483588   4.149424   3.549827   2.644875
    23  H    4.301004   5.409160   5.194135   4.121525   3.924273
    24  H    3.715179   2.497026   2.627820   3.925615   2.608360
    25  H    4.301081   2.494182   4.121929   5.194199   3.924160
    26  H    3.929942   3.075590   3.549323   4.148774   2.644078
                   21         22         23         24         25
    21  H    0.000000
    22  H    1.775066   0.000000
    23  H    1.768482   1.767937   0.000000
    24  H    4.815305   3.967276   5.511128   0.000000
    25  H    5.510271   4.231796   5.657017   1.768491   0.000000
    26  H    3.966289   2.613441   4.232215   1.775060   1.767933
                   26
    26  H    0.000000
 Stoichiometry    C10H16
 Framework group  C1[X(C10H16)]
 Deg. of freedom    72
 Full point group                 C1      NOp   1
 Largest Abelian subgroup         C1      NOp   1
 Largest concise Abelian subgroup C1      NOp   1
                         Standard orientation:                         
 ---------------------------------------------------------------------
 Center     Atomic      Atomic             Coordinates (Angstroms)
 Number     Number       Type             X           Y           Z
 ---------------------------------------------------------------------
      1          6           0        2.522509    0.796339   -0.025518
      2          6           0        1.005399    0.670594   -0.236211
      3          6           0        2.522538   -0.796285   -0.025574
      4          6           0        1.005431   -0.670606   -0.236279
      5          6           0       -0.365272   -1.293173   -0.352827
      6          6           0       -1.202738   -0.000031   -0.782982
      7          6           0       -0.365292    1.293132   -0.352833
      8          6           0       -2.685708   -0.000042   -0.370102
      9          6           0       -0.812380   -1.997131    0.953995
     10          6           0       -0.812471    1.997187    0.953916
     11          1           0        2.847888    1.249157    0.918605
     12          1           0        3.089224    1.255060   -0.844045
     13          1           0        2.847940   -1.249180    0.918504
     14          1           0        3.089273   -1.254902   -0.844145
     15          1           0       -0.424710   -2.036268   -1.161806
     16          1           0       -1.178788   -0.000041   -1.882419
     17          1           0       -0.424666    2.036176   -1.161868
     18          1           0       -3.200657    0.882943   -0.767179
     19          1           0       -3.200610   -0.883136   -0.767000
     20          1           0       -2.815290    0.000063    0.715679
     21          1           0       -1.825012   -2.407318    0.872375
     22          1           0       -0.789478   -1.306750    1.803654
     23          1           0       -0.136195   -2.828703    1.185203
     24          1           0       -1.824827    2.407987    0.871957
     25          1           0       -0.135866    2.828314    1.185482
     26          1           0       -0.790316    1.306690    1.803499
 ---------------------------------------------------------------------
 Rotational constants (GHZ):           1.8959845           1.1727542           0.8666674
 Standard basis: 6-31G (6D, 7F)
 There are   122 symmetry adapted cartesian basis functions of A   symmetry.
 There are   122 symmetry adapted basis functions of A   symmetry.
   122 basis functions,   284 primitive gaussians,   122 cartesian basis functions
    38 alpha electrons       38 beta electrons
       nuclear repulsion energy       546.7990307379 Hartrees.
 NAtoms=   26 NActive=   26 NUniq=   26 SFac= 1.00D+00 NAtFMM=   60 NAOKFM=F Big=F
 Integral buffers will be    131072 words long.
 Raffenetti 2 integral format.
 Two-electron integral symmetry is turned on.
 One-electron integrals computed using PRISM.
 NBasis=   122 RedAO= T EigKep=  1.22D-03  NBF=   122
 NBsUse=   122 1.00D-06 EigRej= -1.00D+00 NBFU=   122
 Initial guess from the checkpoint file:  "/home/cathayana/g16/scratch/Gau-108061.chk"
 B after Tr=     0.000000   -0.000000   -0.000000
         Rot=    1.000000   -0.000002    0.000285    0.000028 Ang=  -0.03 deg.
 ExpMin= 1.61D-01 ExpMax= 3.05D+03 ExpMxC= 4.57D+02 IAcc=3 IRadAn=         5 AccDes= 0.00D+00
 Harris functional with IExCor=  402 and IRadAn=       5 diagonalized for initial guess.
 HarFok:  IExCor=  402 AccDes= 0.00D+00 IRadAn=         5 IDoV= 1 UseB2=F ITyADJ=14
 ICtDFT=  3500011 ScaDFX=  1.000000  1.000000  1.000000  1.000000
 FoFCou: FMM=F IPFlag=           0 FMFlag=      100000 FMFlg1=           0
         NFxFlg=           0 DoJE=T BraDBF=F KetDBF=T FulRan=T
         wScrn=  0.000000 ICntrl=       500 IOpCl=  0 I1Cent=   200000004 NGrid=           0
         NMat0=    1 NMatS0=      1 NMatT0=    0 NMatD0=    1 NMtDS0=    0 NMtDT0=    0
 Petite list used in FoFCou.
 Requested convergence on RMS density matrix=1.00D-08 within 128 cycles.
 Requested convergence on MAX density matrix=1.00D-06.
 Requested convergence on             energy=1.00D-06.
 No special actions if energy rises.
 Integral accuracy reduced to 1.0D-05 until final iterations.
 Initial convergence to 1.0D-05 achieved.  Increase integral accuracy.
 SCF Done:  E(RB3LYP) =  -390.536010558     A.U. after   11 cycles
            NFock= 11  Conv=0.63D-08     -V/T= 2.0059
 Calling FoFJK, ICntrl=      2127 FMM=F ISym2X=0 I1Cent= 0 IOpClX= 0 NMat=1 NMatS=1 NMatT=0.
 ***** Axes restored to original set *****
 -------------------------------------------------------------------
 Center     Atomic                   Forces (Hartrees/Bohr)
 Number     Number              X              Y              Z
 -------------------------------------------------------------------
      1        6           0.000079116   -0.003039724    0.000176634
      2        6           0.001684304    0.002886047   -0.000701968
      3        6           0.000072548    0.003043581    0.000170959
      4        6           0.001691806   -0.002883420   -0.000690931
      5        6          -0.000881919    0.002278283    0.002751129
      6        6           0.002427097   -0.000000778   -0.000110237
      7        6          -0.000877057   -0.002283472    0.002748663
      8        6          -0.003148943   -0.000001025   -0.000046080
      9        6          -0.000412013   -0.001372202   -0.001722394
     10        6          -0.000409842    0.001376946   -0.001725161
     11        1           0.000182514    0.000268615   -0.000061797
     12        1           0.000030092    0.000196494   -0.000036953
     13        1           0.000182730   -0.000269995   -0.000061441
     14        1           0.000028979   -0.000195017   -0.000036858
     15        1           0.000260946   -0.000335001   -0.000401665
     16        1          -0.000979327   -0.000000413    0.000220244
     17        1           0.000260899    0.000333936   -0.000399101
     18        1          -0.000279902   -0.000403305   -0.000114309
     19        1          -0.000280965    0.000402573   -0.000115093
     20        1          -0.000025190   -0.000000109    0.001088151
     21        1           0.000392017   -0.000383086   -0.000682141
     22        1           0.000120551   -0.000568703    0.000436444
     23        1          -0.000315087    0.000106259   -0.000221089
     24        1           0.000393040    0.000384202   -0.000680549
     25        1          -0.000313802   -0.000109462   -0.000221674
     26        1           0.000117408    0.000568777    0.000437217
 -------------------------------------------------------------------
 Cartesian Forces:  Max     0.003148943 RMS     0.001140358

 GradGradGradGradGradGradGradGradGradGradGradGradGradGradGradGradGradGrad
 Berny optimization.
 Using GEDIIS/GDIIS optimizer.
 FormGI is forming the generalized inverse of G from B-inverse, IUseBI=4.
 Internal  Forces:  Max     0.003371363 RMS     0.000641596
 Search for a local minimum.
 Step number   2 out of a maximum of  156
 All quantities printed in internal units (Hartrees-Bohrs-Radians)
 Mixed Optimization -- En-DIIS/RFO-DIIS
 Update second derivatives using D2CorX and points    1    2
 DE= -4.39D-03 DEPred=-5.15D-03 R= 8.52D-01
 TightC=F SS=  1.41D+00  RLast= 2.29D-01 DXNew= 5.0454D-01 6.8722D-01
 Trust test= 8.52D-01 RLast= 2.29D-01 DXMaxT set to 5.05D-01
 ITU=  1  0
 Use linear search instead of GDIIS.
     Eigenvalues ---    0.00377   0.00377   0.00397   0.00484   0.00722
     Eigenvalues ---    0.00869   0.00990   0.02742   0.02806   0.03460
     Eigenvalues ---    0.03988   0.04093   0.04530   0.04899   0.04907
     Eigenvalues ---    0.04974   0.05321   0.05403   0.05404   0.05443
     Eigenvalues ---    0.05617   0.05617   0.05639   0.06177   0.06285
     Eigenvalues ---    0.06372   0.06893   0.07232   0.07702   0.07804
     Eigenvalues ---    0.10588   0.12474   0.15779   0.15961   0.16000
     Eigenvalues ---    0.16000   0.16000   0.16000   0.16000   0.16000
     Eigenvalues ---    0.16000   0.16278   0.18360   0.21212   0.23288
     Eigenvalues ---    0.24890   0.24950   0.25639   0.28665   0.29477
     Eigenvalues ---    0.29859   0.30371   0.31045   0.31756   0.34109
     Eigenvalues ---    0.34198   0.34247   0.34458   0.34642   0.34938
     Eigenvalues ---    0.34942   0.34946   0.34994   0.35002   0.35015
     Eigenvalues ---    0.35024   0.35150   0.35167   0.35180   0.35244
     Eigenvalues ---    0.35593   0.51042
 RFO step:  Lambda=-2.74478406D-04 EMin= 3.76701395D-03
 Quartic linear search produced a step of -0.07629.
 Iteration  1 RMS(Cart)=  0.01309280 RMS(Int)=  0.00005813
 Iteration  2 RMS(Cart)=  0.00007945 RMS(Int)=  0.00001522
 Iteration  3 RMS(Cart)=  0.00000000 RMS(Int)=  0.00001522
 Variable       Old X    -DE/DX   Delta X   Delta X   Delta X     New X
                                 (Linear)    (Quad)   (Total)
    R1        2.90418  -0.00021  -0.00367   0.00447   0.00080   2.90498
    R2        3.00962   0.00179  -0.00448   0.01308   0.00861   3.01823
    R3        2.07206  -0.00022  -0.00110   0.00096  -0.00014   2.07192
    R4        2.07145  -0.00007  -0.00105   0.00129   0.00024   2.07169
    R5        2.53450  -0.00135  -0.00202  -0.00033  -0.00234   2.53216
    R6        2.85339  -0.00153  -0.00283  -0.00087  -0.00370   2.84969
[...]
    23  H    4.295262   5.406712   5.171726   4.092892   3.893287
    24  H    3.694173   2.490347   2.583829   3.888445   2.574898
    25  H    4.295264   2.495824   4.092893   5.171727   3.893289
    26  H    3.920110   3.075938   3.518589   4.118777   2.605378
                   21         22         23         24         25
    21  H    0.000000
    22  H    1.776001   0.000000
    23  H    1.770641   1.770164   0.000000
    24  H    4.776148   3.941813   5.489766   0.000000
    25  H    5.489747   4.218061   5.653564   1.770641   0.000000
    26  H    3.941790   2.592805   4.218069   1.776001   1.770164
                   26
    26  H    0.000000
 Stoichiometry    C10H16
 Framework group  C1[X(C10H16)]
 Deg. of freedom    72
 Full point group                 C1      NOp   1
 Largest Abelian subgroup         C1      NOp   1
 Largest concise Abelian subgroup C1      NOp   1
                         Standard orientation:                         
 ---------------------------------------------------------------------
 Center     Atomic      Atomic             Coordinates (Angstroms)
 Number     Number       Type             X           Y           Z
 ---------------------------------------------------------------------
      1          6           0        2.517942    0.799933   -0.016339
      2          6           0        1.004376    0.669421   -0.242900
      3          6           0        2.517941   -0.799931   -0.016336
      4          6           0        1.004376   -0.669419   -0.242901
      5          6           0       -0.361949   -1.294601   -0.355986
      6          6           0       -1.199616   -0.000000   -0.785926
      7          6           0       -0.361952    1.294601   -0.355985
      8          6           0       -2.671389   -0.000002   -0.357722
      9          6           0       -0.816712   -1.989065    0.946147
     10          6           0       -0.816716    1.989064    0.946148
     11          1           0        2.830848    1.248932    0.933265
     12          1           0        3.094597    1.257422   -0.828170
     13          1           0        2.830843   -1.248926    0.933271
     14          1           0        3.094600   -1.257423   -0.828163
     15          1           0       -0.425266   -2.034415   -1.167925
     16          1           0       -1.173786   -0.000001   -1.884812
     17          1           0       -0.425269    2.034414   -1.167924
     18          1           0       -3.190698    0.883954   -0.748158
     19          1           0       -3.190698   -0.883955   -0.748162
     20          1           0       -2.788194   -0.000004    0.730932
     21          1           0       -1.833388   -2.388068    0.855433
     22          1           0       -0.794540   -1.296405    1.795244
     23          1           0       -0.149456   -2.826787    1.182646
     24          1           0       -1.833387    2.388080    0.855427
     25          1           0       -0.149453    2.826777    1.182656
     26          1           0       -0.794560    1.296400    1.795242
 ---------------------------------------------------------------------
 Rotational constants (GHZ):           1.9050259           1.1789387           0.8706836

 **********************************************************************

            Population analysis using the SCF Density.

 **********************************************************************

 Orbital symmetries:
       Occupied  (A) (A) (A) (A) (A) (A) (A) (A) (A) (A) (A) (A)
                 (A) (A) (A) (A) (A) (A) (A) (A) (A) (A) (A) (A)
                 (A) (A) (A) (A) (A) (A) (A) (A) (A) (A) (A) (A)
                 (A) (A)
       Virtual   (A) (A) (A) (A) (A) (A) (A) (A) (A) (A) (A) (A)
                 (A) (A) (A) (A) (A) (A) (A) (A) (A) (A) (A) (A)
                 (A) (A) (A) (A) (A) (A) (A) (A) (A) (A) (A) (A)
                 (A) (A) (A) (A) (A) (A) (A) (A) (A) (A) (A) (A)
                 (A) (A) (A) (A) (A) (A) (A) (A) (A) (A) (A) (A)
                 (A) (A) (A) (A) (A) (A) (A) (A) (A) (A) (A) (A)
                 (A) (A) (A) (A) (A) (A) (A) (A) (A) (A) (A) (A)
 The electronic state is 1-A.
 Alpha  occ. eigenvalues --  -10.18435 -10.18432 -10.18298 -10.18294 -10.18221
 Alpha  occ. eigenvalues --  -10.16437 -10.16430 -10.16429 -10.16364 -10.16289
 Alpha  occ. eigenvalues --   -0.86800  -0.79839  -0.75194  -0.71426  -0.68267
 Alpha  occ. eigenvalues --   -0.63764  -0.61351  -0.60242  -0.53363  -0.48682
 Alpha  occ. eigenvalues --   -0.47392  -0.45335  -0.44614  -0.42003  -0.40924
 Alpha  occ. eigenvalues --   -0.39325  -0.37860  -0.37760  -0.37548  -0.36269
 Alpha  occ. eigenvalues --   -0.36220  -0.35354  -0.32076  -0.31565  -0.30416
 Alpha  occ. eigenvalues --   -0.29165  -0.29087  -0.21899
 Alpha virt. eigenvalues --    0.03946   0.07892   0.11156   0.11943   0.12161
 Alpha virt. eigenvalues --    0.13700   0.14717   0.14718   0.16070   0.16500
 Alpha virt. eigenvalues --    0.16917   0.17430   0.18238   0.18239   0.18990
 Alpha virt. eigenvalues --    0.19263   0.21498   0.21686   0.21778   0.22861
 Alpha virt. eigenvalues --    0.23259   0.23862   0.26703   0.29577   0.29731
 Alpha virt. eigenvalues --    0.34666   0.38747   0.45069   0.52107   0.53129
 Alpha virt. eigenvalues --    0.55526   0.56130   0.57106   0.57578   0.58789
 Alpha virt. eigenvalues --    0.61053   0.61184   0.61729   0.64619   0.65346
 Alpha virt. eigenvalues --    0.68522   0.68745   0.69535   0.70078   0.75435
 Alpha virt. eigenvalues --    0.76449   0.77761   0.79554   0.80362   0.81982
 Alpha virt. eigenvalues --    0.83122   0.86775   0.88027   0.89077   0.90342
 Alpha virt. eigenvalues --    0.91344   0.92213   0.92751   0.92851   0.93245
 Alpha virt. eigenvalues --    0.94693   0.95681   0.95933   0.96780   0.98590
 Alpha virt. eigenvalues --    0.98697   1.01132   1.02830   1.06229   1.06953
 Alpha virt. eigenvalues --    1.07290   1.09601   1.15822   1.17369   1.29449
 Alpha virt. eigenvalues --    1.29833   1.36419   1.37776   1.46938   1.51524
 Alpha virt. eigenvalues --    1.62503   1.84183   1.96325   1.97584
          Condensed to atoms (all electrons):
               1          2          3          4          5          6
     1  C    5.204206   0.327766   0.281193  -0.168560   0.020341   0.003996
     2  C    0.327766   5.049456  -0.168560   0.709352  -0.079921  -0.052076
     3  C    0.281193  -0.168560   5.204206   0.327766  -0.029363   0.003996
     4  C   -0.168560   0.709352   0.327766   5.049458   0.312456  -0.052076
     5  C    0.020341  -0.079921  -0.029363   0.312456   5.171072   0.318733
     6  C    0.003996  -0.052076   0.003996  -0.052076   0.318733   5.170109
     7  C   -0.029363   0.312456   0.020341  -0.079921  -0.077773   0.318733
     8  C   -0.000102   0.004768  -0.000102   0.004768  -0.045424   0.312735
     9  C   -0.000463  -0.004554  -0.000498  -0.057814   0.323837  -0.044254
    10  C   -0.000498  -0.057814  -0.000463  -0.004553   0.001153  -0.044254
    11  H    0.350083  -0.026013  -0.025110  -0.002606  -0.000620   0.000103
    12  H    0.348017  -0.024646  -0.023650  -0.002952  -0.000541  -0.000161
    13  H   -0.025110  -0.002607   0.350083  -0.026013  -0.000974   0.000103
    14  H   -0.023650  -0.002952   0.348017  -0.024646  -0.000022  -0.000161
    15  H   -0.000439   0.002703  -0.001177  -0.043509   0.372073  -0.042862
    16  H   -0.000311  -0.000049  -0.000311  -0.000049  -0.040896   0.370586
    17  H   -0.001177  -0.043509  -0.000439   0.002703   0.005582  -0.042863
    18  H    0.000002   0.000312   0.000002  -0.000215   0.004932  -0.031023
    19  H    0.000002  -0.000215   0.000002   0.000312  -0.003065  -0.031023
    20  H   -0.000007   0.000115  -0.000007   0.000115  -0.006774  -0.034400
    21  H    0.000010  -0.000049   0.000019   0.005694  -0.029754  -0.005227
    22  H   -0.000120   0.002302  -0.000306  -0.002485  -0.037172  -0.004748
    23  H   -0.000007   0.000022   0.001012  -0.003461  -0.032192   0.004842
    24  H    0.000019   0.005694   0.000010  -0.000049   0.000031  -0.005226
    25  H    0.001012  -0.003461  -0.000007   0.000022  -0.000204   0.004842
    26  H   -0.000306  -0.002485  -0.000120   0.002302   0.001712  -0.004748
               7          8          9         10         11         12
     1  C   -0.029363  -0.000102  -0.000463  -0.000498   0.350083   0.348017
     2  C    0.312456   0.004768  -0.004554  -0.057814  -0.026013  -0.024646
     3  C    0.020341  -0.000102  -0.000498  -0.000463  -0.025110  -0.023650
     4  C   -0.079921   0.004768  -0.057814  -0.004553  -0.002606  -0.002952
     5  C   -0.077773  -0.045424   0.323837   0.001153  -0.000620  -0.000541
     6  C    0.318733   0.312735  -0.044254  -0.044254   0.000103  -0.000161
     7  C    5.171072  -0.045424   0.001153   0.323837  -0.000974  -0.000022
     8  C   -0.045424   5.126676  -0.003083  -0.003083   0.000003  -0.000001
     9  C    0.001153  -0.003083   5.131674   0.001160   0.000073  -0.000011
    10  C    0.323837  -0.003083   0.001160   5.131674   0.000956  -0.000180
    11  H   -0.000974   0.000003   0.000073   0.000956   0.610556  -0.041055
    12  H   -0.000022  -0.000001  -0.000011  -0.000180  -0.041055   0.610447
    13  H   -0.000620   0.000003   0.000956   0.000073   0.000118   0.000995
    14  H   -0.000541  -0.000001  -0.000180  -0.000011   0.000995  -0.000044
    15  H    0.005582   0.000977  -0.053358  -0.000247  -0.000008   0.000042
    16  H   -0.040896  -0.048472   0.005010   0.005010   0.000002   0.000003
    17  H    0.372074   0.000977  -0.000247  -0.053358  -0.000173   0.000778
    18  H   -0.003065   0.366537   0.000133  -0.001528  -0.000000   0.000000
    19  H    0.004932   0.366537  -0.001528   0.000133  -0.000000  -0.000000
    20  H   -0.006774   0.374385   0.003609   0.003609  -0.000000   0.000000
    21  H    0.000031   0.001680   0.361245  -0.000059  -0.000001   0.000000
    22  H    0.001712  -0.000791   0.371715  -0.000824  -0.000014   0.000003
    23  H   -0.000204   0.000160   0.367536   0.000007  -0.000000   0.000000
    24  H   -0.029754   0.001680  -0.000059   0.361245  -0.000019   0.000002
    25  H   -0.032192   0.000160   0.000007   0.367536   0.000125  -0.000003
    26  H   -0.037172  -0.000791  -0.000824   0.371715  -0.000060   0.000019
              13         14         15         16         17         18
     1  C   -0.025110  -0.023650  -0.000439  -0.000311  -0.001177   0.000002
     2  C   -0.002607  -0.002952   0.002703  -0.000049  -0.043509   0.000312
     3  C    0.350083   0.348017  -0.001177  -0.000311  -0.000439   0.000002
     4  C   -0.026013  -0.024646  -0.043509  -0.000049   0.002703  -0.000215
     5  C   -0.000974  -0.000022   0.372073  -0.040896   0.005582   0.004932
     6  C    0.000103  -0.000161  -0.042862   0.370586  -0.042863  -0.031023
     7  C   -0.000620  -0.000541   0.005582  -0.040896   0.372074  -0.003065
     8  C    0.000003  -0.000001   0.000977  -0.048472   0.000977   0.366537
     9  C    0.000956  -0.000180  -0.053358   0.005010  -0.000247   0.000133
    10  C    0.000073  -0.000011  -0.000247   0.005010  -0.053358  -0.001528
    11  H    0.000118   0.000995  -0.000008   0.000002  -0.000173  -0.000000
    12  H    0.000995  -0.000044   0.000042   0.000003   0.000778   0.000000
    13  H    0.610556  -0.041055  -0.000173   0.000002  -0.000008  -0.000000
    14  H   -0.041055   0.610447   0.000778   0.000003   0.000042  -0.000000
    15  H   -0.000173   0.000778   0.646694  -0.008119   0.000014  -0.000138
    16  H    0.000002   0.000003  -0.008119   0.642026  -0.008119  -0.003848
    17  H   -0.000008   0.000042   0.000014  -0.008119   0.646694   0.001225
    18  H   -0.000000  -0.000000  -0.000138  -0.003848   0.001225   0.603341
    19  H   -0.000000   0.000000   0.001225  -0.003848  -0.000138  -0.033649
    20  H   -0.000000   0.000000  -0.000031   0.005468  -0.000031  -0.034088
    21  H   -0.000019   0.000002  -0.002659   0.000069   0.000005  -0.000023
    22  H   -0.000060   0.000019   0.005774  -0.000017   0.000015  -0.000030
    23  H    0.000125  -0.000003  -0.003038  -0.000158   0.000003  -0.000004
    24  H   -0.000001   0.000000   0.000005   0.000069  -0.002660   0.001799
    25  H   -0.000000   0.000000   0.000003  -0.000158  -0.003038  -0.000032
    26  H   -0.000014   0.000003   0.000015  -0.000017   0.005774   0.000130
              19         20         21         22         23         24
     1  C    0.000002  -0.000007   0.000010  -0.000120  -0.000007   0.000019
     2  C   -0.000215   0.000115  -0.000049   0.002302   0.000022   0.005694
     3  C    0.000002  -0.000007   0.000019  -0.000306   0.001012   0.000010
     4  C    0.000312   0.000115   0.005694  -0.002485  -0.003461  -0.000049
     5  C   -0.003065  -0.006774  -0.029754  -0.037172  -0.032192   0.000031
     6  C   -0.031023  -0.034400  -0.005227  -0.004748   0.004842  -0.005226
     7  C    0.004932  -0.006774   0.000031   0.001712  -0.000204  -0.029754
     8  C    0.366537   0.374385   0.001680  -0.000791   0.000160   0.001680
     9  C   -0.001528   0.003609   0.361245   0.371715   0.367536  -0.000059
    10  C    0.000133   0.003609  -0.000059  -0.000824   0.000007   0.361245
    11  H   -0.000000  -0.000000  -0.000001  -0.000014  -0.000000  -0.000019
    12  H   -0.000000   0.000000   0.000000   0.000003   0.000000   0.000002
    13  H   -0.000000  -0.000000  -0.000019  -0.000060   0.000125  -0.000001
    14  H    0.000000   0.000000   0.000002   0.000019  -0.000003   0.000000
    15  H    0.001225  -0.000031  -0.002659   0.005774  -0.003038   0.000005
    16  H   -0.003848   0.005468   0.000069  -0.000017  -0.000158   0.000069
    17  H   -0.000138  -0.000031   0.000005   0.000015   0.000003  -0.002660
    18  H   -0.033649  -0.034088  -0.000023  -0.000030  -0.000004   0.001799
    19  H    0.603341  -0.034088   0.001799   0.000130  -0.000032  -0.000023
    20  H   -0.034088   0.587487   0.000601   0.000738  -0.000045   0.000601
    21  H    0.001799   0.000601   0.600907  -0.032533  -0.033118   0.000007
    22  H    0.000130   0.000738  -0.032533   0.591860  -0.032389   0.000011
    23  H   -0.000032  -0.000045  -0.033118  -0.032389   0.599465  -0.000000
    24  H   -0.000023   0.000601   0.000007   0.000011  -0.000000   0.600907
    25  H   -0.000004  -0.000045  -0.000000   0.000007  -0.000000  -0.033118
    26  H   -0.000030   0.000739   0.000011   0.003402   0.000007  -0.032533
              25         26
     1  C    0.001012  -0.000306
     2  C   -0.003461  -0.002485
     3  C   -0.000007  -0.000120
     4  C    0.000022   0.002302
     5  C   -0.000204   0.001712
     6  C    0.004842  -0.004748
     7  C   -0.032192  -0.037172
     8  C    0.000160  -0.000791
     9  C    0.000007  -0.000824
    10  C    0.367536   0.371715
    11  H    0.000125  -0.000060
    12  H   -0.000003   0.000019
    13  H   -0.000000  -0.000014
    14  H    0.000000   0.000003
    15  H    0.000003   0.000015
    16  H   -0.000158  -0.000017
    17  H   -0.003038   0.005774
    18  H   -0.000032   0.000130
    19  H   -0.000004  -0.000030
    20  H   -0.000045   0.000739
    21  H   -0.000000   0.000011
    22  H    0.000007   0.003402
    23  H   -0.000000   0.000007
    24  H   -0.033118  -0.032533
    25  H    0.599465  -0.032389
    26  H   -0.032389   0.591859
 Mulliken charges:
               1
     1  C   -0.286534
     2  C    0.053965
     3  C   -0.286534
     4  C    0.053964
     5  C   -0.147229
     6  C   -0.113678
     7  C   -0.147229
     8  C   -0.414775
     9  C   -0.401236
    10  C   -0.401236
    11  H    0.133638
    12  H    0.132959
    13  H    0.133638
    14  H    0.132958
    15  H    0.119872
    16  H    0.127021
    17  H    0.119872
    18  H    0.129233
    19  H    0.129233
    20  H    0.138824
    21  H    0.131363
    22  H    0.133799
    23  H    0.131474
    24  H    0.131363
    25  H    0.131474
    26  H    0.133799
 Sum of Mulliken charges =  -0.00000
 Mulliken charges with hydrogens summed into heavy atoms:
               1
     1  C   -0.019937
     2  C    0.053965
     3  C   -0.019937
     4  C    0.053964
     5  C   -0.027356
     6  C    0.013343
     7  C   -0.027356
     8  C   -0.017485
     9  C   -0.004600
    10  C   -0.004600
 Electronic spatial extent (au):  <R**2>=           1529.4862
 Charge=             -0.0000 electrons
 Dipole moment (field-independent basis, Debye):
    X=             -0.1611    Y=              0.0000    Z=              0.0266  Tot=              0.1633
 Quadrupole moment (field-independent basis, Debye-Ang):
   XX=            -62.5520   YY=            -62.7301   ZZ=            -63.3981
   XY=              0.0000   XZ=              0.5628   YZ=             -0.0000
 Traceless Quadrupole moment (field-independent basis, Debye-Ang):
   XX=              0.3415   YY=              0.1633   ZZ=             -0.5047
   XY=              0.0000   XZ=              0.5628   YZ=             -0.0000
 Octapole moment (field-independent basis, Debye-Ang**2):
  XXX=              1.6056  YYY=             -0.0000  ZZZ=              0.0523  XYY=             -0.2471
  XXY=              0.0000  XXZ=             -0.7624  XZZ=              0.3189  YZZ=             -0.0000
  YYZ=             -0.9830  XYZ=              0.0000
 Hexadecapole moment (field-independent basis, Debye-Ang**3):
 XXXX=          -1176.1874 YYYY=           -694.5562 ZZZZ=           -255.8371 XXXY=              0.0000
 XXXZ=             -1.3465 YYYX=             -0.0000 YYYZ=              0.0000 ZZZX=              2.1324
 ZZZY=             -0.0000 XXYY=           -305.3635 XXZZ=           -233.8897 YYZZ=           -158.8934
 XXYZ=             -0.0000 YYXZ=              3.9295 ZZXY=              0.0000
 N-N= 5.477815351966D+02 E-N=-1.999924358021D+03  KE= 3.882999788379D+02
 Unable to Open any file for archive entry.
 1\1\GINC-CATHAYANA\FOpt\RB3LYP\6-31G\C10H16\CATHAYANA\01-Feb-2024\0\\#
  opt b3lyp/6-31G\\molecule_0\\0,1\C,-2.4866070816,-0.8000727667,-0.006
 8898151\C,-0.9720232279,-0.6694766617,-0.2264943991\C,-2.4866914062,0.
 7997912673,-0.0068586854\C,-0.9720947805,0.6693634899,-0.2264718788\C,
 0.3947023254,1.2946201033,-0.3332689875\C,1.2344041488,0.000071469,-0.
 7593804951\C,0.3948421625,-1.2945818397,-0.333314417\C,2.7041947528,0.
 0001426625,-0.3244211833\C,0.8434426775,1.9890846881,0.9709513925\C,0.
 843658285,-1.9890450718,0.9708809776\H,-2.8038473413,-1.2491056035,0.9
 412584143\H,-3.0595032717,-1.257577084,-0.8213697897\H,-2.8039748875,1
 .2487523578,0.9413092422\H,-3.059639354,1.2572677618,-0.8213176121\H,0
 .4617086898,2.0344520267,-1.1448949897\H,1.2136213306,0.0000903434,-1.
 8583733929\H,0.461926865,-2.0343775076,-1.1449671318\H,3.2253377869,-0
 .8837781391,-0.7124834993\H,3.2252440089,0.8841308269,-0.7124561004\H,
 2.815997815,0.0001314841,0.7647578313\H,1.8605036288,2.3881431298,0.88
 49147584\H,0.8174084918,1.2964079297,1.8199255584\H,0.1750637471,2.826
 7668871,1.2043984136\H,1.8607562545,-2.3880048631,0.8848234374\H,0.175
 3599873,-2.8267973285,1.204306646\H,0.8175659926,-1.2963972539,1.81987
 67847\\Version=ES64L-G16RevC.01\State=1-A\HF=-390.5361985\RMSD=7.374e-
 09\RMSF=2.082e-05\Dipole=0.0633508,0.0000023,0.0107429\Quadrupole=0.25
 76905,0.121393,-0.3790835,0.0000182,-0.415535,-0.0000117\PG=C01 [X(C10
 H16)]\\@
 The archive entry for this job was punched.


 CHARLIE BROWN -- WHICH DO YOU THINK LASTS LONGER IN LIFE, THE GOOD THINGS 
                  OR THE BAD THINGS?
 LINUS --         GOOD THINGS LAST EIGHT SECONDS ..
                  BAD THINGS LAST THREE WEEKS
 CHARLIE BROWN -- WHAT ABOUT IN BETWEEN?
 SNOOPY --        IN BETWEEN YOU SHOULD TAKE A NAP ...
 Job cpu time:       0 days  0 hours  3 minutes 52.0 seconds.
 Elapsed time:       0 days  0 hours  0 minutes 24.0 seconds.
 File lengths (MBytes):  RWF=     15 Int=      0 D2E=      0 Chk=      3 Scr=      1
 Normal termination of Gaussian 16 at Thu Feb  1 15:25:31 2024.
