 Entering Gaussian System, Link 0=g16
 Input=naphthalen-2-ol.gjf
 Output=naphthalen-2-ol.log
 Initial command:
 /home/tmj/soft/g16/l1.exe "/home/tmj/soft/g16temp/Gau-1685088.inp" -scrdir="/home/tmj/soft/g16temp/"
 Entering Link 1 = /home/tmj/soft/g16/l1.exe PID=   1685090.
  
 Copyright (c) 1988-2019, Gaussian, Inc.  All Rights Reserved.
  
 This is part of the Gaussian(R) 16 program.  It is based on
 the Gaussian(R) 09 system (copyright 2009, Gaussian, Inc.),
 the Gaussian(R) 03 system (copyright 2003, Gaussian, Inc.),
 the Gaussian(R) 98 system (copyright 1998, Gaussian, Inc.),
 the Gaussian(R) 94 system (copyright 1995, Gaussian, Inc.),
 the Gaussian 92(TM) system (copyright 1992, Gaussian, Inc.),
 the Gaussian 90(TM) system (copyright 1990, Gaussian, Inc.),
 the Gaussian 88(TM) system (copyright 1988, Gaussian, Inc.),
 the Gaussian 86(TM) system (copyright 1986, Carnegie Mellon
 University), and the Gaussian 82(TM) system (copyright 1983,
 Carnegie Mellon University). Gaussian is a federally registered
 trademark of Gaussian, Inc.
  
 This software contains proprietary and confidential information,
 including trade secrets, belonging to Gaussian, Inc.
  
 This software is provided under written license and may be
 used, copied, transmitted, or stored only in accord with that
 written license.
  
 The following legend is applicable only to US Government
 contracts under FAR:
  
                    RESTRICTED RIGHTS LEGEND
  
 Use, reproduction and disclosure by the US Government is
 subject to restrictions as set forth in subparagraphs (a)
 and (c) of the Commercial Computer Software - Restricted
 Rights clause in FAR 52.227-19.
  
 Gaussian, Inc.
 340 Quinnipiac St., Bldg. 40, Wallingford CT 06492
  
  
 ---------------------------------------------------------------
 Warning -- This program may not be used in any manner that
 competes with the business of Gaussian, Inc. or will provide
 assistance to any competitor of Gaussian, Inc.  The licensee
 of this program is prohibited from giving any competitor of
 Gaussian, Inc. access to this program.  By using this program,
 the user acknowledges that Gaussian, Inc. is engaged in the
 business of creating and licensing software in the field of
 computational chemistry and represents and warrants to the
 licensee that it is not a competitor of Gaussian, Inc. and that
 it will not use this program in any manner prohibited above.
 ---------------------------------------------------------------
  

 Cite this work as:
 Gaussian 16, Revision C.01,
 M. J. Frisch, G. W. Trucks, H. B. Schlegel, G. E. Scuseria, 
 M. A. Robb, J. R. Cheeseman, G. Scalmani, V. Barone, 
 G. A. Petersson, H. Nakatsuji, X. Li, M. Caricato, A. V. Marenich, 
 J. Bloino, B. G. Janesko, R. Gomperts, B. Mennucci, H. P. Hratchian, 
 J. V. Ortiz, A. F. Izmaylov, J. L. Sonnenberg, D. Williams-Young, 
 F. Ding, F. Lipparini, F. Egidi, J. Goings, B. Peng, A. Petrone, 
 T. Henderson, D. Ranasinghe, V. G. Zakrzewski, J. Gao, N. Rega, 
 G. Zheng, W. Liang, M. Hada, M. Ehara, K. Toyota, R. Fukuda, 
 J. Hasegawa, M. Ishida, T. Nakajima, Y. Honda, O. Kitao, H. Nakai, 
 T. Vreven, K. Throssell, J. A. Montgomery, Jr., J. E. Peralta, 
 F. Ogliaro, M. J. Bearpark, J. J. Heyd, E. N. Brothers, K. N. Kudin, 
 V. N. Staroverov, T. A. Keith, R. Kobayashi, J. Normand, 
 K. Raghavachari, A. P. Rendell, J. C. Burant, S. S. Iyengar, 
 J. Tomasi, M. Cossi, J. M. Millam, M. Klene, C. Adamo, R. Cammi, 
 J. W. Ochterski, R. L. Martin, K. Morokuma, O. Farkas, 
 J. B. Foresman, and D. J. Fox, Gaussian, Inc., Wallingford CT, 2019.
 
 ******************************************
 Gaussian 16:  ES64L-G16RevC.01  3-Jul-2019
                27-May-2024 
 ******************************************
 %nprocshared=28
 Will use up to   28 processors via shared memory.
 %mem=60GB
 %chk=naphthalen-2-ol.chk
 %oldchk=naphthalen-2-ol.chk
 Copying data from "naphthalen-2-ol.chk" to current chk file "naphthalen-2-ol.chk"
 IOpt=  2 FromEx=T IUOpen= 4 IOptOp= 5 NList=   0 IFRang= 0 IUIn= 4 IUOut= 2.
 ---------------------------------------
 #p opt freq b3lyp/6-311+g(d,p) em=gd3bj
 ---------------------------------------
 1/18=20,19=15,26=3,38=1/1,3;
 2/9=110,12=2,17=6,18=5,40=1/2;
 3/5=4,6=6,7=111,11=2,25=1,30=1,71=1,74=-5,124=41/1,2,3;
 4//1;
 5/5=2,38=5/2;
 6/7=2,8=2,9=2,10=2,28=1/1;
 7//1,2,3,16;
 1/18=20,19=15,26=3/3(2);
 2/9=110/2;
 99//99;
 2/9=110/2;
 3/5=4,6=6,7=111,11=2,25=1,30=1,71=1,74=-5,124=41/1,2,3;
 4/5=5,16=3,69=1/1;
 5/5=2,38=5/2;
 7//1,2,3,16;
 1/18=20,19=15,26=3/3(-5);
 2/9=110/2;
 6/7=2,8=2,9=2,10=2,19=2,28=1/1;
 99/9=1/99;
 Leave Link    1 at Mon May 27 10:59:27 2024, MaxMem=  8053063680 cpu:               0.6 elap:               0.0
 (Enter /home/tmj/soft/g16/l101.exe)
 ----------------------
 Title: naphthalen-2-ol
 ----------------------
 Symbolic Z-matrix:
 Charge =  0 Multiplicity = 1
 C                    -4.06174   3.61912  -0.42507 
 C                    -2.68894   3.61912  -0.42507 
 C                    -1.96701   4.84424  -0.42507 
 C                    -2.68488   6.06811  -0.4247 
 C                    -4.10629   6.03874  -0.42454 
 C                    -4.7778    4.84076  -0.42483 
 H                     0.00207   3.91928  -0.42531 
 H                    -4.62248   2.67278  -0.42515 
 H                    -2.12415   2.6748   -0.42529 
 C                    -0.54528   4.87379  -0.42533 
 C                    -1.96213   7.29284  -0.42458 
 H                    -4.65353   6.99319  -0.42446 
 H                    -5.87743   4.8144   -0.42473 
 C                    -0.58926   7.2929   -0.42485 
 C                     0.12675   6.07101  -0.42531 
 H                     1.22638   6.09748  -0.4255 
 H                    -2.51101   8.21133  -0.42433 
 O                     0.13966   8.52318  -0.42509 
 H                     0.56994   8.64088   0.42498 
 
 ITRead=  0  0  0  0  0  0  0  0  0  0  0  0  0  0  0  0  0  0  0
 MicOpt= -1 -1 -1 -1 -1 -1 -1 -1 -1 -1 -1 -1 -1 -1 -1 -1 -1 -1 -1
 NAtoms=     19 NQM=       19 NQMF=       0 NMMI=      0 NMMIF=      0
                NMic=       0 NMicF=      0.
                    Isotopes and Nuclear Properties:
 (Nuclear quadrupole moments (NQMom) in fm**2, nuclear magnetic moments (NMagM)
  in nuclear magnetons)

  Atom         1           2           3           4           5           6           7           8           9          10
 IAtWgt=          12          12          12          12          12          12           1           1           1          12
 AtmWgt=  12.0000000  12.0000000  12.0000000  12.0000000  12.0000000  12.0000000   1.0078250   1.0078250   1.0078250  12.0000000
 NucSpn=           0           0           0           0           0           0           1           1           1           0
 AtZEff=  -0.0000000  -0.0000000  -0.0000000  -0.0000000  -0.0000000  -0.0000000  -0.0000000  -0.0000000  -0.0000000  -0.0000000
 NQMom=    0.0000000   0.0000000   0.0000000   0.0000000   0.0000000   0.0000000   0.0000000   0.0000000   0.0000000   0.0000000
 NMagM=    0.0000000   0.0000000   0.0000000   0.0000000   0.0000000   0.0000000   2.7928460   2.7928460   2.7928460   0.0000000
 AtZNuc=   6.0000000   6.0000000   6.0000000   6.0000000   6.0000000   6.0000000   1.0000000   1.0000000   1.0000000   6.0000000

  Atom        11          12          13          14          15          16          17          18          19
 IAtWgt=          12           1           1          12          12           1           1          16           1
 AtmWgt=  12.0000000   1.0078250   1.0078250  12.0000000  12.0000000   1.0078250   1.0078250  15.9949146   1.0078250
 NucSpn=           0           1           1           0           0           1           1           0           1
 AtZEff=  -0.0000000  -0.0000000  -0.0000000  -0.0000000  -0.0000000  -0.0000000  -0.0000000  -0.0000000  -0.0000000
 NQMom=    0.0000000   0.0000000   0.0000000   0.0000000   0.0000000   0.0000000   0.0000000   0.0000000   0.0000000
 NMagM=    0.0000000   2.7928460   2.7928460   0.0000000   0.0000000   2.7928460   2.7928460   0.0000000   2.7928460
 AtZNuc=   6.0000000   1.0000000   1.0000000   6.0000000   6.0000000   1.0000000   1.0000000   8.0000000   1.0000000
 Leave Link  101 at Mon May 27 10:59:27 2024, MaxMem=  8053063680 cpu:               4.9 elap:               0.2
 (Enter /home/tmj/soft/g16/l103.exe)

 GradGradGradGradGradGradGradGradGradGradGradGradGradGradGradGradGradGrad
 Berny optimization.
 Initialization pass.
                           ----------------------------
                           !    Initial Parameters    !
                           ! (Angstroms and Degrees)  !
 --------------------------                            --------------------------
 ! Name  Definition              Value          Derivative Info.                !
 --------------------------------------------------------------------------------
 ! R1    R(1,2)                  1.3728         estimate D2E/DX2                !
 ! R2    R(1,6)                  1.416          estimate D2E/DX2                !
 ! R3    R(1,8)                  1.1            estimate D2E/DX2                !
 ! R4    R(2,3)                  1.422          estimate D2E/DX2                !
 ! R5    R(2,9)                  1.1003         estimate D2E/DX2                !
 ! R6    R(3,4)                  1.4189         estimate D2E/DX2                !
 ! R7    R(3,10)                 1.422          estimate D2E/DX2                !
 ! R8    R(4,5)                  1.4217         estimate D2E/DX2                !
 ! R9    R(4,11)                 1.4221         estimate D2E/DX2                !
 ! R10   R(5,6)                  1.3733         estimate D2E/DX2                !
 ! R11   R(5,12)                 1.1002         estimate D2E/DX2                !
 ! R12   R(6,13)                 1.1            estimate D2E/DX2                !
 ! R13   R(7,10)                 1.1003         estimate D2E/DX2                !
 ! R14   R(10,15)                1.3729         estimate D2E/DX2                !
 ! R15   R(11,14)                1.3729         estimate D2E/DX2                !
 ! R16   R(11,17)                1.07           estimate D2E/DX2                !
 ! R17   R(14,15)                1.4162         estimate D2E/DX2                !
 ! R18   R(14,18)                1.43           estimate D2E/DX2                !
 ! R19   R(15,16)                1.0999         estimate D2E/DX2                !
 ! R20   R(18,19)                0.96           estimate D2E/DX2                !
 ! A1    A(2,1,6)              120.3763         estimate D2E/DX2                !
 ! A2    A(2,1,8)              120.6477         estimate D2E/DX2                !
 ! A3    A(6,1,8)              118.976          estimate D2E/DX2                !
 ! A4    A(1,2,3)              120.5099         estimate D2E/DX2                !
 ! A5    A(1,2,9)              120.8832         estimate D2E/DX2                !
 ! A6    A(3,2,9)              118.6069         estimate D2E/DX2                !
 ! A7    A(2,3,4)              119.0959         estimate D2E/DX2                !
 ! A8    A(2,3,10)             121.7004         estimate D2E/DX2                !
 ! A9    A(4,3,10)             119.2037         estimate D2E/DX2                !
 ! A10   A(3,4,5)              119.2103         estimate D2E/DX2                !
 ! A11   A(3,4,11)             119.0596         estimate D2E/DX2                !
 ! A12   A(5,4,11)             121.73           estimate D2E/DX2                !
 ! A13   A(4,5,6)              120.4559         estimate D2E/DX2                !
 ! A14   A(4,5,12)             118.6441         estimate D2E/DX2                !
 ! A15   A(6,5,12)             120.8999         estimate D2E/DX2                !
 ! A16   A(1,6,5)              120.3516         estimate D2E/DX2                !
 ! A17   A(1,6,13)             119.0027         estimate D2E/DX2                !
 ! A18   A(5,6,13)             120.6457         estimate D2E/DX2                !
 ! A19   A(3,10,7)             118.6409         estimate D2E/DX2                !
 ! A20   A(3,10,15)            120.4968         estimate D2E/DX2                !
 ! A21   A(7,10,15)            120.8623         estimate D2E/DX2                !
 ! A22   A(4,11,14)            120.5491         estimate D2E/DX2                !
 ! A23   A(4,11,17)            118.5913         estimate D2E/DX2                !
 ! A24   A(14,11,17)           120.8596         estimate D2E/DX2                !
 ! A25   A(11,14,15)           120.3669         estimate D2E/DX2                !
 ! A26   A(11,14,18)           120.6492         estimate D2E/DX2                !
 ! A27   A(15,14,18)           118.9839         estimate D2E/DX2                !
 ! A28   A(10,15,14)           120.3239         estimate D2E/DX2                !
 ! A29   A(10,15,16)           120.685          estimate D2E/DX2                !
 ! A30   A(14,15,16)           118.991          estimate D2E/DX2                !
 ! A31   A(14,18,19)           109.5            estimate D2E/DX2                !
 ! D1    D(6,1,2,3)             -0.011          estimate D2E/DX2                !
 ! D2    D(6,1,2,9)           -179.9971         estimate D2E/DX2                !
 ! D3    D(8,1,2,3)            179.9952         estimate D2E/DX2                !
 ! D4    D(8,1,2,9)              0.009          estimate D2E/DX2                !
 ! D5    D(2,1,6,5)             -0.0029         estimate D2E/DX2                !
 ! D6    D(2,1,6,13)          -179.9936         estimate D2E/DX2                !
 ! D7    D(8,1,6,5)            179.991          estimate D2E/DX2                !
 ! D8    D(8,1,6,13)             0.0003         estimate D2E/DX2                !
 ! D9    D(1,2,3,4)              0.0171         estimate D2E/DX2                !
 ! D10   D(1,2,3,10)          -179.9875         estimate D2E/DX2                !
 ! D11   D(9,2,3,4)           -179.9964         estimate D2E/DX2                !
 ! D12   D(9,2,3,10)            -0.0011         estimate D2E/DX2                !
 ! D13   D(2,3,4,5)             -0.0096         estimate D2E/DX2                !
 ! D14   D(2,3,4,11)           179.9947         estimate D2E/DX2                !
 ! D15   D(10,3,4,5)           179.995          estimate D2E/DX2                !
 ! D16   D(10,3,4,11)           -0.0008         estimate D2E/DX2                !
 ! D17   D(2,3,10,7)            -0.0135         estimate D2E/DX2                !
 ! D18   D(2,3,10,15)         -179.9995         estimate D2E/DX2                !
 ! D19   D(4,3,10,7)           179.9818         estimate D2E/DX2                !
 ! D20   D(4,3,10,15)           -0.0042         estimate D2E/DX2                !
 ! D21   D(3,4,5,6)             -0.004          estimate D2E/DX2                !
 ! D22   D(3,4,5,12)          -179.9878         estimate D2E/DX2                !
 ! D23   D(11,4,5,6)           179.9916         estimate D2E/DX2                !
 ! D24   D(11,4,5,12)            0.0078         estimate D2E/DX2                !
 ! D25   D(3,4,11,14)            0.0014         estimate D2E/DX2                !
 ! D26   D(3,4,11,17)          179.9984         estimate D2E/DX2                !
 ! D27   D(5,4,11,14)         -179.9942         estimate D2E/DX2                !
 ! D28   D(5,4,11,17)            0.0027         estimate D2E/DX2                !
 ! D29   D(4,5,6,1)              0.0104         estimate D2E/DX2                !
 ! D30   D(4,5,6,13)          -179.999          estimate D2E/DX2                !
 ! D31   D(12,5,6,1)           179.9938         estimate D2E/DX2                !
 ! D32   D(12,5,6,13)           -0.0156         estimate D2E/DX2                !
 ! D33   D(3,10,15,14)           0.0084         estimate D2E/DX2                !
 ! D34   D(3,10,15,16)         179.9987         estimate D2E/DX2                !
 ! D35   D(7,10,15,14)        -179.9773         estimate D2E/DX2                !
 ! D36   D(7,10,15,16)           0.013          estimate D2E/DX2                !
 ! D37   D(4,11,14,15)           0.0027         estimate D2E/DX2                !
 ! D38   D(4,11,14,18)         179.9839         estimate D2E/DX2                !
 ! D39   D(17,11,14,15)       -179.9941         estimate D2E/DX2                !
 ! D40   D(17,11,14,18)         -0.013          estimate D2E/DX2                !
 ! D41   D(11,14,15,10)         -0.0078         estimate D2E/DX2                !
 ! D42   D(11,14,15,16)       -179.9982         estimate D2E/DX2                !
 ! D43   D(18,14,15,10)       -179.9892         estimate D2E/DX2                !
 ! D44   D(18,14,15,16)          0.0203         estimate D2E/DX2                !
 ! D45   D(11,14,18,19)        110.0381         estimate D2E/DX2                !
 ! D46   D(15,14,18,19)        -69.9805         estimate D2E/DX2                !
 --------------------------------------------------------------------------------
 Trust Radius=3.00D-01 FncErr=1.00D-07 GrdErr=1.00D-06 EigMax=2.50D+02 EigMin=1.00D-04
 Number of steps in this run=    107 maximum allowed number of steps=    114.
 GradGradGradGradGradGradGradGradGradGradGradGradGradGradGradGradGradGrad

 Leave Link  103 at Mon May 27 10:59:27 2024, MaxMem=  8053063680 cpu:               0.7 elap:               0.0
 (Enter /home/tmj/soft/g16/l202.exe)
                          Input orientation:                          
 ---------------------------------------------------------------------
 Center     Atomic      Atomic             Coordinates (Angstroms)
 Number     Number       Type             X           Y           Z
 ---------------------------------------------------------------------
      1          6           0       -4.061745    3.619123   -0.425067
      2          6           0       -2.688944    3.619123   -0.425067
      3          6           0       -1.967006    4.844244   -0.425067
      4          6           0       -2.684876    6.068110   -0.424697
      5          6           0       -4.106292    6.038737   -0.424543
      6          6           0       -4.777797    4.840762   -0.424833
      7          1           0        0.002067    3.919279   -0.425310
      8          1           0       -4.622476    2.672777   -0.425147
      9          1           0       -2.124155    2.674801   -0.425295
     10          6           0       -0.545279    4.873787   -0.425330
     11          6           0       -1.962126    7.292836   -0.424582
     12          1           0       -4.653533    6.993193   -0.424461
     13          1           0       -5.877434    4.814395   -0.424731
     14          6           0       -0.589265    7.292904   -0.424855
     15          6           0        0.126747    6.071012   -0.425314
     16          1           0        1.226375    6.097477   -0.425496
     17          1           0       -2.511013    8.211325   -0.424329
     18          8           0        0.139660    8.523176   -0.425086
     19          1           0        0.569940    8.640878    0.424976
 ---------------------------------------------------------------------
                    Distance matrix (angstroms):
                    1          2          3          4          5
     1  C    0.000000
     2  C    1.372801   0.000000
     3  C    2.426696   1.422011   0.000000
     4  C    2.809503   2.448990   1.418868   0.000000
     5  C    2.420024   2.804177   2.450175   1.421719   0.000000
     6  C    1.416027   2.419857   2.810793   2.426253   1.373340
     7  H    4.074882   2.707699   2.175502   3.440514   4.622847
     8  H    1.099995   2.152700   3.430275   3.909294   3.405310
     9  H    2.155458   1.100332   2.175127   3.439325   3.904476
    10  C    3.733593   2.483844   1.422034   2.450364   3.746722
    11  C    4.231379   3.744921   2.448597   1.422083   2.483991
    12  H    3.425575   3.904351   3.440263   2.175176   1.100209
    13  H    2.173799   3.405164   3.910542   3.429902   2.153127
    14  C    5.055174   4.231468   2.809645   2.427284   3.733954
    15  C    4.853373   3.733614   2.426677   2.811625   4.233162
    16  H    5.840073   4.633785   3.430492   3.911361   5.332991
    17  H    4.846967   4.595648   3.410745   2.150256   2.695376
    18  O    6.457673   5.661337   4.239408   3.742372   4.919404
    19  H    6.884264   6.046562   4.644684   4.234962   5.418483
                    6          7          8          9         10
     6  C    0.000000
     7  H    4.867877   0.000000
     8  H    2.173542   4.789589   0.000000
     9  H    3.425376   2.463645   2.498322   0.000000
    10  C    4.232647   1.100306   4.633355   2.707100   0.000000
    11  C    3.733721   3.903709   5.331267   4.620877   2.803436
    12  H    2.156015   5.578849   4.320528   5.004624   4.622730
    13  H    1.099953   5.947249   2.482226   4.320297   5.332486
    14  C    4.853535   3.425058   6.132892   4.866494   2.419517
    15  C    5.056488   2.155342   5.839788   4.074409   1.372941
    16  H    6.134282   2.498695   6.777730   4.789652   2.153178
    17  H    4.061897   4.973654   5.927376   5.550024   3.873406
    18  O    6.143415   4.605953   7.543547   6.271232   3.713109
    19  H    6.615236   4.831041   7.956263   6.601150   4.019665
                   11         12         13         14         15
    11  C    0.000000
    12  H    2.708036   0.000000
    13  H    4.633822   2.499019   0.000000
    14  C    1.372861   4.075304   5.840183   0.000000
    15  C    2.419968   4.868418   6.134271   1.416225   0.000000
    16  H    3.405205   5.947741   7.218754   2.173843   1.099946
    17  H    1.070000   2.464597   4.782460   2.129933   3.396869
    18  O    2.435413   5.031455   7.068272   1.430000   2.452198
    19  H    2.991709   5.542660   7.545369   1.970533   2.742922
                   16         17         18         19
    16  H    0.000000
    17  H    4.293766   0.000000
    18  O    2.658001   2.668954   0.000000
    19  H    2.760995   3.224610   0.960000   0.000000
 Stoichiometry    C10H8O
 Framework group  C1[X(C10H8O)]
 Deg. of freedom    51
 Full point group                 C1      NOp   1
 Largest Abelian subgroup         C1      NOp   1
 Largest concise Abelian subgroup C1      NOp   1
                         Standard orientation:                         
 ---------------------------------------------------------------------
 Center     Atomic      Atomic             Coordinates (Angstroms)
 Number     Number       Type             X           Y           Z
 ---------------------------------------------------------------------
      1          6           0        2.924794    0.382364    0.018660
      2          6           0        1.869576    1.260462    0.012359
      3          6           0        0.531083    0.780538   -0.002703
      4          6           0        0.300114   -0.619381   -0.010774
      5          6           0        1.411487   -1.505998   -0.003813
      6          6           0        2.693854   -1.014680    0.010467
      7          1           0       -0.390873    2.751022   -0.003115
      8          1           0        3.961074    0.751119    0.030229
      9          1           0        2.039419    2.347589    0.018593
     10          6           0       -0.580636    1.667224   -0.009775
     11          6           0       -1.038751   -1.098482   -0.025720
     12          1           0        1.221675   -2.589689   -0.010372
     13          1           0        3.555965   -1.697784    0.015869
     14          6           0       -2.094057   -0.220397   -0.032296
     15          6           0       -1.862921    1.176817   -0.024324
     16          1           0       -2.725088    1.859840   -0.029808
     17          1           0       -1.204295   -2.155582   -0.031755
     18          8           0       -3.441212   -0.699811   -0.047670
     19          1           0       -3.855445   -0.518829    0.799240
 ---------------------------------------------------------------------
 Rotational constants (GHZ):           2.8438067           0.8154606           0.6348585
 Leave Link  202 at Mon May 27 10:59:27 2024, MaxMem=  8053063680 cpu:               0.4 elap:               0.0
 (Enter /home/tmj/soft/g16/l301.exe)
 Standard basis: 6-311+G(d,p) (5D, 7F)
 Ernie: Thresh=  0.10000D-02 Tol=  0.10000D-05 Strict=F.
 There are   301 symmetry adapted cartesian basis functions of A   symmetry.
 There are   290 symmetry adapted basis functions of A   symmetry.
   290 basis functions,   460 primitive gaussians,   301 cartesian basis functions
    38 alpha electrons       38 beta electrons
       nuclear repulsion energy       541.9337008182 Hartrees.
 IExCor=  402 DFT=T Ex+Corr=B3LYP ExCW=0 ScaHFX=  0.200000
 ScaDFX=  0.800000  0.720000  1.000000  0.810000 ScalE2=  1.000000  1.000000
 IRadAn=      5 IRanWt=     -1 IRanGd=            0 ICorTp=0 IEmpDi=141
 NAtoms=   19 NActive=   19 NUniq=   19 SFac= 1.00D+00 NAtFMM=   60 NAOKFM=F Big=F
 Integral buffers will be    131072 words long.
 Raffenetti 2 integral format.
 Two-electron integral symmetry is turned on.
 R6Disp:  Grimme-D3(BJ) Dispersion energy=       -0.0384819734 Hartrees.
 Nuclear repulsion after empirical dispersion term =      541.8952188448 Hartrees.
 Leave Link  301 at Mon May 27 10:59:27 2024, MaxMem=  8053063680 cpu:               0.6 elap:               0.0
 (Enter /home/tmj/soft/g16/l302.exe)
 NPDir=0 NMtPBC=     1 NCelOv=     1 NCel=       1 NClECP=     1 NCelD=      1
         NCelK=      1 NCelE2=     1 NClLst=     1 CellRange=     0.0.
 One-electron integrals computed using PRISM.
 One-electron integral symmetry used in STVInt
 NBasis=   290 RedAO= T EigKep=  2.69D-06  NBF=   290
 NBsUse=   288 1.00D-06 EigRej=  9.11D-07 NBFU=   288
 Precomputing XC quadrature grid using
 IXCGrd= 4 IRadAn=           5 IRanWt=          -1 IRanGd=           0 AccXCQ= 0.00D+00.
 Generated NRdTot=       0 NPtTot=           0 NUsed=           0 NTot=          32
 NSgBfM=   301   301   301   301   301 MxSgAt=    19 MxSgA2=    19.
 Leave Link  302 at Mon May 27 10:59:27 2024, MaxMem=  8053063680 cpu:               4.3 elap:               0.2
 (Enter /home/tmj/soft/g16/l303.exe)
 DipDrv:  MaxL=1.
 Leave Link  303 at Mon May 27 10:59:27 2024, MaxMem=  8053063680 cpu:               0.5 elap:               0.0
 (Enter /home/tmj/soft/g16/l401.exe)
 ExpMin= 4.38D-02 ExpMax= 8.59D+03 ExpMxC= 1.30D+03 IAcc=3 IRadAn=         5 AccDes= 0.00D+00
 Harris functional with IExCor=  402 and IRadAn=       5 diagonalized for initial guess.
 HarFok:  IExCor=  402 AccDes= 0.00D+00 IRadAn=         5 IDoV= 1 UseB2=F ITyADJ=14
 ICtDFT=  3500011 ScaDFX=  1.000000  1.000000  1.000000  1.000000
 FoFCou: FMM=F IPFlag=           0 FMFlag=      100000 FMFlg1=           0
         NFxFlg=           0 DoJE=T BraDBF=F KetDBF=T FulRan=T
         wScrn=  0.000000 ICntrl=       500 IOpCl=  0 I1Cent=   200000004 NGrid=           0
         NMat0=    1 NMatS0=      1 NMatT0=    0 NMatD0=    1 NMtDS0=    0 NMtDT0=    0
 Petite list used in FoFCou.
 Harris En= -461.302244077751    
 JPrj=0 DoOrth=F DoCkMO=F.
 Leave Link  401 at Mon May 27 10:59:28 2024, MaxMem=  8053063680 cpu:              13.5 elap:               0.5
 (Enter /home/tmj/soft/g16/l502.exe)
 Integral symmetry usage will be decided dynamically.
 Closed shell SCF:
 Using DIIS extrapolation, IDIIS=  1040.
 NGot=  8053063680 LenX=  8052870702 LenY=  8052779660
 Requested convergence on RMS density matrix=1.00D-08 within 128 cycles.
 Requested convergence on MAX density matrix=1.00D-06.
 Requested convergence on             energy=1.00D-06.
 No special actions if energy rises.
 Fock matrices will be formed incrementally for  20 cycles.

 Cycle   1  Pass 1  IDiag  1:
 FoFJK:  IHMeth= 1 ICntrl=       0 DoSepK=F KAlg= 0 I1Cent=           0 FoldK=F
 IRaf= 920000000 NMat=       1 IRICut=       1 DoRegI=T DoRafI=F ISym2E= 0 IDoP0=0 IntGTp=1.
 FoFCou: FMM=F IPFlag=           0 FMFlag=      100000 FMFlg1=           0
         NFxFlg=           0 DoJE=F BraDBF=F KetDBF=F FulRan=T
         wScrn=  0.000000 ICntrl=         0 IOpCl=  0 I1Cent=           0 NGrid=           0
         NMat0=    1 NMatS0=      1 NMatT0=    0 NMatD0=    1 NMtDS0=    0 NMtDT0=    0
 Symmetry not used in FoFCou.
 E= -461.003626840841    
 DIIS: error= 3.19D-02 at cycle   1 NSaved=   1.
 NSaved= 1 IEnMin= 1 EnMin= -461.003626840841     IErMin= 1 ErrMin= 3.19D-02
 ErrMax= 3.19D-02  0.00D+00 EMaxC= 1.00D-01 BMatC= 2.87D-01 BMatP= 2.87D-01
 IDIUse=3 WtCom= 6.81D-01 WtEn= 3.19D-01
 Coeff-Com:  0.100D+01
 Coeff-En:   0.100D+01
 Coeff:      0.100D+01
 Gap=     0.178 Goal=   None    Shift=    0.000
 GapD=    0.178 DampG=1.000 DampE=0.500 DampFc=0.5000 IDamp=-1.
 Damping current iteration by 5.00D-01
 RMSDP=4.33D-02 MaxDP=4.20D+00              OVMax= 1.98D-01

 Cycle   2  Pass 1  IDiag  1:
 RMSU=  2.02D-02    CP:  1.21D+00
 E= -461.117153555499     Delta-E=       -0.113526714659 Rises=F Damp=T
 DIIS: error= 4.35D-03 at cycle   2 NSaved=   2.
 NSaved= 2 IEnMin= 2 EnMin= -461.117153555499     IErMin= 2 ErrMin= 4.35D-03
 ErrMax= 4.35D-03  0.00D+00 EMaxC= 1.00D-01 BMatC= 1.77D-02 BMatP= 2.87D-01
 IDIUse=3 WtCom= 9.57D-01 WtEn= 4.35D-02
 Coeff-Com:  0.443D-01 0.956D+00
 Coeff-En:   0.119D+00 0.881D+00
 Coeff:      0.476D-01 0.952D+00
 Gap=     0.229 Goal=   None    Shift=    0.000
 RMSDP=1.46D-02 MaxDP=1.27D+00 DE=-1.14D-01 OVMax= 1.42D-01

 Cycle   3  Pass 1  IDiag  1:
 RMSU=  6.98D-03    CP:  1.11D+00  3.94D-01
 E= -461.253500535883     Delta-E=       -0.136346980384 Rises=F Damp=F
 DIIS: error= 6.69D-03 at cycle   3 NSaved=   3.
 NSaved= 3 IEnMin= 3 EnMin= -461.253500535883     IErMin= 2 ErrMin= 4.35D-03
 ErrMax= 6.69D-03  0.00D+00 EMaxC= 1.00D-01 BMatC= 1.46D-02 BMatP= 1.77D-02
 IDIUse=3 WtCom= 9.33D-01 WtEn= 6.69D-02
 Coeff-Com: -0.447D-01 0.476D+00 0.569D+00
 Coeff-En:   0.000D+00 0.000D+00 0.100D+01
 Coeff:     -0.417D-01 0.444D+00 0.598D+00
 Gap=     0.177 Goal=   None    Shift=    0.000
 RMSDP=2.53D-03 MaxDP=2.06D-01 DE=-1.36D-01 OVMax= 5.99D-02

 Cycle   4  Pass 1  IDiag  1:
 RMSU=  1.48D-03    CP:  1.10D+00  4.58D-01  7.80D-01
 E= -461.262533439768     Delta-E=       -0.009032903885 Rises=F Damp=F
 DIIS: error= 5.01D-03 at cycle   4 NSaved=   4.
 NSaved= 4 IEnMin= 4 EnMin= -461.262533439768     IErMin= 2 ErrMin= 4.35D-03
 ErrMax= 5.01D-03  0.00D+00 EMaxC= 1.00D-01 BMatC= 4.30D-03 BMatP= 1.46D-02
 IDIUse=3 WtCom= 9.50D-01 WtEn= 5.01D-02
 Coeff-Com: -0.343D-01 0.153D+00 0.385D+00 0.496D+00
 Coeff-En:   0.000D+00 0.000D+00 0.275D+00 0.725D+00
 Coeff:     -0.326D-01 0.145D+00 0.380D+00 0.508D+00
 Gap=     0.175 Goal=   None    Shift=    0.000
 RMSDP=8.48D-04 MaxDP=3.45D-02 DE=-9.03D-03 OVMax= 3.02D-02

 Cycle   5  Pass 1  IDiag  1:
 RMSU=  6.92D-04    CP:  1.10D+00  4.67D-01  7.69D-01  7.13D-01
 E= -461.266953869195     Delta-E=       -0.004420429427 Rises=F Damp=F
 DIIS: error= 1.09D-03 at cycle   5 NSaved=   5.
 NSaved= 5 IEnMin= 5 EnMin= -461.266953869195     IErMin= 5 ErrMin= 1.09D-03
 ErrMax= 1.09D-03  0.00D+00 EMaxC= 1.00D-01 BMatC= 1.41D-04 BMatP= 4.30D-03
 IDIUse=3 WtCom= 9.89D-01 WtEn= 1.09D-02
 Coeff-Com: -0.133D-01 0.409D-01 0.142D+00 0.243D+00 0.587D+00
 Coeff-En:   0.000D+00 0.000D+00 0.000D+00 0.000D+00 0.100D+01
 Coeff:     -0.132D-01 0.405D-01 0.140D+00 0.241D+00 0.592D+00
 Gap=     0.174 Goal=   None    Shift=    0.000
 RMSDP=4.97D-04 MaxDP=3.75D-02 DE=-4.42D-03 OVMax= 6.45D-03

 Cycle   6  Pass 1  IDiag  1:
 RMSU=  1.20D-04    CP:  1.09D+00  4.48D-01  7.92D-01  7.30D-01  8.36D-01
 E= -461.267074294432     Delta-E=       -0.000120425236 Rises=F Damp=F
 DIIS: error= 4.12D-04 at cycle   6 NSaved=   6.
 NSaved= 6 IEnMin= 6 EnMin= -461.267074294432     IErMin= 6 ErrMin= 4.12D-04
 ErrMax= 4.12D-04  0.00D+00 EMaxC= 1.00D-01 BMatC= 3.30D-05 BMatP= 1.41D-04
 IDIUse=3 WtCom= 9.96D-01 WtEn= 4.12D-03
 Coeff-Com: -0.418D-02 0.714D-02 0.405D-01 0.872D-01 0.373D+00 0.496D+00
 Coeff-En:   0.000D+00 0.000D+00 0.000D+00 0.000D+00 0.179D+00 0.821D+00
 Coeff:     -0.416D-02 0.712D-02 0.403D-01 0.868D-01 0.372D+00 0.498D+00
 Gap=     0.174 Goal=   None    Shift=    0.000
 RMSDP=1.70D-04 MaxDP=1.51D-02 DE=-1.20D-04 OVMax= 1.70D-03

 Cycle   7  Pass 1  IDiag  1:
 RMSU=  3.73D-05    CP:  1.09D+00  4.55D-01  7.92D-01  7.25D-01  8.60D-01
                    CP:  6.54D-01
 E= -461.267104756163     Delta-E=       -0.000030461731 Rises=F Damp=F
 DIIS: error= 3.65D-05 at cycle   7 NSaved=   7.
 NSaved= 7 IEnMin= 7 EnMin= -461.267104756163     IErMin= 7 ErrMin= 3.65D-05
 ErrMax= 3.65D-05  0.00D+00 EMaxC= 1.00D-01 BMatC= 4.24D-07 BMatP= 3.30D-05
 IDIUse=1 WtCom= 1.00D+00 WtEn= 0.00D+00
 Coeff-Com: -0.108D-02 0.120D-02 0.114D-01 0.262D-01 0.129D+00 0.196D+00
 Coeff-Com:  0.637D+00
 Coeff:     -0.108D-02 0.120D-02 0.114D-01 0.262D-01 0.129D+00 0.196D+00
 Coeff:      0.637D+00
 Gap=     0.174 Goal=   None    Shift=    0.000
 RMSDP=3.34D-05 MaxDP=3.27D-03 DE=-3.05D-05 OVMax= 2.87D-04

 Cycle   8  Pass 1  IDiag  1:
 RMSU=  8.27D-06    CP:  1.09D+00  4.53D-01  7.92D-01  7.29D-01  8.58D-01
                    CP:  6.61D-01  8.14D-01
 E= -461.267104995115     Delta-E=       -0.000000238952 Rises=F Damp=F
 DIIS: error= 1.69D-05 at cycle   8 NSaved=   8.
 NSaved= 8 IEnMin= 8 EnMin= -461.267104995115     IErMin= 8 ErrMin= 1.69D-05
 ErrMax= 1.69D-05  0.00D+00 EMaxC= 1.00D-01 BMatC= 1.25D-07 BMatP= 4.24D-07
 IDIUse=1 WtCom= 1.00D+00 WtEn= 0.00D+00
 Coeff-Com:  0.246D-05-0.381D-03 0.676D-03 0.251D-02 0.210D-01 0.420D-01
 Coeff-Com:  0.374D+00 0.560D+00
 Coeff:      0.246D-05-0.381D-03 0.676D-03 0.251D-02 0.210D-01 0.420D-01
 Coeff:      0.374D+00 0.560D+00
 Gap=     0.174 Goal=   None    Shift=    0.000
 RMSDP=4.59D-06 MaxDP=4.13D-04 DE=-2.39D-07 OVMax= 1.37D-04

 Cycle   9  Pass 1  IDiag  1:
 RMSU=  2.78D-06    CP:  1.09D+00  4.54D-01  7.92D-01  7.29D-01  8.60D-01
                    CP:  6.61D-01  8.51D-01  8.50D-01
 E= -461.267105111571     Delta-E=       -0.000000116456 Rises=F Damp=F
 DIIS: error= 5.06D-06 at cycle   9 NSaved=   9.
 NSaved= 9 IEnMin= 9 EnMin= -461.267105111571     IErMin= 9 ErrMin= 5.06D-06
 ErrMax= 5.06D-06  0.00D+00 EMaxC= 1.00D-01 BMatC= 4.02D-09 BMatP= 1.25D-07
 IDIUse=1 WtCom= 1.00D+00 WtEn= 0.00D+00
 Coeff-Com:  0.478D-04-0.211D-03-0.219D-03-0.466D-04 0.288D-02 0.876D-02
 Coeff-Com:  0.118D+00 0.234D+00 0.636D+00
 Coeff:      0.478D-04-0.211D-03-0.219D-03-0.466D-04 0.288D-02 0.876D-02
 Coeff:      0.118D+00 0.234D+00 0.636D+00
 Gap=     0.174 Goal=   None    Shift=    0.000
 RMSDP=1.58D-06 MaxDP=8.87D-05 DE=-1.16D-07 OVMax= 4.07D-05

 Cycle  10  Pass 1  IDiag  1:
 RMSU=  8.27D-07    CP:  1.09D+00  4.54D-01  7.92D-01  7.28D-01  8.60D-01
                    CP:  6.64D-01  8.59D-01  8.62D-01  8.14D-01
 E= -461.267105113769     Delta-E=       -0.000000002197 Rises=F Damp=F
 DIIS: error= 4.12D-06 at cycle  10 NSaved=  10.
 NSaved=10 IEnMin=10 EnMin= -461.267105113769     IErMin=10 ErrMin= 4.12D-06
 ErrMax= 4.12D-06  0.00D+00 EMaxC= 1.00D-01 BMatC= 2.10D-09 BMatP= 4.02D-09
 IDIUse=1 WtCom= 1.00D+00 WtEn= 0.00D+00
 Coeff-Com:  0.271D-04-0.777D-04-0.200D-03-0.285D-03-0.506D-03 0.766D-03
 Coeff-Com:  0.303D-01 0.824D-01 0.435D+00 0.453D+00
 Coeff:      0.271D-04-0.777D-04-0.200D-03-0.285D-03-0.506D-03 0.766D-03
 Coeff:      0.303D-01 0.824D-01 0.435D+00 0.453D+00
 Gap=     0.174 Goal=   None    Shift=    0.000
 RMSDP=5.82D-07 MaxDP=4.13D-05 DE=-2.20D-09 OVMax= 2.69D-05

 Cycle  11  Pass 1  IDiag  1:
 RMSU=  2.61D-07    CP:  1.09D+00  4.53D-01  7.92D-01  7.28D-01  8.60D-01
                    CP:  6.65D-01  8.58D-01  8.68D-01  8.79D-01  7.54D-01
 E= -461.267105116116     Delta-E=       -0.000000002347 Rises=F Damp=F
 DIIS: error= 6.77D-07 at cycle  11 NSaved=  11.
 NSaved=11 IEnMin=11 EnMin= -461.267105116116     IErMin=11 ErrMin= 6.77D-07
 ErrMax= 6.77D-07  0.00D+00 EMaxC= 1.00D-01 BMatC= 5.18D-11 BMatP= 2.10D-09
 IDIUse=1 WtCom= 1.00D+00 WtEn= 0.00D+00
 Coeff-Com:  0.648D-05-0.139D-04-0.633D-04-0.115D-03-0.384D-03-0.400D-03
 Coeff-Com:  0.333D-02 0.135D-01 0.124D+00 0.199D+00 0.662D+00
 Coeff:      0.648D-05-0.139D-04-0.633D-04-0.115D-03-0.384D-03-0.400D-03
 Coeff:      0.333D-02 0.135D-01 0.124D+00 0.199D+00 0.662D+00
 Gap=     0.174 Goal=   None    Shift=    0.000
 RMSDP=1.48D-07 MaxDP=9.24D-06 DE=-2.35D-09 OVMax= 3.36D-06

 Cycle  12  Pass 1  IDiag  1:
 RMSU=  8.36D-08    CP:  1.09D+00  4.53D-01  7.92D-01  7.28D-01  8.60D-01
                    CP:  6.64D-01  8.58D-01  8.75D-01  8.91D-01  7.41D-01
                    CP:  7.93D-01
 E= -461.267105116155     Delta-E=       -0.000000000039 Rises=F Damp=F
 DIIS: error= 2.56D-07 at cycle  12 NSaved=  12.
 NSaved=12 IEnMin=12 EnMin= -461.267105116155     IErMin=12 ErrMin= 2.56D-07
 ErrMax= 2.56D-07  0.00D+00 EMaxC= 1.00D-01 BMatC= 1.01D-11 BMatP= 5.18D-11
 IDIUse=1 WtCom= 1.00D+00 WtEn= 0.00D+00
 Coeff-Com:  0.132D-05-0.148D-05-0.200D-04-0.443D-04-0.191D-03-0.351D-03
 Coeff-Com: -0.116D-02-0.991D-03 0.291D-01 0.767D-01 0.385D+00 0.512D+00
 Coeff:      0.132D-05-0.148D-05-0.200D-04-0.443D-04-0.191D-03-0.351D-03
 Coeff:     -0.116D-02-0.991D-03 0.291D-01 0.767D-01 0.385D+00 0.512D+00
 Gap=     0.174 Goal=   None    Shift=    0.000
 RMSDP=4.50D-08 MaxDP=4.63D-06 DE=-3.90D-11 OVMax= 1.76D-06

 Cycle  13  Pass 1  IDiag  1:
 RMSU=  2.82D-08    CP:  1.09D+00  4.53D-01  7.92D-01  7.28D-01  8.60D-01
                    CP:  6.64D-01  8.58D-01  8.76D-01  8.95D-01  7.42D-01
                    CP:  8.48D-01  8.08D-01
 E= -461.267105116172     Delta-E=       -0.000000000017 Rises=F Damp=F
 DIIS: error= 8.56D-08 at cycle  13 NSaved=  13.
 NSaved=13 IEnMin=13 EnMin= -461.267105116172     IErMin=13 ErrMin= 8.56D-08
 ErrMax= 8.56D-08  0.00D+00 EMaxC= 1.00D-01 BMatC= 1.11D-12 BMatP= 1.01D-11
 IDIUse=1 WtCom= 1.00D+00 WtEn= 0.00D+00
 Coeff-Com:  0.171D-07 0.702D-06-0.372D-05-0.113D-04-0.639D-04-0.150D-03
 Coeff-Com: -0.103D-02-0.250D-02-0.293D-03 0.172D-01 0.111D+00 0.284D+00
 Coeff-Com:  0.592D+00
 Coeff:      0.171D-07 0.702D-06-0.372D-05-0.113D-04-0.639D-04-0.150D-03
 Coeff:     -0.103D-02-0.250D-02-0.293D-03 0.172D-01 0.111D+00 0.284D+00
 Coeff:      0.592D+00
 Gap=     0.174 Goal=   None    Shift=    0.000
 RMSDP=1.96D-08 MaxDP=1.17D-06 DE=-1.68D-11 OVMax= 6.00D-07

 Cycle  14  Pass 1  IDiag  1:
 RMSU=  1.35D-08    CP:  1.09D+00  4.53D-01  7.92D-01  7.28D-01  8.60D-01
                    CP:  6.64D-01  8.58D-01  8.76D-01  8.93D-01  7.49D-01
                    CP:  8.60D-01  7.64D-01  9.33D-01
 E= -461.267105116172     Delta-E=       -0.000000000000 Rises=F Damp=F
 DIIS: error= 3.32D-08 at cycle  14 NSaved=  14.
 NSaved=14 IEnMin=14 EnMin= -461.267105116172     IErMin=14 ErrMin= 3.32D-08
 ErrMax= 3.32D-08  0.00D+00 EMaxC= 1.00D-01 BMatC= 1.99D-13 BMatP= 1.11D-12
 IDIUse=1 WtCom= 1.00D+00 WtEn= 0.00D+00
 Coeff-Com: -0.180D-06 0.583D-06 0.148D-05 0.148D-05-0.251D-05-0.194D-04
 Coeff-Com: -0.273D-03-0.112D-02-0.450D-02-0.184D-02-0.359D-02 0.822D-01
 Coeff-Com:  0.348D+00 0.581D+00
 Coeff:     -0.180D-06 0.583D-06 0.148D-05 0.148D-05-0.251D-05-0.194D-04
 Coeff:     -0.273D-03-0.112D-02-0.450D-02-0.184D-02-0.359D-02 0.822D-01
 Coeff:      0.348D+00 0.581D+00
 Gap=     0.174 Goal=   None    Shift=    0.000
 RMSDP=6.12D-09 MaxDP=4.17D-07 DE=-4.55D-13 OVMax= 2.28D-07

 SCF Done:  E(RB3LYP) =  -461.267105116     A.U. after   14 cycles
            NFock= 14  Conv=0.61D-08     -V/T= 2.0048
 KE= 4.590840896552D+02 PE=-2.156847573194D+03 EE= 6.946011595780D+02
 Leave Link  502 at Mon May 27 10:59:41 2024, MaxMem=  8053063680 cpu:             370.2 elap:              13.7
 (Enter /home/tmj/soft/g16/l601.exe)
 Copying SCF densities to generalized density rwf, IOpCl= 0 IROHF=0.

 **********************************************************************

            Population analysis using the SCF Density.

 **********************************************************************

 Orbital symmetries:
       Occupied  (A) (A) (A) (A) (A) (A) (A) (A) (A) (A) (A) (A)
                 (A) (A) (A) (A) (A) (A) (A) (A) (A) (A) (A) (A)
                 (A) (A) (A) (A) (A) (A) (A) (A) (A) (A) (A) (A)
                 (A) (A)
       Virtual   (A) (A) (A) (A) (A) (A) (A) (A) (A) (A) (A) (A)
                 (A) (A) (A) (A) (A) (A) (A) (A) (A) (A) (A) (A)
                 (A) (A) (A) (A) (A) (A) (A) (A) (A) (A) (A) (A)
                 (A) (A) (A) (A) (A) (A) (A) (A) (A) (A) (A) (A)
                 (A) (A) (A) (A) (A) (A) (A) (A) (A) (A) (A) (A)
                 (A) (A) (A) (A) (A) (A) (A) (A) (A) (A) (A) (A)
                 (A) (A) (A) (A) (A) (A) (A) (A) (A) (A) (A) (A)
                 (A) (A) (A) (A) (A) (A) (A) (A) (A) (A) (A) (A)
                 (A) (A) (A) (A) (A) (A) (A) (A) (A) (A) (A) (A)
                 (A) (A) (A) (A) (A) (A) (A) (A) (A) (A) (A) (A)
                 (A) (A) (A) (A) (A) (A) (A) (A) (A) (A) (A) (A)
                 (A) (A) (A) (A) (A) (A) (A) (A) (A) (A) (A) (A)
                 (A) (A) (A) (A) (A) (A) (A) (A) (A) (A) (A) (A)
                 (A) (A) (A) (A) (A) (A) (A) (A) (A) (A) (A) (A)
                 (A) (A) (A) (A) (A) (A) (A) (A) (A) (A) (A) (A)
                 (A) (A) (A) (A) (A) (A) (A) (A) (A) (A) (A) (A)
                 (A) (A) (A) (A) (A) (A) (A) (A) (A) (A) (A) (A)
                 (A) (A) (A) (A) (A) (A) (A) (A) (A) (A) (A) (A)
                 (A) (A) (A) (A) (A) (A) (A) (A) (A) (A) (A) (A)
                 (A) (A) (A) (A) (A) (A) (A) (A) (A) (A) (A) (A)
                 (A) (A) (A) (A) (A) (A) (A) (A) (A) (A)
 The electronic state is 1-A.
 Alpha  occ. eigenvalues --  -19.14615 -10.24147 -10.19417 -10.19142 -10.18967
 Alpha  occ. eigenvalues --  -10.18708 -10.18513 -10.18492 -10.18430 -10.18323
 Alpha  occ. eigenvalues --  -10.18076  -1.04236  -0.88562  -0.83002  -0.78405
 Alpha  occ. eigenvalues --   -0.74871  -0.72908  -0.63680  -0.62349  -0.60884
 Alpha  occ. eigenvalues --   -0.54933  -0.52352  -0.51309  -0.47752  -0.45789
 Alpha  occ. eigenvalues --   -0.44656  -0.43186  -0.42658  -0.41670  -0.39713
 Alpha  occ. eigenvalues --   -0.38580  -0.35736  -0.34784  -0.33401  -0.31296
 Alpha  occ. eigenvalues --   -0.29571  -0.25289  -0.22778
 Alpha virt. eigenvalues --   -0.05357  -0.02513  -0.00193   0.00091   0.00442
 Alpha virt. eigenvalues --    0.01189   0.02464   0.03592   0.04883   0.05264
 Alpha virt. eigenvalues --    0.05523   0.06182   0.06595   0.07138   0.08524
 Alpha virt. eigenvalues --    0.09085   0.09502   0.10112   0.10979   0.11345
 Alpha virt. eigenvalues --    0.11875   0.13192   0.13686   0.14237   0.14447
 Alpha virt. eigenvalues --    0.14576   0.15440   0.16074   0.16237   0.16927
 Alpha virt. eigenvalues --    0.17104   0.18585   0.18854   0.19291   0.20114
 Alpha virt. eigenvalues --    0.20403   0.20632   0.21229   0.21389   0.21675
 Alpha virt. eigenvalues --    0.22027   0.22454   0.23168   0.24307   0.24634
 Alpha virt. eigenvalues --    0.25204   0.26281   0.26868   0.27328   0.28027
 Alpha virt. eigenvalues --    0.28266   0.29043   0.29860   0.30667   0.31225
 Alpha virt. eigenvalues --    0.32432   0.32584   0.33068   0.34054   0.35021
 Alpha virt. eigenvalues --    0.36119   0.37096   0.40754   0.45660   0.46594
 Alpha virt. eigenvalues --    0.47952   0.50869   0.51323   0.52888   0.53211
 Alpha virt. eigenvalues --    0.53490   0.53981   0.55036   0.56289   0.57035
 Alpha virt. eigenvalues --    0.57173   0.57967   0.58460   0.59724   0.59786
 Alpha virt. eigenvalues --    0.62454   0.62880   0.64171   0.64583   0.65161
 Alpha virt. eigenvalues --    0.69092   0.69662   0.69672   0.70388   0.71717
 Alpha virt. eigenvalues --    0.72402   0.73007   0.74267   0.75692   0.78290
 Alpha virt. eigenvalues --    0.79512   0.81240   0.81896   0.83632   0.85099
 Alpha virt. eigenvalues --    0.86051   0.87788   0.89162   0.90921   0.91166
 Alpha virt. eigenvalues --    0.92188   0.94273   0.94643   0.97161   0.97733
 Alpha virt. eigenvalues --    0.99154   1.01449   1.04135   1.05128   1.05349
 Alpha virt. eigenvalues --    1.07097   1.08538   1.09420   1.10807   1.13460
 Alpha virt. eigenvalues --    1.14511   1.15396   1.16687   1.24164   1.27153
 Alpha virt. eigenvalues --    1.31628   1.33743   1.35275   1.39898   1.46239
 Alpha virt. eigenvalues --    1.47226   1.49215   1.49406   1.50028   1.51165
 Alpha virt. eigenvalues --    1.51665   1.55342   1.55903   1.57248   1.58468
 Alpha virt. eigenvalues --    1.59964   1.62305   1.63758   1.64616   1.65532
 Alpha virt. eigenvalues --    1.69332   1.71604   1.72568   1.73619   1.75108
 Alpha virt. eigenvalues --    1.78559   1.79214   1.81681   1.85772   1.87515
 Alpha virt. eigenvalues --    1.87830   1.88882   1.90393   1.91355   1.93363
 Alpha virt. eigenvalues --    1.94232   1.96294   1.96999   1.99671   1.99847
 Alpha virt. eigenvalues --    2.02219   2.05253   2.07377   2.09216   2.11061
 Alpha virt. eigenvalues --    2.11977   2.14229   2.18711   2.22328   2.23077
 Alpha virt. eigenvalues --    2.28868   2.35988   2.36851   2.37407   2.40383
 Alpha virt. eigenvalues --    2.43016   2.44417   2.52408   2.54447   2.58471
 Alpha virt. eigenvalues --    2.63403   2.64775   2.66779   2.67536   2.68385
 Alpha virt. eigenvalues --    2.70244   2.70843   2.73271   2.74327   2.75433
 Alpha virt. eigenvalues --    2.76021   2.76567   2.77420   2.78048   2.79327
 Alpha virt. eigenvalues --    2.82089   2.82561   2.88009   2.89230   2.89744
 Alpha virt. eigenvalues --    2.91602   2.96082   2.99301   3.05756   3.08814
 Alpha virt. eigenvalues --    3.11013   3.18410   3.20155   3.27133   3.29222
 Alpha virt. eigenvalues --    3.32788   3.35308   3.37394   3.39918   3.46574
 Alpha virt. eigenvalues --    3.49913   3.52010   3.58910   3.62721   3.65101
 Alpha virt. eigenvalues --    3.71747   3.83528   4.00479   4.00624   4.03325
 Alpha virt. eigenvalues --    4.08489   4.16144   4.19489   4.36139   4.81456
 Alpha virt. eigenvalues --    4.83729   5.11133   5.35459   5.68653  23.49175
 Alpha virt. eigenvalues --   23.76349  23.89612  23.92359  23.95301  24.01468
 Alpha virt. eigenvalues --   24.10896  24.11529  24.17332  24.18182  49.92595
          Condensed to atoms (all electrons):
               1          2          3          4          5          6
     1  C    5.817347   0.002695   0.484081   0.213599  -0.555395   0.600816
     2  C    0.002695   7.938590  -3.070918  -1.275490   1.443041  -0.407018
     3  C    0.484081  -3.070918  13.866722  -0.703197  -1.294605   0.241876
     4  C    0.213599  -1.275490  -0.703197  12.743902  -2.011027   0.059816
     5  C   -0.555395   1.443041  -1.294605  -2.011027   7.617783   0.261320
     6  C    0.600816  -0.407018   0.241876   0.059816   0.261320   6.082143
     7  H    0.018709   0.061855  -0.101134  -0.026228   0.006976   0.001909
     8  H    0.400099  -0.046518   0.011089  -0.003491  -0.004724  -0.021963
     9  H   -0.029929   0.394818  -0.082053  -0.020072  -0.005827  -0.004551
    10  C   -0.374701   0.532475  -2.325476  -1.039841   0.580164   0.170789
    11  C    0.004243   0.242349  -1.004329  -1.093564   0.508915  -0.401515
    12  H   -0.004761  -0.003708  -0.021110  -0.084080   0.389586  -0.033077
    13  H   -0.016560  -0.008891  -0.004168   0.021411  -0.065293   0.410986
    14  C   -0.013056   0.148790   0.044623  -0.697163  -0.816665  -0.555298
    15  C   -0.252393   0.074096  -0.192085  -0.248735  -0.058920  -0.133255
    16  H    0.000701   0.009691   0.010954   0.003075   0.003145   0.000014
    17  H    0.001781   0.005374  -0.010925  -0.068754   0.045004   0.018655
    18  O   -0.001607  -0.003893  -0.025366  -0.017445   0.001101  -0.002358
    19  H    0.000125   0.001245   0.000028  -0.002363  -0.000465  -0.000180
               7          8          9         10         11         12
     1  C    0.018709   0.400099  -0.029929  -0.374701   0.004243  -0.004761
     2  C    0.061855  -0.046518   0.394818   0.532475   0.242349  -0.003708
     3  C   -0.101134   0.011089  -0.082053  -2.325476  -1.004329  -0.021110
     4  C   -0.026228  -0.003491  -0.020072  -1.039841  -1.093564  -0.084080
     5  C    0.006976  -0.004724  -0.005827   0.580164   0.508915   0.389586
     6  C    0.001909  -0.021963  -0.004551   0.170789  -0.401515  -0.033077
     7  H    0.547674  -0.000014   0.002759   0.388687  -0.005388   0.000011
     8  H   -0.000014   0.543985  -0.008123   0.009419   0.001852  -0.000272
     9  H    0.002759  -0.008123   0.553076   0.051949   0.005468   0.000071
    10  C    0.388687   0.009419   0.051949   8.316323   2.070668   0.005195
    11  C   -0.005388   0.001852   0.005468   2.070668  10.316079   0.055947
    12  H    0.000011  -0.000272   0.000071   0.005195   0.055947   0.550770
    13  H   -0.000002  -0.007735  -0.000277   0.000736   0.007620  -0.008062
    14  C   -0.000387  -0.000709   0.002610  -1.017036  -2.510497   0.026616
    15  C   -0.010977   0.000838   0.020361  -1.216061  -2.402927   0.003077
    16  H   -0.007869  -0.000001  -0.000014  -0.017827  -0.008522  -0.000003
    17  H    0.000056  -0.000002   0.000010  -0.004703   0.408980   0.002644
    18  O   -0.000468   0.000000  -0.000001   0.003041  -0.201024  -0.000049
    19  H   -0.000004  -0.000000  -0.000000   0.017519   0.064237  -0.000003
              13         14         15         16         17         18
     1  C   -0.016560  -0.013056  -0.252393   0.000701   0.001781  -0.001607
     2  C   -0.008891   0.148790   0.074096   0.009691   0.005374  -0.003893
     3  C   -0.004168   0.044623  -0.192085   0.010954  -0.010925  -0.025366
     4  C    0.021411  -0.697163  -0.248735   0.003075  -0.068754  -0.017445
     5  C   -0.065293  -0.816665  -0.058920   0.003145   0.045004   0.001101
     6  C    0.410986  -0.555298  -0.133255   0.000014   0.018655  -0.002358
     7  H   -0.000002  -0.000387  -0.010977  -0.007869   0.000056  -0.000468
     8  H   -0.007735  -0.000709   0.000838  -0.000001  -0.000002   0.000000
     9  H   -0.000277   0.002610   0.020361  -0.000014   0.000010  -0.000001
    10  C    0.000736  -1.017036  -1.216061  -0.017827  -0.004703   0.003041
    11  C    0.007620  -2.510497  -2.402927  -0.008522   0.408980  -0.201024
    12  H   -0.008062   0.026616   0.003077  -0.000003   0.002644  -0.000049
    13  H    0.542886   0.001095  -0.000988   0.000000  -0.000013  -0.000002
    14  C    0.001095   9.578110   1.778118  -0.087430  -0.043766   0.490092
    15  C   -0.000988   1.778118   8.490692   0.438847  -0.004854  -0.189452
    16  H    0.000000  -0.087430   0.438847   0.531342  -0.000183  -0.005565
    17  H   -0.000013  -0.043766  -0.004854  -0.000183   0.529908  -0.004804
    18  O   -0.000002   0.490092  -0.189452  -0.005565  -0.004804   8.044572
    19  H    0.000000  -0.014080  -0.066167   0.001411   0.000158   0.251319
              19
     1  C    0.000125
     2  C    0.001245
     3  C    0.000028
     4  C   -0.002363
     5  C   -0.000465
     6  C   -0.000180
     7  H   -0.000004
     8  H   -0.000000
     9  H   -0.000000
    10  C    0.017519
    11  C    0.064237
    12  H   -0.000003
    13  H    0.000000
    14  C   -0.014080
    15  C   -0.066167
    16  H    0.001411
    17  H    0.000158
    18  O    0.251319
    19  H    0.486037
 Mulliken charges:
               1
     1  C   -0.295793
     2  C   -0.038583
     3  C    0.175992
     4  C    0.249649
     5  C   -0.044115
     6  C   -0.289108
     7  H    0.123835
     8  H    0.126269
     9  H    0.119725
    10  C   -0.151319
    11  C   -0.058590
    12  H    0.121207
    13  H    0.127256
    14  C   -0.313966
    15  C   -0.029215
    16  H    0.128233
    17  H    0.125434
    18  O   -0.338092
    19  H    0.261183
 Sum of Mulliken charges =  -0.00000
 Mulliken charges with hydrogens summed into heavy atoms:
               1
     1  C   -0.169524
     2  C    0.081141
     3  C    0.175992
     4  C    0.249649
     5  C    0.077092
     6  C   -0.161853
    10  C   -0.027485
    11  C    0.066843
    14  C   -0.313966
    15  C    0.099018
    18  O   -0.076909
 Electronic spatial extent (au):  <R**2>=           1720.9251
 Charge=              0.0000 electrons
 Dipole moment (field-independent basis, Debye):
    X=              0.6453    Y=              0.7693    Z=              1.4044  Tot=              1.7264
 Quadrupole moment (field-independent basis, Debye-Ang):
   XX=            -59.8621   YY=            -58.0103   ZZ=            -68.3020
   XY=             -3.1009   XZ=             -6.0789   YZ=             -0.7664
 Traceless Quadrupole moment (field-independent basis, Debye-Ang):
   XX=              2.1960   YY=              4.0478   ZZ=             -6.2439
   XY=             -3.1009   XZ=             -6.0789   YZ=             -0.7664
 Octapole moment (field-independent basis, Debye-Ang**2):
  XXX=             -0.6828  YYY=              0.2943  ZZZ=              1.5821  XYY=              1.1592
  XXY=              9.6388  XXZ=             25.5973  XZZ=            -14.0467  YZZ=             -2.4127
  YYZ=              0.2695  XYZ=              3.3955
 Hexadecapole moment (field-independent basis, Debye-Ang**3):
 XXXX=          -1550.5012 YYYY=           -527.7891 ZZZZ=            -82.1643 XXXY=            -33.0599
 XXXZ=           -103.6214 YYYX=              0.3235 YYYZ=             -0.2831 ZZZX=             -7.5968
 ZZZY=             -0.9376 XXYY=           -365.6879 XXZZ=           -299.3921 YYZZ=           -122.8055
 XXYZ=            -13.5317 YYXZ=             -1.9719 ZZXY=              8.3712
 N-N= 5.418952188448D+02 E-N=-2.156847574490D+03  KE= 4.590840896552D+02
 No NMR shielding tensors so no spin-rotation constants.
 Leave Link  601 at Mon May 27 10:59:42 2024, MaxMem=  8053063680 cpu:               3.1 elap:               0.1
 (Enter /home/tmj/soft/g16/l701.exe)
 ... and contract with generalized density number  0.
 Compute integral first derivatives.
 R6Disp: Adding Grimme-D3(BJ) dispersion energy 1st derivatives to the gradient.
 Leave Link  701 at Mon May 27 10:59:42 2024, MaxMem=  8053063680 cpu:               6.5 elap:               0.3
 (Enter /home/tmj/soft/g16/l702.exe)
 L702 exits ... SP integral derivatives will be done elsewhere.
 Leave Link  702 at Mon May 27 10:59:42 2024, MaxMem=  8053063680 cpu:               0.6 elap:               0.0
 (Enter /home/tmj/soft/g16/l703.exe)
 Integral derivatives from FoFJK, PRISM(SPDF).
 Compute integral first derivatives, UseDBF=F ICtDFT=           0.
 Calling FoFJK, ICntrl=      2127 FMM=F ISym2X=0 I1Cent= 0 IOpClX= 0 NMat=1 NMatS=1 NMatT=0.
 FoFJK:  IHMeth= 1 ICntrl=    2127 DoSepK=F KAlg= 0 I1Cent=           0 FoldK=F
 IRaf=         0 NMat=       1 IRICut=       1 DoRegI=T DoRafI=F ISym2E= 0 IDoP0=0 IntGTp=1.
 FoFCou: FMM=F IPFlag=           0 FMFlag=      100000 FMFlg1=         800
         NFxFlg=           0 DoJE=F BraDBF=F KetDBF=F FulRan=T
         wScrn=  0.000000 ICntrl=      2127 IOpCl=  0 I1Cent=           0 NGrid=           0
         NMat0=    1 NMatS0=      1 NMatT0=    0 NMatD0=    1 NMtDS0=    0 NMtDT0=    0
 Symmetry not used in FoFCou.
 Leave Link  703 at Mon May 27 10:59:45 2024, MaxMem=  8053063680 cpu:              73.2 elap:               2.7
 (Enter /home/tmj/soft/g16/l716.exe)
 Dipole        = 2.53875654D-01 3.02652556D-01 5.52541638D-01
 ***** Axes restored to original set *****
 -------------------------------------------------------------------
 Center     Atomic                   Forces (Hartrees/Bohr)
 Number     Number              X              Y              Z
 -------------------------------------------------------------------
      1        6          -0.006418633   -0.008869259    0.000007632
      2        6           0.005319453   -0.005919685    0.000063132
      3        6           0.003612391   -0.010385908   -0.000126539
      4        6          -0.000720059    0.007387818   -0.001476757
      5        6          -0.003214572    0.007676846    0.000031550
      6        6          -0.009441360   -0.000888257    0.000194183
      7        1          -0.004379461    0.009563670   -0.000052493
      8        1           0.006184589    0.008474886   -0.000021037
      9        1          -0.005656982    0.008453269   -0.000020647
     10        6           0.001086172   -0.005353770    0.000246917
     11        6           0.004601153   -0.005766188   -0.001575463
     12        1           0.004675213   -0.009063819   -0.000076873
     13        1           0.010412524    0.001303368   -0.000024704
     14        6           0.011737574    0.015407774    0.007083619
     15        6           0.012253719    0.000236827   -0.000069544
     16        1          -0.010370691    0.000351482   -0.000527748
     17        1          -0.002536094    0.009584495    0.000370447
     18        8          -0.018630984   -0.019357879   -0.006436345
     19        1           0.001486047   -0.002835673    0.002410670
 -------------------------------------------------------------------
 Cartesian Forces:  Max     0.019357879 RMS     0.006891449
 Leave Link  716 at Mon May 27 10:59:45 2024, MaxMem=  8053063680 cpu:               0.6 elap:               0.0
 (Enter /home/tmj/soft/g16/l103.exe)

 GradGradGradGradGradGradGradGradGradGradGradGradGradGradGradGradGradGrad
 Berny optimization.
 FormGI is forming the generalized inverse of G from B-inverse, IUseBI=4.
 Internal  Forces:  Max     0.027832330 RMS     0.004231847
 Search for a local minimum.
 Step number   1 out of a maximum of  107
 All quantities printed in internal units (Hartrees-Bohrs-Radians)
 RMS Force = .42318D-02 SwitMx=.10000D-02 MixMth= 1
 Mixed Optimization -- RFO/linear search
 Second derivative matrix not updated -- first step.
 ITU=  0
     Eigenvalues ---    0.01295   0.01806   0.01817   0.01818   0.01948
     Eigenvalues ---    0.02009   0.02024   0.02035   0.02103   0.02129
     Eigenvalues ---    0.02130   0.02159   0.02190   0.02220   0.02272
     Eigenvalues ---    0.02300   0.16000   0.16000   0.16000   0.16000
     Eigenvalues ---    0.16000   0.16000   0.16000   0.16000   0.22000
     Eigenvalues ---    0.22285   0.22686   0.23520   0.24373   0.24753
     Eigenvalues ---    0.25000   0.33645   0.33648   0.33659   0.33683
     Eigenvalues ---    0.33687   0.33688   0.37230   0.37558   0.39679
     Eigenvalues ---    0.40124   0.40989   0.41067   0.42246   0.42561
     Eigenvalues ---    0.42923   0.48401   0.48619   0.49799   0.49837
     Eigenvalues ---    0.55473
 RFO step:  Lambda=-5.40031343D-03 EMin= 1.29493790D-02
 Linear search not attempted -- first point.
 Iteration  1 RMS(Cart)=  0.02341674 RMS(Int)=  0.00074496
 Iteration  2 RMS(Cart)=  0.00061860 RMS(Int)=  0.00016572
 Iteration  3 RMS(Cart)=  0.00000135 RMS(Int)=  0.00016572
 Iteration  4 RMS(Cart)=  0.00000000 RMS(Int)=  0.00016572
 ITry= 1 IFail=0 DXMaxC= 9.95D-02 DCOld= 1.00D+10 DXMaxT= 3.00D-01 DXLimC= 3.00D+00 Rises=F
 Variable       Old X    -DE/DX   Delta X   Delta X   Delta X     New X
                                 (Linear)    (Quad)   (Total)
    R1        2.59422  -0.00033   0.00000  -0.00082  -0.00083   2.59339
    R2        2.67590  -0.00021   0.00000  -0.00094  -0.00094   2.67496
    R3        2.07869  -0.01044   0.00000  -0.03052  -0.03052   2.04817
    R4        2.68721  -0.00192   0.00000  -0.00422  -0.00423   2.68299
    R5        2.07933  -0.01016   0.00000  -0.02971  -0.02971   2.04961
    R6        2.68127   0.00612   0.00000   0.01529   0.01520   2.69647
    R7        2.68725  -0.00189   0.00000  -0.00404  -0.00413   2.68312
    R8        2.68666  -0.00184   0.00000  -0.00412  -0.00412   2.68254
    R9        2.68735  -0.00161   0.00000  -0.00354  -0.00354   2.68381
   R10        2.59524  -0.00048   0.00000  -0.00118  -0.00117   2.59406
   R11        2.07909  -0.01019   0.00000  -0.02979  -0.02979   2.04930
   R12        2.07861  -0.01044   0.00000  -0.03050  -0.03050   2.04811
   R13        2.07928  -0.01048   0.00000  -0.03064  -0.03064   2.04864
   R14        2.59448  -0.00122   0.00000  -0.00262  -0.00262   2.59187
   R15        2.59433  -0.00488   0.00000  -0.00992  -0.00983   2.58450
   R16        2.02201   0.00953   0.00000   0.02523   0.02523   2.04723
   R17        2.67628  -0.00211   0.00000  -0.00548  -0.00539   2.67089
   R18        2.70231  -0.02783   0.00000  -0.06702  -0.06702   2.63529
   R19        2.07860  -0.01036   0.00000  -0.03027  -0.03027   2.04833
   R20        1.81414   0.00245   0.00000   0.00438   0.00438   1.81852
    A1        2.10096  -0.00030   0.00000  -0.00232  -0.00233   2.09863
    A2        2.10570  -0.00089   0.00000  -0.00513  -0.00513   2.10057
    A3        2.07652   0.00119   0.00000   0.00745   0.00746   2.08398
    A4        2.10330   0.00057   0.00000   0.00293   0.00291   2.10621
    A5        2.10981  -0.00082   0.00000  -0.00471  -0.00470   2.10511
    A6        2.07008   0.00025   0.00000   0.00177   0.00178   2.07186
    A7        2.07862  -0.00020   0.00000  -0.00041  -0.00038   2.07824
    A8        2.12407   0.00252   0.00000   0.00798   0.00803   2.13210
    A9        2.08050  -0.00232   0.00000  -0.00757  -0.00766   2.07284
   A10        2.08061  -0.00153   0.00000  -0.00561  -0.00562   2.07500
   A11        2.07798   0.00078   0.00000   0.00439   0.00437   2.08236
   A12        2.12459   0.00075   0.00000   0.00122   0.00122   2.12581
   A13        2.10235   0.00077   0.00000   0.00351   0.00351   2.10586
   A14        2.07073   0.00009   0.00000   0.00109   0.00109   2.07182
   A15        2.11010  -0.00085   0.00000  -0.00460  -0.00460   2.10550
   A16        2.10053   0.00069   0.00000   0.00190   0.00190   2.10243
   A17        2.07699   0.00075   0.00000   0.00566   0.00566   2.08265
   A18        2.10566  -0.00144   0.00000  -0.00756  -0.00756   2.09810
   A19        2.07068   0.00041   0.00000   0.00303   0.00301   2.07369
   A20        2.10307   0.00117   0.00000   0.00599   0.00596   2.10903
   A21        2.10944  -0.00158   0.00000  -0.00902  -0.00904   2.10040
   A22        2.10398  -0.00229   0.00000  -0.00994  -0.00977   2.09420
   A23        2.06981   0.00392   0.00000   0.02171   0.02162   2.09143
   A24        2.10940  -0.00162   0.00000  -0.01177  -0.01187   2.09753
   A25        2.10080   0.00430   0.00000   0.01554   0.01515   2.11595
   A26        2.10573  -0.00548   0.00000  -0.02081  -0.02155   2.08417
   A27        2.07666   0.00118   0.00000   0.00525   0.00445   2.08111
   A28        2.10005  -0.00163   0.00000  -0.00841  -0.00824   2.09181
   A29        2.10635   0.00144   0.00000   0.00799   0.00788   2.11423
   A30        2.07679   0.00019   0.00000   0.00043   0.00032   2.07711
   A31        1.91114  -0.00481   0.00000  -0.02910  -0.02910   1.88203
    D1       -0.00019   0.00002   0.00000   0.00098   0.00098   0.00079
    D2       -3.14154   0.00003   0.00000   0.00139   0.00139  -3.14015
    D3        3.14151  -0.00000   0.00000  -0.00005  -0.00005   3.14146
    D4        0.00016   0.00001   0.00000   0.00035   0.00036   0.00052
    D5       -0.00005   0.00002   0.00000   0.00085   0.00084   0.00079
    D6       -3.14148  -0.00002   0.00000  -0.00083  -0.00084   3.14087
    D7        3.14144   0.00004   0.00000   0.00186   0.00186  -3.13989
    D8        0.00001   0.00000   0.00000   0.00018   0.00018   0.00019
    D9        0.00030  -0.00004   0.00000  -0.00177  -0.00177  -0.00147
   D10       -3.14138   0.00006   0.00000   0.00301   0.00304  -3.13834
   D11       -3.14153  -0.00005   0.00000  -0.00216  -0.00217   3.13949
   D12       -0.00002   0.00005   0.00000   0.00262   0.00264   0.00262
   D13       -0.00017   0.00002   0.00000   0.00076   0.00077   0.00060
   D14        3.14150  -0.00015   0.00000  -0.00577  -0.00583   3.13567
   D15        3.14150  -0.00008   0.00000  -0.00390  -0.00387   3.13763
   D16       -0.00001  -0.00025   0.00000  -0.01043  -0.01047  -0.01048
   D17       -0.00024   0.00021   0.00000   0.00850   0.00853   0.00830
   D18       -3.14158  -0.00014   0.00000  -0.00429  -0.00440   3.13720
   D19        3.14128   0.00031   0.00000   0.01329   0.01332  -3.12859
   D20       -0.00007  -0.00004   0.00000   0.00050   0.00039   0.00032
   D21       -0.00007   0.00002   0.00000   0.00103   0.00102   0.00095
   D22       -3.14138  -0.00001   0.00000  -0.00014  -0.00016  -3.14154
   D23        3.14145   0.00020   0.00000   0.00775   0.00779  -3.13395
   D24        0.00014   0.00016   0.00000   0.00657   0.00661   0.00674
   D25        0.00003   0.00016   0.00000   0.00498   0.00508   0.00510
   D26        3.14156  -0.00004   0.00000  -0.00284  -0.00272   3.13885
   D27       -3.14149  -0.00001   0.00000  -0.00173  -0.00171   3.13998
   D28        0.00005  -0.00021   0.00000  -0.00954  -0.00951  -0.00946
   D29        0.00018  -0.00004   0.00000  -0.00185  -0.00184  -0.00166
   D30       -3.14158  -0.00000   0.00000  -0.00014  -0.00015   3.14146
   D31        3.14149  -0.00001   0.00000  -0.00065  -0.00064   3.14085
   D32       -0.00027   0.00003   0.00000   0.00106   0.00106   0.00079
   D33        0.00015   0.00041   0.00000   0.01491   0.01494   0.01508
   D34        3.14157   0.00071   0.00000   0.02478   0.02492  -3.11669
   D35       -3.14120   0.00006   0.00000   0.00183   0.00181  -3.13939
   D36        0.00023   0.00035   0.00000   0.01170   0.01179   0.01202
   D37        0.00005   0.00021   0.00000   0.01038   0.01046   0.01051
   D38        3.14131  -0.00152   0.00000  -0.05725  -0.05684   3.08447
   D39       -3.14149   0.00042   0.00000   0.01837   0.01828  -3.12321
   D40       -0.00023  -0.00131   0.00000  -0.04926  -0.04902  -0.04924
   D41       -0.00014  -0.00051   0.00000  -0.02054  -0.02069  -0.02082
   D42       -3.14156  -0.00079   0.00000  -0.03025  -0.03046   3.11116
   D43       -3.14140   0.00120   0.00000   0.04597   0.04650  -3.09490
   D44        0.00035   0.00091   0.00000   0.03627   0.03672   0.03708
   D45        1.92053   0.00233   0.00000   0.11405   0.11367   2.03420
   D46       -1.22139   0.00063   0.00000   0.04735   0.04773  -1.17366
         Item               Value     Threshold  Converged?
 Maximum Force            0.027832     0.000450     NO 
 RMS     Force            0.004232     0.000300     NO 
 Maximum Displacement     0.099546     0.001800     NO 
 RMS     Displacement     0.023761     0.001200     NO 
 Predicted change in Energy=-2.813285D-03
 Lowest energy point so far.  Saving SCF results.
 GradGradGradGradGradGradGradGradGradGradGradGradGradGradGradGradGradGrad

 Leave Link  103 at Mon May 27 10:59:45 2024, MaxMem=  8053063680 cpu:               8.7 elap:               0.4
 (Enter /home/tmj/soft/g16/l202.exe)
                          Input orientation:                          
 ---------------------------------------------------------------------
 Center     Atomic      Atomic             Coordinates (Angstroms)
 Number     Number       Type             X           Y           Z
 ---------------------------------------------------------------------
      1          6           0       -4.059890    3.617653   -0.430995
      2          6           0       -2.687546    3.618898   -0.423684
      3          6           0       -1.964320    4.840637   -0.415874
      4          6           0       -2.684256    6.072612   -0.417544
      5          6           0       -4.103339    6.037628   -0.426234
      6          6           0       -4.773952    4.839878   -0.431803
      7          1           0        0.002803    3.943250   -0.423189
      8          1           0       -4.606729    2.681889   -0.437064
      9          1           0       -2.134348    2.685975   -0.424368
     10          6           0       -0.544987    4.878696   -0.412106
     11          6           0       -1.965917    7.297666   -0.402425
     12          1           0       -4.647509    6.975654   -0.427530
     13          1           0       -5.857589    4.821582   -0.438305
     14          6           0       -0.598326    7.288131   -0.392524
     15          6           0        0.126277    6.074758   -0.409720
     16          1           0        1.209459    6.109601   -0.429942
     17          1           0       -2.503973    8.237947   -0.406145
     18          8           0        0.095416    8.496632   -0.447074
     19          1           0        0.591580    8.588854    0.372299
 ---------------------------------------------------------------------
                    Distance matrix (angstroms):
                    1          2          3          4          5
     1  C    0.000000
     2  C    1.372364   0.000000
     3  C    2.426382   1.419775   0.000000
     4  C    2.814138   2.453724   1.426910   0.000000
     5  C    2.420370   2.802629   2.451182   1.419541   0.000000
     6  C    1.415528   2.417427   2.809677   2.426245   1.372719
     7  H    4.075727   2.709831   2.162159   3.428484   4.609428
     8  H    1.083847   2.135750   3.412178   3.897856   3.393303
     9  H    2.139107   1.084608   2.161377   3.430999   3.887224
    10  C    3.734318   2.485514   1.419849   2.449885   3.742351
    11  C    4.234152   3.748938   2.457067   1.420211   2.481298
    12  H    3.409030   3.887066   3.428985   2.161006   1.084443
    13  H    2.163613   3.390551   3.893380   3.411092   2.134550
    14  C    5.045425   4.222450   2.802983   2.414377   3.721560
    15  C    4.854051   3.734842   2.427693   2.810544   4.229811
    16  H    5.828880   4.624963   3.418090   3.893910   5.313286
    17  H    4.875307   4.622729   3.439919   2.172858   2.720254
    18  O    6.408687   5.615845   4.196402   3.688268   4.865869
    19  H    6.855238   6.007222   4.604669   4.205523   5.402654
                    6          7          8          9         10
     6  C    0.000000
     7  H    4.860186   0.000000
     8  H    2.164465   4.779018   0.000000
     9  H    3.406885   2.479548   2.472417   0.000000
    10  C    4.229189   1.084092   4.617827   2.708181   0.000000
    11  C    3.731843   3.889524   5.317940   4.614819   2.805451
    12  H    2.139520   5.551657   4.293970   4.971654   4.607403
    13  H    1.083811   5.925867   2.478496   4.292265   5.312974
    14  C    4.840593   3.398607   6.106287   4.851826   2.410106
    15  C    5.053480   2.135124   5.823543   4.073634   1.371556
    16  H    6.116650   2.479746   6.751096   4.785634   2.143251
    17  H    4.086605   4.972791   5.940734   5.564293   3.888732
    18  O    6.089567   4.554387   7.478068   6.223833   3.674344
    19  H    6.594720   4.749852   7.910102   6.550522   3.958832
                   11         12         13         14         15
    11  C    0.000000
    12  H    2.700974   0.000000
    13  H    4.612742   2.470716   0.000000
    14  C    1.367659   4.061372   5.809114   0.000000
    15  C    2.423392   4.858082   6.113748   1.413372   0.000000
    16  H    3.390467   5.920652   7.183469   2.158337   1.083931
    17  H    1.083350   2.487687   4.787413   2.129278   3.405527
    18  O    2.385079   4.980872   6.996023   1.394535   2.422359
    19  H    2.967853   5.539873   7.512735   1.921643   2.673712
                   16         17         18         19
    16  H    0.000000
    17  H    4.280187   0.000000
    18  O    2.634256   2.612550   0.000000
    19  H    2.678070   3.211162   0.962318   0.000000
 Stoichiometry    C10H8O
 Framework group  C1[X(C10H8O)]
 Deg. of freedom    51
 Full point group                 C1      NOp   1
 RotChk:  IX=0 Diff= 4.28D-03
 Largest Abelian subgroup         C1      NOp   1
 Largest concise Abelian subgroup C1      NOp   1
                         Standard orientation:                         
 ---------------------------------------------------------------------
 Center     Atomic      Atomic             Coordinates (Angstroms)
 Number     Number       Type             X           Y           Z
 ---------------------------------------------------------------------
      1          6           0        2.920069    0.384967    0.010275
      2          6           0        1.864574    1.262069    0.007873
      3          6           0        0.527055    0.785879    0.000952
      4          6           0        0.292130   -0.621545   -0.005325
      5          6           0        1.405142   -1.502622   -0.003705
      6          6           0        2.686858   -1.011208    0.004896
      7          1           0       -0.410431    2.734173   -0.013208
      8          1           0        3.939056    0.754237    0.015439
      9          1           0        2.036330    2.332988    0.010621
     10          6           0       -0.588065    1.664760   -0.005615
     11          6           0       -1.043832   -1.103422   -0.004928
     12          1           0        1.223204   -2.571683   -0.008537
     13          1           0        3.531387   -1.690484    0.006200
     14          6           0       -2.088803   -0.221080   -0.004623
     15          6           0       -1.869169    1.175063   -0.017391
     16          1           0       -2.723654    1.841372   -0.045544
     17          1           0       -1.231885   -2.170300   -0.012245
     18          8           0       -3.394543   -0.705867   -0.073587
     19          1           0       -3.843417   -0.460528    0.741506
 ---------------------------------------------------------------------
 Rotational constants (GHZ):           2.8484078           0.8242753           0.6403102
 Leave Link  202 at Mon May 27 10:59:45 2024, MaxMem=  8053063680 cpu:               0.4 elap:               0.0
 (Enter /home/tmj/soft/g16/l301.exe)
 Standard basis: 6-311+G(d,p) (5D, 7F)
 Ernie: Thresh=  0.10000D-02 Tol=  0.10000D-05 Strict=F.
 There are   301 symmetry adapted cartesian basis functions of A   symmetry.
 There are   290 symmetry adapted basis functions of A   symmetry.
   290 basis functions,   460 primitive gaussians,   301 cartesian basis functions
    38 alpha electrons       38 beta electrons
       nuclear repulsion energy       543.9211747934 Hartrees.
 IExCor=  402 DFT=T Ex+Corr=B3LYP ExCW=0 ScaHFX=  0.200000
 ScaDFX=  0.800000  0.720000  1.000000  0.810000 ScalE2=  1.000000  1.000000
 IRadAn=      5 IRanWt=     -1 IRanGd=            0 ICorTp=0 IEmpDi=141
 NAtoms=   19 NActive=   19 NUniq=   19 SFac= 1.00D+00 NAtFMM=   60 NAOKFM=F Big=F
 Integral buffers will be    131072 words long.
 Raffenetti 2 integral format.
 Two-electron integral symmetry is turned on.
 R6Disp:  Grimme-D3(BJ) Dispersion energy=       -0.0385960235 Hartrees.
 Nuclear repulsion after empirical dispersion term =      543.8825787700 Hartrees.
 Leave Link  301 at Mon May 27 10:59:45 2024, MaxMem=  8053063680 cpu:               0.8 elap:               0.0
 (Enter /home/tmj/soft/g16/l302.exe)
 NPDir=0 NMtPBC=     1 NCelOv=     1 NCel=       1 NClECP=     1 NCelD=      1
         NCelK=      1 NCelE2=     1 NClLst=     1 CellRange=     0.0.
 One-electron integrals computed using PRISM.
 One-electron integral symmetry used in STVInt
 NBasis=   290 RedAO= T EigKep=  2.71D-06  NBF=   290
 NBsUse=   288 1.00D-06 EigRej=  9.27D-07 NBFU=   288
 Precomputing XC quadrature grid using
 IXCGrd= 4 IRadAn=           5 IRanWt=          -1 IRanGd=           0 AccXCQ= 0.00D+00.
 Generated NRdTot=       0 NPtTot=           0 NUsed=           0 NTot=          32
 NSgBfM=   301   301   301   301   301 MxSgAt=    19 MxSgA2=    19.
 Leave Link  302 at Mon May 27 10:59:45 2024, MaxMem=  8053063680 cpu:               6.0 elap:               0.2
 (Enter /home/tmj/soft/g16/l303.exe)
 DipDrv:  MaxL=1.
 Leave Link  303 at Mon May 27 10:59:45 2024, MaxMem=  8053063680 cpu:               0.7 elap:               0.0
 (Enter /home/tmj/soft/g16/l401.exe)
 Initial guess from the checkpoint file:  "naphthalen-2-ol.chk"
 B after Tr=    -0.000000   -0.000000   -0.000000
         Rot=    1.000000    0.000479    0.000038   -0.000626 Ang=   0.09 deg.
 Guess basis will be translated and rotated to current coordinates.
 JPrj=2 DoOrth=T DoCkMO=T.
 Generating alternative initial guess.
 ExpMin= 4.38D-02 ExpMax= 8.59D+03 ExpMxC= 1.30D+03 IAcc=3 IRadAn=         5 AccDes= 0.00D+00
 Harris functional with IExCor=  402 and IRadAn=       5 diagonalized for initial guess.
 HarFok:  IExCor=  402 AccDes= 0.00D+00 IRadAn=         5 IDoV= 1 UseB2=F ITyADJ=14
 ICtDFT=  3500011 ScaDFX=  1.000000  1.000000  1.000000  1.000000
 FoFCou: FMM=F IPFlag=           0 FMFlag=      100000 FMFlg1=           0
         NFxFlg=           0 DoJE=T BraDBF=F KetDBF=T FulRan=T
         wScrn=  0.000000 ICntrl=       500 IOpCl=  0 I1Cent=   200000004 NGrid=           0
         NMat0=    1 NMatS0=      1 NMatT0=    0 NMatD0=    1 NMtDS0=    0 NMtDT0=    0
 Petite list used in FoFCou.
 Harris En= -461.311360829039    
 Leave Link  401 at Mon May 27 10:59:46 2024, MaxMem=  8053063680 cpu:              12.9 elap:               0.5
 (Enter /home/tmj/soft/g16/l502.exe)
 Integral symmetry usage will be decided dynamically.
 Closed shell SCF:
 Using DIIS extrapolation, IDIIS=  1040.
 NGot=  8053063680 LenX=  8052870702 LenY=  8052779660
 Requested convergence on RMS density matrix=1.00D-08 within 128 cycles.
 Requested convergence on MAX density matrix=1.00D-06.
 Requested convergence on             energy=1.00D-06.
 No special actions if energy rises.
 Fock matrices will be formed incrementally for  20 cycles.

 Cycle   1  Pass 1  IDiag  1:
 FoFJK:  IHMeth= 1 ICntrl=       0 DoSepK=F KAlg= 0 I1Cent=           0 FoldK=F
 IRaf= 920000000 NMat=       1 IRICut=       1 DoRegI=T DoRafI=F ISym2E= 0 IDoP0=0 IntGTp=1.
 FoFCou: FMM=F IPFlag=           0 FMFlag=      100000 FMFlg1=           0
         NFxFlg=           0 DoJE=F BraDBF=F KetDBF=F FulRan=T
         wScrn=  0.000000 ICntrl=         0 IOpCl=  0 I1Cent=           0 NGrid=           0
         NMat0=    1 NMatS0=      1 NMatT0=    0 NMatD0=    1 NMtDS0=    0 NMtDT0=    0
 Symmetry not used in FoFCou.
 E= -461.267190683881    
 DIIS: error= 2.25D-03 at cycle   1 NSaved=   1.
 NSaved= 1 IEnMin= 1 EnMin= -461.267190683881     IErMin= 1 ErrMin= 2.25D-03
 ErrMax= 2.25D-03  0.00D+00 EMaxC= 1.00D-01 BMatC= 2.35D-03 BMatP= 2.35D-03
 IDIUse=3 WtCom= 9.77D-01 WtEn= 2.25D-02
 Coeff-Com:  0.100D+01
 Coeff-En:   0.100D+01
 Coeff:      0.100D+01
 Gap=     0.402 Goal=   None    Shift=    0.000
 GapD=    0.402 DampG=2.000 DampE=1.000 DampFc=2.0000 IDamp=-1.
 RMSDP=2.74D-03 MaxDP=2.02D-01              OVMax= 1.83D-02

 Cycle   2  Pass 1  IDiag  1:
 RMSU=  2.68D-03    CP:  9.86D-01
 E= -461.269952920288     Delta-E=       -0.002762236407 Rises=F Damp=F
 DIIS: error= 5.22D-04 at cycle   2 NSaved=   2.
 NSaved= 2 IEnMin= 2 EnMin= -461.269952920288     IErMin= 2 ErrMin= 5.22D-04
 ErrMax= 5.22D-04  0.00D+00 EMaxC= 1.00D-01 BMatC= 1.10D-04 BMatP= 2.35D-03
 IDIUse=3 WtCom= 9.95D-01 WtEn= 5.22D-03
 Coeff-Com:  0.397D-01 0.960D+00
 Coeff-En:   0.000D+00 0.100D+01
 Coeff:      0.395D-01 0.960D+00
 Gap=     0.174 Goal=   None    Shift=    0.000
 RMSDP=4.60D-04 MaxDP=2.74D-02 DE=-2.76D-03 OVMax= 9.15D-03

 Cycle   3  Pass 1  IDiag  1:
 RMSU=  4.54D-04    CP:  9.85D-01  1.01D+00
 E= -461.269845910033     Delta-E=        0.000107010255 Rises=F Damp=F
 DIIS: error= 7.77D-04 at cycle   3 NSaved=   3.
 NSaved= 3 IEnMin= 2 EnMin= -461.269952920288     IErMin= 2 ErrMin= 5.22D-04
 ErrMax= 7.77D-04  0.00D+00 EMaxC= 1.00D-01 BMatC= 2.12D-04 BMatP= 1.10D-04
 IDIUse=3 WtCom= 2.64D-01 WtEn= 7.36D-01
 Coeff-Com: -0.174D-01 0.596D+00 0.421D+00
 Coeff-En:   0.000D+00 0.649D+00 0.351D+00
 Coeff:     -0.461D-02 0.635D+00 0.370D+00
 Gap=     0.174 Goal=   None    Shift=    0.000
 RMSDP=1.53D-04 MaxDP=1.03D-02 DE= 1.07D-04 OVMax= 5.91D-03

 Cycle   4  Pass 1  IDiag  1:
 RMSU=  1.16D-04    CP:  9.84D-01  1.02D+00  8.15D-01
 E= -461.270064327662     Delta-E=       -0.000218417628 Rises=F Damp=F
 DIIS: error= 1.13D-04 at cycle   4 NSaved=   4.
 NSaved= 4 IEnMin= 4 EnMin= -461.270064327662     IErMin= 4 ErrMin= 1.13D-04
 ErrMax= 1.13D-04  0.00D+00 EMaxC= 1.00D-01 BMatC= 3.81D-06 BMatP= 1.10D-04
 IDIUse=3 WtCom= 9.99D-01 WtEn= 1.13D-03
 Coeff-Com: -0.106D-01 0.203D+00 0.146D+00 0.661D+00
 Coeff-En:   0.000D+00 0.000D+00 0.000D+00 0.100D+01
 Coeff:     -0.106D-01 0.203D+00 0.146D+00 0.661D+00
 Gap=     0.174 Goal=   None    Shift=    0.000
 RMSDP=6.48D-05 MaxDP=4.59D-03 DE=-2.18D-04 OVMax= 1.03D-03

[...]
 626,-0.06849141,0.01369563,0.01355579,0.15693478,0.05644120,-0.0165870
 7,0.00081533,-0.04021687,-0.01979038,-0.00149032,-0.01228295,0.0466330
 9,0.00082740,-0.27789142,-0.00068069,-0.00544312,0.64212420,0.02380057
 ,-0.05918280,-0.00112359,-0.02736368,-0.01520244,-0.00104449,0.0349667
 7,0.02575837,0.00147288,0.02712938,-0.11163525,-0.00058273,-0.00384109
 ,0.75718846,0.00187004,-0.00214369,0.00695794,-0.00168765,-0.00085356,
 -0.00168590,0.00052322,0.00176356,0.00325554,-0.00471434,-0.00127945,-
 0.06319960,0.01284035,0.01627654,0.12990139,-0.16755248,0.10317165,0.0
 0000957,-0.03173535,0.02953231,-0.00019945,0.00261576,0.00281476,0.000
 25762,-0.02395850,-0.03591848,-0.00164824,-0.18638053,-0.13523895,-0.0
 0674059,0.73118187,0.04162586,-0.24547283,-0.00374687,0.07097878,0.027
 87133,0.00234429,-0.01903913,-0.04517830,-0.00153920,-0.06942831,0.002
 64325,-0.00179198,-0.07817688,-0.32289656,-0.00885272,0.03820524,0.663
 07044,-0.00159391,-0.00219505,-0.06145709,0.00088032,0.00129699,0.0067
 2408,-0.00031141,-0.00098396,-0.00473443,-0.00252197,-0.00094810,0.004
 16867,-0.00525225,-0.01029187,-0.05928173,0.01609880,0.01479394,0.1331
 7549,0.00020897,-0.00041595,-0.00000309,0.00133626,0.00174770,0.000156
 25,-0.01146040,0.02780891,0.00035749,-0.00524727,-0.00206518,-0.000312
 26,-0.00024146,0.00170012,0.00003743,0.00008277,0.00011481,0.00000820,
 0.13868679,0.00053417,-0.00001249,0.00001580,-0.00152464,0.00076566,0.
 00006143,-0.00140844,0.00294080,-0.00004139,-0.00057413,0.00129707,-0.
 00011133,-0.00039112,-0.00017077,-0.00001504,-0.00004083,0.00039014,0.
 00001234,-0.13190390,0.27376002,0.00002152,-0.00000803,-0.00010107,0.0
 0007104,0.00014360,-0.00304278,-0.00040646,0.00069674,0.00318390,-0.00
 027342,-0.00014699,0.00497260,-0.00001696,0.00003783,0.00002486,0.0000
 0410,0.00001611,-0.00011952,-0.00056422,0.00319906,0.02443286,-0.12469
 078,-0.11771422,-0.00532165,-0.01103694,-0.02961546,-0.00113317,-0.005
 35124,0.00174656,-0.00030520,-0.00080246,0.00039514,0.00000787,-0.0012
 2605,0.00315384,-0.00008057,0.01147495,0.01569422,0.00064125,-0.000023
 59,0.00004974,-0.00000377,0.12978633,-0.11834729,-0.26907287,-0.009075
 44,0.00190520,0.00311066,0.00004298,0.00080422,0.00174105,-0.00015710,
 0.00080053,0.00035538,0.00004780,0.00417632,-0.00275888,-0.00010263,-0
 .01555246,-0.01827725,-0.00092738,-0.00001623,0.00000769,-0.00000485,0
 .12724585,0.28419812,-0.00533820,-0.00905927,-0.03567012,-0.00031205,-
 0.00075170,0.00327640,-0.00033030,-0.00013353,0.00853985,0.00001840,0.
 00003731,-0.00070229,-0.00005395,-0.00012853,0.00521961,-0.00017274,-0
 .00013927,0.00225500,-0.00000551,-0.00000322,0.00017764,0.00596330,0.0
 0996752,0.02520924,-0.01144604,0.02903411,0.00036174,-0.13142840,0.120
 69198,0.00072192,0.01025038,-0.01326403,-0.00015910,-0.00120875,-0.002
 95048,-0.00024119,-0.00048526,-0.00063544,-0.00000552,-0.00538885,-0.0
 0177724,-0.00038891,-0.00007112,0.00043245,0.00000321,0.00097020,-0.00
 037197,0.00014064,0.13765472,-0.00242131,0.00390651,-0.00006758,0.1210
 6061,-0.25847104,-0.00274161,0.01602724,-0.01972031,-0.00018364,-0.004
 13050,-0.00247357,-0.00030669,-0.00080381,0.00012987,0.00000709,-0.000
 50638,0.00174947,-0.00018001,-0.00121942,0.00028400,-0.00002976,0.0003
 6597,0.00080439,0.00015969,-0.13093364,0.27360024,-0.00045628,0.000725
 66,0.00416968,0.00073053,-0.00274854,-0.03571419,0.00060285,-0.0009240
 5,0.00286767,-0.00027156,-0.00027747,0.00527852,-0.00001029,0.00001136
 ,-0.00092147,-0.00035539,-0.00021209,0.00816608,-0.00003975,0.00001176
 ,0.00024913,0.00015966,0.00014130,-0.00497245,-0.00054848,0.00317759,0
 .02452845,0.02440617,-0.01167721,0.00016933,-0.04697958,-0.02795332,-0
 .00199085,-0.28237183,-0.00158198,-0.00558683,-0.01454158,0.04937507,0
 .00081031,-0.01203175,-0.00427995,-0.00053159,-0.00228472,0.01912774,0
 .00045863,-0.13382433,0.12240160,0.00071073,0.00023477,-0.00002385,-0.
 00000652,0.00104605,0.00206004,0.00015516,0.64809394,0.00785030,-0.009
 82244,-0.00020471,-0.04647806,-0.00669470,-0.00142407,0.02600341,-0.11
 016145,-0.00058047,0.03428926,0.02391942,0.00137659,-0.00396981,-0.008
 36728,-0.00043745,-0.00136273,0.00773317,0.00018611,0.12311172,-0.2576
 9285,-0.00271834,-0.00140686,-0.00009398,-0.00005031,-0.00131110,0.001
 18665,0.00007498,-0.00382549,0.75443204,0.00068187,-0.00069795,0.00561
 359,-0.00247349,-0.00095798,0.00278475,-0.00486849,-0.00128164,-0.0628
 4730,0.00041736,0.00176208,0.00441853,-0.00052250,-0.00044549,0.004492
 50,-0.00007604,0.00070570,-0.00069775,0.00072868,-0.00273759,-0.035178
 70,-0.00004275,-0.00001551,0.00047584,0.00006645,0.00015969,-0.0029429
 9,0.01305232,0.01631729,0.12906569,0.01317163,-0.01065435,0.00006526,-
 0.01414433,-0.00336289,-0.00054374,0.05106110,-0.00011861,0.00115593,-
 0.13847455,-0.05354926,-0.00343339,-0.04632319,-0.04777125,-0.00257059
 ,-0.00403106,0.02357407,0.00039194,-0.00047743,-0.00046606,0.00000882,
 0.00039829,-0.00022467,0.00002318,0.00046654,0.00128292,0.00004327,-0.
 04062754,-0.02405295,-0.00169200,0.72838042,0.00859767,-0.00690994,0.0
 0004770,-0.00279809,-0.00544764,-0.00031469,0.01265950,-0.04049366,-0.
 00087098,-0.08117596,-0.26311508,-0.00739532,-0.02706361,-0.00646324,-
 0.00101130,0.00361193,0.01589514,0.00038182,-0.00081659,0.00020084,0.0
 0001955,0.00005957,-0.00004912,0.00001952,-0.00063949,-0.00071239,-0.0
 0003697,-0.01973362,-0.01375411,-0.00089219,-0.03341178,0.69740454,0.0
 0056685,-0.00043815,-0.00041683,-0.00052886,-0.00032751,0.00386212,0.0
 0148866,-0.00119662,0.00533342,-0.00415921,-0.00669392,-0.05819420,-0.
 00202766,-0.00153236,0.00596506,-0.00012759,0.00088644,0.00475751,0.00
 000015,0.00002814,-0.00131701,0.00003023,0.00001225,-0.00073643,-0.000
 00699,0.00001184,0.00008524,-0.00157456,-0.00100342,0.00123708,0.01472
 606,0.01426421,0.11584624,-0.00064654,-0.00294365,-0.00029934,-0.00073
 094,-0.00084375,-0.00001805,-0.00497582,-0.00210307,-0.00031187,-0.012
 14261,0.02797990,0.00034407,-0.13239962,0.12197141,0.00073268,0.011446
 22,-0.01463936,-0.00018912,-0.00052252,0.00000083,-0.00001783,0.000366
 28,-0.00074724,-0.00001677,0.00006694,0.00011264,0.00003254,-0.0003160
 6,0.00168463,0.00003656,0.00126009,0.00159518,0.00014197,0.13756182,-0
 .00420249,-0.00270050,-0.00038987,-0.00059347,0.00024278,0.00001449,-0
 .00067476,0.00137633,-0.00011673,-0.00193873,0.00269602,-0.00006054,0.
 12189518,-0.25838651,-0.00274262,0.01680114,-0.01930835,-0.00017916,-0
 .00001289,0.00000910,-0.00000494,0.00080978,-0.00101518,-0.00001278,0.
 00010988,-0.00004651,0.00003043,-0.00050240,-0.00014682,-0.00001599,-0
 .00126530,0.00091001,0.00006303,-0.13098946,0.27475945,-0.00033206,-0.
 00035783,0.00816332,-0.00001165,0.00000798,-0.00088660,-0.00027487,-0.
 00015241,0.00519143,-0.00043635,0.00069423,0.00315029,0.00073138,-0.00
 274165,-0.03539234,0.00063050,-0.00097175,0.00380266,-0.00001821,-0.00
 000459,0.00018354,0.00002380,-0.00005210,0.00025938,0.00003250,0.00003
 043,-0.00110480,-0.00002039,0.00003936,-0.00002078,0.00006846,0.000135
 13,-0.00272980,-0.00055898,0.00322824,0.02436114,-0.01170071,-0.003265
 12,-0.00045242,0.00052477,0.00326595,-0.00003565,0.00062950,0.00000945
 ,0.00003475,0.00115055,-0.00261403,-0.00026260,-0.01145188,0.00209715,
 -0.00033328,-0.33439033,-0.00666499,-0.00767369,0.00001083,0.00002120,
 -0.00000036,0.00075117,0.00030464,0.00009812,-0.00069747,-0.00018615,-
 0.00002626,0.00002221,0.00005348,0.00002123,-0.00069090,0.00036905,-0.
 00001160,0.00086923,-0.00029474,0.00014127,0.35505666,0.02780715,0.005
 02303,0.00075738,0.00237054,-0.00459890,-0.00019842,-0.00043730,-0.000
 99051,-0.00001763,-0.00197544,-0.00492127,-0.00040918,-0.02928386,0.00
 351225,-0.00074930,-0.00595202,-0.05892294,-0.00072256,-0.00008623,0.0
 0001526,-0.00000300,-0.00060791,0.00090174,0.00008176,0.00138820,0.000
 03128,0.00003192,0.00036378,0.00034569,0.00003812,-0.00086628,0.000768
 65,-0.00000575,0.00040562,0.00091403,0.00016540,0.00734402,0.05852774,
 0.00035695,-0.00002589,0.00287652,-0.00005894,-0.00017599,0.00530757,0
 .00002269,-0.00000607,-0.00073615,-0.00024656,-0.00042559,0.00884658,-
 0.00115104,0.00004146,0.00390788,-0.00765454,-0.00074048,-0.03717326,-
 0.00000316,-0.00000031,0.00004707,0.00007438,0.00010479,-0.00282140,0.
 00001481,-0.00000784,0.00015190,0.00002976,0.00003048,-0.00076365,-0.0
 0004346,0.00002566,0.00014727,0.00015953,0.00014789,-0.00503034,0.0085
 0653,0.00105115,0.02554087,-0.01768065,0.01150636,-0.00013012,0.015109
 71,0.01130490,0.00065998,-0.04760561,0.00747909,-0.00088215,-0.0474752
 6,-0.06384434,-0.00284435,0.02640927,0.01088694,0.00083468,-0.00024082
 ,-0.02380569,-0.00066345,-0.00094440,-0.00413579,-0.00035149,-0.000251
 58,0.00023802,-0.00000293,0.00028793,0.00019961,0.00001364,0.06461700,
 0.02781119,0.00235464,-0.36079955,0.04827651,-0.00639288,0.00022383,0.
 00032763,0.00002362,0.00011976,-0.00036957,0.00000983,0.73747180,0.011
 26795,-0.00437590,0.00018727,-0.00998119,-0.00895429,-0.00050562,0.029
 01852,0.00039121,0.00087645,-0.02240166,0.02318132,0.00005690,-0.01197
 848,-0.00952820,-0.00067097,-0.00160625,0.01233331,0.00024189,-0.00284
 815,-0.00167353,-0.00034003,0.00031873,0.00000789,0.00000573,-0.000282
 72,0.00042710,0.00000565,-0.01974232,-0.05984056,-0.00207186,-0.017391
 84,-0.12300194,-0.00208653,-0.00031080,-0.00016622,-0.00000193,-0.0000
 4224,-0.00013867,0.00001257,0.00662345,0.63541213,-0.00013773,0.000195
 04,-0.00064354,0.00010517,0.00003333,0.00074569,-0.00032295,0.00033437
 ,-0.00508559,-0.00176268,-0.00099046,-0.00102465,0.00024065,-0.0000933
 0,0.00462450,-0.00008626,-0.00032209,0.00150009,-0.00031677,-0.0003754
 6,0.00858063,-0.00000042,0.00000382,0.00009404,0.00000138,0.00001773,-
 0.00005624,0.00111936,-0.00086728,0.00031841,-0.00810620,-0.00042208,-
 0.05998298,0.00000764,0.00001430,-0.00039492,0.00001861,0.00000414,-0.
 00065875,0.01517504,0.01299068,0.14530044,0.00002405,-0.00025601,-0.00
 002008,-0.00435815,0.00318336,-0.00013459,-0.02402198,-0.03396860,-0.0
 0167236,0.00197206,0.00058252,0.00013322,-0.00214166,-0.00152223,-0.00
 008983,-0.00073935,0.00113104,0.00002228,0.01108380,0.01635682,0.00061
 695,-0.00051459,-0.00013088,-0.00000105,0.00010762,-0.00038787,-0.0000
 0364,-0.18539275,-0.13819224,-0.00700052,-0.02651500,0.02652637,-0.000
 11694,0.00008574,0.00001087,0.00000299,0.00004915,0.00005656,-0.000000
 70,-0.17672240,0.11045325,-0.00010176,0.72480912,-0.02024557,0.0097714
 5,-0.00026988,0.02198797,0.01727195,0.00089508,-0.06809145,-0.00015847
 ,-0.00191038,-0.01463239,-0.04298192,-0.00141747,0.01716502,0.00747831
 ,0.00063471,0.00145024,-0.02022168,-0.00047912,-0.01467231,-0.01936885
 ,-0.00097580,-0.00019941,0.00016459,0.00001498,0.00054439,-0.00003851,
 0.00001601,-0.08219316,-0.32509153,-0.00924189,0.06332578,0.02568142,0
 .00213612,0.00009151,0.00040775,0.00001328,-0.00010870,-0.00035842,-0.
 00001593,0.03390439,-0.22045403,-0.00334694,0.05073735,0.67523396,-0.0
 0054234,0.00023359,0.00054607,0.00035608,0.00042141,0.00426691,-0.0025
 6026,-0.00104424,0.00677071,-0.00025915,-0.00103430,-0.00280576,0.0003
 9668,0.00016115,-0.00013484,0.00003116,-0.00048728,-0.00045758,-0.0001
 9479,-0.00018703,0.00362928,-0.00000302,0.00001674,-0.00060443,0.00002
 075,-0.00000715,-0.00014524,-0.00554357,-0.01066431,-0.05264058,0.0008
 4365,0.00120661,0.00524599,0.00000514,0.00001150,-0.00002018,-0.000004
 98,-0.00001137,0.00013439,-0.00209304,-0.00141126,-0.05908621,0.016852
 30,0.01598569,0.11457220,-0.00004981,-0.00039946,0.00000300,-0.0007099
 0,0.00042994,-0.00001841,0.00156336,-0.00270920,-0.00024707,0.00063652
 ,0.00022080,0.00004471,-0.00007124,-0.00000559,0.00001098,0.00004871,0
 .00003446,-0.00000209,0.00088781,-0.00021754,0.00014426,-0.00008889,-0
 .00000906,-0.00000033,0.00002213,-0.00003707,-0.00000468,-0.01204328,0
 .00169154,-0.00033198,0.00056841,0.00349461,0.00000387,0.00000220,0.00
 002042,-0.00000031,-0.00003139,-0.00000278,-0.00000098,-0.01509222,-0.
 00684384,-0.00062505,-0.32792753,-0.00468552,-0.00764714,0.35004014,-0
 .00051775,-0.00022301,-0.00000372,-0.00087207,0.00090407,-0.00001034,-
 0.00166344,-0.00493564,-0.00039379,-0.00064699,-0.00118903,-0.00002373
 ,0.00039236,0.00033690,0.00003191,0.00005938,-0.00044907,-0.00001445,0
 .00035823,0.00092238,0.00016464,-0.00015403,-0.00000302,-0.00000181,0.
 00003721,-0.00004117,-0.00000454,-0.02956476,0.00391331,-0.00072039,0.
 00247847,-0.00463814,-0.00016203,-0.00008603,0.00002271,-0.00000250,-0
 .00000923,0.00000613,-0.00000021,0.02579748,0.00335092,0.00067639,-0.0
 0401399,-0.05848469,-0.00080766,0.00682821,0.05790346,-0.00000051,-0.0
 0000100,-0.00057533,-0.00005249,0.00002313,0.00045639,-0.00021880,-0.0
 0042019,0.00845431,0.00002231,-0.00000314,-0.00089406,0.00002126,0.000
 02192,-0.00050609,-0.00000129,-0.00001528,0.00016420,0.00015874,0.0001
 5036,-0.00500259,-0.00000421,0.00000187,-0.00008373,-0.00000269,-0.000
 00637,0.00016701,-0.00115045,0.00007302,0.00278709,-0.00002125,-0.0001
 3629,0.00397665,-0.00000311,0.00000017,0.00003559,-0.00000116,-0.00000
 003,0.00000468,0.00022773,-0.00014677,0.00252050,-0.00762927,-0.000827
 57,-0.03179228,0.00850718,0.00111036,0.02228949,0.00032077,-0.00017775
 ,0.00000783,0.00037662,-0.00072371,-0.00001651,-0.00129552,-0.00284352
 ,-0.00024335,0.01126364,-0.01330826,-0.00010801,0.00097184,-0.00124908
 ,0.00007406,0.00009777,0.00054955,0.00002189,0.00005578,0.00007219,0.0
 0002129,-0.00001582,0.00003042,-0.00000075,-0.00012217,-0.00022324,-0.
 00001367,-0.00053282,-0.00086368,-0.00000682,-0.12977536,0.12089351,0.
 00065473,-0.00012916,0.00040798,0.00000003,0.00001381,0.00003398,-0.00
 000415,-0.01076097,0.03015109,0.00036701,-0.00545454,-0.00179671,-0.00
 034167,-0.00075263,0.00134944,0.00001335,0.13305536,-0.00015577,0.0001
 8913,0.00000542,0.00137932,-0.00061748,0.00001156,-0.00404500,-0.00208
 854,-0.00029556,0.01482958,-0.01858316,-0.00015619,0.00199226,0.001200
 04,0.00016468,-0.00029478,-0.00003598,-0.00000336,0.00009951,-0.000063
 32,0.00001914,-0.00006713,0.00003834,-0.00000182,-0.00019527,-0.000365
 03,-0.00001927,-0.00061289,0.00016394,0.00001875,0.12301879,-0.2640932
 4,-0.00287623,-0.00112236,0.00028414,-0.00002817,-0.00003030,-0.000029
 68,-0.00000699,-0.00197900,0.00211067,-0.00014065,-0.00060533,0.001107
 70,-0.00014589,-0.00014814,0.00021842,-0.00000118,-0.13219269,0.279863
 17,0.00000783,0.00000523,-0.00016821,0.00003879,-0.00004144,0.00027325
 ,-0.00027410,-0.00026642,0.00535092,0.00062038,-0.00087342,0.00191567,
 0.00015881,0.00008393,-0.00321798,-0.00000018,0.00001706,-0.00019948,0
 .00002187,0.00001873,-0.00070633,-0.00000326,0.00000060,0.00004427,-0.
 00001288,-0.00001998,0.00018417,0.00000063,0.00001240,-0.00114433,0.00
 071226,-0.00292429,-0.03242923,-0.00003944,0.00001019,0.00028774,-0.00
 000577,-0.00000544,0.00021094,-0.00046970,0.00067363,0.00560666,-0.000
 30926,-0.00017811,0.00612428,-0.00002587,0.00003670,0.00012042,-0.0006
 1261,0.00331009,0.02253458,0.00090340,-0.00209957,-0.00003436,-0.00092
 969,-0.00037555,-0.00002181,0.00327816,-0.00220011,0.00006980,-0.00133
 415,0.01046920,0.00008130,-0.00283546,-0.00357459,-0.00015597,-0.00005
 472,0.00234063,0.00006314,0.00034789,0.00052511,0.00002140,0.00000850,
 -0.00009078,-0.00000221,-0.00000281,-0.00027783,-0.00000715,-0.0061841
 5,-0.00115104,-0.00034360,-0.03499385,-0.05677246,-0.00258539,-0.00002
 108,0.00009941,0.00000036,-0.00025403,-0.00016501,-0.00000998,-0.14177
 840,-0.09745561,-0.00513555,0.00999745,0.01300546,0.00042931,0.0031671
 3,0.00113501,0.00017547,0.00225791,0.00007348,0.00015907,0.67272036,-0
 .00232396,-0.00129609,-0.00009499,0.00101901,0.00223581,0.00009759,-0.
 00358392,-0.00300628,-0.00012545,0.00279291,0.00290446,-0.00000925,0.0
 0064412,-0.00051822,0.00001213,0.00081537,-0.00122831,-0.00000866,-0.0
 0093448,-0.00177070,-0.00007091,-0.00011600,-0.00007625,-0.00000505,0.
 00015056,-0.00023247,-0.00000210,0.00842359,0.00071503,0.00006701,-0.0
 1848449,-0.00556001,-0.00083006,-0.00008396,0.00016818,0.00000081,-0.0
 0025111,-0.00005878,-0.00000728,-0.04490075,-0.25085660,-0.00675728,-0
 .02694563,-0.05163242,-0.00220321,0.00029632,0.00319363,0.00016051,0.0
 0004716,0.00061996,0.00012074,0.03149925,0.36379069,-0.00003930,-0.000
 09214,0.00010229,0.00001499,0.00006243,-0.00052760,0.00003508,-0.00009
 326,-0.00166816,-0.00010998,0.00018715,0.00624286,-0.00004935,-0.00009
 592,-0.00036105,0.00002488,0.00003361,-0.00015432,-0.00001568,-0.00003
 276,0.00001763,-0.00000307,-0.00000462,0.00001105,0.00000404,-0.000013
 07,-0.00000692,-0.00010293,-0.00017756,0.00632058,-0.00158937,-0.00179
 994,0.00830253,-0.00000437,0.00000506,0.00006916,-0.00001247,-0.000005
 03,-0.00002312,-0.00372514,-0.00801435,-0.03870940,-0.00060658,-0.0011
 8015,0.00627855,0.00015749,0.00018191,-0.00272073,0.00015981,0.0001210
 6,-0.00398766,0.01655884,0.00990345,0.02197718,0.00030270,0.00015407,0
 .00001116,-0.00014899,-0.00031722,-0.00001033,0.00055955,0.00027786,0.
 00000844,-0.00093575,0.00045386,-0.00005988,0.00003283,-0.00022434,-0.
 00001352,-0.00019136,0.00015518,0.00001035,0.00011162,0.00026836,0.000
 01119,0.00001147,0.00000922,-0.00000033,-0.00002163,0.00001820,-0.0000
 0046,-0.00128976,0.00011845,-0.00000090,0.00154627,-0.00367230,-0.0000
 8084,0.00000200,-0.00000806,-0.00000210,0.00001907,-0.00002345,-0.0000
 0098,-0.02488743,0.00305210,-0.00043948,0.00565895,0.00441312,0.000254
 88,-0.00016953,-0.00090749,-0.00004083,0.00042548,0.00005572,0.0000334
 4,-0.50429246,0.05193600,-0.01069686,0.52326695,0.00024091,-0.00016146
 ,0.00000071,-0.00001180,-0.00027244,-0.00000532,0.00042633,0.00036544,
 0.00000701,-0.00111290,0.00115998,-0.00004860,-0.00033155,-0.00049406,
 -0.00003190,0.00001088,0.00030502,0.00002056,0.00005032,0.00015955,0.0
 0000599,0.00004160,0.00001671,0.00000075,-0.00002741,-0.00001854,-0.00
 000161,-0.00006087,-0.00074353,0.00000984,-0.00206030,-0.00662209,-0.0
 0024943,0.00002794,-0.00002042,-0.00000190,0.00000166,-0.00002663,-0.0
 0000141,-0.04532041,0.00177540,-0.00095426,-0.00301537,0.00167339,-0.0
 0003299,0.00204192,-0.00080817,0.00001649,-0.00015671,0.00008093,0.000
 01982,0.10501501,-0.05739161,0.00101413,-0.05575927,0.06102254,0.00001
 251,0.00000055,0.00002452,-0.00000207,-0.00001363,-0.00004819,0.000010
 24,0.00000490,0.00050571,-0.00010597,-0.00001188,0.00184187,-0.0000144
 3,-0.00002713,0.00035170,0.00000570,0.00002187,-0.00043863,0.00000463,
 0.00001110,-0.00003114,0.00000061,-0.00000007,0.00002853,-0.00000168,-
 0.00000036,0.00001644,0.00000145,0.00001769,-0.00127797,-0.00003881,-0
 .00029615,0.00104737,-0.00000124,-0.00000267,0.00007552,-0.00000025,-0
 .00000217,0.00003100,-0.00174392,0.00019853,-0.00364868,0.00005885,0.0
 0014736,0.00011870,0.00003245,-0.00005672,0.00059848,0.00002753,0.0000
 2462,-0.00079968,-0.00926267,-0.00024798,-0.00116288,0.01101707,0.0002
 3213,0.00276734\\0.00000631,0.00000647,0.00000086,-0.00002059,0.000006
 54,-0.00000200,0.00006827,-0.00004639,0.00000212,-0.00000834,0.0000805
 6,0.00000174,-0.00000462,-0.00002167,-0.00000072,0.00000543,0.00000042
 ,0.00000138,0.00001183,0.00000497,-0.00000280,0.00000099,-0.00000656,-
 0.00000031,0.00000291,-0.00000403,0.00000199,-0.00006665,-0.00004555,-
 0.00001040,-0.00003906,-0.00002687,-0.00000203,-0.00000476,0.00000324,
 0.00000056,-0.00000484,0.00000324,0.00000028,0.00000118,-0.00016441,-0
 .00000091,-0.00000346,0.00012565,0.00001337,0.00000158,-0.00001299,-0.
 00000083,0.00000178,-0.00000113,-0.00000644,0.00004089,0.00009933,0.00
 000929,0.00001117,-0.00000081,-0.00000516\\\@
 The archive entry for this job was punched.


 IF YOU PERCEIVE THAT THERE ARE FOUR POSSIBLE WAYS IN
 WHICH A PROCEDURE CAN GO WRONG AND CIRCUMVENT THESE, 
 THEN A FIFTH WAY WILL DEVELOP.

                              -- MURPHY'S TWELFTH LAW
 Job cpu time:       0 days  0 hours 51 minutes 20.4 seconds.
 Elapsed time:       0 days  0 hours  1 minutes 53.1 seconds.
 File lengths (MBytes):  RWF=    151 Int=      0 D2E=      0 Chk=      8 Scr=      1
 Normal termination of Gaussian 16 at Mon May 27 11:03:32 2024.
