 Entering Gaussian System, Link 0=g16
 Initial command:
 /public/software/apps/Gaussian/g16/l1.exe "/tmp/Gau-27180.inp" -scrdir="/tmp/"
 Entering Link 1 = /public/software/apps/Gaussian/g16/l1.exe PID=     27181.
  
 Copyright (c) 1988-2019, Gaussian, Inc.  All Rights Reserved.
  
 This is part of the Gaussian(R) 16 program.  It is based on
 the Gaussian(R) 09 system (copyright 2009, Gaussian, Inc.),
 the Gaussian(R) 03 system (copyright 2003, Gaussian, Inc.),
 the Gaussian(R) 98 system (copyright 1998, Gaussian, Inc.),
 the Gaussian(R) 94 system (copyright 1995, Gaussian, Inc.),
 the Gaussian 92(TM) system (copyright 1992, Gaussian, Inc.),
 the Gaussian 90(TM) system (copyright 1990, Gaussian, Inc.),
 the Gaussian 88(TM) system (copyright 1988, Gaussian, Inc.),
 the Gaussian 86(TM) system (copyright 1986, Carnegie Mellon
 University), and the Gaussian 82(TM) system (copyright 1983,
 Carnegie Mellon University). Gaussian is a federally registered
 trademark of Gaussian, Inc.
  
 This software contains proprietary and confidential information,
 including trade secrets, belonging to Gaussian, Inc.
  
 This software is provided under written license and may be
 used, copied, transmitted, or stored only in accord with that
 written license.
  
 The following legend is applicable only to US Government
 contracts under FAR:
  
                    RESTRICTED RIGHTS LEGEND
  
 Use, reproduction and disclosure by the US Government is
 subject to restrictions as set forth in subparagraphs (a)
 and (c) of the Commercial Computer Software - Restricted
 Rights clause in FAR 52.227-19.
  
 Gaussian, Inc.
 340 Quinnipiac St., Bldg. 40, Wallingford CT 06492
  
  
 ---------------------------------------------------------------
 Warning -- This program may not be used in any manner that
 competes with the business of Gaussian, Inc. or will provide
 assistance to any competitor of Gaussian, Inc.  The licensee
 of this program is prohibited from giving any competitor of
 Gaussian, Inc. access to this program.  By using this program,
 the user acknowledges that Gaussian, Inc. is engaged in the
 business of creating and licensing software in the field of
 computational chemistry and represents and warrants to the
 licensee that it is not a competitor of Gaussian, Inc. and that
 it will not use this program in any manner prohibited above.
 ---------------------------------------------------------------
  

 Cite this work as:
 Gaussian 16, Revision C.01,
 M. J. Frisch, G. W. Trucks, H. B. Schlegel, G. E. Scuseria, 
 M. A. Robb, J. R. Cheeseman, G. Scalmani, V. Barone, 
 G. A. Petersson, H. Nakatsuji, X. Li, M. Caricato, A. V. Marenich, 
 J. Bloino, B. G. Janesko, R. Gomperts, B. Mennucci, H. P. Hratchian, 
 J. V. Ortiz, A. F. Izmaylov, J. L. Sonnenberg, D. Williams-Young, 
 F. Ding, F. Lipparini, F. Egidi, J. Goings, B. Peng, A. Petrone, 
 T. Henderson, D. Ranasinghe, V. G. Zakrzewski, J. Gao, N. Rega, 
 G. Zheng, W. Liang, M. Hada, M. Ehara, K. Toyota, R. Fukuda, 
 J. Hasegawa, M. Ishida, T. Nakajima, Y. Honda, O. Kitao, H. Nakai, 
 T. Vreven, K. Throssell, J. A. Montgomery, Jr., J. E. Peralta, 
 F. Ogliaro, M. J. Bearpark, J. J. Heyd, E. N. Brothers, K. N. Kudin, 
 V. N. Staroverov, T. A. Keith, R. Kobayashi, J. Normand, 
 K. Raghavachari, A. P. Rendell, J. C. Burant, S. S. Iyengar, 
 J. Tomasi, M. Cossi, J. M. Millam, M. Klene, C. Adamo, R. Cammi, 
 J. W. Ochterski, R. L. Martin, K. Morokuma, O. Farkas, 
 J. B. Foresman, and D. J. Fox, Gaussian, Inc., Wallingford CT, 2019.
 
 ******************************************
 Gaussian 16:  ES64L-G16RevC.01  3-Jul-2019
                22-Jun-2024 
 ******************************************
 %nprocshared=32
 Will use up to   32 processors via shared memory.
 %mem=80GB
 ----------------------------------------------------------------------
 # opt=(calcfc,ts,noeigen,maxcycle=200,maxstep=5) freq b3lyp/genecp emp
 iricaldispersion=gd3bj
 ----------------------------------------------------------------------
 1/5=1,6=200,8=5,10=4,11=1,18=20,26=3,38=1/1,3;
 2/9=110,12=2,17=6,18=5,40=1/2;
 3/5=7,11=2,16=1,17=8,25=1,30=1,71=2,74=-5,124=41,140=1/1,2,3;
 4//1;
 5/5=2,38=5/2;
 8/6=4,10=90,11=11/1;
 11/6=1,8=1,9=11,15=111,16=1/1,2,10;
 10/6=1,13=1/2;
 6/7=2,8=2,9=2,10=2,28=1/1;
 7/10=1,25=1/1,2,3,16;
 1/5=1,6=200,8=5,10=4,11=1,18=20,26=3/3(2);
 2/9=110/2;
 99//99;
 2/9=110/2;
 3/5=7,6=1,11=2,16=1,17=8,25=1,30=1,71=1,74=-5,82=7,124=41/1,2,3;
 4/5=5,16=3,69=1/1;
 5/5=2,38=5/2;
 7//1,2,3,16;
 1/5=1,6=200,8=5,11=1,18=20,26=3/3(-5);
 2/9=110/2;
 6/7=2,8=2,9=2,10=2,19=2,28=1/1;
 99/9=1/99;
 -------------------
 Title Card Required
 -------------------
 Symbolic Z-matrix:
 Charge =  0 Multiplicity = 1
 Ni                   -0.51177  -0.05791  -0.26996 
 N                     0.4478    1.70491  -0.47266 
 N                     1.77204   1.71731  -0.17342 
 C                     2.26587   2.96152  -0.33709 
 C                     1.2351    3.79124  -0.75693 
 C                     0.113     2.9543   -0.82215 
 N                     1.12993  -0.97485  -1.20731 
 N                     2.35504  -0.64129  -0.73883 
 C                     3.299    -1.39324  -1.34619 
 C                     2.66566  -2.24902  -2.23786 
 C                     1.30027  -1.94821  -2.10537 
 N                     0.37028  -0.20059   1.56142 
 N                     1.71176  -0.00403   1.61012 
 C                     2.14631  -0.16557   2.87868 
 C                     1.05628  -0.4834    3.67759 
 C                    -0.03796  -0.49206   2.79888 
 B                     2.47344   0.44284   0.34608 
 H                     1.28539   4.84689  -0.97647 
 H                     3.1237   -2.98261  -2.88407 
 H                     1.05298  -0.67722   4.73958 
 H                     3.62415   0.6661    0.60132 
 C                    -1.27021  -1.78668   0.04937 
 C                    -2.4674    0.87648  -0.12021 
 F                    -2.18007  -1.76402   1.05752 
 F                    -0.33742  -2.6931    0.40273 
 F                    -1.90539  -2.2987   -1.04113 
 F                    -2.82183   2.07296  -0.64815 
 F                    -3.55503   0.09036  -0.13606 
 F                    -2.23384   1.15749   1.19739 
 C                    -1.70333   0.32807  -1.94156 
 H                    -1.07544  -0.44241  -2.38745 
 H                    -2.73949   0.06934  -2.11678 
 H                    -1.43109   1.31071  -2.3052 
 H                    -0.90542   3.19329  -1.08219 
 H                     3.30871   3.16232  -0.14115 
 H                     3.1922   -0.03828   3.11652 
 H                    -1.08032  -0.69751   2.98541 
 H                     4.34317  -1.26371  -1.10182 
 H                     0.44238  -2.3957   -2.58824 
 

 GradGradGradGradGradGradGradGradGradGradGradGradGradGradGradGradGradGrad
 Berny optimization.
 Initialization pass.
                           ----------------------------
                           !    Initial Parameters    !
                           ! (Angstroms and Degrees)  !
 --------------------------                            --------------------------
 ! Name  Definition              Value          Derivative Info.                !
 --------------------------------------------------------------------------------
 ! R1    R(1,2)                  2.0173         calculate D2E/DX2 analytically  !
 ! R2    R(1,7)                  2.1011         calculate D2E/DX2 analytically  !
 ! R3    R(1,12)                 2.0377         calculate D2E/DX2 analytically  !
 ! R4    R(1,22)                 1.9146         calculate D2E/DX2 analytically  !
 ! R5    R(1,23)                 2.1726         calculate D2E/DX2 analytically  !
 ! R6    R(1,30)                 2.0888         calculate D2E/DX2 analytically  !
 ! R7    R(2,3)                  1.3577         calculate D2E/DX2 analytically  !
 ! R8    R(2,6)                  1.3399         calculate D2E/DX2 analytically  !
 ! R9    R(3,4)                  1.3486         calculate D2E/DX2 analytically  !
 ! R10   R(3,17)                 1.5447         calculate D2E/DX2 analytically  !
 ! R11   R(4,5)                  1.3882         calculate D2E/DX2 analytically  !
 ! R12   R(4,35)                 1.0799         calculate D2E/DX2 analytically  !
 ! R13   R(5,6)                  1.4014         calculate D2E/DX2 analytically  !
 ! R14   R(5,18)                 1.0794         calculate D2E/DX2 analytically  !
 ! R15   R(6,34)                 1.0779         calculate D2E/DX2 analytically  !
 ! R16   R(7,8)                  1.3534         calculate D2E/DX2 analytically  !
 ! R17   R(7,11)                 1.3353         calculate D2E/DX2 analytically  !
 ! R18   R(8,9)                  1.3511         calculate D2E/DX2 analytically  !
 ! R19   R(8,17)                 1.5383         calculate D2E/DX2 analytically  !
 ! R20   R(9,10)                 1.3887         calculate D2E/DX2 analytically  !
 ! R21   R(9,38)                 1.0802         calculate D2E/DX2 analytically  !
 ! R22   R(10,11)                1.4044         calculate D2E/DX2 analytically  !
 ! R23   R(10,19)                1.0796         calculate D2E/DX2 analytically  !
 ! R24   R(11,39)                1.0814         calculate D2E/DX2 analytically  !
 ! R25   R(12,13)                1.3567         calculate D2E/DX2 analytically  !
 ! R26   R(12,16)                1.3353         calculate D2E/DX2 analytically  !
 ! R27   R(13,14)                1.3506         calculate D2E/DX2 analytically  !
 ! R28   R(13,17)                1.542          calculate D2E/DX2 analytically  !
 ! R29   R(14,15)                1.3883         calculate D2E/DX2 analytically  !
 ! R30   R(14,36)                1.0801         calculate D2E/DX2 analytically  !
 ! R31   R(15,16)                1.4034         calculate D2E/DX2 analytically  !
 ! R32   R(15,20)                1.0795         calculate D2E/DX2 analytically  !
 ! R33   R(16,37)                1.0787         calculate D2E/DX2 analytically  !
 ! R34   R(17,21)                1.1996         calculate D2E/DX2 analytically  !
 ! R35   R(22,24)                1.3582         calculate D2E/DX2 analytically  !
 ! R36   R(22,25)                1.3478         calculate D2E/DX2 analytically  !
 ! R37   R(22,26)                1.3619         calculate D2E/DX2 analytically  !
 ! R38   R(23,27)                1.355          calculate D2E/DX2 analytically  !
 ! R39   R(23,28)                1.3421         calculate D2E/DX2 analytically  !
 ! R40   R(23,29)                1.3673         calculate D2E/DX2 analytically  !
 ! R41   R(30,31)                1.0894         calculate D2E/DX2 analytically  !
 ! R42   R(30,32)                1.0823         calculate D2E/DX2 analytically  !
 ! R43   R(30,33)                1.0825         calculate D2E/DX2 analytically  !
 ! A1    A(2,1,7)               87.9867         calculate D2E/DX2 analytically  !
 ! A2    A(2,1,12)              86.8813         calculate D2E/DX2 analytically  !
 ! A3    A(2,1,23)              93.3977         calculate D2E/DX2 analytically  !
 ! A4    A(2,1,30)              91.6882         calculate D2E/DX2 analytically  !
 ! A5    A(7,1,12)              91.844          calculate D2E/DX2 analytically  !
 ! A6    A(7,1,22)              89.42           calculate D2E/DX2 analytically  !
 ! A7    A(7,1,23)             157.1885         calculate D2E/DX2 analytically  !
 ! A8    A(7,1,30)              99.75           calculate D2E/DX2 analytically  !
 ! A9    A(12,1,22)             87.6128         calculate D2E/DX2 analytically  !
 ! A10   A(12,1,23)            110.9653         calculate D2E/DX2 analytically  !
 ! A11   A(22,1,23)             91.1612         calculate D2E/DX2 analytically  !
 ! A12   A(22,1,30)             94.2638         calculate D2E/DX2 analytically  !
 ! A13   A(23,1,30)             57.4655         calculate D2E/DX2 analytically  !
 ! A14   A(1,2,3)              116.7301         calculate D2E/DX2 analytically  !
 ! A15   A(1,2,6)              136.2373         calculate D2E/DX2 analytically  !
 ! A16   A(3,2,6)              107.0197         calculate D2E/DX2 analytically  !
 ! A17   A(2,3,4)              109.8059         calculate D2E/DX2 analytically  !
 ! A18   A(2,3,17)             120.6289         calculate D2E/DX2 analytically  !
 ! A19   A(4,3,17)             129.4747         calculate D2E/DX2 analytically  !
 ! A20   A(3,4,5)              108.435          calculate D2E/DX2 analytically  !
 ! A21   A(3,4,35)             120.2077         calculate D2E/DX2 analytically  !
 ! A22   A(5,4,35)             131.3571         calculate D2E/DX2 analytically  !
 ! A23   A(4,5,6)              104.5758         calculate D2E/DX2 analytically  !
 ! A24   A(4,5,18)             127.6934         calculate D2E/DX2 analytically  !
 ! A25   A(6,5,18)             127.7292         calculate D2E/DX2 analytically  !
 ! A26   A(2,6,5)              110.1626         calculate D2E/DX2 analytically  !
 ! A27   A(2,6,34)             120.3816         calculate D2E/DX2 analytically  !
 ! A28   A(5,6,34)             129.4444         calculate D2E/DX2 analytically  !
 ! A29   A(1,7,8)              116.4433         calculate D2E/DX2 analytically  !
 ! A30   A(1,7,11)             135.8777         calculate D2E/DX2 analytically  !
 ! A31   A(8,7,11)             107.2771         calculate D2E/DX2 analytically  !
 ! A32   A(7,8,9)              109.8571         calculate D2E/DX2 analytically  !
 ! A33   A(7,8,17)             119.1765         calculate D2E/DX2 analytically  !
 ! A34   A(9,8,17)             130.9583         calculate D2E/DX2 analytically  !
 ! A35   A(8,9,10)             108.2388         calculate D2E/DX2 analytically  !
 ! A36   A(8,9,38)             120.4607         calculate D2E/DX2 analytically  !
 ! A37   A(10,9,38)            131.3004         calculate D2E/DX2 analytically  !
 ! A38   A(9,10,11)            104.5258         calculate D2E/DX2 analytically  !
 ! A39   A(9,10,19)            127.5581         calculate D2E/DX2 analytically  !
 ! A40   A(11,10,19)           127.9158         calculate D2E/DX2 analytically  !
 ! A41   A(7,11,10)            110.0977         calculate D2E/DX2 analytically  !
 ! A42   A(7,11,39)            120.0513         calculate D2E/DX2 analytically  !
 ! A43   A(10,11,39)           129.8306         calculate D2E/DX2 analytically  !
 ! A44   A(1,12,13)            116.7518         calculate D2E/DX2 analytically  !
 ! A45   A(1,12,16)            135.7133         calculate D2E/DX2 analytically  !
 ! A46   A(13,12,16)           107.4978         calculate D2E/DX2 analytically  !
 ! A47   A(12,13,14)           109.5439         calculate D2E/DX2 analytically  !
 ! A48   A(12,13,17)           120.0659         calculate D2E/DX2 analytically  !
 ! A49   A(14,13,17)           130.2169         calculate D2E/DX2 analytically  !
 ! A50   A(13,14,15)           108.3757         calculate D2E/DX2 analytically  !
 ! A51   A(13,14,36)           120.2831         calculate D2E/DX2 analytically  !
 ! A52   A(15,14,36)           131.3404         calculate D2E/DX2 analytically  !
 ! A53   A(14,15,16)           104.6722         calculate D2E/DX2 analytically  !
 ! A54   A(14,15,20)           127.5599         calculate D2E/DX2 analytically  !
 ! A55   A(16,15,20)           127.7676         calculate D2E/DX2 analytically  !
 ! A56   A(12,16,15)           109.9095         calculate D2E/DX2 analytically  !
 ! A57   A(12,16,37)           119.8209         calculate D2E/DX2 analytically  !
 ! A58   A(15,16,37)           130.2671         calculate D2E/DX2 analytically  !
 ! A59   A(3,17,8)             108.0186         calculate D2E/DX2 analytically  !
 ! A60   A(3,17,13)            106.888          calculate D2E/DX2 analytically  !
 ! A61   A(3,17,21)            110.7052         calculate D2E/DX2 analytically  !
 ! A62   A(8,17,13)            109.6264         calculate D2E/DX2 analytically  !
 ! A63   A(8,17,21)            110.7961         calculate D2E/DX2 analytically  !
 ! A64   A(13,17,21)           110.6918         calculate D2E/DX2 analytically  !
 ! A65   A(1,22,24)            111.9687         calculate D2E/DX2 analytically  !
 ! A66   A(1,22,25)            112.1359         calculate D2E/DX2 analytically  !
 ! A67   A(1,22,26)            112.9957         calculate D2E/DX2 analytically  !
 ! A68   A(24,22,25)           106.2748         calculate D2E/DX2 analytically  !
 ! A69   A(24,22,26)           106.7487         calculate D2E/DX2 analytically  !
 ! A70   A(25,22,26)           106.2525         calculate D2E/DX2 analytically  !
 ! A71   A(1,23,27)            126.0431         calculate D2E/DX2 analytically  !
 ! A72   A(1,23,28)            118.4735         calculate D2E/DX2 analytically  !
 ! A73   A(1,23,29)             90.0604         calculate D2E/DX2 analytically  !
 ! A74   A(27,23,28)           107.4964         calculate D2E/DX2 analytically  !
 ! A75   A(27,23,29)           103.8079         calculate D2E/DX2 analytically  !
 ! A76   A(28,23,29)           105.6755         calculate D2E/DX2 analytically  !
 ! A77   A(1,30,31)             82.4184         calculate D2E/DX2 analytically  !
 ! A78   A(1,30,32)            129.1643         calculate D2E/DX2 analytically  !
 ! A79   A(1,30,33)            107.0434         calculate D2E/DX2 analytically  !
 ! A80   A(31,30,32)           108.4499         calculate D2E/DX2 analytically  !
 ! A81   A(31,30,33)           111.0734         calculate D2E/DX2 analytically  !
 ! A82   A(32,30,33)           113.7901         calculate D2E/DX2 analytically  !
 ! A83   L(2,1,22,7,-1)        177.4066         calculate D2E/DX2 analytically  !
 ! A84   L(12,1,30,2,-1)       178.5694         calculate D2E/DX2 analytically  !
 ! A85   L(2,1,22,7,-2)        174.4056         calculate D2E/DX2 analytically  !
 ! A86   L(12,1,30,2,-2)       191.6578         calculate D2E/DX2 analytically  !
 ! D1    D(7,1,2,3)            -43.8223         calculate D2E/DX2 analytically  !
 ! D2    D(7,1,2,6)            137.6913         calculate D2E/DX2 analytically  !
 ! D3    D(12,1,2,3)            48.1353         calculate D2E/DX2 analytically  !
 ! D4    D(12,1,2,6)          -130.3511         calculate D2E/DX2 analytically  !
 ! D5    D(23,1,2,3)           158.9734         calculate D2E/DX2 analytically  !
 ! D6    D(23,1,2,6)           -19.513          calculate D2E/DX2 analytically  !
 ! D7    D(30,1,2,3)          -143.5225         calculate D2E/DX2 analytically  !
 ! D8    D(30,1,2,6)            37.9911         calculate D2E/DX2 analytically  !
 ! D9    D(2,1,7,8)             48.276          calculate D2E/DX2 analytically  !
 ! D10   D(2,1,7,11)          -140.1259         calculate D2E/DX2 analytically  !
 ! D11   D(12,1,7,8)           -38.5368         calculate D2E/DX2 analytically  !
 ! D12   D(12,1,7,11)          133.0613         calculate D2E/DX2 analytically  !
 ! D13   D(22,1,7,8)          -126.1296         calculate D2E/DX2 analytically  !
 ! D14   D(22,1,7,11)           45.4686         calculate D2E/DX2 analytically  !
 ! D15   D(23,1,7,8)           142.2544         calculate D2E/DX2 analytically  !
 ! D16   D(23,1,7,11)          -46.1475         calculate D2E/DX2 analytically  !
 ! D17   D(30,1,7,8)           139.6437         calculate D2E/DX2 analytically  !
 ! D18   D(30,1,7,11)          -48.7581         calculate D2E/DX2 analytically  !
 ! D19   D(2,1,12,13)          -50.358          calculate D2E/DX2 analytically  !
 ! D20   D(2,1,12,16)          132.1909         calculate D2E/DX2 analytically  !
 ! D21   D(7,1,12,13)           37.5241         calculate D2E/DX2 analytically  !
 ! D22   D(7,1,12,16)         -139.9271         calculate D2E/DX2 analytically  !
 ! D23   D(22,1,12,13)         126.8663         calculate D2E/DX2 analytically  !
 ! D24   D(22,1,12,16)         -50.5848         calculate D2E/DX2 analytically  !
 ! D25   D(23,1,12,13)        -142.8044         calculate D2E/DX2 analytically  !
 ! D26   D(23,1,12,16)          39.7445         calculate D2E/DX2 analytically  !
 ! D27   D(7,1,22,24)          158.9817         calculate D2E/DX2 analytically  !
 ! D28   D(7,1,22,25)           39.6195         calculate D2E/DX2 analytically  !
 ! D29   D(7,1,22,26)          -80.4373         calculate D2E/DX2 analytically  !
 ! D30   D(12,1,22,24)          67.1118         calculate D2E/DX2 analytically  !
 ! D31   D(12,1,22,25)         -52.2503         calculate D2E/DX2 analytically  !
 ! D32   D(12,1,22,26)        -172.3071         calculate D2E/DX2 analytically  !
 ! D33   D(23,1,22,24)         -43.8252         calculate D2E/DX2 analytically  !
 ! D34   D(23,1,22,25)        -163.1874         calculate D2E/DX2 analytically  !
 ! D35   D(23,1,22,26)          76.7559         calculate D2E/DX2 analytically  !
 ! D36   D(30,1,22,24)        -101.2844         calculate D2E/DX2 analytically  !
 ! D37   D(30,1,22,25)         139.3534         calculate D2E/DX2 analytically  !
 ! D38   D(30,1,22,26)          19.2967         calculate D2E/DX2 analytically  !
 ! D39   D(2,1,23,27)           26.6744         calculate D2E/DX2 analytically  !
 ! D40   D(2,1,23,28)          171.5255         calculate D2E/DX2 analytically  !
 ! D41   D(2,1,23,29)          -80.5393         calculate D2E/DX2 analytically  !
 ! D42   D(7,1,23,27)          -66.2135         calculate D2E/DX2 analytically  !
 ! D43   D(7,1,23,28)           78.6376         calculate D2E/DX2 analytically  !
 ! D44   D(7,1,23,29)         -173.4273         calculate D2E/DX2 analytically  !
 ! D45   D(12,1,23,27)         114.6333         calculate D2E/DX2 analytically  !
 ! D46   D(12,1,23,28)        -100.5156         calculate D2E/DX2 analytically  !
 ! D47   D(12,1,23,29)           7.4196         calculate D2E/DX2 analytically  !
 ! D48   D(22,1,23,27)        -157.4784         calculate D2E/DX2 analytically  !
 ! D49   D(22,1,23,28)         -12.6273         calculate D2E/DX2 analytically  !
 ! D50   D(22,1,23,29)          95.3079         calculate D2E/DX2 analytically  !
 ! D51   D(30,1,23,27)         -63.1613         calculate D2E/DX2 analytically  !
 ! D52   D(30,1,23,28)          81.6898         calculate D2E/DX2 analytically  !
 ! D53   D(30,1,23,29)        -170.375          calculate D2E/DX2 analytically  !
 ! D54   D(2,1,30,31)          108.0289         calculate D2E/DX2 analytically  !
 ! D55   D(2,1,30,32)         -144.3116         calculate D2E/DX2 analytically  !
 ! D56   D(2,1,30,33)           -1.7623         calculate D2E/DX2 analytically  !
 ! D57   D(7,1,30,31)           19.7823         calculate D2E/DX2 analytically  !
 ! D58   D(7,1,30,32)          127.4418         calculate D2E/DX2 analytically  !
 ! D59   D(7,1,30,33)          -90.0089         calculate D2E/DX2 analytically  !
 ! D60   D(22,1,30,31)         -70.3616         calculate D2E/DX2 analytically  !
 ! D61   D(22,1,30,32)          37.298          calculate D2E/DX2 analytically  !
 ! D62   D(22,1,30,33)         179.8472         calculate D2E/DX2 analytically  !
 ! D63   D(23,1,30,31)        -159.0175         calculate D2E/DX2 analytically  !
 ! D64   D(23,1,30,32)         -51.3579         calculate D2E/DX2 analytically  !
 ! D65   D(23,1,30,33)          91.1913         calculate D2E/DX2 analytically  !
 ! D66   D(1,2,3,4)           -179.0885         calculate D2E/DX2 analytically  !
 ! D67   D(1,2,3,17)            -2.2337         calculate D2E/DX2 analytically  !
 ! D68   D(6,2,3,4)             -0.1833         calculate D2E/DX2 analytically  !
 ! D69   D(6,2,3,17)           176.6715         calculate D2E/DX2 analytically  !
 ! D70   D(1,2,6,5)            178.9047         calculate D2E/DX2 analytically  !
 ! D71   D(1,2,6,34)             0.0221         calculate D2E/DX2 analytically  !
 ! D72   D(3,2,6,5)              0.3184         calculate D2E/DX2 analytically  !
 ! D73   D(3,2,6,34)          -178.5642         calculate D2E/DX2 analytically  !
 ! D74   D(2,3,4,5)             -0.0219         calculate D2E/DX2 analytically  !
 ! D75   D(2,3,4,35)           179.8419         calculate D2E/DX2 analytically  !
 ! D76   D(17,3,4,5)          -176.5153         calculate D2E/DX2 analytically  !
 ! D77   D(17,3,4,35)            3.3485         calculate D2E/DX2 analytically  !
 ! D78   D(2,3,17,8)            61.1733         calculate D2E/DX2 analytically  !
 ! D79   D(2,3,17,13)          -56.7235         calculate D2E/DX2 analytically  !
 ! D80   D(2,3,17,21)         -177.3549         calculate D2E/DX2 analytically  !
 ! D81   D(4,3,17,8)          -122.6613         calculate D2E/DX2 analytically  !
 ! D82   D(4,3,17,13)          119.4419         calculate D2E/DX2 analytically  !
 ! D83   D(4,3,17,21)           -1.1895         calculate D2E/DX2 analytically  !
 ! D84   D(3,4,5,6)              0.2067         calculate D2E/DX2 analytically  !
 ! D85   D(3,4,5,18)           179.7734         calculate D2E/DX2 analytically  !
 ! D86   D(35,4,5,6)          -179.6364         calculate D2E/DX2 analytically  !
 ! D87   D(35,4,5,18)           -0.0698         calculate D2E/DX2 analytically  !
 ! D88   D(4,5,6,2)             -0.3261         calculate D2E/DX2 analytically  !
 ! D89   D(4,5,6,34)           178.4255         calculate D2E/DX2 analytically  !
 ! D90   D(18,5,6,2)          -179.8926         calculate D2E/DX2 analytically  !
 ! D91   D(18,5,6,34)           -1.1409         calculate D2E/DX2 analytically  !
 ! D92   D(1,7,8,9)            174.3841         calculate D2E/DX2 analytically  !
 ! D93   D(1,7,8,17)            -4.6925         calculate D2E/DX2 analytically  !
 ! D94   D(11,7,8,9)             0.4995         calculate D2E/DX2 analytically  !
 ! D95   D(11,7,8,17)         -178.5771         calculate D2E/DX2 analytically  !
 ! D96   D(1,7,11,10)         -172.7333         calculate D2E/DX2 analytically  !
 ! D97   D(1,7,11,39)            5.7812         calculate D2E/DX2 analytically  !
 ! D98   D(8,7,11,10)           -0.6082         calculate D2E/DX2 analytically  !
 ! D99   D(8,7,11,39)          177.9063         calculate D2E/DX2 analytically  !
 ! D100  D(7,8,9,10)            -0.1976         calculate D2E/DX2 analytically  !
 ! D101  D(7,8,9,38)           179.7175         calculate D2E/DX2 analytically  !
 ! D102  D(17,8,9,10)          178.7348         calculate D2E/DX2 analytically  !
 ! D103  D(17,8,9,38)           -1.3502         calculate D2E/DX2 analytically  !
 ! D104  D(7,8,17,3)           -55.113          calculate D2E/DX2 analytically  !
 ! D105  D(7,8,17,13)           61.0114         calculate D2E/DX2 analytically  !
 ! D106  D(7,8,17,21)         -176.5285         calculate D2E/DX2 analytically  !
 ! D107  D(9,8,17,3)           126.0371         calculate D2E/DX2 analytically  !
 ! D108  D(9,8,17,13)         -117.8386         calculate D2E/DX2 analytically  !
 ! D109  D(9,8,17,21)            4.6216         calculate D2E/DX2 analytically  !
 ! D110  D(8,9,10,11)           -0.1663         calculate D2E/DX2 analytically  !
 ! D111  D(8,9,10,19)         -179.9683         calculate D2E/DX2 analytically  !
 ! D112  D(38,9,10,11)         179.9312         calculate D2E/DX2 analytically  !
 ! D113  D(38,9,10,19)           0.1292         calculate D2E/DX2 analytically  !
 ! D114  D(9,10,11,7)            0.4815         calculate D2E/DX2 analytically  !
 ! D115  D(9,10,11,39)        -177.844          calculate D2E/DX2 analytically  !
 ! D116  D(19,10,11,7)        -179.7175         calculate D2E/DX2 analytically  !
 ! D117  D(19,10,11,39)          1.957          calculate D2E/DX2 analytically  !
 ! D118  D(1,12,13,14)        -178.4199         calculate D2E/DX2 analytically  !
 ! D119  D(1,12,13,17)           5.8902         calculate D2E/DX2 analytically  !
 ! D120  D(16,12,13,14)         -0.2858         calculate D2E/DX2 analytically  !
 ! D121  D(16,12,13,17)       -175.9756         calculate D2E/DX2 analytically  !
 ! D122  D(1,12,16,15)         177.7624         calculate D2E/DX2 analytically  !
 ! D123  D(1,12,16,37)          -1.7184         calculate D2E/DX2 analytically  !
 ! D124  D(13,12,16,15)          0.1488         calculate D2E/DX2 analytically  !
 ! D125  D(13,12,16,37)       -179.332          calculate D2E/DX2 analytically  !
 ! D126  D(12,13,14,15)          0.3121         calculate D2E/DX2 analytically  !
 ! D127  D(12,13,14,36)       -179.4036         calculate D2E/DX2 analytically  !
 ! D128  D(17,13,14,15)        175.4257         calculate D2E/DX2 analytically  !
 ! D129  D(17,13,14,36)         -4.2899         calculate D2E/DX2 analytically  !
 ! D130  D(12,13,17,3)          53.9745         calculate D2E/DX2 analytically  !
 ! D131  D(12,13,17,8)         -62.8635         calculate D2E/DX2 analytically  !
 ! D132  D(12,13,17,21)        174.6144         calculate D2E/DX2 analytically  !
 ! D133  D(14,13,17,3)        -120.7036         calculate D2E/DX2 analytically  !
 ! D134  D(14,13,17,8)         122.4585         calculate D2E/DX2 analytically  !
 ! D135  D(14,13,17,21)         -0.0637         calculate D2E/DX2 analytically  !
 ! D136  D(13,14,15,16)         -0.2108         calculate D2E/DX2 analytically  !
 ! D137  D(13,14,15,20)        179.9728         calculate D2E/DX2 analytically  !
 ! D138  D(36,14,15,16)        179.4622         calculate D2E/DX2 analytically  !
 ! D139  D(36,14,15,20)         -0.3542         calculate D2E/DX2 analytically  !
 ! D140  D(14,15,16,12)          0.0373         calculate D2E/DX2 analytically  !
 ! D141  D(14,15,16,37)        179.447          calculate D2E/DX2 analytically  !
 ! D142  D(20,15,16,12)        179.8533         calculate D2E/DX2 analytically  !
 ! D143  D(20,15,16,37)         -0.7371         calculate D2E/DX2 analytically  !
 --------------------------------------------------------------------------------
 Trust Radius=5.00D-02 FncErr=1.00D-07 GrdErr=1.00D-06 EigMax=2.50D+02 EigMin=1.00D-04
 Number of steps in this run=    200 maximum allowed number of steps=    234.
 Search for a saddle point of order  1.
 GradGradGradGradGradGradGradGradGradGradGradGradGradGradGradGradGradGrad

                          Input orientation:                          
 ---------------------------------------------------------------------
 Center     Atomic      Atomic             Coordinates (Angstroms)
 Number     Number       Type             X           Y           Z
 ---------------------------------------------------------------------
      1         28           0       -0.511765   -0.057908   -0.269963
      2          7           0        0.447799    1.704911   -0.472661
      3          7           0        1.772041    1.717308   -0.173417
      4          6           0        2.265872    2.961522   -0.337086
      5          6           0        1.235097    3.791242   -0.756932
      6          6           0        0.112997    2.954301   -0.822151
      7          7           0        1.129928   -0.974850   -1.207310
      8          7           0        2.355044   -0.641287   -0.738830
      9          6           0        3.298999   -1.393238   -1.346186
     10          6           0        2.665659   -2.249022   -2.237864
     11          6           0        1.300271   -1.948205   -2.105366
     12          7           0        0.370280   -0.200588    1.561421
     13          7           0        1.711758   -0.004028    1.610124
     14          6           0        2.146313   -0.165570    2.878684
     15          6           0        1.056277   -0.483396    3.677587
     16          6           0       -0.037958   -0.492055    2.798876
     17          5           0        2.473444    0.442841    0.346082
     18          1           0        1.285394    4.846886   -0.976474
     19          1           0        3.123700   -2.982614   -2.884068
     20          1           0        1.052981   -0.677220    4.739581
     21          1           0        3.624147    0.666098    0.601323
     22          6           0       -1.270208   -1.786680    0.049372
     23          6           0       -2.467395    0.876484   -0.120210
     24          9           0       -2.180074   -1.764020    1.057522
     25          9           0       -0.337423   -2.693095    0.402729
     26          9           0       -1.905391   -2.298699   -1.041125
     27          9           0       -2.821830    2.072961   -0.648146
     28          9           0       -3.555030    0.090363   -0.136057
     29          9           0       -2.233836    1.157493    1.197390
     30          6           0       -1.703325    0.328073   -1.941564
     31          1           0       -1.075440   -0.442409   -2.387446
     32          1           0       -2.739487    0.069337   -2.116782
     33          1           0       -1.431089    1.310705   -2.305204
     34          1           0       -0.905424    3.193293   -1.082186
     35          1           0        3.308712    3.162323   -0.141150
     36          1           0        3.192196   -0.038277    3.116524
     37          1           0       -1.080316   -0.697513    2.985412
     38          1           0        4.343166   -1.263708   -1.101820
     39          1           0        0.442382   -2.395703   -2.588244
 ---------------------------------------------------------------------
                    Distance matrix (angstroms):
                    1          2          3          4          5
     1  Ni   0.000000
     2  N    2.017271   0.000000
     3  N    2.894215   1.357688   0.000000
     4  C    4.103259   2.214236   1.348601   0.000000
     5  C    4.254953   2.247982   2.220361   1.388237   0.000000
     6  C    3.125483   1.339855   2.168740   2.206855   1.401368
     7  N    2.101085   2.861141   2.954481   4.188399   4.788479
     8  N    2.962897   3.035305   2.494505   3.626235   4.571862
     9  C    4.178909   4.300106   3.658208   4.587981   5.611216
    10  C    4.332394   4.865021   4.559854   5.560805   6.381572
    11  C    3.197718   4.091172   4.170249   5.307035   5.896081
    12  N    2.037726   2.788266   2.941585   4.146871   4.696528
    13  N    2.912333   2.975913   2.479446   3.590704   4.498248
    14  C    4.122008   4.197042   3.605639   4.487112   5.450172
    15  C    4.268834   4.731119   4.492844   5.426618   6.161937
    16  C    3.135403   3.970589   4.122124   5.202796   5.710611
    17  B    3.088970   2.523172   1.544704   2.617930   3.736567
    18  H    5.271237   3.290501   3.267412   2.219178   1.079404
    19  H    5.348276   5.911702   5.591411   6.523476   7.346881
    20  H    5.284648   5.762661   5.512564   6.362711   7.086041
    21  H    4.288250   3.510237   2.266178   2.827454   4.161603
    22  C    1.914644   3.926229   4.645734   5.932844   6.167649
    23  C    2.172557   3.051044   4.322341   5.176701   4.754963
    24  F    2.730621   4.613096   5.408703   6.636423   6.768794
    25  F    2.725274   4.552509   4.922747   6.268905   6.772316
    26  F    2.749187   4.678627   5.514049   6.750187   6.857901
    27  F    3.165442   3.294955   4.632009   5.174071   4.407151
    28  F    3.049816   4.329285   5.570102   6.493602   6.085007
    29  F    2.568239   3.206229   4.270779   5.084930   4.773835
    30  C    2.088791   2.946302   4.139382   5.026324   4.693742
    31  H    2.224703   3.255402   4.204099   5.191829   5.091263
    32  H    2.896494   3.941704   5.181347   6.048609   5.612405
    33  H    2.619249   2.654022   3.869093   4.501800   3.957115
    34  H    3.374164   2.101907   3.189547   3.265886   2.246144
    35  H    4.998252   3.227812   2.109613   1.079920   2.252689
    36  H    5.018765   4.842796   3.990317   4.667365   5.787842
    37  H    3.365978   4.479402   4.893414   5.968627   6.286111
    38  H    5.071124   4.937856   4.044635   4.769962   5.944036
    39  H    3.427843   4.614191   4.951388   6.090377   6.500799
                    6          7          8          9         10
     6  C    0.000000
     7  N    4.076852   0.000000
     8  N    4.238156   1.353384   0.000000
     9  C    5.415378   2.213415   1.351060   0.000000
    10  C    5.966146   2.245891   2.219999   1.388732   0.000000
    11  C    5.204885   1.335268   2.165179   2.208904   1.404397
    12  N    3.962440   2.973620   3.069961   4.295810   4.888703
    13  N    4.150146   3.036273   2.517439   3.631667   4.555978
    14  C    5.250157   4.287577   3.654625   4.548118   5.548834
    15  C    5.740660   4.910109   4.606133   5.576371   6.379663
    16  C    5.001199   4.200783   4.273651   5.397124   5.980404
    17  B    3.639218   2.495578   1.538306   2.629924   3.736288
    18  H    2.231638   5.828384   5.596487   6.567377   7.338130
    19  H    6.968701   3.289036   3.267214   2.218542   1.079601
    20  H    6.708530   5.954831   5.631132   6.526396   7.331850
    21  H    4.426096   3.490701   2.261833   2.852959   4.180623
    22  C    5.014949   2.828245   3.882736   4.793749   4.575616
    23  C    3.386513   4.189267   5.093352   6.317116   6.371930
    24  F    5.572602   4.087587   5.005468   5.994625   5.880130
    25  F    5.796231   2.774475   3.572457   4.239327   4.023485
    26  F    5.631683   3.315623   4.581452   5.291370   4.725373
    27  F    3.069242   5.021773   5.845972   7.068688   7.163747
    28  F    4.703965   4.922509   5.985618   7.116403   6.970458
    29  F    3.579761   4.652352   5.295505   6.602141   6.885519
    30  C    3.383664   3.203757   4.342417   5.323592   5.081066
    31  H    3.924305   2.557315   3.811261   4.596087   4.157168
    32  H    4.258609   4.109725   5.325222   6.260691   5.882606
    33  H    2.699084   3.603879   4.538568   5.532157   5.427664
    34  H    1.077922   4.640230   5.045052   6.227611   6.611128
    35  H    3.274085   4.795831   3.966630   4.712254   5.838868
    36  H    5.826676   4.881153   3.991015   4.665095   5.816709
    37  H    5.409000   4.747738   5.067034   6.198804   6.612270
    38  H    5.980313   3.227920   2.114663   1.080175   2.252880
    39  H    5.643591   2.097265   3.186940   3.272294   2.255492
                   11         12         13         14         15
    11  C    0.000000
    12  N    4.167058   0.000000
    13  N    4.213551   1.356676   0.000000
    14  C    5.360441   2.211493   1.350621   0.000000
    15  C    5.970573   2.242483   2.221228   1.388322   0.000000
    16  C    5.287988   1.335255   2.170900   2.209978   1.403410
    17  B    3.619811   2.512837   1.541966   2.625119   3.737005
    18  H    6.888242   5.723228   5.513950   6.381860   7.079879
    19  H    2.236352   5.923121   5.573447   6.488477   7.319539
    20  H    6.966337   3.285416   3.268130   2.218129   1.079542
    21  H    4.422798   3.501512   2.263621   2.839373   4.168776
    22  C    3.358027   2.737368   3.808663   4.722883   4.502780
    23  C    5.110286   3.469923   4.608110   5.600495   5.356193
    24  F    4.706441   3.033569   4.306889   4.958760   4.356456
    25  F    3.086656   2.838310   3.589990   4.322925   4.189256
    26  F    3.395839   4.044007   5.037698   6.027557   5.859441
    27  F    5.940116   4.498975   5.474220   6.490916   6.347176
    28  F    5.622089   4.286507   5.549515   6.454415   6.011425
    29  F    5.748345   2.959446   4.133666   4.874726   4.434945
    30  C    3.772249   4.104902   4.938377   6.188553   6.312586
    31  H    2.826835   4.212141   4.892976   6.179681   6.428882
    32  H    4.515557   4.824177   5.805927   6.991488   6.948960
    33  H    4.256848   4.525453   5.189971   6.469149   6.723063
    34  H    5.687441   4.487149   4.931636   6.023583   6.326275
    35  H    5.831764   4.779362   3.955123   4.641707   5.739990
    36  H    5.873273   3.226128   2.112371   1.080112   2.252792
    37  H    5.757382   2.092585   3.188733   3.271924   2.256099
    38  H    3.276408   4.899684   3.983182   4.677230   5.852799
    39  H    1.081388   4.695045   4.995770   6.145256   6.579850
                   16         17         18         19         20
    16  C    0.000000
    17  B    3.632818   0.000000
    18  H    6.671493   4.749340   0.000000
    19  H    6.963822   4.752941   8.265552   0.000000
    20  H    2.234003   4.751325   7.952550   8.229383   0.000000
    21  H    4.425107   1.199629   5.043629   5.070651   5.053769
    22  C    3.279370   4.367348   7.182455   5.416803   5.350343
    23  C    4.036846   4.981703   5.529982   7.334296   6.198759
    24  F    3.039551   5.199193   7.736323   6.719458   5.019097
    25  F    3.267381   4.211683   7.834989   4.781865   4.980488
    26  F    4.636472   5.349260   7.825898   5.399624   6.693110
    27  F    5.119689   5.629006   4.967066   8.118344   7.183680
    28  F    4.617666   6.057986   6.838166   7.848579   6.752392
    29  F    3.179252   4.836728   5.542769   7.905819   5.168796
    30  C    5.090956   4.763601   5.503046   5.928670   7.296954
    31  H    5.289307   4.566226   5.961629   4.932753   7.441762
    32  H    5.637119   5.777530   6.350192   6.654329   7.870824
    33  H    5.589489   4.798738   4.652889   6.285998   7.729906
    34  H    5.421894   4.584941   2.746858   7.590945   7.260110
    35  H    5.761808   2.886287   2.762125   6.731870   6.606962
    36  H    3.277302   2.902314   6.652319   6.684379   2.760218
    37  H    1.078665   4.571179   7.213424   7.572730   2.761970
    38  H    5.916513   2.916263   6.834109   2.760098   6.729877
    39  H    5.733730   4.559914   7.467501   2.760696   7.551360
                   21         22         23         24         25
    21  H    0.000000
    22  C    5.502316   0.000000
    23  C    6.137732   2.924800   0.000000
    24  F    6.308928   1.358211   2.905489   0.000000
    25  F    5.197851   1.347790   4.189527   2.165017   0.000000
    26  F    6.485634   1.361912   3.353464   2.183037   2.167668
    27  F    6.714987   4.217925   1.354953   4.247773   5.476487
    28  F    7.239874   2.962783   1.342083   2.598821   4.288464
    29  F    5.908699   3.303737   1.367328   2.925353   4.365191
    30  C    5.912909   2.936596   2.049851   3.687636   4.060647
    31  H    5.678701   2.789817   2.969407   3.851581   3.659964
    32  H    6.945506   3.208707   2.170673   3.708146   4.443971
    33  H    5.866756   3.894060   2.456965   4.617666   4.955746
    34  H    5.453250   5.119924   2.955124   5.547796   6.097308
    35  H    2.623338   6.745031   6.211997   7.472111   6.919250
    36  H    2.647444   5.690113   6.583632   6.006577   5.183720
    37  H    5.447503   3.137304   3.747845   2.462451   3.347311
    38  H    2.672421   5.754017   7.206089   6.889538   5.120032
    39  H    5.447164   3.203263   5.026450   4.535186   3.105231
                   26         27         28         29         30
    26  F    0.000000
    27  F    4.483938   0.000000
    28  F    3.041065   2.174974   0.000000
    29  F    4.130870   2.142387   2.159259   0.000000
    30  C    2.784161   2.443075   2.597147   3.289743   0.000000
    31  H    2.438691   3.521666   3.391307   4.092996   1.089354
    32  H    2.731364   2.485595   2.142154   3.524699   1.082256
    33  H    3.853655   2.293695   3.271935   3.596671   1.082549
    34  H    5.582436   2.261890   4.188526   3.332511   3.095911
    35  H    7.603919   6.247183   7.519835   6.044077   6.032825
    36  H    6.955641   7.402606   7.491388   5.878330   7.048730
    37  H    4.411071   4.889902   4.060607   2.822885   5.071002
    38  H    6.333984   7.916840   8.071413   7.376011   6.308644
    39  H    2.813365   5.864130   5.307829   5.841093   3.527210
                   31         32         33         34         35
    31  H    0.000000
    32  H    1.761873   0.000000
    33  H    1.790715   1.813395   0.000000
    34  H    3.866644   3.767397   2.305696   0.000000
    35  H    6.104157   7.074630   5.529677   4.318038   0.000000
    36  H    6.976369   7.911001   7.251872   6.697962   4.568354
    37  H    5.378913   5.419713   5.669797   5.631546   6.628521
    38  H    5.629268   7.278127   6.435663   6.885706   4.645722
    39  H    2.481826   4.052529   4.162627   5.943204   6.715338
                   36         37         38         39
    36  H    0.000000
    37  H    4.325060   0.000000
    38  H    4.541017   6.814705   0.000000
    39  H    6.757463   6.022300   4.325157   0.000000
 Stoichiometry    C12H13BF6N6Ni
 Framework group  C1[X(C12H13BF6N6Ni)]
 Deg. of freedom   111
 Full point group                 C1      NOp   1
 Largest Abelian subgroup         C1      NOp   1
 Largest concise Abelian subgroup C1      NOp   1
                         Standard orientation:                         
 ---------------------------------------------------------------------
 Center     Atomic      Atomic             Coordinates (Angstroms)
 Number     Number       Type             X           Y           Z
 ---------------------------------------------------------------------
      1         28           0       -0.511765   -0.057908   -0.269963
      2          7           0        0.447799    1.704911   -0.472661
      3          7           0        1.772041    1.717308   -0.173417
      4          6           0        2.265872    2.961522   -0.337086
      5          6           0        1.235097    3.791242   -0.756932
      6          6           0        0.112997    2.954301   -0.822151
      7          7           0        1.129928   -0.974850   -1.207310
      8          7           0        2.355044   -0.641287   -0.738830
      9          6           0        3.298999   -1.393238   -1.346186
     10          6           0        2.665659   -2.249022   -2.237864
     11          6           0        1.300271   -1.948205   -2.105366
     12          7           0        0.370280   -0.200588    1.561421
     13          7           0        1.711758   -0.004028    1.610124
     14          6           0        2.146313   -0.165570    2.878684
     15          6           0        1.056277   -0.483396    3.677587
     16          6           0       -0.037958   -0.492055    2.798876
     17          5           0        2.473444    0.442841    0.346082
     18          1           0        1.285394    4.846886   -0.976474
     19          1           0        3.123700   -2.982614   -2.884068
     20          1           0        1.052981   -0.677220    4.739581
     21          1           0        3.624147    0.666098    0.601323
     22          6           0       -1.270208   -1.786680    0.049372
     23          6           0       -2.467395    0.876484   -0.120210
     24          9           0       -2.180074   -1.764020    1.057522
     25          9           0       -0.337423   -2.693095    0.402729
     26          9           0       -1.905391   -2.298699   -1.041125
     27          9           0       -2.821830    2.072961   -0.648146
     28          9           0       -3.555030    0.090363   -0.136057
     29          9           0       -2.233836    1.157493    1.197390
     30          6           0       -1.703325    0.328073   -1.941564
     31          1           0       -1.075440   -0.442409   -2.387446
     32          1           0       -2.739487    0.069337   -2.116782
     33          1           0       -1.431089    1.310705   -2.305204
     34          1           0       -0.905424    3.193293   -1.082186
     35          1           0        3.308712    3.162323   -0.141150
     36          1           0        3.192196   -0.038277    3.116524
     37          1           0       -1.080316   -0.697513    2.985412
     38          1           0        4.343166   -1.263708   -1.101820
     39          1           0        0.442382   -2.395703   -2.588244
 ---------------------------------------------------------------------
 Rotational constants (GHZ):           0.2584622           0.2176646           0.1911130
 General basis read from cards:  (5D, 7F)
 ======================================================================================================
                                       Pseudopotential Parameters
 ======================================================================================================
  Center     Atomic      Valence      Angular      Power
  Number     Number     Electrons     Momentum     of R      Exponent        Coefficient   SO-Coeffient
 ======================================================================================================
    1         28           18
                                      D and up 
                                                     1      469.9324331      -10.00000000    0.00000000
                                                     2       85.4236411      -69.40848050    0.00000000
                                                     2       21.2674984      -12.09510200    0.00000000
                                      S - D
                                                     0      162.1686097        3.00000000    0.00000000
                                                     1      176.5333232       22.02536180    0.00000000
                                                     2       68.9562010      443.01810880    0.00000000
                                                     2       13.5792838      145.56964110    0.00000000
                                      P - D
                                                     0       69.0181506        5.00000000    0.00000000
                                                     1      275.5955596        4.98828240    0.00000000
                                                     2       47.1315453      256.69458530    0.00000000
                                                     2       12.9874075       78.47544500    0.00000000
    2          7
                                   No pseudopotential on this center.
    3          7
                                   No pseudopotential on this center.
    4          6
                                   No pseudopotential on this center.
    5          6
                                   No pseudopotential on this center.
    6          6
                                   No pseudopotential on this center.
    7          7
                                   No pseudopotential on this center.
    8          7
                                   No pseudopotential on this center.
    9          6
                                   No pseudopotential on this center.
   10          6
                                   No pseudopotential on this center.
   11          6
                                   No pseudopotential on this center.
   12          7
                                   No pseudopotential on this center.
   13          7
                                   No pseudopotential on this center.
   14          6
                                   No pseudopotential on this center.
   15          6
                                   No pseudopotential on this center.
   16          6
                                   No pseudopotential on this center.
   17          5
                                   No pseudopotential on this center.
   18          1
                                   No pseudopotential on this center.
   19          1
                                   No pseudopotential on this center.
   20          1
                                   No pseudopotential on this center.
   21          1
                                   No pseudopotential on this center.
   22          6
                                   No pseudopotential on this center.
   23          6
                                   No pseudopotential on this center.
   24          9
                                   No pseudopotential on this center.
   25          9
                                   No pseudopotential on this center.
   26          9
                                   No pseudopotential on this center.
   27          9
                                   No pseudopotential on this center.
   28          9
                                   No pseudopotential on this center.
   29          9
                                   No pseudopotential on this center.
   30          6
                                   No pseudopotential on this center.
   31          1
                                   No pseudopotential on this center.
   32          1
                                   No pseudopotential on this center.
   33          1
                                   No pseudopotential on this center.
   34          1
                                   No pseudopotential on this center.
   35          1
                                   No pseudopotential on this center.
   36          1
                                   No pseudopotential on this center.
   37          1
                                   No pseudopotential on this center.
   38          1
                                   No pseudopotential on this center.
   39          1
                                   No pseudopotential on this center.
 ======================================================================================================
 There are   425 symmetry adapted cartesian basis functions of A   symmetry.
 There are   398 symmetry adapted basis functions of A   symmetry.
   398 basis functions,   804 primitive gaussians,   425 cartesian basis functions
   102 alpha electrons      102 beta electrons
       nuclear repulsion energy      3127.1153037156 Hartrees.
 NAtoms=   39 NActive=   39 NUniq=   39 SFac= 1.00D+00 NAtFMM=   60 NAOKFM=F Big=F
 Integral buffers will be    131072 words long.
 Raffenetti 2 integral format.
 Two-electron integral symmetry is turned on.
 Nuclear repulsion after empirical dispersion term =     3127.0161524888 Hartrees.
 One-electron integrals computed using PRISM.
   1 Symmetry operations used in ECPInt.
 ECPInt:  NShTT=    9045 NPrTT=   59844 LenC2=    8230 LenP2D=   30354.
 LDataN:  DoStor=T MaxTD1= 4 Len=   56
 NBasis=   398 RedAO= T EigKep=  8.54D-04  NBF=   398
 NBsUse=   398 1.00D-06 EigRej= -1.00D+00 NBFU=   398
 ExpMin= 2.40D-02 ExpMax= 7.00D+03 ExpMxC= 1.05D+03 IAcc=3 IRadAn=         5 AccDes= 0.00D+00
 Harris functional with IExCor=  402 and IRadAn=       5 diagonalized for initial guess.
 HarFok:  IExCor=  402 AccDes= 0.00D+00 IRadAn=         5 IDoV= 1 UseB2=F ITyADJ=14
 ICtDFT=  3500011 ScaDFX=  1.000000  1.000000  1.000000  1.000000
 FoFCou: FMM=F IPFlag=           0 FMFlag=      100000 FMFlg1=           0
         NFxFlg=           0 DoJE=T BraDBF=F KetDBF=T FulRan=T
         wScrn=  0.000000 ICntrl=       500 IOpCl=  0 I1Cent=   200000004 NGrid=           0
         NMat0=    1 NMatS0=      1 NMatT0=    0 NMatD0=    1 NMtDS0=    0 NMtDT0=    0
 Petite list used in FoFCou.
 Requested convergence on RMS density matrix=1.00D-08 within 128 cycles.
 Requested convergence on MAX density matrix=1.00D-06.
 Requested convergence on             energy=1.00D-06.
 No special actions if energy rises.
 SCF Done:  E(RB3LYP) =  -1586.89832801     A.U. after   17 cycles
            NFock= 17  Conv=0.73D-08     -V/T= 2.0476
 DoSCS=F DFT=T ScalE2(SS,OS)=  1.000000  1.000000
 Range of M.O.s used for correlation:     1   398
 NBasis=   398 NAE=   102 NBE=   102 NFC=     0 NFV=     0
 NROrb=    398 NOA=   102 NOB=   102 NVA=   296 NVB=   296
   1 Symmetry operations used in ECPInt.
 ECPInt:  NShTT=    9045 NPrTT=   59844 LenC2=    8230 LenP2D=   30354.
 LDataN:  DoStor=T MaxTD1= 5 Len=  102
 Number of processors reduced to  30 by ecpmxn.
 Symmetrizing basis deriv contribution to polar:
 IMax=3 JMax=2 DiffMx= 0.00D+00
 G2DrvN: will do    40 centers at a time, making    1 passes.
 Calling FoFCou, ICntrl=  3107 FMM=F I1Cent=   0 AccDes= 0.00D+00.
 End of G2Drv F.D. properties file   721 does not exist.
 End of G2Drv F.D. properties file   722 does not exist.
 End of G2Drv F.D. properties file   788 does not exist.
          IDoAtm=111111111111111111111111111111111111111
          Differentiating once with respect to nuclear coordinates.
 CalDSu exits because no D1Ps are significant.
          There are   120 degrees of freedom in the 1st order CPHF.  IDoFFX=6 NUNeed=     0.
    114 vectors produced by pass  0 Test12= 3.02D-14 1.00D-09 XBig12= 1.70D-01 1.23D-01.
 AX will form   114 AO Fock derivatives at one time.
    114 vectors produced by pass  1 Test12= 3.02D-14 1.00D-09 XBig12= 4.57D-02 7.22D-02.
    114 vectors produced by pass  2 Test12= 3.02D-14 1.00D-09 XBig12= 5.63D-04 5.01D-03.
    114 vectors produced by pass  3 Test12= 3.02D-14 1.00D-09 XBig12= 3.46D-06 2.50D-04.
    114 vectors produced by pass  4 Test12= 3.02D-14 1.00D-09 XBig12= 1.07D-08 1.11D-05.
    113 vectors produced by pass  5 Test12= 3.02D-14 1.00D-09 XBig12= 1.38D-11 3.45D-07.
     40 vectors produced by pass  6 Test12= 3.02D-14 1.00D-09 XBig12= 1.61D-14 1.07D-08.
 InvSVY:  IOpt=1 It=  1 EMax= 6.11D-16
 Solved reduced A of dimension   723 with   120 vectors.
 End of Minotr F.D. properties file   721 does not exist.
 End of Minotr F.D. properties file   722 does not exist.
 End of Minotr F.D. properties file   788 does not exist.

 **********************************************************************

            Population analysis using the SCF Density.

 **********************************************************************

 Orbital symmetries:
       Occupied  (A) (A) (A) (A) (A) (A) (A) (A) (A) (A) (A) (A)
                 (A) (A) (A) (A) (A) (A) (A) (A) (A) (A) (A) (A)
                 (A) (A) (A) (A) (A) (A) (A) (A) (A) (A) (A) (A)
                 (A) (A) (A) (A) (A) (A) (A) (A) (A) (A) (A) (A)
                 (A) (A) (A) (A) (A) (A) (A) (A) (A) (A) (A) (A)
                 (A) (A) (A) (A) (A) (A) (A) (A) (A) (A) (A) (A)
                 (A) (A) (A) (A) (A) (A) (A) (A) (A) (A) (A) (A)
                 (A) (A) (A) (A) (A) (A) (A) (A) (A) (A) (A) (A)
                 (A) (A) (A) (A) (A) (A)
       Virtual   (A) (A) (A) (A) (A) (A) (A) (A) (A) (A) (A) (A)
                 (A) (A) (A) (A) (A) (A) (A) (A) (A) (A) (A) (A)
                 (A) (A) (A) (A) (A) (A) (A) (A) (A) (A) (A) (A)
                 (A) (A) (A) (A) (A) (A) (A) (A) (A) (A) (A) (A)
                 (A) (A) (A) (A) (A) (A) (A) (A) (A) (A) (A) (A)
                 (A) (A) (A) (A) (A) (A) (A) (A) (A) (A) (A) (A)
                 (A) (A) (A) (A) (A) (A) (A) (A) (A) (A) (A) (A)
                 (A) (A) (A) (A) (A) (A) (A) (A) (A) (A) (A) (A)
                 (A) (A) (A) (A) (A) (A) (A) (A) (A) (A) (A) (A)
                 (A) (A) (A) (A) (A) (A) (A) (A) (A) (A) (A) (A)
                 (A) (A) (A) (A) (A) (A) (A) (A) (A) (A) (A) (A)
                 (A) (A) (A) (A) (A) (A) (A) (A) (A) (A) (A) (A)
                 (A) (A) (A) (A) (A) (A) (A) (A) (A) (A) (A) (A)
                 (A) (A) (A) (A) (A) (A) (A) (A) (A) (A) (A) (A)
                 (A) (A) (A) (A) (A) (A) (A) (A) (A) (A) (A) (A)
                 (A) (A) (A) (A) (A) (A) (A) (A) (A) (A) (A) (A)
                 (A) (A) (A) (A) (A) (A) (A) (A) (A) (A) (A) (A)
                 (A) (A) (A) (A) (A) (A) (A) (A) (A) (A) (A) (A)
                 (A) (A) (A) (A) (A) (A) (A) (A) (A) (A) (A) (A)
                 (A) (A) (A) (A) (A) (A) (A) (A) (A) (A) (A) (A)
                 (A) (A) (A) (A) (A) (A) (A) (A) (A) (A) (A) (A)
                 (A) (A) (A) (A) (A) (A) (A) (A) (A) (A) (A) (A)
                 (A) (A) (A) (A) (A) (A) (A) (A) (A) (A) (A) (A)
                 (A) (A) (A) (A) (A) (A) (A) (A) (A) (A) (A) (A)
                 (A) (A) (A) (A) (A) (A) (A) (A)
 The electronic state is 1-A.
 Alpha  occ. eigenvalues --  -24.72836 -24.72498 -24.71824 -24.70875 -24.70719
 Alpha  occ. eigenvalues --  -24.70279 -14.39116 -14.38564 -14.38510 -14.38194
 Alpha  occ. eigenvalues --  -14.37277 -14.36916 -10.44419 -10.39850 -10.22266
 Alpha  occ. eigenvalues --  -10.21771 -10.21666 -10.21584 -10.21229 -10.21070
 Alpha  occ. eigenvalues --  -10.20730 -10.18369 -10.17942 -10.17683  -6.76600
 Alpha  occ. eigenvalues --   -4.06601  -2.68759  -2.66131  -2.64649  -1.30523
 Alpha  occ. eigenvalues --   -1.28220  -1.22171  -1.20959  -1.19800  -1.19517
 Alpha  occ. eigenvalues --   -1.05803  -1.04298  -1.04020  -0.83210  -0.81502
 Alpha  occ. eigenvalues --   -0.81113  -0.79276  -0.77433  -0.77135  -0.73183
 Alpha  occ. eigenvalues --   -0.68344  -0.67333  -0.63216  -0.61512  -0.60444
 Alpha  occ. eigenvalues --   -0.60118  -0.58492  -0.58131  -0.58050  -0.57688
 Alpha  occ. eigenvalues --   -0.56717  -0.56220  -0.56155  -0.54821  -0.54460
 Alpha  occ. eigenvalues --   -0.53936  -0.53047  -0.47728  -0.47268  -0.46304
 Alpha  occ. eigenvalues --   -0.46061  -0.45918  -0.44699  -0.44461  -0.44257
 Alpha  occ. eigenvalues --   -0.43965  -0.43828  -0.43603  -0.43474  -0.42499
 Alpha  occ. eigenvalues --   -0.41895  -0.41337  -0.41044  -0.40895  -0.40212
 Alpha  occ. eigenvalues --   -0.40000  -0.39894  -0.39517  -0.39350  -0.39134
 Alpha  occ. eigenvalues --   -0.38505  -0.38192  -0.36949  -0.36172  -0.34975
 Alpha  occ. eigenvalues --   -0.34731  -0.33278  -0.32571  -0.29750  -0.28229
 Alpha  occ. eigenvalues --   -0.27251  -0.26436  -0.26015  -0.25550  -0.24977
 Alpha  occ. eigenvalues --   -0.24139  -0.23991
 Alpha virt. eigenvalues --   -0.08373  -0.05451  -0.00463   0.00232   0.02842
 Alpha virt. eigenvalues --    0.03361   0.04344   0.04544   0.05920   0.06414
 Alpha virt. eigenvalues --    0.07236   0.09616   0.11285   0.12336   0.12750
 Alpha virt. eigenvalues --    0.13005   0.13814   0.14545   0.15091   0.15524
 Alpha virt. eigenvalues --    0.15634   0.15987   0.16286   0.16841   0.17200
 Alpha virt. eigenvalues --    0.18050   0.19660   0.19983   0.20378   0.21294
 Alpha virt. eigenvalues --    0.21376   0.22462   0.23610   0.23920   0.24482
 Alpha virt. eigenvalues --    0.25319   0.25603   0.25799   0.26832   0.27920
 Alpha virt. eigenvalues --    0.28900   0.30612   0.31081   0.35248   0.36104
 Alpha virt. eigenvalues --    0.39498   0.40804   0.40992   0.41452   0.42409
 Alpha virt. eigenvalues --    0.43341   0.44066   0.47612   0.47938   0.48603
 Alpha virt. eigenvalues --    0.49768   0.51645   0.52776   0.54396   0.54957
 Alpha virt. eigenvalues --    0.55259   0.55675   0.56329   0.56865   0.57095
 Alpha virt. eigenvalues --    0.57383   0.58381   0.59573   0.59627   0.60458
 Alpha virt. eigenvalues --    0.61223   0.62225   0.62738   0.63219   0.64085
 Alpha virt. eigenvalues --    0.64401   0.65857   0.66647   0.66813   0.67345
 Alpha virt. eigenvalues --    0.68918   0.69853   0.73051   0.73293   0.73876
 Alpha virt. eigenvalues --    0.77727   0.78849   0.79408   0.79471   0.80314
 Alpha virt. eigenvalues --    0.81475   0.81597   0.81992   0.82962   0.83407
 Alpha virt. eigenvalues --    0.83971   0.84341   0.85100   0.85816   0.87124
 Alpha virt. eigenvalues --    0.87693   0.88792   0.89804   0.92113   0.92632
 Alpha virt. eigenvalues --    0.93366   0.94217   0.94640   0.95333   0.96039
 Alpha virt. eigenvalues --    0.96942   0.97311   1.00017   1.01013   1.01821
 Alpha virt. eigenvalues --    1.01892   1.03463   1.03674   1.04917   1.05598
 Alpha virt. eigenvalues --    1.06490   1.08268   1.08409   1.09344   1.11015
 Alpha virt. eigenvalues --    1.13819   1.13944   1.14448   1.16451   1.17942
 Alpha virt. eigenvalues --    1.19157   1.19675   1.20697   1.21526   1.23614
 Alpha virt. eigenvalues --    1.24542   1.24892   1.26295   1.26653   1.27168
 Alpha virt. eigenvalues --    1.28173   1.30059   1.30946   1.31718   1.33234
 Alpha virt. eigenvalues --    1.33597   1.34797   1.35964   1.36206   1.37058
 Alpha virt. eigenvalues --    1.37313   1.38066   1.39329   1.39798   1.39995
 Alpha virt. eigenvalues --    1.40617   1.41225   1.41502   1.43017   1.43872
 Alpha virt. eigenvalues --    1.44156   1.44731   1.44853   1.45692   1.46411
 Alpha virt. eigenvalues --    1.47090   1.49036   1.49561   1.50006   1.51673
 Alpha virt. eigenvalues --    1.52869   1.54223   1.54711   1.55946   1.57475
 Alpha virt. eigenvalues --    1.58321   1.59820   1.60785   1.63388   1.65121
 Alpha virt. eigenvalues --    1.65633   1.69078   1.70620   1.72449   1.72660
 Alpha virt. eigenvalues --    1.73643   1.74187   1.75671   1.77894   1.78790
 Alpha virt. eigenvalues --    1.81820   1.82546   1.82916   1.83652   1.84744
 Alpha virt. eigenvalues --    1.85215   1.85799   1.86617   1.86978   1.87567
 Alpha virt. eigenvalues --    1.88255   1.89370   1.89856   1.90218   1.93375
 Alpha virt. eigenvalues --    1.94522   1.95840   1.95962   1.99016   2.00371
 Alpha virt. eigenvalues --    2.00900   2.01648   2.01956   2.04268   2.04396
 Alpha virt. eigenvalues --    2.05994   2.06327   2.07221   2.08648   2.09067
 Alpha virt. eigenvalues --    2.10155   2.11611   2.13884   2.14113   2.14778
 Alpha virt. eigenvalues --    2.16707   2.18197   2.18751   2.19348   2.20206
 Alpha virt. eigenvalues --    2.20718   2.21100   2.21773   2.22860   2.23407
 Alpha virt. eigenvalues --    2.23612   2.24452   2.24925   2.26502   2.27274
 Alpha virt. eigenvalues --    2.27735   2.28798   2.29797   2.30695   2.30960
 Alpha virt. eigenvalues --    2.31977   2.32613   2.33202   2.33584   2.35564
 Alpha virt. eigenvalues --    2.36843   2.38030   2.39536   2.39868   2.41660
 Alpha virt. eigenvalues --    2.50381   2.51797   2.53436   2.54372   2.57389
 Alpha virt. eigenvalues --    2.58218   2.58636   2.65734   2.66508   2.68026
 Alpha virt. eigenvalues --    2.69573   2.71615   2.72806   2.74758   2.75613
 Alpha virt. eigenvalues --    2.76051   2.76581   2.77524   2.78582   2.80402
 Alpha virt. eigenvalues --    2.82321   2.83365   2.88594   2.90360   2.95972
 Alpha virt. eigenvalues --    2.98312   3.00530   3.00933   3.03697   3.04537
 Alpha virt. eigenvalues --    3.05933   3.07930   3.08628   3.09402   3.10562
 Alpha virt. eigenvalues --    3.12510   3.15647   3.19266   3.20498   3.27592
 Alpha virt. eigenvalues --   10.59283
          Condensed to atoms (all electrons):
               1          2          3          4          5          6
     1  Ni  17.446696   0.103091  -0.016910   0.009777   0.001993  -0.021899
     2  N    0.103091   6.646865   0.335406  -0.109720  -0.040088   0.448306
     3  N   -0.016910   0.335406   6.505664   0.424650  -0.035979  -0.107330
     4  C    0.009777  -0.109720   0.424650   4.834655   0.523386  -0.043967
     5  C    0.001993  -0.040088  -0.035979   0.523386   4.959695   0.533219
     6  C   -0.021899   0.448306  -0.107330  -0.043967   0.533219   4.854938
     7  N    0.148995  -0.011353  -0.002068   0.000058   0.000034   0.000175
     8  N   -0.030499  -0.000652  -0.027937   0.001204  -0.000280   0.000137
     9  C    0.013877  -0.000049   0.001162   0.000009  -0.000001   0.000004
    10  C    0.001211   0.000011  -0.000263  -0.000003   0.000001   0.000002
    11  C   -0.028955   0.000283   0.000106  -0.000006   0.000003  -0.000018
    12  N    0.145163  -0.012458  -0.001835   0.000359  -0.000072  -0.000079
    13  N   -0.035318  -0.001529  -0.030254   0.001221  -0.000348   0.000296
    14  C    0.012134   0.000044   0.001501   0.000053  -0.000009  -0.000001
    15  C    0.001265  -0.000018  -0.000357  -0.000010   0.000003   0.000004
    16  C   -0.029148   0.000417   0.000178  -0.000001   0.000005  -0.000039
    17  B   -0.105473  -0.042720   0.265553  -0.031061   0.003332   0.007882
    18  H    0.000257   0.005499   0.003723  -0.034816   0.369253  -0.037665
    19  H    0.000438   0.000000   0.000002   0.000000  -0.000000   0.000000
    20  H    0.000973   0.000000   0.000002  -0.000000  -0.000000   0.000000
    21  H    0.000832   0.001993  -0.026011  -0.000345   0.000328  -0.000140
    22  C    0.208632  -0.010730   0.000280  -0.000006   0.000002   0.000022
    23  C    0.203005  -0.000342   0.000032   0.000015   0.000001  -0.001116
    24  F   -0.004318   0.000050  -0.000000  -0.000000   0.000000   0.000000
    25  F    0.019207   0.000049  -0.000000   0.000000   0.000000   0.000000
    26  F    0.003659   0.000039  -0.000000  -0.000000   0.000000  -0.000000
    27  F   -0.022199  -0.000919   0.000005  -0.000009   0.000240  -0.003165
    28  F   -0.021740   0.000004  -0.000000  -0.000000   0.000000   0.000002
    29  F    0.014003  -0.001657   0.000001  -0.000004   0.000004  -0.000015
    30  C    0.208576  -0.004145  -0.000107   0.000025   0.000032  -0.004089
    31  H   -0.038681  -0.000210   0.000014  -0.000005   0.000009   0.000103
    32  H   -0.052329   0.000658  -0.000001  -0.000000   0.000002   0.000061
    33  H   -0.039931  -0.002629   0.000126  -0.000129   0.000159   0.006241
    34  H   -0.004574  -0.040796   0.005089   0.003897  -0.034475   0.355259
    35  H   -0.000154   0.005837  -0.043680   0.371871  -0.039294   0.002850
    36  H    0.000509   0.000005   0.000066  -0.000006   0.000000  -0.000000
    37  H   -0.001852   0.000027   0.000000  -0.000000  -0.000000  -0.000004
    38  H    0.000008   0.000002   0.000055  -0.000001   0.000000  -0.000000
    39  H   -0.003592   0.000021  -0.000001  -0.000000   0.000000  -0.000002
               7          8          9         10         11         12
     1  Ni   0.148995  -0.030499   0.013877   0.001211  -0.028955   0.145163
     2  N   -0.011353  -0.000652  -0.000049   0.000011   0.000283  -0.012458
     3  N   -0.002068  -0.027937   0.001162  -0.000263   0.000106  -0.001835
     4  C    0.000058   0.001204   0.000009  -0.000003  -0.000006   0.000359
     5  C    0.000034  -0.000280  -0.000001   0.000001   0.000003  -0.000072
     6  C    0.000175   0.000137   0.000004   0.000002  -0.000018  -0.000079
     7  N    6.587021   0.347953  -0.107773  -0.041478   0.448166  -0.019542
     8  N    0.347953   6.486407   0.414587  -0.037766  -0.104039   0.002001
     9  C   -0.107773   0.414587   4.855364   0.531596  -0.053503  -0.000108
    10  C   -0.041478  -0.037766   0.531596   4.951452   0.545829   0.000017
    11  C    0.448166  -0.104039  -0.053503   0.545829   4.819281   0.000044
    12  N   -0.019542   0.002001  -0.000108   0.000017   0.000044   6.583586
    13  N    0.000403  -0.028984   0.001214  -0.000277   0.000210   0.346059
    14  C   -0.000215   0.001563   0.000023  -0.000001  -0.000013  -0.110675
    15  C    0.000050  -0.000271   0.000001   0.000000   0.000003  -0.040590
    16  C    0.000206   0.000094  -0.000012   0.000002  -0.000005   0.452979
    17  B   -0.050709   0.281341  -0.037038   0.004129   0.009126  -0.053657
    18  H    0.000000   0.000001   0.000000  -0.000000   0.000000   0.000000
    19  H    0.005121   0.003887  -0.034959   0.367378  -0.036160   0.000000
    20  H    0.000000   0.000001   0.000000  -0.000000   0.000000   0.005227
    21  H    0.002032  -0.028863  -0.000196   0.000255  -0.000136   0.001958
    22  C   -0.002861   0.000414  -0.000005   0.000026  -0.000690   0.006744
    23  C   -0.002966   0.000047  -0.000001   0.000000   0.000030   0.003363
    24  F    0.000022  -0.000002  -0.000000  -0.000000   0.000031  -0.003725
    25  F   -0.008107  -0.000155   0.000099  -0.000275   0.003760  -0.006420
    26  F   -0.001342   0.000001  -0.000004   0.000038   0.000239  -0.000024
    27  F    0.000005  -0.000000  -0.000000  -0.000000  -0.000000   0.000002
    28  F    0.000007  -0.000000  -0.000000   0.000000  -0.000000  -0.000025
    29  F    0.000032  -0.000000   0.000000   0.000000   0.000000  -0.006551
    30  C   -0.002934  -0.000004   0.000011   0.000030  -0.001663  -0.004365
    31  H   -0.011078   0.000263  -0.000140  -0.000035   0.005075   0.000352
    32  H    0.000383  -0.000003   0.000000   0.000000   0.000003   0.000008
    33  H   -0.000122  -0.000000  -0.000002   0.000001  -0.000002   0.000166
    34  H    0.000018   0.000000   0.000000  -0.000000  -0.000002   0.000003
    35  H    0.000002   0.000063  -0.000003   0.000000  -0.000001   0.000007
    36  H    0.000004   0.000041  -0.000003   0.000000  -0.000000   0.005510
    37  H    0.000002   0.000001  -0.000000  -0.000000  -0.000001  -0.037695
    38  H    0.005701  -0.042929   0.370016  -0.039271   0.002919   0.000006
    39  H   -0.040957   0.005391   0.003699  -0.037544   0.365032   0.000007
              13         14         15         16         17         18
     1  Ni  -0.035318   0.012134   0.001265  -0.029148  -0.105473   0.000257
     2  N   -0.001529   0.000044  -0.000018   0.000417  -0.042720   0.005499
     3  N   -0.030254   0.001501  -0.000357   0.000178   0.265553   0.003723
     4  C    0.001221   0.000053  -0.000010  -0.000001  -0.031061  -0.034816
     5  C   -0.000348  -0.000009   0.000003   0.000005   0.003332   0.369253
     6  C    0.000296  -0.000001   0.000004  -0.000039   0.007882  -0.037665
     7  N    0.000403  -0.000215   0.000050   0.000206  -0.050709   0.000000
     8  N   -0.028984   0.001563  -0.000271   0.000094   0.281341   0.000001
     9  C    0.001214   0.000023   0.000001  -0.000012  -0.037038   0.000000
    10  C   -0.000277  -0.000001   0.000000   0.000002   0.004129  -0.000000
    11  C    0.000210  -0.000013   0.000003  -0.000005   0.009126   0.000000
    12  N    0.346059  -0.110675  -0.040590   0.452979  -0.053657   0.000000
    13  N    6.490828   0.412544  -0.033969  -0.106335   0.292137   0.000002
    14  C    0.412544   4.861119   0.520788  -0.044011  -0.037299   0.000000
    15  C   -0.033969   0.520788   4.965485   0.532641   0.004502  -0.000000
    16  C   -0.106335  -0.044011   0.532641   4.820443   0.009412   0.000000
    17  B    0.292137  -0.037299   0.004502   0.009412   3.586304  -0.000117
    18  H    0.000002   0.000000  -0.000000   0.000000  -0.000117   0.551430
    19  H    0.000001   0.000000  -0.000000   0.000000  -0.000104  -0.000000
    20  H    0.003966  -0.035940   0.369238  -0.037508  -0.000099  -0.000000
    21  H   -0.027347  -0.000595   0.000316  -0.000135   0.378733  -0.000005
    22  C    0.000030   0.000110  -0.000140  -0.002100  -0.000061   0.000000
    23  C   -0.000025   0.000016   0.000005  -0.000613  -0.000122  -0.000000
    24  F    0.000037  -0.000020   0.000201   0.002094   0.000053  -0.000000
    25  F   -0.000216   0.000060  -0.000146   0.001196  -0.000945  -0.000000
    26  F   -0.000001  -0.000000   0.000000   0.000041   0.000033  -0.000000
    27  F   -0.000000  -0.000000   0.000000   0.000005   0.000000  -0.000000
    28  F   -0.000000  -0.000000   0.000000   0.000018  -0.000002  -0.000000
    29  F    0.000015  -0.000018   0.000097   0.002117  -0.000023   0.000000
    30  C    0.000085  -0.000003   0.000001   0.000051   0.000380  -0.000001
    31  H   -0.000021   0.000001   0.000000  -0.000003  -0.000013  -0.000000
    32  H   -0.000000  -0.000000   0.000000   0.000001  -0.000013  -0.000000
    33  H   -0.000009   0.000000  -0.000000  -0.000001  -0.000060   0.000007
    34  H    0.000003  -0.000000  -0.000000  -0.000004  -0.000086  -0.001399
    35  H    0.000078  -0.000000   0.000000  -0.000001  -0.001270  -0.000824
    36  H   -0.043083   0.371059  -0.038854   0.002765  -0.001336  -0.000000
    37  H    0.005134   0.003738  -0.036217   0.364309  -0.000013  -0.000000
    38  H    0.000042   0.000005  -0.000000  -0.000000  -0.001094  -0.000000
    39  H    0.000002  -0.000000  -0.000000  -0.000001  -0.000017  -0.000000
              19         20         21         22         23         24
     1  Ni   0.000438   0.000973   0.000832   0.208632   0.203005  -0.004318
     2  N    0.000000   0.000000   0.001993  -0.010730  -0.000342   0.000050
     3  N    0.000002   0.000002  -0.026011   0.000280   0.000032  -0.000000
     4  C    0.000000  -0.000000  -0.000345  -0.000006   0.000015  -0.000000
     5  C   -0.000000  -0.000000   0.000328   0.000002   0.000001   0.000000
     6  C    0.000000   0.000000  -0.000140   0.000022  -0.001116   0.000000
     7  N    0.005121   0.000000   0.002032  -0.002861  -0.002966   0.000022
     8  N    0.003887   0.000001  -0.028863   0.000414   0.000047  -0.000002
     9  C   -0.034959   0.000000  -0.000196  -0.000005  -0.000001  -0.000000
    10  C    0.367378  -0.000000   0.000255   0.000026   0.000000  -0.000000
    11  C   -0.036160   0.000000  -0.000136  -0.000690   0.000030   0.000031
    12  N    0.000000   0.005227   0.001958   0.006744   0.003363  -0.003725
    13  N    0.000001   0.003966  -0.027347   0.000030  -0.000025   0.000037
    14  C    0.000000  -0.035940  -0.000595   0.000110   0.000016  -0.000020
    15  C   -0.000000   0.369238   0.000316  -0.000140   0.000005   0.000201
    16  C    0.000000  -0.037508  -0.000135  -0.002100  -0.000613   0.002094
    17  B   -0.000104  -0.000099   0.378733  -0.000061  -0.000122   0.000053
    18  H   -0.000000  -0.000000  -0.000005   0.000000  -0.000000  -0.000000
    19  H    0.554407  -0.000000  -0.000004  -0.000001   0.000000  -0.000000
    20  H   -0.000000   0.554399  -0.000004  -0.000004  -0.000000   0.000000
    21  H   -0.000004  -0.000004   0.758808   0.000003   0.000000   0.000000
    22  C   -0.000001  -0.000004   0.000003   4.354561  -0.009102   0.199907
    23  C    0.000000  -0.000000   0.000000  -0.009102   4.198989   0.003819
    24  F   -0.000000   0.000000   0.000000   0.199907   0.003819   9.150307
    25  F   -0.000002  -0.000001  -0.000001   0.204503   0.000075  -0.033575
    26  F   -0.000000  -0.000000   0.000000   0.199898  -0.001758  -0.032101
    27  F   -0.000000   0.000000  -0.000000   0.000041   0.222809   0.000002
    28  F   -0.000000   0.000000  -0.000000   0.005587   0.249059  -0.001485
    29  F   -0.000000   0.000000  -0.000000  -0.001228   0.190694  -0.000229
    30  C    0.000000   0.000000   0.000001  -0.017330   0.071044  -0.000396
    31  H    0.000006  -0.000000   0.000000  -0.003287  -0.001962   0.000121
    32  H   -0.000000   0.000000  -0.000000   0.000558  -0.014979   0.000141
    33  H   -0.000000  -0.000000  -0.000000   0.000735  -0.017857  -0.000006
    34  H   -0.000000   0.000000   0.000004  -0.000014  -0.000324  -0.000000
    35  H   -0.000000  -0.000000   0.003065   0.000000   0.000000  -0.000000
    36  H   -0.000000  -0.000876   0.003099   0.000001  -0.000000  -0.000000
    37  H    0.000000  -0.001249   0.000004  -0.000216   0.000190   0.008659
    38  H   -0.000713  -0.000000   0.003008   0.000001   0.000000  -0.000000
    39  H   -0.001034   0.000000   0.000004   0.000780  -0.000008   0.000012
              25         26         27         28         29         30
     1  Ni   0.019207   0.003659  -0.022199  -0.021740   0.014003   0.208576
     2  N    0.000049   0.000039  -0.000919   0.000004  -0.001657  -0.004145
     3  N   -0.000000  -0.000000   0.000005  -0.000000   0.000001  -0.000107
     4  C    0.000000  -0.000000  -0.000009  -0.000000  -0.000004   0.000025
     5  C    0.000000   0.000000   0.000240   0.000000   0.000004   0.000032
     6  C    0.000000  -0.000000  -0.003165   0.000002  -0.000015  -0.004089
     7  N   -0.008107  -0.001342   0.000005   0.000007   0.000032  -0.002934
     8  N   -0.000155   0.000001  -0.000000  -0.000000  -0.000000  -0.000004
     9  C    0.000099  -0.000004  -0.000000  -0.000000   0.000000   0.000011
    10  C   -0.000275   0.000038  -0.000000   0.000000   0.000000   0.000030
    11  C    0.003760   0.000239  -0.000000  -0.000000   0.000000  -0.001663
    12  N   -0.006420  -0.000024   0.000002  -0.000025  -0.006551  -0.004365
    13  N   -0.000216  -0.000001  -0.000000  -0.000000   0.000015   0.000085
    14  C    0.000060  -0.000000  -0.000000  -0.000000  -0.000018  -0.000003
    15  C   -0.000146   0.000000   0.000000   0.000000   0.000097   0.000001
    16  C    0.001196   0.000041   0.000005   0.000018   0.002117   0.000051
    17  B   -0.000945   0.000033   0.000000  -0.000002  -0.000023   0.000380
    18  H   -0.000000  -0.000000  -0.000000  -0.000000   0.000000  -0.000001
    19  H   -0.000002  -0.000000  -0.000000  -0.000000  -0.000000   0.000000
    20  H   -0.000001  -0.000000   0.000000   0.000000   0.000000   0.000000
    21  H   -0.000001   0.000000  -0.000000  -0.000000  -0.000000   0.000001
    22  C    0.204503   0.199898   0.000041   0.005587  -0.001228  -0.017330
    23  C    0.000075  -0.001758   0.222809   0.249059   0.190694   0.071044
    24  F   -0.033575  -0.032101   0.000002  -0.001485  -0.000229  -0.000396
[...]
 0.00004036,0.00005826,0.00012442,0.00007451,0.00008715,0.00008480,-0.0
 0010738,-0.00009535,0.00009126,0.00002453,0.00001411,0.00002575,0.0000
 9421,0.00009051,-0.00001295,0.00003692,-0.00010661,0.00022782,0.000157
 77,-0.00011282,0.00002883,-0.00001529,0.00018318,0.00011705,0.00002535
 ,0.00000227,0.00009472,0.00003366,-0.00013982,-0.00161436,-0.00003912,
 -0.00064668,-0.00078339,-0.00009669,-0.00062302,0.00000442,0.00000142,
 0.00000659,0.00000972,0.00000047,-0.00000466,0.00051214,0.00014915,0.0
 0004320,0.00009796,0.00023973,-0.00014436,0.00015724,-0.00022971,0.000
 10212,-0.00009808,-0.00008670,0.00011660,0.00009534,-0.00023544,0.0000
 7272,-0.00010727,-0.00016235,-0.00007759,0.00004459,0.00016103,-0.0000
 5463,-0.00001023,0.00004291,-0.00000881,-0.00005428,0.00001001,-0.0000
 0351,0.00002599,0.00000955,0.00005134,-0.00001039,0.00000748,0.0000045
 6,0.00000072,-0.00000666,-0.00001531,-0.00001654,-0.00001985,-0.000037
 47,0.00056732,0.00112568,0.00005122,0.06064546,0.06354119,-0.00016401,
 0.00017647,0.00117062,-0.00026730,0.00234719,0.00495113,0.00564892,-0.
 00069107,-0.00192667,-0.05569184,-0.00299013,-0.03958743,-0.00475231,-
 0.00380003,0.00094733,-0.00234064,0.00203819,0.00430068,0.00009171,0.0
 0000277,-0.00003116,-0.00007722,-0.00037903,-0.00007273,-0.00005530,0.
 00001164,0.00002973,-0.00001712,-0.00003359,-0.00007159,0.00001137,-0.
 00004351,-0.00005629,-0.00007383,-0.00002221,-0.00005131,0.00009800,0.
 00028540,-0.00010633,0.00002309,0.00000276,0.00000977,0.00002890,-0.00
 001939,-0.00006264,-0.00002355,-0.00000521,-0.00004187,0.00070186,-0.0
 0027598,-0.00111589,0.00063410,-0.00036377,-0.00214808,-0.00000235,-0.
 00000900,-0.00000345,0.00000146,0.00000835,-0.00000370,-0.00002798,-0.
 00003462,-0.00015891,0.00005521,-0.00005214,-0.00015455,-0.00000347,0.
 00019914,0.00019755,0.00004475,0.00003707,-0.00004086,-0.00000852,0.00
 000150,-0.00000039,-0.00003753,-0.00003980,-0.00002334,-0.00002418,-0.
 00009510,-0.00002348,-0.00000523,-0.00003868,-0.00003008,-0.00004818,-
 0.00008604,-0.00010122,0.00012696,-0.00002030,0.00012101,-0.00001476,-
 0.00000981,-0.00002147,0.00001761,0.00004408,-0.00000856,0.00000457,0.
 00007757,-0.00005669,-0.00027992,-0.00024086,0.00072731,0.05644163,0.0
 0400222,0.03343019,-0.00006526,-0.00017586,0.00031426,0.00010155,-0.00
 000166,0.00006704,0.00004588,0.00019217,-0.00011375,-0.00000474,0.0000
 3495,-0.00002375,0.00000525,0.00003915,0.00001419,0.00003465,-0.000016
 90,0.00000231,0.00004789,-0.00001197,-0.00003242,0.00017067,-0.0000450
 0,-0.00004445,0.00003541,-0.00002811,-0.00003486,0.00002041,-0.0000181
 4,-0.00000111,0.00004018,0.00004131,0.00001798,0.00115849,-0.00063399,
 -0.00049637,-0.00552258,-0.00031807,0.00005357,-0.34527814,-0.03975302
 ,-0.06155601,-0.00747731,0.00022609,-0.00824987,-0.00255557,-0.0014845
 7,0.00120369,-0.00066264,-0.00013143,0.00075296,0.00000056,0.00000362,
 0.00000008,0.00000472,-0.00000419,0.00000412,0.00008120,0.00031502,0.0
 0043953,0.00041300,0.00005476,0.00033229,-0.00005430,0.00009523,0.0002
 4541,0.00009134,-0.00010049,0.00008288,0.00000781,-0.00004752,-0.00015
 967,0.00002657,-0.00004765,-0.00003628,-0.00001379,-0.00002728,-0.0000
 6129,-0.00001815,0.00005039,-0.00002519,-0.00001192,0.00000900,-0.0000
 1138,-0.00003878,0.00004059,-0.00002538,0.00001356,0.00002212,0.000023
 42,-0.00000081,-0.00000547,-0.00000725,0.00000871,-0.00000121,-0.00001
 180,-0.00000593,-0.00000433,-0.00002570,-0.00000029,-0.00000977,0.0000
 0238,0.00002206,0.00001206,-0.00002622,0.35951986,0.00026592,0.0009787
 3,-0.00005362,-0.00005685,-0.00011441,-0.00001902,0.00008066,-0.000097
 50,0.00027873,0.00002276,0.00000078,0.00000554,0.00002108,-0.00006919,
 -0.00001886,-0.00004064,-0.00003070,-0.00001488,0.00010941,0.00000277,
 0.00006038,-0.00017840,-0.00006516,-0.00040723,-0.00009279,0.00005920,
 0.00003323,-0.00004747,-0.00007410,-0.00003901,-0.00001141,-0.00007291
 ,-0.00007080,-0.00015554,0.00476056,0.00240220,0.00538299,-0.00232349,
 -0.00047456,-0.04176856,-0.03452733,-0.00181093,-0.00390447,0.00106477
 ,-0.00346230,-0.00200522,0.00464659,0.00158948,0.00062549,-0.00111792,
 -0.00017134,-0.00000118,-0.00000386,0.00000947,-0.00000642,-0.00000657
 ,-0.00000818,0.00053909,-0.00224179,-0.00035810,-0.00004970,-0.0001626
 9,-0.00007662,-0.00017959,0.00009920,-0.00010190,-0.00008139,0.0001627
 2,0.00012937,0.00006319,-0.00003435,0.00005024,0.00009622,-0.00003921,
 0.00011220,0.00002707,-0.00000864,0.00001159,-0.00000244,-0.00000395,-
 0.00003100,-0.00000671,-0.00004056,-0.00001918,-0.00005923,-0.00004490
 ,-0.00022040,-0.00007693,-0.00002522,0.00003476,0.00000076,-0.00000207
 ,-0.00000416,0.00000067,-0.00000424,-0.00001222,0.00000992,-0.00000019
 ,0.00002291,-0.00000040,-0.00000194,0.00000388,-0.00002819,-0.00001534
 ,0.00004867,0.04173251,0.02856758,-0.00029916,-0.00005436,0.00079676,-
 0.00002581,-0.00007670,0.00006609,0.00021237,-0.00011187,0.00017273,0.
 00003083,0.00017718,-0.00001780,0.00011294,0.00000309,0.00002957,0.000
 09367,-0.00013162,0.00004077,0.00007034,0.00004049,-0.00004837,0.00009
 757,0.00008297,0.00003344,0.00008626,-0.00012813,-0.00008014,0.0000997
 4,-0.00000769,0.00003890,0.00005044,0.00011424,0.00009581,-0.00224576,
 0.00169016,-0.00611330,-0.03258267,-0.00534785,-0.00229283,-0.05135671
 ,-0.00065780,-0.06948370,0.01503022,0.00032227,0.01232418,0.00391149,0
 .00225426,-0.00350759,-0.00159875,-0.00055713,-0.00006890,0.00001030,-
 0.00000444,0.00000029,0.00000781,0.00000345,0.00000387,-0.00083463,-0.
 00056413,-0.00010460,0.00051739,0.00002638,0.00017035,0.00011634,0.000
 38275,0.00004216,0.00020962,-0.00014816,-0.00005960,-0.00008101,-0.000
 09500,0.00016245,0.00004741,-0.00014408,0.00002206,-0.00001648,-0.0000
 5752,-0.00000324,-0.00002954,0.00007639,-0.00000400,-0.00003976,-0.000
 00968,0.00001175,-0.00012862,0.00010407,0.00004071,-0.00006652,0.00009
 617,-0.00001578,0.00001044,-0.00001829,-0.00000062,0.00001791,-0.00000
 201,-0.00004476,-0.00001402,-0.00000665,-0.00006427,0.00000174,-0.0000
 2519,0.00000473,0.00001439,0.00004868,-0.00001575,0.06798755,0.0027628
 6,0.06677708,-0.00006268,0.00016300,-0.00026491,-0.00001482,-0.0000080
 4,-0.00004975,-0.00000961,-0.00003363,0.00000122,0.00000011,0.00001564
 ,0.00000649,0.00000887,-0.00000413,0.00000025,0.00000952,-0.00001237,-
 0.00000102,-0.00003974,0.00005313,0.00005753,0.00007029,0.00003147,-0.
 00003003,-0.00001391,0.00000134,0.00000158,-0.00001969,0.00000976,0.00
 000299,-0.00000098,-0.00001839,-0.00000799,-0.00439254,-0.00020340,0.0
 0184109,0.00240338,-0.00088723,-0.00005467,-0.00231343,-0.00080380,-0.
 00202032,-0.00773070,-0.00280975,0.00728042,-0.34552270,-0.06159288,0.
 05276357,-0.00012958,-0.00021047,-0.00021877,0.00000036,-0.00000102,0.
 00000114,-0.00000304,0.00000139,0.00000019,0.00004562,0.00041085,-0.00
 027627,0.00000788,-0.00000525,0.00014198,0.00049853,-0.00018671,0.0003
 3064,0.00014709,0.00015567,0.00002892,-0.00181529,-0.00123944,-0.00218
 195,-0.00022089,0.00021607,-0.00016940,-0.00008327,0.00006037,-0.00004
 825,-0.00001103,-0.00003610,-0.00001474,-0.00010524,-0.00006361,0.0000
 4501,-0.00018247,0.00011683,-0.00024916,-0.00000207,-0.00002232,-0.000
 05075,-0.00000952,-0.00000476,-0.00000259,-0.00000501,-0.00000371,0.00
 000657,0.00000605,0.00000293,0.00002543,0.00000216,0.00000322,0.000002
 21,0.00000102,0.00000540,0.00000050,-0.00015414,-0.00024829,0.00053294
 ,0.35963821,-0.00013245,-0.00051928,0.00032284,-0.00005652,-0.00015779
 ,0.00007952,0.00029450,0.00010778,-0.00008452,-0.00001933,-0.00002594,
 -0.00001916,-0.00004752,-0.00004598,0.00000143,-0.00001873,0.00002736,
 0.00000353,0.00002887,-0.00014933,-0.00021316,-0.00017948,-0.00000651,
 0.00026841,0.00008399,-0.00006932,-0.00001770,0.00007917,0.00000280,0.
 00000817,0.00000409,0.00006413,0.00006422,-0.00602383,-0.00537654,-0.0
 0050219,-0.00143552,0.00569229,0.00206647,-0.00031048,0.00443130,0.001
 79062,0.00215400,0.00168399,-0.00093450,-0.06085023,-0.04377879,0.0161
 4138,-0.00022063,0.00150344,-0.00002390,-0.00000667,-0.00000462,0.0000
 0378,0.00000923,0.00000452,-0.00000304,0.00011302,-0.00187633,-0.00042
 576,0.00002704,-0.00016193,-0.00005068,0.00127388,0.00074246,-0.001837
 26,0.00002166,0.00083991,0.00144517,-0.00164275,-0.00100524,0.00041213
 ,-0.00014232,-0.00035542,0.00037964,-0.00011673,-0.00010704,0.00045222
 ,-0.00004177,0.00003135,-0.00031765,-0.00007896,-0.00024135,-0.0001945
 3,0.00010766,-0.00045466,-0.00148114,-0.00003575,0.00006827,0.00013531
 ,0.00002307,0.00002145,-0.00001653,-0.00000173,0.00001391,-0.00001641,
 -0.00000755,-0.00000779,-0.00001819,-0.00000121,-0.00000787,0.00002809
 ,-0.00000101,-0.00000205,0.00000160,-0.00000744,0.00075328,-0.00003399
 ,0.06715371,0.03836507,0.00064754,0.00021068,0.00007268,0.00005163,-0.
 00022919,0.00011067,0.00002285,0.00006794,-0.00009207,-0.00009257,-0.0
 0017802,-0.00000099,-0.00012927,-0.00000878,-0.00000910,-0.00007841,0.
 00015198,-0.00004875,0.00000674,0.00002915,0.00004546,-0.00002530,-0.0
 0005443,-0.00008834,-0.00011905,0.00009227,0.00005150,-0.00008278,-0.0
 0005578,-0.00003303,0.00004308,-0.00010047,-0.00008676,0.03250990,0.00
 480935,-0.00165216,0.00310761,0.00301676,-0.00666819,-0.00429077,0.000
 99164,-0.00392422,-0.01555029,-0.00455254,0.01117734,0.04086206,0.0139
 7325,-0.06561646,0.00080819,-0.00002511,0.00166356,-0.00001655,-0.0000
 0391,0.00000079,-0.00000620,0.00000069,-0.00000225,0.00089410,-0.00020
 708,-0.00003369,0.00029575,0.00015036,-0.00040554,0.00223374,-0.000007
 87,-0.00289049,-0.00011384,0.00024286,-0.00076182,-0.00227884,-0.00073
 622,0.00126857,-0.00055133,0.00008449,0.00020477,-0.00010460,0.0000677
 8,0.00075570,0.00011779,-0.00026831,0.00018710,0.00001299,-0.00006396,
 0.00011148,-0.00010043,0.00006391,0.00055949,-0.00005509,0.00006502,-0
 .00012802,0.00002068,0.00000747,0.00001378,-0.00000914,-0.00000373,0.0
 0001170,0.00001222,-0.00001227,0.00003915,0.00000995,0.00002999,-0.000
 00989,-0.00001072,-0.00002498,-0.00000146,-0.00059984,-0.00014161,0.00
 112534,-0.05743571,-0.01738423,0.06508992,0.00019094,-0.00026481,-0.00
 052690,0.00007705,-0.00006302,0.00002912,0.00017233,0.00010167,0.00002
 144,-0.00000039,0.00010153,-0.00001428,0.00005930,0.00001695,-0.000002
 76,0.00005705,-0.00006514,0.00003595,-0.00140198,0.00228498,0.00128714
 ,-0.01743358,-0.00517287,-0.00654960,-0.33455504,-0.03470284,-0.072681
 02,-0.00090191,0.00155309,0.00115160,-0.00077097,0.00062446,-0.0002038
 0,0.00003228,0.00003466,0.00011412,0.00008319,0.00004879,0.00015120,-0
 .00000025,-0.00001661,0.00011816,0.00005583,-0.00002099,0.00004692,0.0
 0010041,0.00004627,-0.00005284,-0.00085640,-0.00091063,-0.00076375,0.0
 0000429,-0.00000013,-0.00000181,-0.00014185,-0.00047599,-0.00013251,0.
 00000836,-0.00000411,0.00000322,0.00066781,-0.00004354,0.00004829,0.00
 006796,0.00007433,-0.00023982,0.00016970,-0.00011133,-0.00003830,-0.00
 002122,-0.00000595,0.00005744,0.00001475,-0.00004452,0.00005618,0.0000
 0481,0.00000034,0.00006260,-0.00005203,0.00007862,0.00000389,-0.000080
 52,-0.00000047,0.00002474,-0.00005572,0.00008859,0.00019088,0.00005202
 ,-0.00019084,-0.00018249,-0.00007962,0.00010516,-0.00001115,-0.0000328
 5,0.00005523,0.00002923,-0.00001225,0.00000808,0.00000287,0.00000128,-
 0.00002147,0.00000351,0.00001245,0.00003776,0.00001084,0.00001671,0.00
 001990,0.00004748,0.00000159,0.00000311,-0.00001579,0.35446661,0.00010
 392,0.00055258,0.00039084,-0.00003716,0.00002712,0.00001273,0.00001443
 ,-0.00002671,-0.00008063,0.00001249,-0.00007307,0.00002272,-0.00005349
 ,-0.00002966,0.00001111,-0.00004776,0.00005112,-0.00001212,0.00395077,
 0.00024766,-0.00494828,0.01964899,0.00345568,0.00909060,-0.04212491,-0
 .05137895,-0.02710191,-0.01613048,0.00457270,0.00120485,-0.00167410,-0
 .00072380,-0.00544357,0.00010018,-0.00005410,-0.00009689,-0.00031057,0
 .00003991,0.00021352,-0.00005759,0.00002355,-0.00013790,-0.00009442,-0
 .00002453,0.00002017,-0.00010937,-0.00003483,0.00009791,0.00083827,-0.
 00034414,0.00079824,-0.00000073,-0.00000172,-0.00000560,0.00050145,-0.
 00096181,0.00132536,-0.00001391,-0.00000157,0.00000479,-0.00029355,-0.
 00011936,0.00004565,-0.00020087,0.00002294,0.00002028,-0.00012333,0.00
 004754,-0.00014337,0.00000786,-0.00001187,0.00000498,0.00011065,-0.000
 01366,-0.00006884,0.00001821,-0.00000095,0.00003708,0.00002920,-0.0000
 4961,0.00003137,0.00004694,-0.00000598,0.00000884,0.00005748,-0.000075
 96,-0.00015206,-0.00018855,0.00013562,0.00008490,0.00011269,-0.0000489
 4,0.00008833,0.00000541,-0.00001155,-0.00001618,0.00000956,-0.00000105
 ,0.00000993,0.00000077,0.00001046,-0.00000366,-0.00000855,-0.00004946,
 -0.00002610,-0.00000280,0.00004141,-0.00002014,-0.00000097,-0.00000802
 ,0.00001478,0.03674698,0.04395968,-0.00022981,-0.00012798,0.00027848,0
 .00008923,0.00007569,-0.00004272,-0.00027996,0.00028999,0.00006245,-0.
 00004817,-0.00009567,0.00002361,-0.00006516,0.00003965,-0.00003840,-0.
 00003650,0.00008012,-0.00002919,0.00274038,-0.00489340,0.00199168,0.01
 570726,0.00610561,0.00401062,-0.07929022,-0.02638618,-0.06247403,-0.01
 504866,0.00361712,0.00208417,-0.00226311,-0.00537977,-0.00021106,-0.00
 008122,-0.00002436,0.00001760,0.00016349,-0.00009001,-0.00008026,0.000
 02841,0.00001879,-0.00004623,-0.00003187,0.00002275,-0.00003482,-0.000
 02312,-0.00001349,0.00002552,0.00082177,0.00072879,-0.00045471,-0.0000
 0742,0.00000719,-0.00000015,0.00075652,0.00119595,-0.00114786,0.000001
 42,-0.00000106,-0.00000131,-0.00011448,0.00004498,-0.00014936,0.000089
 41,-0.00021618,0.00006511,0.00002683,0.00000487,0.00010964,-0.00002618
 ,0.00002360,-0.00000060,-0.00011693,0.00009362,0.00003405,-0.00001350,
 0.00006859,0.00002041,0.00000632,-0.00000929,-0.00002070,0.00002409,0.
 00000474,-0.00002135,-0.00000959,-0.00001180,-0.00005450,0.00013653,0.
 00006017,0.00010925,-0.00000743,-0.00009915,-0.00006934,0.00003913,-0.
 00004730,-0.00000797,-0.00000229,0.00000312,-0.00000166,-0.00000223,0.
 00001305,-0.00000272,-0.00000075,-0.00000534,0.00003539,-0.00000791,-0
 .00003440,-0.00004474,-0.00000185,-0.00000117,0.00000107,0.07794930,0.
 02478585,0.05526313,-0.00003140,0.00009536,0.00014695,-0.00003046,-0.0
 0005901,0.00000874,0.00006111,-0.00004327,0.00002012,-0.00000677,-0.00
 000336,-0.00000975,-0.00001785,-0.00001936,0.00000140,-0.00000181,0.00
 002085,-0.00000448,0.01000325,0.00144319,0.00286075,0.00138919,0.00275
 872,0.00216408,-0.00533688,0.00163517,0.00036356,-0.00773896,-0.013087
 26,-0.01247898,-0.24830101,-0.09669179,-0.10875473,-0.00000464,-0.0000
 0454,-0.00015439,0.00004468,-0.00000197,-0.00004618,-0.00001127,-0.000
 00815,-0.00000556,-0.00001443,-0.00000080,-0.00002579,-0.00003231,-0.0
 0001524,0.00001610,0.00032613,0.00005027,-0.00004926,-0.00000180,-0.00
 000419,0.00000084,0.00026595,0.00030669,0.00045307,-0.00000463,0.00000
 481,-0.00000475,0.00010045,0.00003635,0.00006917,0.00069423,-0.0000205
 6,0.00083768,-0.00014688,0.00013567,-0.00011925,-0.00005309,-0.0000003
 7,-0.00014917,-0.00035180,0.00027293,0.00008055,-0.00060716,-0.0003603
 0,-0.00050461,0.00000245,-0.00002000,0.00002708,0.00002288,-0.00000889
 ,0.00000995,0.00005385,-0.00006773,-0.00010054,-0.00011538,0.00012890,
 0.00031175,0.00024724,0.00007364,-0.00006338,0.00001055,-0.00001995,-0
 .00001830,0.00002057,-0.00003263,-0.00001991,0.00000302,0.00000432,-0.
 00000404,-0.00000186,0.00000330,-0.00000001,-0.00000208,0.00000421,0.0
 0000224,0.00000168,0.00000160,0.00000972,0.00007984,-0.00084317,-0.000
 87173,0.24948538,-0.00022087,-0.00030550,0.00018968,-0.00006271,-0.000
 02668,-0.00001081,0.00018756,0.00003912,0.00006997,0.00003652,0.000104
 19,-0.00000730,0.00005041,-0.00002649,0.00002858,0.00003249,-0.0000645
 0,0.00002170,-0.02123795,-0.01046021,-0.00634910,0.00083229,-0.0007606
 6,-0.00704788,0.00333732,0.00085195,-0.00303513,0.00585921,0.00703365,
 0.00620137,-0.09188743,-0.09677697,-0.06805852,-0.00011668,-0.00000748
 ,0.00011769,0.00001874,-0.00011746,-0.00026188,0.00008578,-0.00003435,
 0.00014891,0.00010933,0.00003257,0.00000772,0.00004306,0.00002430,-0.0
 0013051,-0.00105267,0.00139957,-0.00005409,0.00000441,-0.00000278,0.,-
 0.00071154,-0.00089769,0.00076099,0.00000933,0.00000641,0.00000113,-0.
 00004924,-0.00034926,-0.00016621,-0.00019348,0.00051737,-0.00050772,0.
 00015933,-0.00006453,-0.00061626,-0.00004182,-0.00010149,0.00012902,0.
 00023482,-0.00031891,0.00000762,0.00000471,-0.00019163,0.00030624,-0.0
 0012099,0.00017236,0.00011802,-0.00012017,-0.00003312,0.00010611,0.000
 00292,0.00001562,0.00011218,0.00004189,-0.00003432,0.00012870,0.000445
 25,-0.00063210,0.00000249,-0.00002252,0.00006703,0.00001706,-0.0000935
 7,0.00007409,0.00004176,0.00000403,-0.00003021,-0.00001007,0.00000752,
 0.00001279,-0.00000823,0.00000789,-0.00000936,0.00001702,-0.00000453,0
 .00000851,-0.00001187,0.00008478,0.00086333,0.00015233,0.10433659,0.10
 002287,-0.00045045,0.00000556,-0.00000494,-0.00005215,0.00028948,-0.00
 001903,-0.00009387,-0.00019582,-0.00011604,0.00008343,0.00012939,-0.00
 003218,0.00010659,0.00002407,0.00003203,0.00006179,-0.00012097,0.00003
 791,-0.01745103,-0.00460983,-0.01221496,0.00033905,-0.00689127,0.00090
 855,0.00161256,-0.00297896,0.00230115,0.00338228,0.00385743,0.00432040
 ,-0.10199735,-0.06757063,-0.09888903,0.00000017,-0.00000195,-0.0001824
 8,0.00010859,0.00009172,0.00011402,0.00001517,-0.00000324,0.00006740,0
 .00003328,0.00002446,-0.00002985,0.00000353,0.00000800,-0.00005583,-0.
 00106850,-0.00025240,0.00120886,0.00001149,0.00000462,0.00000565,-0.00
 033245,0.00090300,-0.00111488,0.00000113,-0.00000275,-0.00000170,-0.00
 000926,-0.00018893,-0.00038333,0.00001856,-0.00170874,-0.00168597,0.00
 001309,-0.00026445,-0.00009628,-0.00013199,0.00030405,0.00037819,-0.00
 021890,0.00068447,0.00029668,-0.00001001,0.00098690,0.00127132,-0.0000
 4197,0.00011183,-0.00000133,0.00001540,0.00005924,0.00000046,0.0000076
 2,0.00004185,0.00002382,0.00005135,0.00007132,0.00003891,0.00004697,-0
 .00034147,0.00022699,0.00000835,-0.00001196,0.00000436,-0.00005093,0.0
 0005147,0.00000410,-0.00000742,-0.00001232,0.00000576,0.00000977,0.000
 01914,-0.00000483,0.00000685,-0.00000521,0.00001094,0.00000747,-0.0000
 2882,-0.00003681,-0.00002928,-0.00006757,0.00080152,0.11600108,0.07758
 929,0.10281046\\-0.00000942,-0.00000266,-0.00000161,0.00000030,-0.0000
 0120,-0.00000026,0.00000049,-0.00000082,-0.00000196,0.00000072,-0.0000
 0046,-0.00000129,0.00000100,-0.00000056,-0.00000144,0.00000028,0.,0.00
 000021,-0.00000001,0.00000970,-0.00000232,-0.00000092,0.00000072,-0.00
 000124,-0.00000085,-0.00000154,0.00000208,-0.00000098,-0.00000213,0.00
 000129,-0.00000239,-0.00000341,0.00000530,-0.00000064,-0.00000136,0.00
 000168,0.00000055,0.00000074,0.00000041,0.00000039,0.00000080,0.000000
 16,-0.00000011,0.00000150,0.00000056,-0.00000030,0.00000218,0.00000015
 ,0.00000017,-0.00000110,-0.00000013,0.00000122,-0.00000060,-0.00000218
 ,-0.00000099,-0.00000201,0.00000136,-0.00000007,0.00000204,0.00000040,
 0.00000010,-0.00000007,-0.00000021,0.00000130,-0.00000068,0.00000068,0
 .00000510,0.00000401,0.00000086,-0.00000008,0.00000152,0.00000105,-0.0
 0000065,0.00000059,0.00000030,-0.00000037,0.00000114,0.00000168,0.0000
 0001,-0.00000316,-0.00000117,0.00000127,0.00000446,0.00000261,0.000001
 34,0.00000196,0.00000411,0.00000833,-0.00000738,-0.00000635,-0.0000060
 9,-0.00000091,-0.00000115,0.00000235,-0.00000028,-0.00000404,-0.000000
 77,0.00000012,0.00000205,0.00000077,-0.00000044,-0.00000152,0.00000082
 ,-0.00000082,-0.00000159,0.00000004,0.00000070,0.00000003,-0.00000026,
 0.00000156,0.00000045,-0.00000036,-0.00000143,0.00000052,-0.00000132,-
 0.00000074,0.00000049\\\@
 The archive entry for this job was punched.


 READER, WHETHER YOU BE DILETTANTE OR PROFESSOR ... SHOW YOURSELF TO BE
 MORE HUMAN THAN CRITICAL, AND THEN YOUR PLEASURE WILL INCREASE.
                                           -- DOMENICO SCARLATTI (1738)
 Job cpu time:       0 days  2 hours 35 minutes 53.3 seconds.
 Elapsed time:       0 days  0 hours  4 minutes 53.8 seconds.
 File lengths (MBytes):  RWF=    792 Int=      0 D2E=      0 Chk=     15 Scr=      1
 Normal termination of Gaussian 16 at Sat Jun 22 18:46:17 2024.
