 Entering Gaussian System, Link 0=g16
 Initial command:
 /public/software/g16-c01AVX2/g16/l1.exe "/public/home/XGX_HG/tmp/Gau-71490.inp" -scrdir="/public/home/XGX_HG/tmp/"
 Entering Link 1 = /public/software/g16-c01AVX2/g16/l1.exe PID=     71491.
  
 Copyright (c) 1988-2019, Gaussian, Inc.  All Rights Reserved.
  
 This is part of the Gaussian(R) 16 program.  It is based on
 the Gaussian(R) 09 system (copyright 2009, Gaussian, Inc.),
 the Gaussian(R) 03 system (copyright 2003, Gaussian, Inc.),
 the Gaussian(R) 98 system (copyright 1998, Gaussian, Inc.),
 the Gaussian(R) 94 system (copyright 1995, Gaussian, Inc.),
 the Gaussian 92(TM) system (copyright 1992, Gaussian, Inc.),
 the Gaussian 90(TM) system (copyright 1990, Gaussian, Inc.),
 the Gaussian 88(TM) system (copyright 1988, Gaussian, Inc.),
 the Gaussian 86(TM) system (copyright 1986, Carnegie Mellon
 University), and the Gaussian 82(TM) system (copyright 1983,
 Carnegie Mellon University). Gaussian is a federally registered
 trademark of Gaussian, Inc.
  
 This software contains proprietary and confidential information,
 including trade secrets, belonging to Gaussian, Inc.
  
 This software is provided under written license and may be
 used, copied, transmitted, or stored only in accord with that
 written license.
  
 The following legend is applicable only to US Government
 contracts under FAR:
  
                    RESTRICTED RIGHTS LEGEND
  
 Use, reproduction and disclosure by the US Government is
 subject to restrictions as set forth in subparagraphs (a)
 and (c) of the Commercial Computer Software - Restricted
 Rights clause in FAR 52.227-19.
  
 Gaussian, Inc.
 340 Quinnipiac St., Bldg. 40, Wallingford CT 06492
  
  
 ---------------------------------------------------------------
 Warning -- This program may not be used in any manner that
 competes with the business of Gaussian, Inc. or will provide
 assistance to any competitor of Gaussian, Inc.  The licensee
 of this program is prohibited from giving any competitor of
 Gaussian, Inc. access to this program.  By using this program,
 the user acknowledges that Gaussian, Inc. is engaged in the
 business of creating and licensing software in the field of
 computational chemistry and represents and warrants to the
 licensee that it is not a competitor of Gaussian, Inc. and that
 it will not use this program in any manner prohibited above.
 ---------------------------------------------------------------
  

 Cite this work as:
 Gaussian 16, Revision C.01,
 M. J. Frisch, G. W. Trucks, H. B. Schlegel, G. E. Scuseria, 
 M. A. Robb, J. R. Cheeseman, G. Scalmani, V. Barone, 
 G. A. Petersson, H. Nakatsuji, X. Li, M. Caricato, A. V. Marenich, 
 J. Bloino, B. G. Janesko, R. Gomperts, B. Mennucci, H. P. Hratchian, 
 J. V. Ortiz, A. F. Izmaylov, J. L. Sonnenberg, D. Williams-Young, 
 F. Ding, F. Lipparini, F. Egidi, J. Goings, B. Peng, A. Petrone, 
 T. Henderson, D. Ranasinghe, V. G. Zakrzewski, J. Gao, N. Rega, 
 G. Zheng, W. Liang, M. Hada, M. Ehara, K. Toyota, R. Fukuda, 
 J. Hasegawa, M. Ishida, T. Nakajima, Y. Honda, O. Kitao, H. Nakai, 
 T. Vreven, K. Throssell, J. A. Montgomery, Jr., J. E. Peralta, 
 F. Ogliaro, M. J. Bearpark, J. J. Heyd, E. N. Brothers, K. N. Kudin, 
 V. N. Staroverov, T. A. Keith, R. Kobayashi, J. Normand, 
 K. Raghavachari, A. P. Rendell, J. C. Burant, S. S. Iyengar, 
 J. Tomasi, M. Cossi, J. M. Millam, M. Klene, C. Adamo, R. Cammi, 
 J. W. Ochterski, R. L. Martin, K. Morokuma, O. Farkas, 
 J. B. Foresman, and D. J. Fox, Gaussian, Inc., Wallingford CT, 2019.
 
 ******************************************
 Gaussian 16:  ES64L-G16RevC.01  3-Jul-2019
                15-Aug-2022 
 ******************************************
 %nprocshared=32
 Will use up to   32 processors via shared memory.
 %mem=60GB
 ----------------------------------------------------------------------
 # opt=(calcfc,ts,noeigen,maxcycle=200,maxstep=5) freq b3lyp/genecp emp
 iricaldispersion=gd3bj
 ----------------------------------------------------------------------
 1/5=1,6=200,8=5,10=4,11=1,18=20,26=3,38=1/1,3;
 2/9=110,12=2,17=6,18=5,40=1/2;
 3/5=7,11=2,16=1,17=8,25=1,30=1,71=2,74=-5,124=41,140=1/1,2,3;
 4//1;
 5/5=2,38=5/2;
 8/6=4,10=90,11=11/1;
 11/6=1,8=1,9=11,15=111,16=1/1,2,10;
 10/6=1,13=1/2;
 6/7=2,8=2,9=2,10=2,28=1/1;
 7/10=1,25=1/1,2,3,16;
 1/5=1,6=200,8=5,10=4,11=1,18=20,26=3/3(2);
 2/9=110/2;
 99//99;
 2/9=110/2;
 3/5=7,6=1,11=2,16=1,17=8,25=1,30=1,71=1,74=-5,82=7,124=41/1,2,3;
 4/5=5,16=3,69=1/1;
 5/5=2,38=5/2;
 7//1,2,3,16;
 1/5=1,6=200,8=5,11=1,18=20,26=3/3(-5);
 2/9=110/2;
 6/7=2,8=2,9=2,10=2,19=2,28=1/1;
 99/9=1/99;
 -------------------
 Title Card Required
 -------------------
 Symbolic Z-matrix:
 Charge =  0 Multiplicity = 1
 C                     0.29127   3.50927  -0.78622 
 C                     1.37669   1.57026  -0.39478 
 C                    -0.65231   2.30176  -0.952 
 H                     0.43692   4.09122  -1.69978 
 H                    -1.46276   2.29626  -0.2227 
 H                    -1.09037   2.21868  -1.94758 
 H                     0.01006   4.17347   0.0336 
 N                     0.21038   1.13213  -0.68444 
 O                     1.5702    2.90776  -0.44166 
 C                     3.38648  -2.74153  -0.13592 
 C                     2.48846  -0.67164  -0.05255 
 C                     1.84153  -2.8011   -0.09224 
 H                     3.8665   -3.16934   0.74782 
 H                     1.40703  -3.25519  -0.98919 
 H                     1.46288  -3.34844   0.77592 
 H                     3.82262  -3.18075  -1.03563 
 N                     1.43462  -1.39175  -0.00655 
 O                     3.67661  -1.319    -0.15136 
 C                     2.60065   0.82703   0.10064 
 Cu                   -0.60261  -0.59655   0.25565 
 C                     3.85569   1.34648  -0.63703 
 H                     3.80377   1.13128  -1.70939 
 H                     3.93387   2.42591  -0.50302 
 H                     4.74932   0.8682   -0.23296 
 C                     2.71535   1.11379   1.62926 
 H                     3.55795   0.55065   2.0426 
 H                     2.89401   2.18121   1.78104 
 H                     1.78826   0.83436   2.13894 
 Cl                   -1.00641   0.72931   2.21235 
 C                    -3.05984  -0.31463  -0.76784 
 C                    -2.15777  -1.47719  -1.0273 
 H                    -2.70728  -2.40353  -0.89922 
 C                    -1.38271  -1.45268  -2.3301 
 H                    -0.88799  -0.4946   -2.49334 
 H                    -0.62595  -2.24404  -2.3427 
 H                    -2.06655  -1.63219  -3.1725 
 O                    -3.05417   0.73124  -1.3955 
 O                    -3.89567  -0.56874   0.25852 
 C                    -4.56745   0.57509   0.81351 
 H                    -3.83151   1.19164   1.33748 
 H                    -5.06393   1.15      0.02877 
 H                    -5.29489   0.17183   1.51826 
 C                    -1.37408  -2.31297   0.8441 
 H                    -2.38359  -2.3051    1.24308 
 H                    -1.1336   -3.23927   0.32297 
 H                    -0.66242  -2.13496   1.66152 
 

 GradGradGradGradGradGradGradGradGradGradGradGradGradGradGradGradGradGrad
 Berny optimization.
 Initialization pass.
                           ----------------------------
                           !    Initial Parameters    !
                           ! (Angstroms and Degrees)  !
 --------------------------                            --------------------------
 ! Name  Definition              Value          Derivative Info.                !
 --------------------------------------------------------------------------------
 ! R1    R(1,3)                  1.5414         calculate D2E/DX2 analytically  !
 ! R2    R(1,4)                  1.0929         calculate D2E/DX2 analytically  !
 ! R3    R(1,7)                  1.0919         calculate D2E/DX2 analytically  !
 ! R4    R(1,9)                  1.4547         calculate D2E/DX2 analytically  !
 ! R5    R(2,8)                  1.2791         calculate D2E/DX2 analytically  !
 ! R6    R(2,9)                  1.3522         calculate D2E/DX2 analytically  !
 ! R7    R(2,19)                 1.5152         calculate D2E/DX2 analytically  !
 ! R8    R(3,5)                  1.0903         calculate D2E/DX2 analytically  !
 ! R9    R(3,6)                  1.0909         calculate D2E/DX2 analytically  !
 ! R10   R(3,8)                  1.4778         calculate D2E/DX2 analytically  !
 ! R11   R(8,20)                 2.1291         calculate D2E/DX2 analytically  !
 ! R12   R(10,12)                1.5467         calculate D2E/DX2 analytically  !
 ! R13   R(10,13)                1.0929         calculate D2E/DX2 analytically  !
 ! R14   R(10,16)                1.0921         calculate D2E/DX2 analytically  !
 ! R15   R(10,18)                1.4519         calculate D2E/DX2 analytically  !
 ! R16   R(11,17)                1.2772         calculate D2E/DX2 analytically  !
 ! R17   R(11,18)                1.3567         calculate D2E/DX2 analytically  !
 ! R18   R(11,19)                1.5106         calculate D2E/DX2 analytically  !
 ! R19   R(12,14)                1.0952         calculate D2E/DX2 analytically  !
 ! R20   R(12,15)                1.0939         calculate D2E/DX2 analytically  !
 ! R21   R(12,17)                1.4694         calculate D2E/DX2 analytically  !
 ! R22   R(19,21)                1.5457         calculate D2E/DX2 analytically  !
 ! R23   R(19,25)                1.5595         calculate D2E/DX2 analytically  !
 ! R24   R(20,29)                2.3978         calculate D2E/DX2 analytically  !
 ! R25   R(20,31)                2.2            calculate D2E/DX2 analytically  !
 ! R26   R(20,43)                1.9717         calculate D2E/DX2 analytically  !
 ! R27   R(21,22)                1.095          calculate D2E/DX2 analytically  !
 ! R28   R(21,23)                1.0905         calculate D2E/DX2 analytically  !
 ! R29   R(21,24)                1.0911         calculate D2E/DX2 analytically  !
 ! R30   R(25,26)                1.0945         calculate D2E/DX2 analytically  !
 ! R31   R(25,27)                1.0929         calculate D2E/DX2 analytically  !
 ! R32   R(25,28)                1.0942         calculate D2E/DX2 analytically  !
 ! R33   R(30,31)                1.4942         calculate D2E/DX2 analytically  !
 ! R34   R(30,37)                1.2198         calculate D2E/DX2 analytically  !
 ! R35   R(30,38)                1.3478         calculate D2E/DX2 analytically  !
 ! R36   R(31,32)                1.0846         calculate D2E/DX2 analytically  !
 ! R37   R(31,33)                1.5161         calculate D2E/DX2 analytically  !
 ! R38   R(33,34)                1.0906         calculate D2E/DX2 analytically  !
 ! R39   R(33,35)                1.095          calculate D2E/DX2 analytically  !
 ! R40   R(33,36)                1.0998         calculate D2E/DX2 analytically  !
 ! R41   R(38,39)                1.4379         calculate D2E/DX2 analytically  !
 ! R42   R(39,40)                1.0937         calculate D2E/DX2 analytically  !
 ! R43   R(39,41)                1.0922         calculate D2E/DX2 analytically  !
 ! R44   R(39,42)                1.0902         calculate D2E/DX2 analytically  !
 ! R45   R(43,44)                1.0855         calculate D2E/DX2 analytically  !
 ! R46   R(43,45)                1.0897         calculate D2E/DX2 analytically  !
 ! R47   R(43,46)                1.0983         calculate D2E/DX2 analytically  !
 ! A1    A(3,1,4)              114.1299         calculate D2E/DX2 analytically  !
 ! A2    A(3,1,7)              113.5542         calculate D2E/DX2 analytically  !
 ! A3    A(3,1,9)              103.8708         calculate D2E/DX2 analytically  !
 ! A4    A(4,1,7)              109.7556         calculate D2E/DX2 analytically  !
 ! A5    A(4,1,9)              107.5173         calculate D2E/DX2 analytically  !
 ! A6    A(7,1,9)              107.4635         calculate D2E/DX2 analytically  !
 ! A7    A(8,2,9)              117.4787         calculate D2E/DX2 analytically  !
 ! A8    A(8,2,19)             129.9837         calculate D2E/DX2 analytically  !
 ! A9    A(9,2,19)             112.3895         calculate D2E/DX2 analytically  !
 ! A10   A(1,3,5)              112.7703         calculate D2E/DX2 analytically  !
 ! A11   A(1,3,6)              113.8063         calculate D2E/DX2 analytically  !
 ! A12   A(1,3,8)              104.0754         calculate D2E/DX2 analytically  !
 ! A13   A(5,3,6)              108.1549         calculate D2E/DX2 analytically  !
 ! A14   A(5,3,8)              107.9894         calculate D2E/DX2 analytically  !
 ! A15   A(6,3,8)              109.8401         calculate D2E/DX2 analytically  !
 ! A16   A(2,8,3)              107.5894         calculate D2E/DX2 analytically  !
 ! A17   A(2,8,20)             121.7552         calculate D2E/DX2 analytically  !
 ! A18   A(3,8,20)             119.977          calculate D2E/DX2 analytically  !
 ! A19   A(1,9,2)              106.941          calculate D2E/DX2 analytically  !
 ! A20   A(12,10,13)           113.6287         calculate D2E/DX2 analytically  !
 ! A21   A(12,10,16)           113.9974         calculate D2E/DX2 analytically  !
 ! A22   A(12,10,18)           103.7467         calculate D2E/DX2 analytically  !
 ! A23   A(13,10,16)           109.4716         calculate D2E/DX2 analytically  !
 ! A24   A(13,10,18)           107.7198         calculate D2E/DX2 analytically  !
 ! A25   A(16,10,18)           107.7872         calculate D2E/DX2 analytically  !
 ! A26   A(17,11,18)           117.1426         calculate D2E/DX2 analytically  !
 ! A27   A(17,11,19)           128.0953         calculate D2E/DX2 analytically  !
 ! A28   A(18,11,19)           114.5656         calculate D2E/DX2 analytically  !
 ! A29   A(10,12,14)           112.8998         calculate D2E/DX2 analytically  !
 ! A30   A(10,12,15)           112.7945         calculate D2E/DX2 analytically  !
 ! A31   A(10,12,17)           103.9643         calculate D2E/DX2 analytically  !
 ! A32   A(14,12,15)           107.7688         calculate D2E/DX2 analytically  !
 ! A33   A(14,12,17)           109.6064         calculate D2E/DX2 analytically  !
 ! A34   A(15,12,17)           109.7401         calculate D2E/DX2 analytically  !
 ! A35   A(11,17,12)           108.0698         calculate D2E/DX2 analytically  !
 ! A36   A(10,18,11)           106.9624         calculate D2E/DX2 analytically  !
 ! A37   A(2,19,11)            113.1705         calculate D2E/DX2 analytically  !
 ! A38   A(2,19,21)            109.5728         calculate D2E/DX2 analytically  !
 ! A39   A(2,19,25)            106.8401         calculate D2E/DX2 analytically  !
 ! A40   A(11,19,21)           110.2005         calculate D2E/DX2 analytically  !
 ! A41   A(11,19,25)           106.695          calculate D2E/DX2 analytically  !
 ! A42   A(21,19,25)           110.2602         calculate D2E/DX2 analytically  !
 ! A43   A(8,20,29)             88.6057         calculate D2E/DX2 analytically  !
 ! A44   A(8,20,31)            109.7215         calculate D2E/DX2 analytically  !
 ! A45   A(29,20,31)           125.322          calculate D2E/DX2 analytically  !
 ! A46   A(29,20,43)            99.8992         calculate D2E/DX2 analytically  !
 ! A47   A(31,20,43)            63.1915         calculate D2E/DX2 analytically  !
 ! A48   A(19,21,22)           111.275          calculate D2E/DX2 analytically  !
 ! A49   A(19,21,23)           109.4029         calculate D2E/DX2 analytically  !
 ! A50   A(19,21,24)           109.9348         calculate D2E/DX2 analytically  !
 ! A51   A(22,21,23)           108.5589         calculate D2E/DX2 analytically  !
 ! A52   A(22,21,24)           108.3826         calculate D2E/DX2 analytically  !
 ! A53   A(23,21,24)           109.2476         calculate D2E/DX2 analytically  !
 ! A54   A(19,25,26)           109.4013         calculate D2E/DX2 analytically  !
 ! A55   A(19,25,27)           109.1323         calculate D2E/DX2 analytically  !
 ! A56   A(19,25,28)           110.322          calculate D2E/DX2 analytically  !
 ! A57   A(26,25,27)           108.9188         calculate D2E/DX2 analytically  !
 ! A58   A(26,25,28)           110.1794         calculate D2E/DX2 analytically  !
 ! A59   A(27,25,28)           108.8588         calculate D2E/DX2 analytically  !
 ! A60   A(31,30,37)           125.0975         calculate D2E/DX2 analytically  !
 ! A61   A(31,30,38)           111.0962         calculate D2E/DX2 analytically  !
 ! A62   A(37,30,38)           123.8061         calculate D2E/DX2 analytically  !
 ! A63   A(20,31,30)            90.8047         calculate D2E/DX2 analytically  !
 ! A64   A(20,31,32)           129.1337         calculate D2E/DX2 analytically  !
 ! A65   A(20,31,33)            97.6585         calculate D2E/DX2 analytically  !
 ! A66   A(30,31,32)           109.7626         calculate D2E/DX2 analytically  !
 ! A67   A(30,31,33)           116.4405         calculate D2E/DX2 analytically  !
 ! A68   A(32,31,33)           111.9794         calculate D2E/DX2 analytically  !
 ! A69   A(31,33,34)           112.0076         calculate D2E/DX2 analytically  !
 ! A70   A(31,33,35)           110.5786         calculate D2E/DX2 analytically  !
 ! A71   A(31,33,36)           109.7364         calculate D2E/DX2 analytically  !
 ! A72   A(34,33,35)           108.6429         calculate D2E/DX2 analytically  !
 ! A73   A(34,33,36)           108.1084         calculate D2E/DX2 analytically  !
 ! A74   A(35,33,36)           107.635          calculate D2E/DX2 analytically  !
 ! A75   A(30,38,39)           115.7            calculate D2E/DX2 analytically  !
 ! A76   A(38,39,40)           108.6004         calculate D2E/DX2 analytically  !
 ! A77   A(38,39,41)           110.7189         calculate D2E/DX2 analytically  !
 ! A78   A(38,39,42)           105.4859         calculate D2E/DX2 analytically  !
 ! A79   A(40,39,41)           110.692          calculate D2E/DX2 analytically  !
 ! A80   A(40,39,42)           110.3532         calculate D2E/DX2 analytically  !
 ! A81   A(41,39,42)           110.8474         calculate D2E/DX2 analytically  !
 ! A82   A(20,43,44)           117.8559         calculate D2E/DX2 analytically  !
 ! A83   A(20,43,45)           120.7252         calculate D2E/DX2 analytically  !
 ! A84   A(20,43,46)            80.0671         calculate D2E/DX2 analytically  !
 ! A85   A(44,43,45)           112.7788         calculate D2E/DX2 analytically  !
 ! A86   A(44,43,46)           109.1389         calculate D2E/DX2 analytically  !
 ! A87   A(45,43,46)           110.5304         calculate D2E/DX2 analytically  !
 ! A88   L(8,20,43,29,-1)      188.5049         calculate D2E/DX2 analytically  !
 ! A89   L(8,20,43,29,-2)      177.4151         calculate D2E/DX2 analytically  !
 ! D1    D(4,1,3,5)           -126.6789         calculate D2E/DX2 analytically  !
 ! D2    D(4,1,3,6)             -3.0            calculate D2E/DX2 analytically  !
 ! D3    D(4,1,3,8)            116.5418         calculate D2E/DX2 analytically  !
 ! D4    D(7,1,3,5)              0.1418         calculate D2E/DX2 analytically  !
 ! D5    D(7,1,3,6)            123.8207         calculate D2E/DX2 analytically  !
 ! D6    D(7,1,3,8)           -116.6375         calculate D2E/DX2 analytically  !
 ! D7    D(9,1,3,5)            116.556          calculate D2E/DX2 analytically  !
 ! D8    D(9,1,3,6)           -119.7651         calculate D2E/DX2 analytically  !
 ! D9    D(9,1,3,8)             -0.2233         calculate D2E/DX2 analytically  !
 ! D10   D(3,1,9,2)             -0.9677         calculate D2E/DX2 analytically  !
 ! D11   D(4,1,9,2)           -122.2667         calculate D2E/DX2 analytically  !
 ! D12   D(7,1,9,2)            119.6425         calculate D2E/DX2 analytically  !
 ! D13   D(9,2,8,3)             -2.3001         calculate D2E/DX2 analytically  !
 ! D14   D(9,2,8,20)          -146.6557         calculate D2E/DX2 analytically  !
 ! D15   D(19,2,8,3)           172.8961         calculate D2E/DX2 analytically  !
 ! D16   D(19,2,8,20)           28.5404         calculate D2E/DX2 analytically  !
 ! D17   D(8,2,9,1)              2.1491         calculate D2E/DX2 analytically  !
 ! D18   D(19,2,9,1)          -173.8714         calculate D2E/DX2 analytically  !
 ! D19   D(8,2,19,11)           14.0603         calculate D2E/DX2 analytically  !
 ! D20   D(8,2,19,21)          137.4829         calculate D2E/DX2 analytically  !
 ! D21   D(8,2,19,25)         -103.0709         calculate D2E/DX2 analytically  !
 ! D22   D(9,2,19,11)         -170.5486         calculate D2E/DX2 analytically  !
 ! D23   D(9,2,19,21)          -47.1261         calculate D2E/DX2 analytically  !
 ! D24   D(9,2,19,25)           72.3202         calculate D2E/DX2 analytically  !
 ! D25   D(1,3,8,2)              1.4122         calculate D2E/DX2 analytically  !
 ! D26   D(1,3,8,20)           146.5196         calculate D2E/DX2 analytically  !
 ! D27   D(5,3,8,2)           -118.6501         calculate D2E/DX2 analytically  !
 ! D28   D(5,3,8,20)            26.4573         calculate D2E/DX2 analytically  !
 ! D29   D(6,3,8,2)            123.6114         calculate D2E/DX2 analytically  !
 ! D30   D(6,3,8,20)           -91.2812         calculate D2E/DX2 analytically  !
 ! D31   D(2,8,20,29)           75.8483         calculate D2E/DX2 analytically  !
 ! D32   D(2,8,20,31)         -156.8758         calculate D2E/DX2 analytically  !
 ! D33   D(3,8,20,29)          -64.2632         calculate D2E/DX2 analytically  !
 ! D34   D(3,8,20,31)           63.0127         calculate D2E/DX2 analytically  !
 ! D35   D(13,10,12,14)       -127.8819         calculate D2E/DX2 analytically  !
 ! D36   D(13,10,12,15)         -5.4111         calculate D2E/DX2 analytically  !
 ! D37   D(13,10,12,17)        113.4067         calculate D2E/DX2 analytically  !
 ! D38   D(16,10,12,14)         -1.5099         calculate D2E/DX2 analytically  !
 ! D39   D(16,10,12,15)        120.9609         calculate D2E/DX2 analytically  !
 ! D40   D(16,10,12,17)       -120.2213         calculate D2E/DX2 analytically  !
 ! D41   D(18,10,12,14)        115.4362         calculate D2E/DX2 analytically  !
 ! D42   D(18,10,12,15)       -122.093          calculate D2E/DX2 analytically  !
 ! D43   D(18,10,12,17)         -3.2752         calculate D2E/DX2 analytically  !
 ! D44   D(12,10,18,11)          3.0373         calculate D2E/DX2 analytically  !
 ! D45   D(13,10,18,11)       -117.7163         calculate D2E/DX2 analytically  !
 ! D46   D(16,10,18,11)        124.2483         calculate D2E/DX2 analytically  !
 ! D47   D(18,11,17,12)         -0.5577         calculate D2E/DX2 analytically  !
 ! D48   D(19,11,17,12)       -175.1506         calculate D2E/DX2 analytically  !
 ! D49   D(17,11,18,10)         -1.7358         calculate D2E/DX2 analytically  !
 ! D50   D(19,11,18,10)        173.5871         calculate D2E/DX2 analytically  !
 ! D51   D(17,11,19,2)         -30.8813         calculate D2E/DX2 analytically  !
 ! D52   D(17,11,19,21)       -153.9577         calculate D2E/DX2 analytically  !
 ! D53   D(17,11,19,25)         86.335          calculate D2E/DX2 analytically  !
 ! D54   D(18,11,19,2)         154.4088         calculate D2E/DX2 analytically  !
 ! D55   D(18,11,19,21)         31.3325         calculate D2E/DX2 analytically  !
 ! D56   D(18,11,19,25)        -88.3749         calculate D2E/DX2 analytically  !
 ! D57   D(10,12,17,11)          2.4303         calculate D2E/DX2 analytically  !
 ! D58   D(14,12,17,11)       -118.5156         calculate D2E/DX2 analytically  !
 ! D59   D(15,12,17,11)        123.3197         calculate D2E/DX2 analytically  !
 ! D60   D(2,19,21,22)         -64.0888         calculate D2E/DX2 analytically  !
 ! D61   D(2,19,21,23)          55.8627         calculate D2E/DX2 analytically  !
 ! D62   D(2,19,21,24)         175.8307         calculate D2E/DX2 analytically  !
 ! D63   D(11,19,21,22)         61.0661         calculate D2E/DX2 analytically  !
 ! D64   D(11,19,21,23)       -178.9823         calculate D2E/DX2 analytically  !
 ! D65   D(11,19,21,24)        -59.0143         calculate D2E/DX2 analytically  !
 ! D66   D(25,19,21,22)        178.5893         calculate D2E/DX2 analytically  !
 ! D67   D(25,19,21,23)        -61.4591         calculate D2E/DX2 analytically  !
 ! D68   D(25,19,21,24)         58.5089         calculate D2E/DX2 analytically  !
 ! D69   D(2,19,25,26)         176.9329         calculate D2E/DX2 analytically  !
 ! D70   D(2,19,25,27)         -63.9877         calculate D2E/DX2 analytically  !
 ! D71   D(2,19,25,28)          55.5715         calculate D2E/DX2 analytically  !
 ! D72   D(11,19,25,26)         55.6026         calculate D2E/DX2 analytically  !
 ! D73   D(11,19,25,27)        174.682          calculate D2E/DX2 analytically  !
 ! D74   D(11,19,25,28)        -65.7587         calculate D2E/DX2 analytically  !
 ! D75   D(21,19,25,26)        -64.0661         calculate D2E/DX2 analytically  !
 ! D76   D(21,19,25,27)         55.0133         calculate D2E/DX2 analytically  !
 ! D77   D(21,19,25,28)        174.5725         calculate D2E/DX2 analytically  !
 ! D78   D(8,20,31,30)         -69.5241         calculate D2E/DX2 analytically  !
 ! D79   D(8,20,31,32)         173.9002         calculate D2E/DX2 analytically  !
 ! D80   D(8,20,31,33)          47.2972         calculate D2E/DX2 analytically  !
 ! D81   D(29,20,31,30)         33.3224         calculate D2E/DX2 analytically  !
 ! D82   D(29,20,31,32)        -83.2533         calculate D2E/DX2 analytically  !
 ! D83   D(29,20,31,33)        150.1437         calculate D2E/DX2 analytically  !
 ! D84   D(43,20,31,30)        116.3147         calculate D2E/DX2 analytically  !
 ! D85   D(43,20,31,32)         -0.2611         calculate D2E/DX2 analytically  !
 ! D86   D(43,20,31,33)       -126.8641         calculate D2E/DX2 analytically  !
 ! D87   D(29,20,43,44)         51.6101         calculate D2E/DX2 analytically  !
 ! D88   D(29,20,43,45)       -162.9496         calculate D2E/DX2 analytically  !
 ! D89   D(29,20,43,46)        -54.8845         calculate D2E/DX2 analytically  !
 ! D90   D(31,20,43,44)        -73.0984         calculate D2E/DX2 analytically  !
 ! D91   D(31,20,43,45)         72.3419         calculate D2E/DX2 analytically  !
 ! D92   D(31,20,43,46)       -179.593          calculate D2E/DX2 analytically  !
 ! D93   D(37,30,31,20)         86.1798         calculate D2E/DX2 analytically  !
 ! D94   D(37,30,31,32)       -141.3083         calculate D2E/DX2 analytically  !
 ! D95   D(37,30,31,33)        -12.7856         calculate D2E/DX2 analytically  !
 ! D96   D(38,30,31,20)        -93.9776         calculate D2E/DX2 analytically  !
 ! D97   D(38,30,31,32)         38.5344         calculate D2E/DX2 analytically  !
 ! D98   D(38,30,31,33)        167.0571         calculate D2E/DX2 analytically  !
 ! D99   D(31,30,38,39)        164.9633         calculate D2E/DX2 analytically  !
 ! D100  D(37,30,38,39)        -15.1917         calculate D2E/DX2 analytically  !
 ! D101  D(20,31,33,34)        -46.2858         calculate D2E/DX2 analytically  !
 ! D102  D(20,31,33,35)         75.0492         calculate D2E/DX2 analytically  !
 ! D103  D(20,31,33,36)       -166.3635         calculate D2E/DX2 analytically  !
 ! D104  D(30,31,33,34)         48.4577         calculate D2E/DX2 analytically  !
 ! D105  D(30,31,33,35)        169.7927         calculate D2E/DX2 analytically  !
 ! D106  D(30,31,33,36)        -71.62           calculate D2E/DX2 analytically  !
 ! D107  D(32,31,33,34)        175.8977         calculate D2E/DX2 analytically  !
 ! D108  D(32,31,33,35)        -62.7672         calculate D2E/DX2 analytically  !
 ! D109  D(32,31,33,36)         55.82           calculate D2E/DX2 analytically  !
 ! D110  D(30,38,39,40)        -69.6445         calculate D2E/DX2 analytically  !
 ! D111  D(30,38,39,41)         52.0839         calculate D2E/DX2 analytically  !
 ! D112  D(30,38,39,42)        172.0586         calculate D2E/DX2 analytically  !
 --------------------------------------------------------------------------------
 Trust Radius=5.00D-02 FncErr=1.00D-07 GrdErr=1.00D-06 EigMax=2.50D+02 EigMin=1.00D-04
 Number of steps in this run=    200 maximum allowed number of steps=    276.
 Search for a saddle point of order  1.
 GradGradGradGradGradGradGradGradGradGradGradGradGradGradGradGradGradGrad

                          Input orientation:                          
 ---------------------------------------------------------------------
 Center     Atomic      Atomic             Coordinates (Angstroms)
 Number     Number       Type             X           Y           Z
 ---------------------------------------------------------------------
      1          6           0        0.291266    3.509270   -0.786216
      2          6           0        1.376691    1.570259   -0.394777
      3          6           0       -0.652308    2.301756   -0.952000
      4          1           0        0.436916    4.091220   -1.699784
      5          1           0       -1.462759    2.296264   -0.222701
      6          1           0       -1.090374    2.218681   -1.947583
      7          1           0        0.010057    4.173471    0.033601
      8          7           0        0.210380    1.132133   -0.684437
      9          8           0        1.570198    2.907758   -0.441658
     10          6           0        3.386478   -2.741533   -0.135917
     11          6           0        2.488463   -0.671636   -0.052546
     12          6           0        1.841534   -2.801098   -0.092242
     13          1           0        3.866499   -3.169343    0.747818
     14          1           0        1.407025   -3.255187   -0.989189
     15          1           0        1.462880   -3.348437    0.775922
     16          1           0        3.822624   -3.180749   -1.035631
     17          7           0        1.434619   -1.391749   -0.006549
     18          8           0        3.676605   -1.318999   -0.151362
     19          6           0        2.600653    0.827032    0.100643
     20         29           0       -0.602614   -0.596545    0.255645
     21          6           0        3.855688    1.346477   -0.637025
     22          1           0        3.803766    1.131280   -1.709390
     23          1           0        3.933865    2.425905   -0.503016
     24          1           0        4.749317    0.868200   -0.232956
     25          6           0        2.715349    1.113788    1.629262
     26          1           0        3.557951    0.550652    2.042602
     27          1           0        2.894013    2.181210    1.781040
     28          1           0        1.788259    0.834364    2.138943
     29         17           0       -1.006414    0.729307    2.212348
     30          6           0       -3.059838   -0.314629   -0.767838
     31          6           0       -2.157766   -1.477193   -1.027305
     32          1           0       -2.707279   -2.403527   -0.899222
     33          6           0       -1.382710   -1.452683   -2.330104
     34          1           0       -0.887992   -0.494598   -2.493340
     35          1           0       -0.625946   -2.244041   -2.342698
     36          1           0       -2.066547   -1.632190   -3.172500
     37          8           0       -3.054171    0.731235   -1.395495
     38          8           0       -3.895674   -0.568738    0.258518
     39          6           0       -4.567448    0.575087    0.813509
     40          1           0       -3.831513    1.191640    1.337482
     41          1           0       -5.063927    1.150004    0.028770
     42          1           0       -5.294886    0.171827    1.518255
     43          6           0       -1.374079   -2.312973    0.844101
     44          1           0       -2.383593   -2.305095    1.243079
     45          1           0       -1.133601   -3.239268    0.322968
     46          1           0       -0.662419   -2.134962    1.661523
 ---------------------------------------------------------------------
                    Distance matrix (angstroms):
                    1          2          3          4          5
     1  C    0.000000
     2  C    2.256354   0.000000
     3  C    1.541398   2.227649   0.000000
     4  H    1.092926   2.990228   2.224359   0.000000
     5  H    2.205796   2.935842   1.090293   3.002067   0.000000
     6  H    2.218856   2.986313   1.090866   2.429078   1.766326
     7  H    1.091944   2.971180   2.216631   1.787064   2.399747
     8  N    2.380689   1.279116   1.477782   3.136629   2.089927
     9  O    1.454718   1.352238   2.359496   2.065863   3.101725
    10  C    7.005410   4.764221   6.512492   7.604743   6.992999
    11  C    4.779741   2.525718   4.417524   5.441235   4.944647
    12  C    6.534958   4.406401   5.744349   7.215344   6.076057
    13  H    7.729128   5.474349   7.296706   8.394556   7.695178
    14  H    6.858862   4.862013   5.926369   7.444176   6.296171
    15  H    7.130295   5.056831   6.275700   7.907605   6.435780
    16  H    7.568953   5.381948   7.077420   8.048953   7.654659
    17  N    5.092654   2.987904   4.346392   5.824552   4.694993
    18  O    5.930914   3.700901   5.700033   6.493355   6.283970
    19  C    3.648861   1.515226   3.723523   4.310246   4.332956
    20  Cu   4.329228   3.005950   3.140227   5.184541   3.055652
    21  C    4.171934   2.500838   4.618852   4.511216   5.418453
    22  H    4.341053   2.794924   4.669074   4.482970   5.594973
    23  H    3.810828   2.698701   4.609770   4.053909   5.405454
    24  H    5.211100   3.448721   5.634684   5.579986   6.374116
    25  C    4.177206   2.469232   4.406279   5.013871   4.720657
    26  H    5.237066   3.426122   5.455299   6.023449   5.778087
    27  H    3.889581   2.722078   4.478887   4.669218   4.796840
    28  H    4.237059   2.670331   4.202801   5.212395   4.275936
    29  Cl   4.289936   3.630908   3.551209   5.356346   2.931394
    30  C    5.084529   4.834746   3.560279   5.701519   3.108794
    31  C    5.560638   4.709505   4.068480   6.179954   3.920383
    32  H    6.630627   5.720511   5.134723   7.260069   4.908620
    33  C    5.459557   4.527468   4.065522   5.868833   4.301414
    34  H    4.509532   3.714349   3.201698   4.838888   3.643497
    35  H    6.030299   4.727984   4.753841   6.455892   5.080257
    36  H    6.139075   5.461439   4.733563   6.418227   4.949609
    37  O    4.390973   4.619300   2.903820   4.854872   2.521379
    38  O    5.937347   5.727123   4.497167   6.657439   3.789312
    39  C    5.897088   6.146797   4.628901   6.612374   3.698010
    40  H    5.184478   5.501769   4.072030   5.987657   3.043905
    41  H    5.908336   6.468197   4.663778   6.472861   3.787553
    42  H    6.903203   7.079918   5.673825   7.653167   4.714802
    43  C    6.271349   4.917423   5.004264   7.124938   4.731913
    44  H    6.714145   5.642754   5.388766   7.584758   4.916193
    45  H    6.985936   5.472502   5.706149   7.764928   5.572092
    46  H    6.225616   4.702659   5.149279   7.160465   4.881251
                    6          7          8          9         10
     6  H    0.000000
     7  H    2.992865   0.000000
     8  N    2.113785   3.131365   0.000000
     9  O    3.133892   2.064447   2.249642   0.000000
    10  C    6.923009   7.697158   5.039222   5.941956   0.000000
    11  C    4.975256   5.442883   2.973639   3.715734   2.257843
    12  C    6.102176   7.212126   4.299031   5.725972   1.546709
    13  H    7.801704   8.324612   5.824196   6.604469   1.092899
    14  H    6.092516   7.627751   4.557786   6.189370   2.215885
    15  H    6.702939   7.696807   4.876158   6.374480   2.213597
    16  H    7.356837   8.352453   5.636718   6.518907   1.092071
    17  N    4.814396   5.744794   2.885875   4.323594   2.376638
    18  O    6.202070   6.606437   4.278660   4.731458   1.451901
    19  C    4.444727   4.232533   2.534333   2.384397   3.661712
    20  Cu   3.607994   4.814325   2.129094   4.181804   4.546114
    21  C    5.190552   4.819804   3.651912   2.774749   4.145249
    22  H    5.019142   5.165769   3.736703   3.122794   4.201027
    23  H    5.231892   4.328766   3.946023   2.413062   5.209300
    24  H    6.234239   5.784155   4.568965   3.782876   3.859653
    25  C    5.338365   4.384792   3.410045   2.969581   4.292991
    26  H    6.349080   5.454214   4.356730   3.959629   3.951434
    27  H    5.457048   3.916612   3.792232   2.687144   5.305718
    28  H    5.186767   4.329446   3.248052   3.317531   4.529496
    29  Cl   4.419311   4.200288   3.167684   4.292823   6.071127
    30  C    3.418808   5.496326   3.576926   5.650434   6.916949
    31  C    3.955467   6.144508   3.540375   5.785196   5.756020
    32  H    5.007819   7.177115   4.589091   6.834905   6.150671
    33  C    3.702796   6.259434   3.453611   5.594581   5.405622
    34  H    2.775012   5.383567   2.669233   4.672058   5.373756
    35  H    4.504187   6.872827   3.853287   5.914223   4.606184
    36  H    4.157228   6.949609   4.360772   6.426083   6.339319
    37  O    2.524638   4.825018   3.365058   5.199216   7.424865
    38  O    4.528388   6.147672   4.543325   6.515522   7.609623
    39  C    4.734456   5.874536   5.038034   6.684871   8.669851
    40  H    4.400035   5.034787   4.519800   5.940445   8.351057
    41  H    4.564774   5.906496   5.322340   6.879144   9.304866
    42  H    5.820616   6.808801   6.006829   7.645649   9.305377
    43  C    5.330092   6.681819   4.088483   6.130088   4.879242
    44  H    5.684830   7.011720   4.717897   6.756082   5.948599
    45  H    5.911555   7.506023   4.682979   6.758780   4.570496
    46  H    5.671243   6.549708   4.115728   5.902285   4.471273
                   11         12         13         14         15
    11  C    0.000000
    12  C    2.225916   0.000000
    13  H    2.962787   2.223013   0.000000
    14  H    2.953226   1.095221   3.012238   0.000000
    15  H    2.983864   1.093923   2.410446   1.768455   0.000000
    16  H    3.007007   2.226844   1.784025   2.417192   2.979637
    17  N    1.277210   1.469417   3.105310   2.106833   2.107531
    18  O    1.356659   2.359576   2.066000   3.098673   3.143096
    19  C    1.510649   3.711710   4.241723   4.390557   4.380077
    20  Cu   3.107310   3.309825   5.180202   3.557617   3.479923
    21  C    2.506731   4.642842   4.723403   5.224489   5.455655
    22  H    2.779507   4.682854   4.953500   5.050163   5.632441
    23  H    3.447734   5.645188   5.733753   6.236673   6.409717
    24  H    2.741369   4.683882   4.247710   5.361448   5.440453
    25  C    2.463269   4.365027   4.521869   5.258892   4.712570
    26  H    2.650931   4.328727   3.950953   5.320023   4.603987
    27  H    3.415441   5.425891   5.535494   6.280105   5.799603
    28  H    2.749717   4.265866   4.720591   5.162846   4.411295
    29  Cl   4.393922   5.087799   6.410117   5.652497   4.978828
    30  C    5.605599   5.537364   7.643347   5.352452   5.660580
    31  C    4.815238   4.315260   6.504322   3.983773   4.456709
    32  H    5.541845   4.636915   6.820101   4.202489   4.592297
    33  C    4.558869   4.149940   6.322556   3.581856   4.619379
    34  H    4.170044   4.305290   6.345435   3.892355   4.935491
    35  H    4.173344   3.385753   5.530781   2.643364   3.912630
    36  H    5.604007   5.111500   7.275491   4.412105   5.567081
    37  O    5.873019   6.176064   8.228242   5.996575   6.462393
    38  O    6.392539   6.166200   8.200847   6.073911   6.058757
    39  C    7.217358   7.300278   9.228030   7.322230   7.194464
    40  H    6.733949   7.083045   8.867089   7.254650   6.997017
    41  H    7.769400   7.956836   9.946170   7.893996   7.961998
    42  H    7.984946   7.896865   9.782023   7.933934   7.655764
    43  C    4.291526   3.384549   5.310960   3.461684   3.020790
    44  H    5.299411   4.458789   6.328970   4.500498   4.012749
    45  H    4.455681   3.035757   5.018604   2.859509   2.637954
    46  H    3.873940   3.128771   4.734543   3.544542   2.602635
                   16         17         18         19         20
    16  H    0.000000
    17  N    3.156279   0.000000
    18  O    2.066244   2.247836   0.000000
    19  C    4.341272   2.508807   2.413841   0.000000
    20  Cu   5.284717   2.202592   4.358820   3.508777   0.000000
    21  C    4.544860   3.709037   2.715272   1.545668   4.944558
    22  H    4.364390   3.857227   2.906456   2.194600   5.124737
    23  H    5.632994   4.589901   3.770166   2.167545   5.503673
    24  H    4.230489   4.018190   2.437459   2.174797   5.570222
    25  C    5.174047   3.254821   3.164346   1.559506   3.977555
    26  H    4.844474   3.532772   2.884987   2.182661   4.671143
    27  H    6.127525   4.253392   4.074075   2.177979   4.719020
    28  H    5.507966   3.111877   3.667195   2.194244   3.363121
    29  Cl   7.011242   3.921865   5.631461   4.180883   2.397837
    30  C    7.460204   4.684004   6.838747   5.839418   2.676741
    31  C    6.218299   3.735569   5.901880   5.405948   2.200000
    32  H    6.577409   4.356131   6.518395   6.293678   3.004749
    33  C    5.635368   3.652391   5.510123   5.193536   2.833305
    34  H    5.615178   3.519024   5.196157   4.543798   2.765638
    35  H    4.730288   3.229539   4.916259   5.080585   3.076715
    36  H    6.453416   4.726439   6.496858   6.208381   3.868829
    37  O    7.919813   5.156110   7.145255   5.850183   3.240277
    38  O    8.250427   5.399966   7.620387   6.646455   3.293179
    39  C    9.376510   6.369125   8.513692   7.207866   4.171791
    40  H    9.128815   6.017679   8.055545   6.560142   3.846266
    41  H    9.942794   6.978027   9.084345   7.671718   4.796376
    42  H   10.044456   7.075029   9.246504   8.048506   4.919552
    43  C    5.593939   3.075881   5.242932   5.119654   1.971691
    44  H    6.669064   4.120014   6.296257   5.996506   2.658205
    45  H    5.139395   3.180827   5.201010   5.525294   2.696380
    46  H    5.337033   2.780719   4.772785   4.675189   2.084897
                   21         22         23         24         25
    21  C    0.000000
    22  H    1.094976   0.000000
    23  H    1.090520   1.774350   0.000000
    24  H    1.091143   1.772889   1.778859   0.000000
    25  C    2.547660   3.511631   2.784428   2.768609   0.000000
    26  H    2.811118   3.804602   3.184031   2.588118   1.094509
    27  H    2.732881   3.756741   2.521523   3.036829   1.092862
    28  H    3.498931   4.354319   3.757203   3.794063   1.094234
    29  Cl   5.669203   6.219280   5.887105   6.255177   3.786731
    30  C    7.113430   7.077163   7.516152   7.916318   6.413988
    31  C    6.654852   6.542877   7.253759   7.337551   6.125176
    32  H    7.563320   7.452848   8.221021   8.170002   6.940434
    33  C    6.175972   5.827665   6.829910   6.883770   6.249595
    34  H    5.416453   5.026992   5.978380   6.224613   5.706735
    35  H    5.990508   5.605017   6.781202   6.559764   6.181888
    36  H    7.097461   6.651168   7.720053   7.832552   7.311897
    37  O    6.978535   6.876763   7.245762   7.890797   6.525555
    38  O    8.034529   8.126752   8.417215   8.777369   6.958122
    39  C    8.581859   8.760799   8.799494   9.379931   7.348114
    40  H    7.938244   8.220983   8.075391   8.729349   6.553823
    41  H    8.946587   9.036456   9.103350   9.820778   7.942293
    42  H    9.474072   9.701738   9.712685  10.219476   8.066194
    43  C    6.552539   6.722594   7.241958   6.983974   5.392828
    44  H    7.469765   7.668713   8.083408   7.945243   6.151188
    45  H    6.844242   6.899983   7.645629   7.196462   5.955663
    46  H    6.149555   6.479059   6.827339   6.472628   4.686655
                   26         27         28         29         30
    26  H    0.000000
    27  H    1.779873   0.000000
    28  H    1.794877   1.778983   0.000000
    29  Cl   4.571013   4.184182   2.797610   0.000000
    30  C    7.241714   6.940773   5.768328   3.766678   0.000000
    31  C    6.797493   6.840408   5.562332   4.085291   1.494193
    32  H    7.525597   7.718684   6.318564   4.731750   2.122511
    33  C    6.895219   6.956798   5.937846   5.053370   2.559023
    34  H    6.436903   6.303478   5.512396   4.863689   2.779687
    35  H    6.674291   6.998441   5.948955   5.452889   3.482333
    36  H    7.974777   7.980397   7.011052   5.974708   2.916332
    37  O    7.454749   6.897369   5.996000   4.148475   1.219761
    38  O    7.745484   7.481987   6.149129   3.721585   1.347813
    39  C    8.217869   7.693448   6.497616   3.829033   2.359055
    40  H    7.450654   6.812393   5.687866   2.993380   2.701241
    41  H    8.874205   8.213565   7.176692   4.626922   2.606934
    42  H    8.876439   8.435920   7.141089   4.379902   3.233930
    43  C    5.827664   6.268345   4.645721   3.356001   3.071402
    44  H    6.640518   6.947623   5.297464   3.470403   2.909132
    45  H    6.271467   6.908634   5.331933   4.397217   3.667937
    46  H    5.016898   5.593910   3.879517   2.936967   3.868207
                   31         32         33         34         35
    31  C    0.000000
    32  H    1.084649   0.000000
    33  C    1.516113   2.169334   0.000000
    34  H    2.174184   3.081400   1.090559   0.000000
    35  H    2.159812   2.537914   1.095033   1.775362   0.000000
    36  H    2.152721   2.484611   1.099767   1.773236   1.771515
    37  O    2.411692   3.192703   2.904612   2.720342   3.955469
    38  O    2.344985   2.473681   3.714473   4.077299   4.501565
    39  C    3.661559   3.907150   4.912913   5.061410   5.783127
    40  H    3.939076   4.380864   5.142010   5.116924   5.968525
    41  H    4.057491   4.363776   5.088185   5.148222   6.069520
    42  H    4.363561   4.378625   5.723113   5.996477   6.522452
    43  C    2.194278   2.196542   3.288731   3.831616   3.274163
    44  H    2.427151   2.168851   3.807363   4.413111   3.993851
    45  H    2.444803   2.160711   3.208229   3.940194   2.890323
    46  H    3.146191   3.288008   4.113078   4.472646   4.005872
                   36         37         38         39         40
    36  H    0.000000
    37  O    3.117519   0.000000
    38  O    4.030945   2.265793   0.000000
    39  C    5.197581   2.682180   1.437926   0.000000
    40  H    5.606163   2.878436   2.065723   1.093748   0.000000
    41  H    5.193556   2.498603   2.090855   1.092170   1.798139
    42  H    5.973260   3.718021   2.023158   1.090161   1.792807
    43  C    4.132319   4.135904   3.121491   4.305744   4.308679
    44  H    4.477796   4.078118   2.504134   3.639945   3.785834
    45  H    3.958710   4.733561   3.842516   5.155700   5.285917
    46  H    5.058867   4.825031   3.856866   4.828327   4.605914
                   41         42         43         44         45
    41  H    0.000000
    42  H    1.796869   0.000000
    43  C    5.125617   4.690569   0.000000
    44  H    4.538331   3.832296   1.085525   0.000000
    45  H    5.899129   5.511857   1.089693   1.811564   0.000000
    46  H    5.729761   5.177022   1.098329   1.779461   1.798119
                   46
    46  H    0.000000
 Stoichiometry    C14H24ClCuN2O4
 Framework group  C1[X(C14H24ClCuN2O4)]
 Deg. of freedom   132
 Full point group                 C1      NOp   1
 Largest Abelian subgroup         C1      NOp   1
 Largest concise Abelian subgroup C1      NOp   1
                         Standard orientation:                         
 ---------------------------------------------------------------------
 Center     Atomic      Atomic             Coordinates (Angstroms)
 Number     Number       Type             X           Y           Z
 ---------------------------------------------------------------------
      1          6           0        0.291266    3.509270   -0.786216
      2          6           0        1.376691    1.570259   -0.394777
      3          6           0       -0.652308    2.301756   -0.952000
      4          1           0        0.436916    4.091220   -1.699784
      5          1           0       -1.462759    2.296264   -0.222701
      6          1           0       -1.090374    2.218681   -1.947583
      7          1           0        0.010057    4.173471    0.033601
      8          7           0        0.210380    1.132133   -0.684437
      9          8           0        1.570198    2.907758   -0.441658
     10          6           0        3.386478   -2.741533   -0.135917
     11          6           0        2.488463   -0.671636   -0.052546
     12          6           0        1.841534   -2.801098   -0.092242
     13          1           0        3.866499   -3.169343    0.747818
     14          1           0        1.407025   -3.255187   -0.989189
     15          1           0        1.462880   -3.348437    0.775922
     16          1           0        3.822624   -3.180749   -1.035631
     17          7           0        1.434619   -1.391749   -0.006549
     18          8           0        3.676605   -1.318999   -0.151362
     19          6           0        2.600653    0.827032    0.100643
     20         29           0       -0.602614   -0.596545    0.255645
     21          6           0        3.855688    1.346477   -0.637025
     22          1           0        3.803766    1.131280   -1.709390
     23          1           0        3.933865    2.425905   -0.503016
     24          1           0        4.749317    0.868200   -0.232956
     25          6           0        2.715349    1.113788    1.629262
     26          1           0        3.557951    0.550652    2.042602
     27          1           0        2.894013    2.181210    1.781040
     28          1           0        1.788259    0.834364    2.138943
     29         17           0       -1.006414    0.729307    2.212348
     30          6           0       -3.059838   -0.314629   -0.767838
     31          6           0       -2.157766   -1.477193   -1.027305
     32          1           0       -2.707279   -2.403527   -0.899222
     33          6           0       -1.382710   -1.452683   -2.330104
     34          1           0       -0.887992   -0.494598   -2.493340
     35          1           0       -0.625946   -2.244041   -2.342698
     36          1           0       -2.066547   -1.632190   -3.172500
     37          8           0       -3.054171    0.731235   -1.395495
     38          8           0       -3.895674   -0.568738    0.258518
     39          6           0       -4.567448    0.575087    0.813509
     40          1           0       -3.831513    1.191640    1.337482
     41          1           0       -5.063927    1.150004    0.028770
     42          1           0       -5.294886    0.171827    1.518255
     43          6           0       -1.374079   -2.312973    0.844101
     44          1           0       -2.383593   -2.305095    1.243079
     45          1           0       -1.133601   -3.239268    0.322968
     46          1           0       -0.662419   -2.134962    1.661523
 ---------------------------------------------------------------------
 Rotational constants (GHZ):           0.3534250           0.2049693           0.1667878
 General basis read from cards:  (5D, 7F)
 ======================================================================================================
                                       Pseudopotential Parameters
 ======================================================================================================
  Center     Atomic      Valence      Angular      Power
  Number     Number     Electrons     Momentum     of R      Exponent        Coefficient   SO-Coeffient
 ======================================================================================================
    1          6
                                   No pseudopotential on this center.
    2          6
                                   No pseudopotential on this center.
    3          6
                                   No pseudopotential on this center.
    4          1
                                   No pseudopotential on this center.
    5          1
                                   No pseudopotential on this center.
    6          1
                                   No pseudopotential on this center.
    7          1
                                   No pseudopotential on this center.
    8          7
                                   No pseudopotential on this center.
    9          8
                                   No pseudopotential on this center.
   10          6
                                   No pseudopotential on this center.
   11          6
                                   No pseudopotential on this center.
   12          6
                                   No pseudopotential on this center.
   13          1
                                   No pseudopotential on this center.
   14          1
                                   No pseudopotential on this center.
   15          1
                                   No pseudopotential on this center.
   16          1
                                   No pseudopotential on this center.
   17          7
                                   No pseudopotential on this center.
   18          8
                                   No pseudopotential on this center.
   19          6
                                   No pseudopotential on this center.
   20         29           19
                                      D and up 
                                                     1      511.9951763      -10.00000000    0.00000000
                                                     2       93.2801074      -72.55482820    0.00000000
                                                     2       23.2206669      -12.74502310    0.00000000
                                      S - D
                                                     0      173.1180854        3.00000000    0.00000000
                                                     1      185.2419886       23.83518250    0.00000000
                                                     2       73.1517847      473.89304880    0.00000000
                                                     2       14.6884157      157.63458230    0.00000000
                                      P - D
                                                     0      100.7191369        5.00000000    0.00000000
                                                     1      130.8345665        6.49909360    0.00000000
                                                     2       53.8683720      351.46053950    0.00000000
                                                     2       14.0989469       85.50160360    0.00000000
   21          6
                                   No pseudopotential on this center.
   22          1
                                   No pseudopotential on this center.
   23          1
                                   No pseudopotential on this center.
   24          1
                                   No pseudopotential on this center.
   25          6
                                   No pseudopotential on this center.
   26          1
                                   No pseudopotential on this center.
   27          1
                                   No pseudopotential on this center.
   28          1
                                   No pseudopotential on this center.
   29         17
                                   No pseudopotential on this center.
   30          6
                                   No pseudopotential on this center.
   31          6
                                   No pseudopotential on this center.
   32          1
                                   No pseudopotential on this center.
   33          6
                                   No pseudopotential on this center.
   34          1
                                   No pseudopotential on this center.
   35          1
                                   No pseudopotential on this center.
   36          1
                                   No pseudopotential on this center.
   37          8
                                   No pseudopotential on this center.
   38          8
                                   No pseudopotential on this center.
   39          6
                                   No pseudopotential on this center.
   40          1
                                   No pseudopotential on this center.
   41          1
                                   No pseudopotential on this center.
   42          1
                                   No pseudopotential on this center.
   43          6
                                   No pseudopotential on this center.
   44          1
                                   No pseudopotential on this center.
   45          1
                                   No pseudopotential on this center.
   46          1
                                   No pseudopotential on this center.
 ======================================================================================================
 There are   391 symmetry adapted cartesian basis functions of A   symmetry.
 There are   368 symmetry adapted basis functions of A   symmetry.
   368 basis functions,   760 primitive gaussians,   391 cartesian basis functions
    95 alpha electrons       95 beta electrons
       nuclear repulsion energy      2578.0065447757 Hartrees.
 NAtoms=   46 NActive=   46 NUniq=   46 SFac= 1.00D+00 NAtFMM=   60 NAOKFM=F Big=F
 Integral buffers will be    131072 words long.
 Raffenetti 2 integral format.
 Two-electron integral symmetry is turned on.
 Nuclear repulsion after empirical dispersion term =     2577.9001704275 Hartrees.
 One-electron integrals computed using PRISM.
   1 Symmetry operations used in ECPInt.
 ECPInt:  NShTT=   10011 NPrTT=   61905 LenC2=    9126 LenP2D=   32639.
 LDataN:  DoStor=T MaxTD1= 4 Len=   56
 NBasis=   368 RedAO= T EigKep=  1.75D-03  NBF=   368
 NBsUse=   368 1.00D-06 EigRej= -1.00D+00 NBFU=   368
 ExpMin= 2.40D-02 ExpMax= 2.52D+04 ExpMxC= 3.78D+03 IAcc=3 IRadAn=         5 AccDes= 0.00D+00
 Harris functional with IExCor=  402 and IRadAn=       5 diagonalized for initial guess.
 HarFok:  IExCor=  402 AccDes= 0.00D+00 IRadAn=         5 IDoV= 1 UseB2=F ITyADJ=14
 ICtDFT=  3500011 ScaDFX=  1.000000  1.000000  1.000000  1.000000
 FoFCou: FMM=F IPFlag=           0 FMFlag=      100000 FMFlg1=           0
         NFxFlg=           0 DoJE=T BraDBF=F KetDBF=T FulRan=T
         wScrn=  0.000000 ICntrl=       500 IOpCl=  0 I1Cent=   200000004 NGrid=           0
         NMat0=    1 NMatS0=      1 NMatT0=    0 NMatD0=    1 NMtDS0=    0 NMtDT0=    0
 Petite list used in FoFCou.
 Requested convergence on RMS density matrix=1.00D-08 within 128 cycles.
 Requested convergence on MAX density matrix=1.00D-06.
 Requested convergence on             energy=1.00D-06.
 No special actions if energy rises.
 EnCoef did     3 forward-backward iterations
 EnCoef did     1 forward-backward iterations
 SCF Done:  E(RB3LYP) =  -1614.78191782     A.U. after   18 cycles
            NFock= 18  Conv=0.98D-08     -V/T= 2.0493
 DoSCS=F DFT=T ScalE2(SS,OS)=  1.000000  1.000000
 Range of M.O.s used for correlation:     1   368
 NBasis=   368 NAE=    95 NBE=    95 NFC=     0 NFV=     0
 NROrb=    368 NOA=    95 NOB=    95 NVA=   273 NVB=   273
   1 Symmetry operations used in ECPInt.
 ECPInt:  NShTT=   10011 NPrTT=   61905 LenC2=    9126 LenP2D=   32639.
 LDataN:  DoStor=T MaxTD1= 5 Len=  102
 Number of processors reduced to  26 by ecpmxn.
 Symmetrizing basis deriv contribution to polar:
 IMax=3 JMax=2 DiffMx= 0.00D+00
 G2DrvN: will do    47 centers at a time, making    1 passes.
 Calling FoFCou, ICntrl=  3107 FMM=F I1Cent=   0 AccDes= 0.00D+00.
 End of G2Drv F.D. properties file   721 does not exist.
 End of G2Drv F.D. properties file   722 does not exist.
 End of G2Drv F.D. properties file   788 does not exist.
          IDoAtm=1111111111111111111111111111111111111111111111
          Differentiating once with respect to nuclear coordinates.
 Keep R1 ints in memory in canonical form, NReq=2342036778.
          There are   141 degrees of freedom in the 1st order CPHF.  IDoFFX=6 NUNeed=     0.
    135 vectors produced by pass  0 Test12= 2.59D-14 1.00D-09 XBig12= 2.15D-01 7.74D-02.
 AX will form   135 AO Fock derivatives at one time.
    135 vectors produced by pass  1 Test12= 2.59D-14 1.00D-09 XBig12= 4.62D-02 4.39D-02.
    135 vectors produced by pass  2 Test12= 2.59D-14 1.00D-09 XBig12= 3.56D-04 1.92D-03.
    135 vectors produced by pass  3 Test12= 2.59D-14 1.00D-09 XBig12= 1.15D-06 8.97D-05.
    135 vectors produced by pass  4 Test12= 2.59D-14 1.00D-09 XBig12= 1.87D-09 3.55D-06.
    116 vectors produced by pass  5 Test12= 2.59D-14 1.00D-09 XBig12= 2.02D-12 1.05D-07.
      6 vectors produced by pass  6 Test12= 2.59D-14 1.00D-09 XBig12= 1.80D-15 3.71D-09.
 InvSVY:  IOpt=1 It=  1 EMax= 5.55D-16
 Solved reduced A of dimension   797 with   141 vectors.
 End of Minotr F.D. properties file   721 does not exist.
 End of Minotr F.D. properties file   722 does not exist.
 End of Minotr F.D. properties file   788 does not exist.

 **********************************************************************

            Population analysis using the SCF Density.

 **********************************************************************

 Orbital symmetries:
       Occupied  (A) (A) (A) (A) (A) (A) (A) (A) (A) (A) (A) (A)
                 (A) (A) (A) (A) (A) (A) (A) (A) (A) (A) (A) (A)
                 (A) (A) (A) (A) (A) (A) (A) (A) (A) (A) (A) (A)
                 (A) (A) (A) (A) (A) (A) (A) (A) (A) (A) (A) (A)
                 (A) (A) (A) (A) (A) (A) (A) (A) (A) (A) (A) (A)
                 (A) (A) (A) (A) (A) (A) (A) (A) (A) (A) (A) (A)
                 (A) (A) (A) (A) (A) (A) (A) (A) (A) (A) (A) (A)
                 (A) (A) (A) (A) (A) (A) (A) (A) (A) (A) (A)
       Virtual   (A) (A) (A) (A) (A) (A) (A) (A) (A) (A) (A) (A)
                 (A) (A) (A) (A) (A) (A) (A) (A) (A) (A) (A) (A)
                 (A) (A) (A) (A) (A) (A) (A) (A) (A) (A) (A) (A)
                 (A) (A) (A) (A) (A) (A) (A) (A) (A) (A) (A) (A)
                 (A) (A) (A) (A) (A) (A) (A) (A) (A) (A) (A) (A)
                 (A) (A) (A) (A) (A) (A) (A) (A) (A) (A) (A) (A)
                 (A) (A) (A) (A) (A) (A) (A) (A) (A) (A) (A) (A)
                 (A) (A) (A) (A) (A) (A) (A) (A) (A) (A) (A) (A)
                 (A) (A) (A) (A) (A) (A) (A) (A) (A) (A) (A) (A)
                 (A) (A) (A) (A) (A) (A) (A) (A) (A) (A) (A) (A)
                 (A) (A) (A) (A) (A) (A) (A) (A) (A) (A) (A) (A)
                 (A) (A) (A) (A) (A) (A) (A) (A) (A) (A) (A) (A)
                 (A) (A) (A) (A) (A) (A) (A) (A) (A) (A) (A) (A)
                 (A) (A) (A) (A) (A) (A) (A) (A) (A) (A) (A) (A)
                 (A) (A) (A) (A) (A) (A) (A) (A) (A) (A) (A) (A)
                 (A) (A) (A) (A) (A) (A) (A) (A) (A) (A) (A) (A)
                 (A) (A) (A) (A) (A) (A) (A) (A) (A) (A) (A) (A)
                 (A) (A) (A) (A) (A) (A) (A) (A) (A) (A) (A) (A)
                 (A) (A) (A) (A) (A) (A) (A) (A) (A) (A) (A) (A)
                 (A) (A) (A) (A) (A) (A) (A) (A) (A) (A) (A) (A)
                 (A) (A) (A) (A) (A) (A) (A) (A) (A) (A) (A) (A)
                 (A) (A) (A) (A) (A) (A) (A) (A) (A) (A) (A) (A)
                 (A) (A) (A) (A) (A) (A) (A) (A) (A)
 The electronic state is 1-A.
 Alpha  occ. eigenvalues -- -101.39547 -19.20784 -19.19195 -19.17009 -19.12007
 Alpha  occ. eigenvalues --  -14.34963 -14.33823 -10.30475 -10.30059 -10.29322
 Alpha  occ. eigenvalues --  -10.26415 -10.24109 -10.24013 -10.23784 -10.21687
 Alpha  occ. eigenvalues --  -10.20942 -10.20299 -10.19045 -10.18508 -10.17881
 Alpha  occ. eigenvalues --  -10.17670  -9.32489  -7.08329  -7.08127  -7.08084
 Alpha  occ. eigenvalues --   -4.30238  -2.81793  -2.81130  -2.79815  -1.11697
 Alpha  occ. eigenvalues --   -1.10142  -1.08568  -0.99848  -0.93429  -0.91429
 Alpha  occ. eigenvalues --   -0.85116  -0.78490  -0.78316  -0.75432  -0.71315
 Alpha  occ. eigenvalues --   -0.70258  -0.69062  -0.67403  -0.66769  -0.65235
 Alpha  occ. eigenvalues --   -0.63751  -0.62963  -0.60588  -0.55316  -0.53805
 Alpha  occ. eigenvalues --   -0.52953  -0.52459  -0.50629  -0.50102  -0.49147
 Alpha  occ. eigenvalues --   -0.48056  -0.46707  -0.46284  -0.45675  -0.44360
 Alpha  occ. eigenvalues --   -0.44100  -0.43382  -0.43168  -0.43128  -0.42105
 Alpha  occ. eigenvalues --   -0.41616  -0.41068  -0.40801  -0.40094  -0.38620
 Alpha  occ. eigenvalues --   -0.38601  -0.37993  -0.37731  -0.37430  -0.37239
 Alpha  occ. eigenvalues --   -0.36909  -0.36004  -0.35604  -0.35176  -0.34640
 Alpha  occ. eigenvalues --   -0.33797  -0.33569  -0.31855  -0.29100  -0.28321
 Alpha  occ. eigenvalues --   -0.28185  -0.28140  -0.26937  -0.26368  -0.26158
 Alpha  occ. eigenvalues --   -0.25381  -0.23465  -0.20671  -0.20385  -0.19619
 Alpha virt. eigenvalues --   -0.05548  -0.00943   0.00367   0.01827   0.02803
 Alpha virt. eigenvalues --    0.03416   0.05291   0.06434   0.09180   0.09966
 Alpha virt. eigenvalues --    0.10330   0.11419   0.11646   0.12860   0.13098
 Alpha virt. eigenvalues --    0.13508   0.13906   0.14246   0.14293   0.14753
 Alpha virt. eigenvalues --    0.15593   0.16094   0.16617   0.17229   0.17633
 Alpha virt. eigenvalues --    0.17805   0.18482   0.18521   0.18948   0.19056
 Alpha virt. eigenvalues --    0.19688   0.20030   0.20627   0.21107   0.21655
 Alpha virt. eigenvalues --    0.22305   0.22747   0.23490   0.24027   0.24732
 Alpha virt. eigenvalues --    0.25424   0.25862   0.26355   0.26983   0.27432
 Alpha virt. eigenvalues --    0.28456   0.29689   0.31962   0.35563   0.36519
 Alpha virt. eigenvalues --    0.37408   0.39834   0.41940   0.44612   0.46677
 Alpha virt. eigenvalues --    0.49087   0.49608   0.50220   0.51023   0.51706
 Alpha virt. eigenvalues --    0.51942   0.52715   0.53812   0.54274   0.54359
 Alpha virt. eigenvalues --    0.55084   0.55826   0.55960   0.56344   0.57578
 Alpha virt. eigenvalues --    0.58059   0.59121   0.59574   0.59953   0.60642
 Alpha virt. eigenvalues --    0.62381   0.63549   0.64863   0.65557   0.66157
 Alpha virt. eigenvalues --    0.67304   0.67955   0.68531   0.68969   0.69877
 Alpha virt. eigenvalues --    0.70962   0.71557   0.72628   0.72920   0.74179
 Alpha virt. eigenvalues --    0.74941   0.75606   0.76190   0.78619   0.79572
 Alpha virt. eigenvalues --    0.79728   0.80318   0.81464   0.82260   0.82857
 Alpha virt. eigenvalues --    0.83243   0.83797   0.84712   0.84907   0.85520
 Alpha virt. eigenvalues --    0.86401   0.86691   0.87770   0.88397   0.88611
 Alpha virt. eigenvalues --    0.88778   0.89637   0.90092   0.90416   0.91169
 Alpha virt. eigenvalues --    0.91960   0.92493   0.92595   0.92784   0.93422
 Alpha virt. eigenvalues --    0.94138   0.95375   0.95958   0.97076   0.98054
 Alpha virt. eigenvalues --    0.98855   0.99485   1.00023   1.00278   1.01011
 Alpha virt. eigenvalues --    1.02438   1.02785   1.03570   1.04909   1.05906
 Alpha virt. eigenvalues --    1.06123   1.06972   1.07819   1.09142   1.10105
 Alpha virt. eigenvalues --    1.10806   1.11310   1.12602   1.14743   1.15187
 Alpha virt. eigenvalues --    1.16222   1.16891   1.19006   1.19503   1.22148
 Alpha virt. eigenvalues --    1.24449   1.26065   1.28246   1.29736   1.30750
 Alpha virt. eigenvalues --    1.33641   1.33772   1.36083   1.37618   1.39408
 Alpha virt. eigenvalues --    1.40296   1.41837   1.42401   1.44034   1.44530
 Alpha virt. eigenvalues --    1.46754   1.49856   1.50090   1.51783   1.54181
 Alpha virt. eigenvalues --    1.55787   1.58877   1.59505   1.62057   1.63144
 Alpha virt. eigenvalues --    1.66126   1.66381   1.68119   1.69393   1.70057
 Alpha virt. eigenvalues --    1.70935   1.72802   1.74963   1.76764   1.77219
 Alpha virt. eigenvalues --    1.77758   1.79456   1.80482   1.81370   1.81766
 Alpha virt. eigenvalues --    1.82165   1.83543   1.84296   1.85019   1.86271
 Alpha virt. eigenvalues --    1.87196   1.89148   1.90413   1.92405   1.93285
 Alpha virt. eigenvalues --    1.93605   1.94950   1.95935   1.98705   1.99584
 Alpha virt. eigenvalues --    1.99711   2.01129   2.03299   2.03944   2.04481
 Alpha virt. eigenvalues --    2.04798   2.06968   2.07477   2.08390   2.08767
 Alpha virt. eigenvalues --    2.09114   2.10396   2.13148   2.14258   2.14663
 Alpha virt. eigenvalues --    2.16653   2.17888   2.18631   2.19784   2.21072
 Alpha virt. eigenvalues --    2.22064   2.23146   2.24869   2.25558   2.28031
 Alpha virt. eigenvalues --    2.28552   2.30748   2.32644   2.33143   2.33393
 Alpha virt. eigenvalues --    2.34326   2.36063   2.37222   2.37321   2.38593
 Alpha virt. eigenvalues --    2.42243   2.43598   2.46480   2.46828   2.47962
 Alpha virt. eigenvalues --    2.49038   2.49335   2.51996   2.52703   2.54156
 Alpha virt. eigenvalues --    2.55895   2.59994   2.62687   2.64432   2.64854
 Alpha virt. eigenvalues --    2.67418   2.71108   2.75348   2.76010   2.76932
 Alpha virt. eigenvalues --    2.79635   2.81866   2.85163   2.90277   2.94317
 Alpha virt. eigenvalues --    2.98969   3.00749   3.06021   3.08421   3.16360
 Alpha virt. eigenvalues --    3.18088   3.21094   5.96884
          Condensed to atoms (all electrons):
               1          2          3          4          5          6
     1  C    4.909135  -0.059837   0.330798   0.372913  -0.030891  -0.035504
     2  C   -0.059837   4.550358  -0.060724   0.001919   0.001302   0.001223
     3  C    0.330798  -0.060724   4.980385  -0.030409   0.371820   0.375634
     4  H    0.372913   0.001919  -0.030409   0.574402   0.003730  -0.007287
     5  H   -0.030891   0.001302   0.371820   0.003730   0.497832  -0.035918
     6  H   -0.035504   0.001223   0.375634  -0.007287  -0.035918   0.547039
     7  H    0.374792   0.003906  -0.027603  -0.043699  -0.007553   0.003930
     8  N   -0.044715   0.480433   0.306032   0.002522  -0.036178  -0.038386
     9  O    0.239182   0.295141  -0.043624  -0.034455   0.002085   0.002381
    10  C   -0.000000  -0.000127   0.000000   0.000000   0.000000  -0.000000
    11  C   -0.000122  -0.035954   0.000006   0.000009   0.000021  -0.000030
    12  C    0.000000  -0.000006  -0.000002  -0.000000  -0.000000   0.000000
    13  H    0.000000  -0.000007  -0.000000  -0.000000   0.000000   0.000000
    14  H    0.000000  -0.000039  -0.000000   0.000000   0.000000   0.000000
    15  H   -0.000000   0.000013  -0.000000   0.000000   0.000000   0.000000
    16  H    0.000000   0.000014  -0.000000  -0.000000  -0.000000   0.000000
    17  N   -0.000009  -0.003972   0.000379   0.000000   0.000024   0.000001
    18  O    0.000000   0.001147   0.000001  -0.000000   0.000000  -0.000000
    19  C    0.005670   0.357154   0.005488  -0.000053  -0.000258  -0.000080
    20  Cu   0.005640  -0.030313  -0.028554   0.000744   0.000750  -0.000470
    21  C    0.000087  -0.047508  -0.000238  -0.000073  -0.000010   0.000026
    22  H   -0.000044  -0.002578  -0.000023   0.000003   0.000001  -0.000004
    23  H   -0.000068  -0.009337   0.000034   0.000014  -0.000001  -0.000001
    24  H    0.000003   0.004651   0.000006  -0.000001  -0.000000  -0.000000
    25  C   -0.000154  -0.039878  -0.000228   0.000002   0.000081  -0.000013
    26  H    0.000008   0.005842   0.000008   0.000000  -0.000001   0.000000
    27  H   -0.000153  -0.008577   0.000018   0.000010  -0.000001  -0.000001
    28  H   -0.000009  -0.004006  -0.000067  -0.000000  -0.000029   0.000002
    29  Cl  -0.000572  -0.001429  -0.007048   0.000010   0.009532   0.000185
    30  C   -0.000006   0.000039   0.000428   0.000000   0.000526   0.000393
    31  C    0.000001   0.000058  -0.000663  -0.000000   0.000150  -0.000231
    32  H    0.000000  -0.000001   0.000003  -0.000000  -0.000002   0.000002
    33  C   -0.000017  -0.000020   0.000007   0.000000  -0.000045   0.000409
    34  H    0.000016   0.000116   0.000143  -0.000001  -0.000085   0.000470
    35  H   -0.000000  -0.000012   0.000012   0.000000  -0.000000   0.000010
    36  H    0.000000  -0.000001  -0.000011  -0.000000  -0.000006  -0.000017
    37  O    0.000424   0.000023  -0.000130  -0.000003   0.003605   0.003176
    38  O   -0.000000   0.000000   0.000066  -0.000000  -0.000308   0.000037
    39  C    0.000001  -0.000000  -0.000076  -0.000000   0.000257  -0.000019
    40  H    0.000005  -0.000001  -0.000165   0.000000   0.000898  -0.000017
    41  H   -0.000001  -0.000000  -0.000012   0.000000  -0.000017  -0.000009
    42  H   -0.000000  -0.000000   0.000000   0.000000   0.000004  -0.000000
    43  C   -0.000002   0.000194   0.000135   0.000000  -0.000010   0.000002
    44  H    0.000000  -0.000002  -0.000006   0.000000   0.000001  -0.000000
    45  H   -0.000000  -0.000006  -0.000001   0.000000   0.000000  -0.000000
    46  H    0.000001   0.000001  -0.000007  -0.000000  -0.000002   0.000000
               7          8          9         10         11         12
     1  C    0.374792  -0.044715   0.239182  -0.000000  -0.000122   0.000000
     2  C    0.003906   0.480433   0.295141  -0.000127  -0.035954  -0.000006
     3  C   -0.027603   0.306032  -0.043624   0.000000   0.000006  -0.000002
     4  H   -0.043699   0.002522  -0.034455   0.000000   0.000009  -0.000000
     5  H   -0.007553  -0.036178   0.002085   0.000000   0.000021  -0.000000
     6  H    0.003930  -0.038386   0.002381  -0.000000  -0.000030   0.000000
     7  H    0.548419   0.002524  -0.034435  -0.000000  -0.000005  -0.000000
     8  N    0.002524   6.791644  -0.079866  -0.000006  -0.003334   0.000322
     9  O   -0.034435  -0.079866   8.178838   0.000000   0.001740   0.000001
    10  C   -0.000000  -0.000006   0.000000   4.876626  -0.057795   0.347675
    11  C   -0.000005  -0.003334   0.001740  -0.057795   4.559510  -0.071088
    12  C   -0.000000   0.000322   0.000001   0.347675  -0.071088   4.957981
    13  H   -0.000000   0.000000  -0.000000   0.375053   0.003117  -0.029873
    14  H   -0.000000   0.000011  -0.000000  -0.030531   0.000084   0.369417
    15  H    0.000000   0.000000   0.000000  -0.030192   0.002214   0.372061
    16  H   -0.000000   0.000000  -0.000000   0.376811   0.002460  -0.029089
    17  N    0.000000  -0.016115   0.000026  -0.049071   0.493523   0.328876
    18  O   -0.000000   0.000013  -0.000008   0.250219   0.299639  -0.050092
    19  C   -0.000137  -0.051190  -0.059849   0.005146   0.350208   0.005771
    20  Cu  -0.000258   0.158418   0.005606   0.002142  -0.022987  -0.014216
    21  C    0.000027   0.001427  -0.004571   0.000178  -0.045919  -0.000233
    22  H    0.000000   0.000196  -0.000156  -0.000092  -0.002408  -0.000015
    23  H   -0.000008   0.000096   0.008231  -0.000001   0.004508   0.000006
    24  H    0.000001  -0.000062   0.000279   0.000001  -0.009573   0.000022
    25  C    0.000009  -0.003050  -0.001776  -0.000244  -0.036836  -0.000285
    26  H   -0.000002  -0.000026   0.000087  -0.000168  -0.007738   0.000000
    27  H   -0.000036  -0.000130   0.005011   0.000009   0.005683   0.000007
    28  H    0.000008   0.000696  -0.000537  -0.000005  -0.004875  -0.000072
    29  Cl   0.000386  -0.024031  -0.000278  -0.000003  -0.000443   0.000097
    30  C    0.000000  -0.002286  -0.000001   0.000000   0.000001   0.000002
    31  C    0.000000   0.002622   0.000001  -0.000008  -0.000009   0.000103
    32  H    0.000000   0.000027  -0.000000  -0.000000   0.000001  -0.000004
    33  C    0.000000  -0.007147  -0.000002   0.000005  -0.000023  -0.000447
    34  H   -0.000000   0.001124  -0.000002  -0.000003  -0.000017   0.000029
    35  H    0.000000  -0.000229  -0.000000   0.000000  -0.000034  -0.000070
    36  H   -0.000000   0.000105   0.000000  -0.000000   0.000000   0.000003
    37  O   -0.000003  -0.001065  -0.000001   0.000000   0.000000   0.000000
    38  O   -0.000000   0.000009   0.000000   0.000000  -0.000000  -0.000000
    39  C   -0.000000  -0.000004  -0.000000   0.000000  -0.000000  -0.000000
    40  H   -0.000001  -0.000022   0.000000  -0.000000   0.000000  -0.000000
    41  H    0.000000   0.000000   0.000000   0.000000   0.000000  -0.000000
    42  H   -0.000000  -0.000000   0.000000  -0.000000   0.000000   0.000000
    43  C    0.000000  -0.003294  -0.000000   0.000056  -0.000003  -0.001533
    44  H    0.000000   0.000019  -0.000000   0.000000   0.000002   0.000023
    45  H    0.000000   0.000028  -0.000000   0.000036   0.000008   0.001174
    46  H   -0.000000   0.000471   0.000000  -0.000096   0.000047  -0.000400
              13         14         15         16         17         18
     1  C    0.000000   0.000000  -0.000000   0.000000  -0.000009   0.000000
     2  C   -0.000007  -0.000039   0.000013   0.000014  -0.003972   0.001147
     3  C   -0.000000  -0.000000  -0.000000  -0.000000   0.000379   0.000001
     4  H   -0.000000   0.000000   0.000000  -0.000000   0.000000  -0.000000
     5  H    0.000000   0.000000   0.000000  -0.000000   0.000024   0.000000
     6  H    0.000000   0.000000   0.000000   0.000000   0.000001  -0.000000
     7  H   -0.000000  -0.000000   0.000000  -0.000000   0.000000  -0.000000
     8  N    0.000000   0.000011   0.000000   0.000000  -0.016115   0.000013
     9  O   -0.000000  -0.000000   0.000000  -0.000000   0.000026  -0.000008
    10  C    0.375053  -0.030531  -0.030192   0.376811  -0.049071   0.250219
    11  C    0.003117   0.000084   0.002214   0.002460   0.493523   0.299639
    12  C   -0.029873   0.369417   0.372061  -0.029089   0.328876  -0.050092
    13  H    0.558435   0.004204  -0.008295  -0.042959   0.002645  -0.035828
    14  H    0.004204   0.569735  -0.043803  -0.007910  -0.039491   0.002585
    15  H   -0.008295  -0.043803   0.555197   0.003865  -0.037546   0.002502
    16  H   -0.042959  -0.007910   0.003865   0.556794   0.002584  -0.033811
    17  N    0.002645  -0.039491  -0.037546   0.002584   6.757558  -0.081829
    18  O   -0.035828   0.002585   0.002502  -0.033811  -0.081829   8.163830
    19  C   -0.000238  -0.000083  -0.000091   0.000010  -0.054678  -0.053853
    20  Cu   0.000659  -0.000813  -0.001185   0.000128   0.134205   0.004686
    21  C    0.000040   0.000020  -0.000006  -0.000077   0.002924  -0.003839
    22  H    0.000002  -0.000003   0.000000   0.000000   0.000082   0.000053
    23  H    0.000000  -0.000000  -0.000000  -0.000001  -0.000064   0.000363
    24  H   -0.000030  -0.000001  -0.000000   0.000029   0.000032   0.006381
    25  C    0.000077  -0.000012   0.000037  -0.000008  -0.002809  -0.002898
    26  H   -0.000054  -0.000002   0.000004   0.000009  -0.000591   0.003710
    27  H   -0.000001   0.000000  -0.000001   0.000000   0.000036  -0.000026
    28  H   -0.000000   0.000002  -0.000006  -0.000000   0.000992  -0.000087
    29  Cl  -0.000000  -0.000010  -0.000050   0.000000  -0.002583   0.000000
    30  C   -0.000000   0.000003  -0.000002  -0.000000   0.000084   0.000000
    31  C    0.000000   0.000110   0.000003   0.000000  -0.005193  -0.000001
    32  H    0.000000  -0.000009  -0.000002  -0.000000   0.000028  -0.000000
    33  C   -0.000000   0.000049   0.000008   0.000000   0.000468   0.000000
    34  H    0.000000  -0.000005  -0.000001  -0.000000  -0.000626  -0.000000
    35  H    0.000000   0.002218  -0.000071  -0.000006   0.000276   0.000001
    36  H    0.000000  -0.000013   0.000000   0.000000  -0.000004  -0.000000
    37  O   -0.000000  -0.000000  -0.000000  -0.000000   0.000004   0.000000
    38  O   -0.000000  -0.000000   0.000000  -0.000000   0.000001   0.000000
    39  C   -0.000000   0.000000  -0.000000  -0.000000   0.000000   0.000000
    40  H    0.000000   0.000000   0.000000   0.000000  -0.000000  -0.000000
    41  H    0.000000   0.000000   0.000000   0.000000   0.000000  -0.000000
    42  H   -0.000000  -0.000000  -0.000000  -0.000000   0.000000  -0.000000
    43  C   -0.000000  -0.000067   0.001178  -0.000001  -0.007317  -0.000002
    44  H   -0.000000   0.000001  -0.000016   0.000000   0.000403   0.000000
[...]
 00000233,-0.00005291,-0.00013458,0.00001102,-0.00006532,-0.00125061,0.
 00224812,0.00143476,-0.00188857,0.00423969,-0.00039692,-0.01535836,-0.
 01444535,0.02249198,-0.01004570,0.00327753,-0.01483616,0.00646537,-0.0
 0175559,0.00269066,0.00035867,-0.00032988,0.00080454,0.00046752,-0.000
 07490,-0.00063877,-0.00072720,-0.00037390,0.00209188,-0.00076970,-0.00
 331477,0.00001255,-0.00052201,0.00038224,0.00003002,-0.00013337,0.0005
 8782,0.00027288,0.00009050,-0.00015330,-0.00003803,0.00001137,-0.00011
 949,-0.00000637,-0.00006839,-0.00002501,-0.00003656,0.57509241,0.00021
 451,-0.00002488,0.00014776,-0.00184971,-0.00123840,-0.00073465,0.00074
 409,-0.00008199,0.00008580,0.00001754,0.00008080,-0.00005392,0.0000355
 2,-0.00002662,-0.00000469,-0.00001801,-0.00005892,-0.00003628,-0.00000
 993,0.00008488,0.00001586,0.00133522,0.00308618,-0.00281364,0.00048039
 ,0.00189179,0.00042100,0.00041050,0.00000340,-0.00012558,-0.00055191,0
 .00039922,0.00005210,0.00051794,0.00116079,0.00000262,-0.00003156,-0.0
 0004012,0.00000466,0.00012928,-0.00009079,-0.00075232,0.00041290,-0.00
 013611,0.00057802,-0.00001237,-0.00003006,0.00000884,-0.00130843,-0.00
 072978,0.00120048,0.00037894,-0.00102003,-0.00016998,-0.00016410,0.000
 13429,0.00001282,-0.01224209,-0.04175432,0.01354863,0.00007045,-0.0001
 5448,0.00011302,-0.00003730,0.00001372,-0.00000565,-0.00005113,-0.0000
 0963,-0.00000828,0.00010857,0.00002859,-0.00000532,0.00010132,-0.00011
 441,-0.00003777,0.00007632,0.00001253,0.00009762,-0.00000877,0.0000012
 3,-0.00002442,-0.00000536,0.00001828,-0.00007592,-0.00082684,-0.005176
 09,-0.00028731,0.00772205,-0.00348102,0.00357791,0.00502878,-0.0143300
 7,0.00183295,-0.00459435,-0.00008201,-0.00400325,-0.00150066,-0.000424
 25,-0.00100698,0.00035427,-0.00012088,0.00024618,0.00033317,0.00027792
 ,-0.00072305,0.00028012,0.00017075,-0.00113236,-0.00062522,-0.00091769
 ,-0.00057672,-0.00075750,-0.00182343,0.00317025,-0.00008914,0.00008508
 ,0.00027976,0.00008152,0.00006927,-0.00000102,0.00007342,-0.00014345,0
 .00004887,-0.00012543,0.00005985,0.00001617,-0.01871351,0.38941398,0.0
 0034143,0.00002043,0.00014989,-0.00093386,-0.00051566,-0.00035575,0.00
 092698,-0.00012793,0.00033193,0.00000296,0.00008905,-0.00005094,0.0001
 8617,0.00000203,0.00034819,0.00013820,0.00025226,-0.00028524,-0.000019
 83,0.00001554,0.00000770,0.00121538,0.00109319,-0.00066853,-0.00006361
 ,0.00152805,0.00018464,-0.00013861,0.00039684,0.00001740,-0.00145936,-
 0.00087577,-0.00023256,0.00036759,0.00106864,0.00034578,0.00001101,-0.
 00003354,0.00003045,0.00015080,-0.00011830,-0.00038261,-0.00029637,0.0
 0037298,0.00027716,0.00006524,-0.00006400,-0.00003996,0.00297527,0.000
 87323,-0.00291874,0.00157059,-0.00065857,0.00026684,-0.00012011,0.0000
 0300,-0.00002188,0.02113621,0.02077397,-0.00500713,-0.00003970,-0.0000
 0337,0.00011307,0.00001011,-0.00000741,-0.00004566,0.00000748,0.000027
 90,-0.00001495,0.00002750,-0.00000979,-0.00001533,-0.00001721,0.000037
 92,-0.00001327,0.00004200,-0.00002544,0.00000005,0.00003150,0.00005049
 ,0.00000285,-0.00013717,-0.00007056,-0.00009362,-0.00300631,0.00170969
 ,0.00077415,-0.00560158,0.01127354,0.01048474,0.00562756,-0.03023414,0
 .00992430,-0.01103133,0.00522018,-0.01648174,0.00302893,-0.00036357,-0
 .00212949,0.00026231,-0.00027947,0.00057488,-0.00052855,0.00063873,0.0
 0041299,-0.00014707,0.00037404,0.00198642,0.00064091,-0.00745601,-0.00
 076413,0.00322040,-0.00060112,-0.00345452,-0.00073406,0.00133639,0.000
 49536,0.00030805,-0.00038936,-0.00011408,-0.00006484,-0.00020347,-0.00
 001226,0.00015217,-0.00015056,-0.00016457,-0.02343306,0.17262590,0.386
 35659,-0.00001424,0.00000833,0.00000177,-0.00010557,0.00007054,-0.0000
 6214,-0.00000546,-0.00000340,-0.00000656,0.00000354,-0.00000400,-0.000
 00047,0.00001875,-0.00000443,0.00002012,0.00001373,-0.00000501,-0.0000
 1240,0.00000240,-0.00000607,0.00000143,0.00016816,0.00011439,-0.000023
 04,0.00004430,-0.00001979,0.00001728,0.00008318,-0.00010822,0.00004201
 ,0.00033538,0.00041914,0.00006687,0.00007590,-0.00010834,-0.00023499,-
 0.00001124,0.00000729,-0.00000960,0.00000639,0.00000311,0.00004392,0.0
 0005386,-0.00013617,0.00008894,-0.00002974,0.00000952,0.00000714,-0.00
 055046,-0.00038186,0.00033918,-0.00040507,0.00002815,-0.00003641,-0.00
 001546,0.00004829,-0.00001577,-0.00078572,0.00003566,-0.00002789,0.000
 01763,-0.00003277,-0.00001628,-0.00000200,0.00000626,-0.00000205,-0.00
 001233,-0.00001181,0.00000620,0.00000970,0.00001054,0.00000307,0.00001
 206,-0.00005241,0.00003560,0.00001354,0.00000767,0.00000633,-0.0000077
 3,-0.00001256,-0.00001890,-0.00003108,0.00002494,0.00000829,0.00038600
 ,0.00023866,-0.00018481,0.00075069,-0.00002267,-0.00034674,0.00123052,
 -0.00059633,-0.00351304,0.00131674,0.00061813,-0.00099812,-0.00014878,
 0.00082008,-0.00031309,0.00006461,0.00004534,-0.00020787,-0.00008630,-
 0.00003439,0.00005079,0.00001827,-0.00001149,-0.00011958,-0.00011569,-
 0.00004427,0.00032920,-0.00159164,0.00115697,-0.00072629,-0.00012552,0
 .00026035,0.00020680,0.00002182,-0.00007297,-0.00000396,0.00001780,-0.
 00006817,0.00000581,-0.00000632,-0.00000572,0.00000944,-0.31533175,0.0
 0339943,0.09821740,0.33227669,-0.00000613,-0.00002840,0.00001279,0.000
 11796,-0.00000320,-0.00002233,-0.00008806,-0.00001900,0.00002485,0.000
 00132,-0.00000128,-0.00000782,-0.00000145,-0.00001777,0.00003126,0.000
 00653,0.00002254,-0.00001483,-0.00001019,-0.00001798,-0.00000193,0.000
 08282,-0.00029956,-0.00018850,-0.00004621,-0.00004761,0.00004139,-0.00
 011951,0.00004074,-0.00003198,0.00010467,0.00009578,-0.00000133,0.0002
 2587,-0.00028764,0.00005270,0.00001263,0.00000195,0.00000275,-0.000062
 61,-0.00002549,0.00019718,-0.00011651,0.00002670,-0.00025825,0.0000257
 4,0.00000164,-0.00000420,-0.00067882,-0.00036888,0.00001159,-0.0001029
 7,0.00016034,0.00001116,0.00000453,-0.00000018,-0.00000206,-0.00506050
 ,0.00070363,0.00338566,-0.00000084,0.00000148,-0.00000156,0.00000583,0
 .,-0.00000622,-0.00000145,-0.00000110,0.00000083,-0.00000494,0.0000004
 6,-0.00000121,0.00000688,-0.00001191,0.00001817,0.00001102,-0.00000412
 ,-0.00001171,-0.00000291,-0.00000165,-0.00000003,-0.00005161,0.0000225
 5,-0.00000070,0.00052867,0.00052948,0.00006701,-0.00385662,0.00063120,
 0.00476178,-0.00439720,-0.00465935,0.00825507,-0.00128115,0.00050692,-
 0.00158040,0.00262643,-0.00045977,0.00134926,-0.00001657,-0.00000516,0
 .00009257,-0.00002986,0.00002072,-0.00009560,-0.00043511,-0.00015104,0
 .00076640,0.00078055,-0.00069821,-0.00091814,0.00159904,0.00077925,-0.
 00201726,0.00033176,-0.00054766,-0.00075416,0.00003194,-0.00006852,0.0
 0005290,-0.00020298,0.00025787,0.00001386,0.00003946,0.00000683,0.0000
 3191,-0.00375232,-0.03959265,-0.01390731,-0.00507668,0.03928067,-0.000
 00944,0.00001980,-0.00000931,-0.00017234,0.00001923,-0.00004834,0.0000
 5516,0.00001660,-0.00002209,0.00000286,-0.00000162,0.00000171,0.000008
 77,0.00000054,-0.00000285,0.00000854,-0.00001198,0.00000402,0.00000639
 ,0.00000539,0.00000178,0.00001935,0.00026434,0.00011968,0.00006479,0.0
 0003265,-0.00000940,0.00000279,-0.00004177,0.00007608,0.00024592,0.000
 22186,0.00008411,-0.00010607,-0.00005933,-0.00028888,0.00001646,0.0000
 0020,-0.00000643,-0.00006993,0.00004702,0.00014985,0.00013943,-0.00018
 388,-0.00000153,-0.00002688,0.00000538,0.00000605,-0.00036188,0.000000
 05,0.00081354,-0.00023031,0.00006988,-0.00011505,-0.00000540,0.0000314
 6,0.00000171,0.00268962,-0.00019345,-0.00274189,0.00001199,-0.00001814
 ,-0.00000636,-0.00000287,0.00000337,0.00000698,-0.00000804,-0.00000546
 ,0.00000231,0.00000833,0.00000245,0.00000141,0.00001475,-0.00003412,0.
 00000460,0.00000982,0.00000534,0.00000900,-0.00000859,-0.00000992,-0.0
 0000565,0.00000417,0.00001900,-0.00000193,0.00019655,-0.00007354,-0.00
 017846,0.00198395,0.00008691,-0.00302703,0.00571083,0.00368737,-0.0089
 3351,0.00131867,-0.00025339,-0.00183405,-0.00223517,0.00028395,-0.0012
 6522,-0.00010043,0.00006493,-0.00009966,-0.00020347,0.00012615,0.00029
 143,0.00031413,0.00024731,-0.00068179,-0.00032785,0.00027738,0.0006814
 8,-0.00044209,-0.00105739,0.00076392,-0.00026381,0.00025608,0.00081434
 ,-0.00000283,-0.00009580,-0.00001640,0.00015553,-0.00022958,-0.0000990
 5,0.00006162,0.00000348,-0.00001016,0.10152134,-0.01091579,-0.07551378
 ,-0.09956947,0.00695013,0.08593125,0.00002283,-0.00000181,0.00000291,0
 .00006240,-0.00008005,-0.00000207,0.00005801,-0.00000216,0.00001224,-0
 .00000285,0.00000556,-0.00000412,-0.00001277,0.00001619,-0.00001012,-0
 .00000414,0.00001032,0.00000035,-0.00000348,0.00000824,-0.00000191,-0.
 00003731,0.00011704,-0.00007450,-0.00005260,0.00008901,0.00000491,-0.0
 0021401,0.00006872,-0.00004566,-0.00015073,-0.00015498,-0.00004581,-0.
 00052313,-0.00032697,0.00012809,0.00005190,-0.00000338,0.00001816,-0.0
 0021771,0.00001646,0.00018536,-0.00054979,0.00005937,-0.00028354,0.000
 05566,-0.00000414,-0.00001566,0.00036005,0.00045927,0.00013411,0.00029
 092,0.00012760,-0.00002177,0.00002161,-0.00005483,0.00002750,0.0004857
 7,-0.00125671,-0.00113258,-0.00001413,0.00003761,0.00002307,-0.0000011
 7,-0.00000786,0.00000319,0.00001371,0.00001463,-0.00000636,-0.00001033
 ,-0.00001146,-0.00000459,0.00000967,0.00005316,-0.00004248,-0.00000659
 ,-0.00000684,-0.00000884,0.00000301,0.00001106,0.00002824,0.00002012,0
 .00000676,-0.00001437,0.00026322,-0.00083282,-0.00026795,-0.00098873,0
 .00012436,0.00122961,-0.00022496,-0.00010775,0.00084970,-0.00157222,0.
 00141303,-0.00124264,0.00015802,-0.00033271,-0.00019766,-0.00002306,-0
 .00001864,0.00007622,0.00000856,0.00016903,0.00001543,-0.00008536,0.00
 011549,0.00000338,0.00020980,-0.00008211,-0.00029901,-0.00015186,0.000
 71941,-0.00084255,0.00009667,-0.00020242,-0.00026017,-0.00000122,-0.00
 002099,-0.00000085,-0.00004992,0.00009171,0.00000468,0.00001938,-0.000
 00690,0.00000908,-0.06685965,0.05255536,0.02977606,-0.00192163,0.02549
 066,0.01258220,0.06530378,0.00003577,0.00004746,0.00000641,0.00031960,
 -0.00002696,0.00011761,0.00011523,0.00000312,-0.00000099,-0.00001334,-
 0.00000493,0.00000746,-0.00001496,0.00007545,0.00001430,0.00002005,0.0
 0004515,-0.00003677,-0.00000055,0.00000871,-0.00000801,-0.00037550,0.0
 0025278,-0.00014802,-0.00017791,-0.00001717,-0.00005234,-0.00023370,0.
 00013263,-0.00000902,-0.00018418,-0.00039194,-0.00002335,0.00014190,-0
 .00044658,0.00005194,0.00005999,0.00000179,0.00001723,-0.00013875,0.00
 008588,0.00040750,-0.00004420,0.00018783,-0.00048079,0.00006241,0.0000
 0242,-0.00001734,0.00030976,0.00054950,0.00018810,0.00033694,0.0003218
 0,-0.00003987,0.00003889,-0.00009440,0.00002526,0.00280262,-0.00391480
 ,-0.00213941,-0.00002353,0.00006806,0.00001318,0.00000113,-0.00001393,
 0.00000849,0.00002663,0.00002152,-0.00000725,-0.00003041,-0.00002027,-
 0.00000480,-0.00001127,0.00009956,-0.00005602,-0.00003248,-0.00001080,
 -0.00001952,0.00000909,0.00001854,0.00003813,0.00007640,-0.00002285,0.
 00000230,-0.00056721,-0.00057206,-0.00036044,-0.00013148,0.00242355,0.
 00274214,0.00169911,-0.00923837,0.00113697,0.00009089,0.00072528,-0.00
 072406,0.00130508,-0.00025373,0.00047657,-0.00003439,0.00005520,-0.000
 04752,-0.00047984,0.00023149,0.00033884,-0.00030972,0.00011938,0.00048
 394,0.00003358,-0.00140738,-0.00015973,0.00070562,-0.00038175,-0.00050
 176,-0.00029666,0.00026291,0.00015235,0.00005931,-0.00005241,-0.000028
 18,0.00002177,-0.00006643,0.00000752,0.00005031,-0.00001227,-0.0000431
 8,0.05385707,-0.24319224,-0.13503243,-0.00089520,0.00288037,0.00109504
 ,-0.06030581,0.25426237,-0.00001902,-0.00000851,-0.00002872,0.00008278
 ,0.00010419,0.00000503,-0.00009305,-0.00000835,-0.00003549,-0.00000308
 ,-0.00000666,0.00001174,-0.00007898,0.00001488,-0.00011102,-0.00005277
 ,-0.00003877,0.00006629,0.00000071,0.00001308,-0.00000546,0.00017306,-
 0.00017147,0.00017857,0.00003149,-0.00012433,0.00000225,-0.00010336,0.
 00001915,-0.00015032,0.00020509,-0.00000328,-0.00003106,0.00033641,-0.
 00033863,0.00044792,-0.00002014,0.00000326,0.00000088,0.00012316,-0.00
 003930,0.00004097,-0.00015458,0.00002193,-0.00035201,0.00002913,0.0000
 0551,0.00000290,-0.00035513,-0.00011221,0.00010343,-0.00013181,0.00026
 111,0.00000299,0.00001749,-0.00002105,-0.00000907,-0.00248337,0.002845
 41,0.00075716,0.00001262,0.00001226,0.00000313,-0.00000572,-0.00000275
 ,0.00001297,0.00000096,0.00000184,-0.00000248,-0.00000861,-0.00000245,
 -0.00000339,0.00000776,0.00002318,-0.00003415,-0.00002310,0.00000131,0
 .00000507,-0.00000675,-0.00000212,0.00001176,0.00007746,0.00000614,0.0
 0000741,0.00022655,-0.00143992,0.00002920,0.00046433,-0.00143300,-0.00
 460864,-0.00673858,0.01290034,-0.00284770,0.00029592,0.00177100,0.0008
 9172,-0.00093457,0.00046291,0.00073331,0.00000157,-0.00003958,0.000033
 69,0.00048037,-0.00054278,-0.00017394,0.00019773,-0.00021619,-0.000117
 65,-0.00042052,0.00202930,0.00054766,-0.00066253,0.00023041,0.00091171
 ,0.00019022,-0.00026623,-0.00011166,-0.00011798,0.00011718,-0.00000599
 ,0.00003513,0.00005240,-0.00000367,-0.00005301,0.00002892,0.00003623,0
 .03474562,-0.12283501,-0.10753046,-0.00065461,-0.00883714,-0.00479685,
 -0.03117245,0.13421405,0.12434371,-0.00001456,0.00000891,-0.00002965,0
 .00020342,-0.00000754,0.00010879,-0.00000078,0.00003366,-0.00004553,-0
 .00000967,-0.00000642,0.00001446,-0.00006414,0.00003219,-0.00006535,-0
 .00003015,-0.00000968,0.00004054,0.00000553,0.00001693,-0.00000714,-0.
 00033592,-0.00003067,0.00018341,-0.00007311,-0.00016735,-0.00007110,0.
 00001623,-0.00001415,-0.00017562,-0.00038960,0.00005142,0.00009796,-0.
 00051055,-0.00033993,0.00063309,-0.00003412,0.00000236,0.00000374,-0.0
 0001253,0.00002268,-0.00002986,-0.00015502,0.00038883,-0.00007384,0.00
 006984,0.00001547,-0.00001440,-0.00168009,-0.00013410,0.00156649,-0.00
 006751,0.00005326,-0.00009841,0.00006821,-0.00007757,0.00006639,0.0023
 5265,-0.00032173,-0.00127776,-0.00002442,0.00003238,0.00000111,0.00000
 111,-0.00000729,0.00000529,0.00001839,0.00001127,-0.00000265,-0.000015
 44,-0.00001025,-0.00000060,-0.00003979,0.00010376,-0.00003364,-0.00004
 779,-0.00001017,-0.00000565,0.00002087,0.00001992,0.00001488,0.0001089
 0,-0.00006659,0.00000279,0.00027086,-0.00213983,-0.00044727,-0.0004596
 7,-0.00058186,0.00039411,-0.00106885,0.00121174,-0.00183316,0.00110331
 ,0.00092089,-0.00010789,0.00032462,0.00065720,0.00025742,0.00005346,0.
 00003044,-0.00017495,0.00000999,-0.00005762,0.00000408,-0.00010839,-0.
 00007375,0.00005010,0.00013876,0.00052771,-0.00012068,-0.00014562,0.00
 074521,-0.00016560,0.00011965,-0.00027679,-0.00036949,-0.00004939,0.00
 009945,0.00001088,-0.00003699,0.00011266,0.00004998,-0.00000936,-0.000
 00039,0.00001214,-0.16007268,-0.03133830,-0.12266759,-0.01563796,-0.00
 663112,-0.02300710,0.00616425,0.00212192,0.00655813,0.17004404,-0.0001
 8270,0.00001877,-0.00006988,0.00110364,0.00035397,0.00048703,-0.000407
 49,0.00017254,-0.00015868,-0.00000919,-0.00005048,0.00002667,-0.000005
 47,-0.00000044,0.00005271,0.00002204,-0.00000191,0.00001156,0.00001127
 ,-0.00003846,-0.00000418,-0.00159812,-0.00072850,0.00067254,-0.0002782
 7,-0.00108104,-0.00024311,-0.00004157,-0.00005685,0.00011964,0.0001757
 9,-0.00000673,0.00008066,-0.00038064,-0.00013801,-0.00018785,-0.000000
 51,0.00001654,-0.00001031,-0.00003585,0.00004943,0.00017804,0.00020874
 ,-0.00003200,-0.00007891,-0.00003103,0.00001062,-0.00000061,-0.0006958
 5,0.00041394,0.00027615,-0.00026628,0.00022091,0.00003873,0.00011979,-
 0.00007486,0.00004391,-0.00245761,-0.01275984,0.01269040,-0.00004354,0
 .00005938,-0.00008339,0.00002074,-0.00000333,-0.00000488,0.00002863,-0
 .00000043,0.00000917,-0.00004852,-0.00000771,0.00001277,-0.00009368,0.
 00006885,0.00006511,-0.00003871,-0.00000477,-0.00004584,0.00003303,0.0
 0000810,-0.00001097,0.00000116,-0.00005327,0.00005172,0.00071489,-0.00
 248083,-0.00267359,-0.00068212,0.00005895,-0.00020080,0.00055205,0.006
 94034,-0.00823513,0.00297805,0.00032465,0.00309796,-0.00065350,0.00039
 300,0.00025502,-0.00019206,0.00010429,-0.00027137,-0.00020376,-0.00013
 222,0.00021071,-0.00003973,-0.00001809,-0.00014546,0.00030494,0.000966
 06,-0.00003337,0.00052123,0.00001921,-0.00059783,-0.00004730,-0.000102
 31,-0.00002543,0.00005874,-0.00000252,0.00004034,-0.00000007,0.0000113
 2,-0.00001615,0.00005346,-0.00000884,-0.00001003,-0.01598072,-0.042198
 23,-0.02865623,0.00038196,0.00134698,-0.00065814,-0.01795869,-0.002741
 49,-0.01864999,0.03508283,0.05116529,0.00008784,-0.00003152,0.00003758
 ,-0.00115707,-0.00023137,-0.00053896,0.00029964,-0.00012674,0.00007532
 ,0.00001147,0.00003624,-0.00001285,0.00000125,-0.00006092,-0.00001556,
 -0.00001301,-0.00001404,0.00000003,0.00000562,0.00003373,0.00000255,0.
 00140037,0.00062703,-0.00050790,0.00035144,0.00077809,0.00023992,0.000
 29097,-0.00016314,0.00019839,0.00059052,0.00082126,0.00020006,0.000437
 51,0.00009304,-0.00075160,-0.00000702,-0.00000123,-0.00002381,-0.00004
 902,-0.00004874,0.00009308,0.00043981,-0.00062932,0.00027727,-0.000096
 47,0.00000313,0.00002054,-0.00070469,-0.00093676,0.00071966,-0.0006872
 2,-0.00023249,-0.00016790,-0.00010852,0.00017389,-0.00008042,0.0006172
 7,0.01529625,-0.00920251,0.00006421,-0.00012468,0.00002335,-0.00001159
 ,0.00002000,-0.00000240,-0.00005017,-0.00002773,0.00000696,0.00006329,
 0.00002939,-0.00000182,0.00005554,-0.00016553,0.00003737,0.00003747,0.
 00002299,0.00006345,-0.00001935,-0.00002353,-0.00005834,-0.00003888,0.
 00002272,-0.00001232,0.00006349,-0.00209367,-0.00035815,0.00107230,0.0
 0032978,0.00028194,-0.00057733,-0.00562048,0.00403769,-0.00183643,0.00
 121080,-0.00277839,0.00028810,-0.00026966,-0.00016376,0.00009741,-0.00
 003437,0.00016886,0.00001446,0.00005625,-0.00004111,0.00003357,0.00005
 520,0.00010335,-0.00031702,-0.00040233,-0.00001205,-0.00035742,-0.0001
 7424,0.00034804,0.00004336,-0.00002111,0.00003055,-0.00000991,0.000003
 28,-0.00000944,0.00001545,-0.00001722,0.00000022,-0.00002695,0.0000148
 3,0.00001330,-0.13954308,-0.05175730,-0.19677421,0.00759651,0.00253345
 ,0.00995042,-0.00911684,-0.00160454,-0.00822794,0.14074914,0.04265130,
 0.20281156\\-0.00000087,0.00000378,0.00000343,-0.00000035,0.00000049,0
 .00000080,-0.00000117,-0.00000351,-0.00000339,-0.00000115,0.00000036,0
 .00000166,-0.00000069,-0.00000154,0.00000102,-0.00000113,0.00000016,0.
 00000167,-0.00000228,0.00000074,0.00000010,-0.00000128,0.00000202,0.00
 000044,-0.00000153,-0.00000077,0.00000119,0.00000070,0.00000150,0.0000
 0018,0.00000075,0.00000216,-0.00000255,0.00000196,0.00000028,-0.000000
 11,0.00000121,0.00000170,0.00000047,0.00000177,0.00000111,-0.00000075,
 0.00000074,0.00000024,-0.00000014,0.00000184,0.00000200,0.00000027,0.0
 0000187,-0.00000094,-0.00000046,0.00000012,0.00000177,0.00000119,-0.00
 000036,0.00000151,0.00000322,-0.00000205,-0.00000394,0.00000122,-0.000
 00037,0.00000220,0.00000219,-0.00000006,0.00000234,0.00000154,-0.00000
 120,0.00000195,0.00000201,-0.00000060,0.00000246,0.00000167,-0.0000015
 3,0.00000005,0.00000112,-0.00000082,0.00000080,0.00000142,-0.00000171,
 0.00000070,0.00000162,-0.00000161,0.00000012,0.00000096,-0.00000127,-0
 .00000095,-0.00000057,0.00000088,-0.00000086,-0.00000050,-0.00000023,-
 0.00000127,-0.00000326,0.00000222,-0.00000152,-0.00000006,0.00000183,0
 .00000050,-0.00000049,0.00000115,0.00000026,-0.00000054,0.00000204,0.0
 0000024,-0.00000070,0.00000194,-0.00000040,-0.00000121,-0.00000073,-0.
 00000109,-0.00000063,-0.00000008,-0.00000203,-0.00000199,-0.00000045,-
 0.00000274,-0.00000138,-0.00000117,-0.00000266,-0.00000089,-0.00000076
 ,-0.00000268,-0.00000140,-0.00000070,-0.00000322,-0.00000176,0.0000017
 5,0.00000250,-0.00000355,0.00000115,-0.00000179,-0.00000082,0.00000152
 ,-0.00000080,-0.00000143,0.00000068,-0.00000121,-0.00000080\\\@
 The archive entry for this job was punched.


 I DON'T EXACTLY UNDERSTAND WHAT YOU ARE SAYING,
 BUT YOU ARE ABSOLUTELY RIGHT.
     M.S.GORDON, IN A NDSU FACULTY MEETING
 Job cpu time:       0 days  2 hours 40 minutes  0.5 seconds.
 Elapsed time:       0 days  0 hours  5 minutes  2.1 seconds.
 File lengths (MBytes):  RWF=    888 Int=      0 D2E=      0 Chk=     14 Scr=      2
 Normal termination of Gaussian 16 at Mon Aug 15 10:44:46 2022.
