 Entering Gaussian System, Link 0=g16
 Input=radical_0554_opt_g16_nbo_sp.com
 Output=radical_0554_opt_g16_nbo_sp.log
 Initial command:
 /public/software/apps/Gaussian/g16/l1.exe "/public/home/TMJ_HG/tmp/Gau-19603.inp" -scrdir="/public/home/TMJ_HG/tmp/"
 Entering Link 1 = /public/software/apps/Gaussian/g16/l1.exe PID=     19604.
  
 Copyright (c) 1988-2019, Gaussian, Inc.  All Rights Reserved.
  
 This is part of the Gaussian(R) 16 program.  It is based on
 the Gaussian(R) 09 system (copyright 2009, Gaussian, Inc.),
 the Gaussian(R) 03 system (copyright 2003, Gaussian, Inc.),
 the Gaussian(R) 98 system (copyright 1998, Gaussian, Inc.),
 the Gaussian(R) 94 system (copyright 1995, Gaussian, Inc.),
 the Gaussian 92(TM) system (copyright 1992, Gaussian, Inc.),
 the Gaussian 90(TM) system (copyright 1990, Gaussian, Inc.),
 the Gaussian 88(TM) system (copyright 1988, Gaussian, Inc.),
 the Gaussian 86(TM) system (copyright 1986, Carnegie Mellon
 University), and the Gaussian 82(TM) system (copyright 1983,
 Carnegie Mellon University). Gaussian is a federally registered
 trademark of Gaussian, Inc.
  
 This software contains proprietary and confidential information,
 including trade secrets, belonging to Gaussian, Inc.
  
 This software is provided under written license and may be
 used, copied, transmitted, or stored only in accord with that
 written license.
  
 The following legend is applicable only to US Government
 contracts under FAR:
  
                    RESTRICTED RIGHTS LEGEND
  
 Use, reproduction and disclosure by the US Government is
 subject to restrictions as set forth in subparagraphs (a)
 and (c) of the Commercial Computer Software - Restricted
 Rights clause in FAR 52.227-19.
  
 Gaussian, Inc.
 340 Quinnipiac St., Bldg. 40, Wallingford CT 06492
  
  
 ---------------------------------------------------------------
 Warning -- This program may not be used in any manner that
 competes with the business of Gaussian, Inc. or will provide
 assistance to any competitor of Gaussian, Inc.  The licensee
 of this program is prohibited from giving any competitor of
 Gaussian, Inc. access to this program.  By using this program,
 the user acknowledges that Gaussian, Inc. is engaged in the
 business of creating and licensing software in the field of
 computational chemistry and represents and warrants to the
 licensee that it is not a competitor of Gaussian, Inc. and that
 it will not use this program in any manner prohibited above.
 ---------------------------------------------------------------
  

 Cite this work as:
 Gaussian 16, Revision C.01,
 M. J. Frisch, G. W. Trucks, H. B. Schlegel, G. E. Scuseria, 
 M. A. Robb, J. R. Cheeseman, G. Scalmani, V. Barone, 
 G. A. Petersson, H. Nakatsuji, X. Li, M. Caricato, A. V. Marenich, 
 J. Bloino, B. G. Janesko, R. Gomperts, B. Mennucci, H. P. Hratchian, 
 J. V. Ortiz, A. F. Izmaylov, J. L. Sonnenberg, D. Williams-Young, 
 F. Ding, F. Lipparini, F. Egidi, J. Goings, B. Peng, A. Petrone, 
 T. Henderson, D. Ranasinghe, V. G. Zakrzewski, J. Gao, N. Rega, 
 G. Zheng, W. Liang, M. Hada, M. Ehara, K. Toyota, R. Fukuda, 
 J. Hasegawa, M. Ishida, T. Nakajima, Y. Honda, O. Kitao, H. Nakai, 
 T. Vreven, K. Throssell, J. A. Montgomery, Jr., J. E. Peralta, 
 F. Ogliaro, M. J. Bearpark, J. J. Heyd, E. N. Brothers, K. N. Kudin, 
 V. N. Staroverov, T. A. Keith, R. Kobayashi, J. Normand, 
 K. Raghavachari, A. P. Rendell, J. C. Burant, S. S. Iyengar, 
 J. Tomasi, M. Cossi, J. M. Millam, M. Klene, C. Adamo, R. Cammi, 
 J. W. Ochterski, R. L. Martin, K. Morokuma, O. Farkas, 
 J. B. Foresman, and D. J. Fox, Gaussian, Inc., Wallingford CT, 2019.
 
 ******************************************
 Gaussian 16:  ES64L-G16RevC.01  3-Jul-2019
                 6-Mar-2024 
 ******************************************
 %mem=60GB
 %nprocshared=32
 Will use up to   32 processors via shared memory.
 %oldchk=radical_0554_opt_g16.chk
 %chk=radical_0554_opt_g16_nbo_sp.chk
 Copying data from "radical_0554_opt_g16.chk" to current chk file "radical_0554_opt_g16_nbo_sp.chk"
 IOpt=  2 FromEx=T IUOpen= 4 IOptOp= 5 NList=   0 IFRang= 0 IUIn= 4 IUOut= 2.
 ---------------------------------------------------------
 #p B3LYP def2svp sp EmpiricalDispersion=GD3BJ pop=nboread
 ---------------------------------------------------------
 1/38=1,172=1/1;
 2/12=2,17=6,18=5,40=1/2;
 3/5=43,7=101,11=2,25=1,30=1,74=-5,124=41/1,2,3;
 4//1;
 5/5=2,38=5/2;
 6/7=2,8=2,9=2,10=2,28=1,40=2/1,7;
 99/5=1,9=1/99;
 Leave Link    1 at Wed Mar  6 07:12:32 2024, MaxMem=  8053063680 cpu:               5.5 elap:               0.2
 (Enter /public/software/apps/Gaussian/g16/l101.exe)
 ---------------------------
 Title: radical_0554_opt_g16
 ---------------------------
 Symbolic Z-matrix:
 Charge =  0 Multiplicity = 2
 C                    -0.94846   0.11778  -0.1349 
 C                     0.134     0.03082  -1.19286 
 C                    -2.29191   0.30152  -0.72211 
 C                    -0.64486   0.02679   1.23815 
 C                     1.54125  -0.15635  -0.68714 
 C                     2.06454  -1.44114  -0.48042 
 C                     3.3588   -1.61711   0.01489 
 C                     4.15289  -0.50588   0.31185 
 C                     3.64384   0.77984   0.10836 
 C                     2.34891   0.95039  -0.38709 
 H                     0.07206   0.93936  -1.81667 
 H                    -0.13309  -0.78684  -1.88466 
 H                     1.44645  -2.3134   -0.71034 
 H                     3.7502   -2.62608   0.16677 
 H                     5.16633  -0.64142   0.69707 
 H                     4.25923   1.65437   0.33367 
 H                     1.9543    1.95811  -0.5436 
 O                    -2.48555   0.37271  -1.9205 
 O                    -3.3029    0.38628   0.17031 
 C                    -4.60401   0.5639   -0.38272 
 H                    -4.6571    1.49218  -0.97154 
 H                    -5.29383   0.61234   0.46894 
 H                    -4.86854  -0.27657  -1.04218 
 C                    -1.47835   0.0821    2.33485 
 H                     0.41952  -0.10842   1.45261 
 H                    -1.04901  -0.0089    3.3355 
 H                    -2.5545    0.21361   2.24378 
 
 ITRead=  0  0  0  0  0  0  0  0  0  0  0  0  0  0  0  0  0  0  0  0
 ITRead=  0  0  0  0  0  0  0
 MicOpt= -1 -1 -1 -1 -1 -1 -1 -1 -1 -1 -1 -1 -1 -1 -1 -1 -1 -1 -1 -1
 MicOpt= -1 -1 -1 -1 -1 -1 -1
 NAtoms=     27 NQM=       27 NQMF=       0 NMMI=      0 NMMIF=      0
                NMic=       0 NMicF=      0.
                    Isotopes and Nuclear Properties:
 (Nuclear quadrupole moments (NQMom) in fm**2, nuclear magnetic moments (NMagM)
  in nuclear magnetons)

  Atom         1           2           3           4           5           6           7           8           9          10
 IAtWgt=          12          12          12          12          12          12          12          12          12          12
 AtmWgt=  12.0000000  12.0000000  12.0000000  12.0000000  12.0000000  12.0000000  12.0000000  12.0000000  12.0000000  12.0000000
 NucSpn=           0           0           0           0           0           0           0           0           0           0
 AtZEff=  -0.0000000  -0.0000000  -0.0000000  -0.0000000  -0.0000000  -0.0000000  -0.0000000  -0.0000000  -0.0000000  -0.0000000
 NQMom=    0.0000000   0.0000000   0.0000000   0.0000000   0.0000000   0.0000000   0.0000000   0.0000000   0.0000000   0.0000000
 NMagM=    0.0000000   0.0000000   0.0000000   0.0000000   0.0000000   0.0000000   0.0000000   0.0000000   0.0000000   0.0000000
 AtZNuc=   6.0000000   6.0000000   6.0000000   6.0000000   6.0000000   6.0000000   6.0000000   6.0000000   6.0000000   6.0000000

  Atom        11          12          13          14          15          16          17          18          19          20
 IAtWgt=           1           1           1           1           1           1           1          16          16          12
 AtmWgt=   1.0078250   1.0078250   1.0078250   1.0078250   1.0078250   1.0078250   1.0078250  15.9949146  15.9949146  12.0000000
 NucSpn=           1           1           1           1           1           1           1           0           0           0
 AtZEff=  -0.0000000  -0.0000000  -0.0000000  -0.0000000  -0.0000000  -0.0000000  -0.0000000  -0.0000000  -0.0000000  -0.0000000
 NQMom=    0.0000000   0.0000000   0.0000000   0.0000000   0.0000000   0.0000000   0.0000000   0.0000000   0.0000000   0.0000000
 NMagM=    2.7928460   2.7928460   2.7928460   2.7928460   2.7928460   2.7928460   2.7928460   0.0000000   0.0000000   0.0000000
 AtZNuc=   1.0000000   1.0000000   1.0000000   1.0000000   1.0000000   1.0000000   1.0000000   8.0000000   8.0000000   6.0000000

  Atom        21          22          23          24          25          26          27
 IAtWgt=           1           1           1          12           1           1           1
 AtmWgt=   1.0078250   1.0078250   1.0078250  12.0000000   1.0078250   1.0078250   1.0078250
 NucSpn=           1           1           1           0           1           1           1
 AtZEff=  -0.0000000  -0.0000000  -0.0000000  -0.0000000  -0.0000000  -0.0000000  -0.0000000
 NQMom=    0.0000000   0.0000000   0.0000000   0.0000000   0.0000000   0.0000000   0.0000000
 NMagM=    2.7928460   2.7928460   2.7928460   0.0000000   2.7928460   2.7928460   2.7928460
 AtZNuc=   1.0000000   1.0000000   1.0000000   6.0000000   1.0000000   1.0000000   1.0000000
 Leave Link  101 at Wed Mar  6 07:12:32 2024, MaxMem=  8053063680 cpu:               1.4 elap:               0.1
 (Enter /public/software/apps/Gaussian/g16/l202.exe)
                          Input orientation:                          
 ---------------------------------------------------------------------
 Center     Atomic      Atomic             Coordinates (Angstroms)
 Number     Number       Type             X           Y           Z
 ---------------------------------------------------------------------
      1          6           0       -0.948460    0.117780   -0.134900
      2          6           0        0.134000    0.030820   -1.192860
      3          6           0       -2.291910    0.301520   -0.722110
      4          6           0       -0.644860    0.026790    1.238150
      5          6           0        1.541250   -0.156350   -0.687140
      6          6           0        2.064540   -1.441140   -0.480420
      7          6           0        3.358800   -1.617110    0.014890
      8          6           0        4.152890   -0.505880    0.311850
      9          6           0        3.643840    0.779840    0.108360
     10          6           0        2.348910    0.950390   -0.387090
     11          1           0        0.072060    0.939360   -1.816670
     12          1           0       -0.133090   -0.786840   -1.884660
     13          1           0        1.446450   -2.313400   -0.710340
     14          1           0        3.750200   -2.626080    0.166770
     15          1           0        5.166330   -0.641420    0.697070
     16          1           0        4.259230    1.654370    0.333670
     17          1           0        1.954300    1.958110   -0.543600
     18          8           0       -2.485550    0.372710   -1.920500
     19          8           0       -3.302900    0.386280    0.170310
     20          6           0       -4.604010    0.563900   -0.382720
     21          1           0       -4.657100    1.492180   -0.971540
     22          1           0       -5.293830    0.612340    0.468940
     23          1           0       -4.868540   -0.276570   -1.042180
     24          6           0       -1.478350    0.082100    2.334850
     25          1           0        0.419520   -0.108420    1.452610
     26          1           0       -1.049010   -0.008900    3.335500
     27          1           0       -2.554500    0.213610    2.243780
 ---------------------------------------------------------------------
                    Distance matrix (angstroms):
                    1          2          3          4          5
     1  C    0.000000
     2  C    1.516101   0.000000
     3  C    1.477645   2.485945   0.000000
     4  C    1.409155   2.552734   2.575047   0.000000
     5  C    2.564912   1.507029   3.860568   2.918794   0.000000
     6  C    3.409954   2.530064   4.698291   3.528335   1.402587
     7  C    4.645941   3.817547   6.012889   4.497562   2.435191
     8  C    5.158712   4.324775   6.576961   4.915300   2.817945
     9  C    4.646151   3.817484   6.012620   4.498495   2.435191
    10  C    3.410204   2.529961   4.697923   3.529462   1.402576
    11  H    2.131855   1.103821   2.682025   3.267826   2.152891
    12  H    2.131860   1.103853   2.682639   3.267391   2.152902
    13  H    3.460832   2.729600   4.562157   3.694141   2.159257
    14  H    5.449512   4.688775   6.772595   5.244247   3.421723
    15  H    6.217654   5.417387   7.650396   5.874453   3.910567
    16  H    5.449835   4.688681   6.772172   5.245684   3.421721
    17  H    3.461194   2.729373   4.561409   3.695979   2.159202
    18  O    2.369811   2.740144   1.216019   3.672175   4.244549
    19  O    2.389275   3.714413   1.351184   2.886987   4.949289
    20  C    3.691000   4.836242   2.351560   4.311679   6.194808
    21  H    4.042642   5.013900   2.659701   4.809175   6.420131
    22  H    4.414913   5.706232   3.244493   4.748418   6.974649
    23  H    4.042981   5.014240   2.660010   4.809512   6.420741
    24  C    2.526207   3.879051   3.170967   1.378592   4.278699
    25  H    2.107777   2.664474   3.499902   1.094157   2.416424
    26  H    3.474167   4.680506   4.255039   2.136232   4.786734
    27  H    2.871701   4.367143   2.978789   2.166314   5.049983
                    6          7          8          9         10
     6  C    0.000000
     7  C    1.396927   0.000000
     8  C    2.421489   1.397711   0.000000
     9  C    2.788118   2.415648   1.397718   0.000000
    10  C    2.410185   2.788104   2.421484   1.396926   0.000000
    11  H    3.379692   4.548935   4.824157   4.060640   2.688469
    12  H    2.688787   4.060903   4.824233   4.548826   3.379498
    13  H    1.093497   2.160523   3.411278   3.881614   3.401654
    14  H    2.159719   1.092832   2.162974   3.408081   3.880916
    15  H    3.412790   2.164372   1.092624   2.164379   3.412787
    16  H    3.880926   3.408075   2.162976   1.092828   2.159723
    17  H    3.401624   3.881589   3.411281   2.160536   1.093486
    18  O    5.105605   6.470050   7.058625   6.469270   5.104612
    19  O    5.707217   6.958159   7.510312   6.958155   5.707177
    20  C    6.964143   8.265666   8.849302   8.265278   6.963655
    21  H    7.350239   8.654212   9.124432   8.401144   7.051191
    22  H    7.698290   8.946766   9.513969   8.946509   7.697957
    23  H    7.052616   8.402593   9.125359   8.654499   7.350249
    24  C    4.774733   5.627393   6.012413   5.628581   4.776066
    25  H    2.866852   3.603131   3.923947   3.604477   2.868470
    26  H    5.129011   5.748181   6.037318   5.749729   5.130670
    27  H    5.612040   6.579256   7.017058   6.580278   5.613177
                   11         12         13         14         15
    11  H    0.000000
    12  H    1.739677   0.000000
    13  H    3.700454   2.490855   0.000000
    14  H    5.493188   4.761419   2.484825   0.000000
    15  H    5.896553   5.896637   4.314374   2.495099   0.000000
    16  H    4.761050   5.492993   4.974423   4.313840   2.495104
    17  H    2.490258   3.700053   4.304824   4.974403   4.314389
    18  O    2.621687   2.622958   4.913278   7.227310   8.150546
    19  O    3.955293   3.955605   5.533547   7.669455   8.547602
    20  C    4.905386   4.906062   6.707776   8.959394   9.903448
    21  H    4.835784   5.147270   7.197499   9.430722  10.190009
    22  H    5.841552   5.842121   7.441910   9.611095  10.537500
    23  H    5.146635   4.836800   6.643636   9.014679  10.191012
    24  C    4.513733   4.513208   4.854488   6.274755   6.881684
    25  H    3.450618   3.450073   3.254977   4.368687   4.836025
    26  H    5.357317   5.356694   5.282695   6.318457   6.781729
    27  H    4.890070   4.889595   5.578549   7.219907   7.920518
                   16         17         18         19         20
    16  H    0.000000
    17  H    2.484867   0.000000
    18  O    7.226063   4.911376   0.000000
    19  O    7.669456   5.533396   2.244935   0.000000
    20  C    8.958759   6.706798   2.624727   1.424878   0.000000
    21  H    9.012814   6.641599   2.620948   2.088227   1.100560
    22  H    9.610675   7.441218   3.695035   2.025854   1.097052
    23  H    9.430677   7.196772   2.621384   2.088236   1.100570
    24  C    6.276669   4.856745   4.382569   2.847234   4.169780
    25  H    4.370678   3.257445   4.477587   3.968051   5.390390
    26  H    6.320986   5.285491   5.462125   3.905716   5.176030
    27  H    7.221581   5.580506   4.167889   2.211152   3.349880
                   21         22         23         24         25
    21  H    0.000000
    22  H    1.804031   0.000000
    23  H    1.782743   1.804028   0.000000
    24  C    4.798436   4.280264   4.798579   0.000000
    25  H    5.848974   5.842043   5.849430   2.101560   0.000000
    26  H    5.815681   5.159613   5.815887   1.092664   2.389929
    27  H    4.048944   3.288308   4.048776   1.087974   3.094261
                   26         27
    26  H    0.000000
    27  H    1.872929   0.000000
 Stoichiometry    C12H13O2(2)
 Framework group  C1[X(C12H13O2)]
 Deg. of freedom    75
 Full point group                 C1      NOp   1
 Largest Abelian subgroup         C1      NOp   1
 Largest concise Abelian subgroup C1      NOp   1
                         Standard orientation:                         
 ---------------------------------------------------------------------
 Center     Atomic      Atomic             Coordinates (Angstroms)
 Number     Number       Type             X           Y           Z
 ---------------------------------------------------------------------
      1          6           0       -0.913894    0.016714    0.000432
      2          6           0        0.134325   -1.078639    0.001855
      3          6           0       -2.288993   -0.524153    0.000497
      4          6           0       -0.554746    1.379332   -0.000797
      5          6           0        1.570347   -0.621501    0.000967
      6          6           0        2.250108   -0.388893    1.205571
      7          6           0        3.572323    0.061831    1.207328
      8          6           0        4.237716    0.287321   -0.000978
      9          6           0        3.572084    0.057352   -1.208316
     10          6           0        2.249848   -0.393290   -1.204611
     11          1           0       -0.057012   -1.732046   -0.866978
     12          1           0       -0.056739   -1.729501    0.872697
     13          1           0        1.733107   -0.562921    2.153284
     14          1           0        4.086395    0.234815    2.156057
     15          1           0        5.272686    0.637552   -0.001727
     16          1           0        4.085977    0.226799   -2.157776
     17          1           0        1.732581   -0.570728   -2.151533
     18          8           0       -2.530685   -1.715911    0.001311
     19          8           0       -3.271702    0.403198   -0.000466
     20          6           0       -4.602888   -0.104959   -0.000711
     21          1           0       -4.786602   -0.724483   -0.891593
     22          1           0       -5.263975    0.770533   -0.001891
     23          1           0       -4.787579   -0.722800    0.891149
     24          6           0       -1.350816    2.504849   -0.001772
     25          1           0        0.524881    1.557054   -0.000961
     26          1           0       -0.879658    3.490710   -0.002731
     27          1           0       -2.437453    2.450934   -0.001551
 ---------------------------------------------------------------------
 Rotational constants (GHZ):           1.7080802           0.3281608           0.3058281
 Leave Link  202 at Wed Mar  6 07:12:32 2024, MaxMem=  8053063680 cpu:               0.3 elap:               0.0
 (Enter /public/software/apps/Gaussian/g16/l301.exe)
 Standard basis: def2SVP (5D, 7F)
 Ernie: Thresh=  0.10000D-02 Tol=  0.10000D-05 Strict=F.
 There are   275 symmetry adapted cartesian basis functions of A   symmetry.
 There are   261 symmetry adapted basis functions of A   symmetry.
   261 basis functions,   441 primitive gaussians,   275 cartesian basis functions
    51 alpha electrons       50 beta electrons
       nuclear repulsion energy       825.4821550082 Hartrees.
 IExCor=  402 DFT=T Ex+Corr=B3LYP ExCW=0 ScaHFX=  0.200000
 ScaDFX=  0.800000  0.720000  1.000000  0.810000 ScalE2=  1.000000  1.000000
 IRadAn=      5 IRanWt=     -1 IRanGd=            0 ICorTp=0 IEmpDi=141
 NAtoms=   27 NActive=   27 NUniq=   27 SFac= 1.00D+00 NAtFMM=   60 NAOKFM=F Big=F
 Integral buffers will be    131072 words long.
 Raffenetti 2 integral format.
 Two-electron integral symmetry is turned on.
 R6Disp:  Grimme-D3(BJ) Dispersion energy=       -0.0505698259 Hartrees.
 Nuclear repulsion after empirical dispersion term =      825.4315851823 Hartrees.
 Leave Link  301 at Wed Mar  6 07:12:32 2024, MaxMem=  8053063680 cpu:               1.6 elap:               0.1
 (Enter /public/software/apps/Gaussian/g16/l302.exe)
 NPDir=0 NMtPBC=     1 NCelOv=     1 NCel=       1 NClECP=     1 NCelD=      1
         NCelK=      1 NCelE2=     1 NClLst=     1 CellRange=     0.0.
 One-electron integrals computed using PRISM.
 One-electron integral symmetry used in STVInt
   1 Symmetry operations used in ECPInt.
 ECPInt:  NShTT=    7626 NPrTT=   27482 LenC2=    7122 LenP2D=   18858.
 LDataN:  DoStor=T MaxTD1= 4 Len=   56
 NBasis=   261 RedAO= T EigKep=  2.87D-04  NBF=   261
 NBsUse=   261 1.00D-06 EigRej= -1.00D+00 NBFU=   261
 Precomputing XC quadrature grid using
 IXCGrd= 4 IRadAn=           5 IRanWt=          -1 IRanGd=           0 AccXCQ= 0.00D+00.
 Generated NRdTot=       0 NPtTot=           0 NUsed=           0 NTot=          32
 NSgBfM=   274   274   274   274   274 MxSgAt=    27 MxSgA2=    27.
 Leave Link  302 at Wed Mar  6 07:12:32 2024, MaxMem=  8053063680 cpu:               5.0 elap:               0.2
 (Enter /public/software/apps/Gaussian/g16/l303.exe)
 DipDrv:  MaxL=1.
 Leave Link  303 at Wed Mar  6 07:12:32 2024, MaxMem=  8053063680 cpu:               0.5 elap:               0.0
 (Enter /public/software/apps/Gaussian/g16/l401.exe)
 ExpMin= 1.22D-01 ExpMax= 2.27D+03 ExpMxC= 3.41D+02 IAcc=3 IRadAn=         5 AccDes= 0.00D+00
 Harris functional with IExCor=  402 and IRadAn=       5 diagonalized for initial guess.
 HarFok:  IExCor=  402 AccDes= 0.00D+00 IRadAn=         5 IDoV= 1 UseB2=F ITyADJ=14
 ICtDFT=  3500011 ScaDFX=  1.000000  1.000000  1.000000  1.000000
 FoFCou: FMM=F IPFlag=           0 FMFlag=      100000 FMFlg1=           0
         NFxFlg=           0 DoJE=T BraDBF=F KetDBF=T FulRan=T
         wScrn=  0.000000 ICntrl=       500 IOpCl=  0 I1Cent=   200000004 NGrid=           0
         NMat0=    1 NMatS0=      1 NMatT0=    0 NMatD0=    1 NMtDS0=    0 NMtDT0=    0
 Petite list used in FoFCou.
 Harris En= -615.109422363755    
 JPrj=0 DoOrth=F DoCkMO=F.
 Initial guess <Sx>= 0.0000 <Sy>= 0.0000 <Sz>= 0.5000 <S**2>= 0.7500 S= 0.5000
 Leave Link  401 at Wed Mar  6 07:12:33 2024, MaxMem=  8053063680 cpu:              13.9 elap:               0.5
 (Enter /public/software/apps/Gaussian/g16/l502.exe)
 Integral symmetry usage will be decided dynamically.
 UHF open shell SCF:
 Using DIIS extrapolation, IDIIS=  1040.
 NGot=  8053063680 LenX=  8052899972 LenY=  8052823906
 Requested convergence on RMS density matrix=1.00D-08 within 128 cycles.
 Requested convergence on MAX density matrix=1.00D-06.
 Requested convergence on             energy=1.00D-06.
 No special actions if energy rises.
 Fock matrices will be formed incrementally for  20 cycles.
 Integral accuracy reduced to 1.0D-05 until final iterations.

 Cycle   1  Pass 0  IDiag  1:
 FoFJK:  IHMeth= 1 ICntrl=       0 DoSepK=F KAlg= 0 I1Cent=           0 FoldK=F
 IRaf= 880000000 NMat=       1 IRICut=       1 DoRegI=T DoRafI=F ISym2E= 0 IDoP0=0 IntGTp=1.
 FoFCou: FMM=F IPFlag=           0 FMFlag=      100000 FMFlg1=           0
         NFxFlg=           0 DoJE=F BraDBF=F KetDBF=F FulRan=T
         wScrn=  0.000000 ICntrl=         0 IOpCl=  1 I1Cent=           0 NGrid=           0
         NMat0=    1 NMatS0=      1 NMatT0=    0 NMatD0=    1 NMtDS0=    0 NMtDT0=    0
 Symmetry not used in FoFCou.
 E= -614.800716711433    
 DIIS: error= 4.45D-02 at cycle   1 NSaved=   1.
 NSaved= 1 IEnMin= 1 EnMin= -614.800716711433     IErMin= 1 ErrMin= 4.45D-02
 ErrMax= 4.45D-02  0.00D+00 EMaxC= 1.00D-01 BMatC= 1.17D+00 BMatP= 1.17D+00
 IDIUse=3 WtCom= 5.55D-01 WtEn= 4.45D-01
 Coeff-Com:  0.100D+01
 Coeff-En:   0.100D+01
 Coeff:      0.100D+01
 Gap=     0.236 Goal=   None    Shift=    0.000
 Gap=     0.100 Goal=   None    Shift=    0.000
 GapD=    0.100 DampG=0.500 DampE=0.500 DampFc=0.2500 IDamp=-1.
 Damping current iteration by 2.50D-01
 RMSDP=6.03D-03 MaxDP=2.13D-01              OVMax= 2.87D-01

 Cycle   2  Pass 0  IDiag  1:
 RMSU=  1.45D-03    CP:  9.81D-01
 E= -614.911056990058     Delta-E=       -0.110340278625 Rises=F Damp=T
 DIIS: error= 2.43D-02 at cycle   2 NSaved=   2.
 NSaved= 2 IEnMin= 2 EnMin= -614.911056990058     IErMin= 2 ErrMin= 2.43D-02
 ErrMax= 2.43D-02  0.00D+00 EMaxC= 1.00D-01 BMatC= 2.70D-01 BMatP= 1.17D+00
 IDIUse=3 WtCom= 7.57D-01 WtEn= 2.43D-01
 Coeff-Com: -0.662D+00 0.166D+01
 Coeff-En:   0.000D+00 0.100D+01
 Coeff:     -0.501D+00 0.150D+01
 Gap=     0.182 Goal=   None    Shift=    0.000
 Gap=     0.178 Goal=   None    Shift=    0.000
 RMSDP=2.42D-03 MaxDP=5.40D-02 DE=-1.10D-01 OVMax= 1.72D-01

 Cycle   3  Pass 0  IDiag  1:
 RMSU=  1.74D-03    CP:  9.37D-01  1.96D+00
 E= -615.084121859056     Delta-E=       -0.173064868998 Rises=F Damp=F
 DIIS: error= 1.52D-02 at cycle   3 NSaved=   3.
 NSaved= 3 IEnMin= 3 EnMin= -615.084121859056     IErMin= 3 ErrMin= 1.52D-02
 ErrMax= 1.52D-02  0.00D+00 EMaxC= 1.00D-01 BMatC= 1.28D-01 BMatP= 2.70D-01
 IDIUse=3 WtCom= 8.48D-01 WtEn= 1.52D-01
 Coeff-Com: -0.377D+00 0.913D+00 0.465D+00
 Coeff-En:   0.000D+00 0.000D+00 0.100D+01
 Coeff:     -0.320D+00 0.773D+00 0.546D+00
 Gap=     0.190 Goal=   None    Shift=    0.000
 Gap=     0.140 Goal=   None    Shift=    0.000
 RMSDP=1.10D-03 MaxDP=5.04D-02 DE=-1.73D-01 OVMax= 8.61D-02

 Cycle   4  Pass 0  IDiag  1:
 RMSU=  8.72D-04    CP:  9.44D-01  1.98D+00  6.24D-01
 E= -615.107345736835     Delta-E=       -0.023223877779 Rises=F Damp=F
 DIIS: error= 8.69D-03 at cycle   4 NSaved=   4.
 NSaved= 4 IEnMin= 4 EnMin= -615.107345736835     IErMin= 4 ErrMin= 8.69D-03
 ErrMax= 8.69D-03  0.00D+00 EMaxC= 1.00D-01 BMatC= 3.52D-02 BMatP= 1.28D-01
 IDIUse=3 WtCom= 9.13D-01 WtEn= 8.69D-02
 Coeff-Com: -0.607D-01 0.181D+00 0.343D+00 0.537D+00
 Coeff-En:   0.000D+00 0.000D+00 0.216D+00 0.784D+00
 Coeff:     -0.554D-01 0.165D+00 0.332D+00 0.558D+00
 Gap=     0.191 Goal=   None    Shift=    0.000
 Gap=     0.141 Goal=   None    Shift=    0.000
 RMSDP=4.57D-04 MaxDP=1.98D-02 DE=-2.32D-02 OVMax= 4.02D-02

 Cycle   5  Pass 0  IDiag  1:
 RMSU=  2.40D-04    CP:  9.42D-01  1.94D+00  7.57D-01  6.56D-01
 E= -615.114306955847     Delta-E=       -0.006961219013 Rises=F Damp=F
 DIIS: error= 1.73D-03 at cycle   5 NSaved=   5.
 NSaved= 5 IEnMin= 5 EnMin= -615.114306955847     IErMin= 5 ErrMin= 1.73D-03
 ErrMax= 1.73D-03  0.00D+00 EMaxC= 1.00D-01 BMatC= 2.42D-03 BMatP= 3.52D-02
 IDIUse=3 WtCom= 9.83D-01 WtEn= 1.73D-02
 Coeff-Com:  0.179D-02 0.118D-01 0.140D+00 0.324D+00 0.522D+00
 Coeff-En:   0.000D+00 0.000D+00 0.000D+00 0.000D+00 0.100D+01
 Coeff:      0.175D-02 0.116D-01 0.138D+00 0.319D+00 0.531D+00
 Gap=     0.190 Goal=   None    Shift=    0.000
 Gap=     0.141 Goal=   None    Shift=    0.000
 RMSDP=1.14D-04 MaxDP=5.52D-03 DE=-6.96D-03 OVMax= 1.28D-02

 Cycle   6  Pass 0  IDiag  1:
 RMSU=  8.75D-05    CP:  9.41D-01  1.95D+00  7.56D-01  6.85D-01  7.28D-01
 E= -615.114841448548     Delta-E=       -0.000534492701 Rises=F Damp=F
 DIIS: error= 5.26D-04 at cycle   6 NSaved=   6.
 NSaved= 6 IEnMin= 6 EnMin= -615.114841448548     IErMin= 6 ErrMin= 5.26D-04
 ErrMax= 5.26D-04  0.00D+00 EMaxC= 1.00D-01 BMatC= 2.20D-04 BMatP= 2.42D-03
 IDIUse=3 WtCom= 9.95D-01 WtEn= 5.26D-03
 Coeff-Com:  0.752D-02-0.162D-01 0.184D-01 0.685D-01 0.262D+00 0.659D+00
 Coeff-En:   0.000D+00 0.000D+00 0.000D+00 0.000D+00 0.000D+00 0.100D+01
 Coeff:      0.748D-02-0.161D-01 0.183D-01 0.681D-01 0.261D+00 0.661D+00
 Gap=     0.191 Goal=   None    Shift=    0.000
 Gap=     0.142 Goal=   None    Shift=    0.000
 RMSDP=4.47D-05 MaxDP=2.81D-03 DE=-5.34D-04 OVMax= 6.33D-03

 Cycle   7  Pass 0  IDiag  1:
 RMSU=  3.82D-05    CP:  9.41D-01  1.95D+00  7.57D-01  7.00D-01  7.52D-01
                    CP:  7.90D-01
 E= -615.114910826044     Delta-E=       -0.000069377496 Rises=F Damp=F
 DIIS: error= 3.89D-04 at cycle   7 NSaved=   7.
 NSaved= 7 IEnMin= 7 EnMin= -615.114910826044     IErMin= 7 ErrMin= 3.89D-04
 ErrMax= 3.89D-04  0.00D+00 EMaxC= 1.00D-01 BMatC= 4.45D-05 BMatP= 2.20D-04
 IDIUse=3 WtCom= 9.96D-01 WtEn= 3.89D-03
 Coeff-Com:  0.424D-02-0.120D-01-0.179D-01-0.299D-01 0.344D-01 0.325D+00
 Coeff-Com:  0.696D+00
 Coeff-En:   0.000D+00 0.000D+00 0.000D+00 0.000D+00 0.000D+00 0.000D+00
 Coeff-En:   0.100D+01
 Coeff:      0.422D-02-0.119D-01-0.178D-01-0.298D-01 0.343D-01 0.323D+00
 Coeff:      0.698D+00
 Gap=     0.191 Goal=   None    Shift=    0.000
 Gap=     0.143 Goal=   None    Shift=    0.000
 RMSDP=2.50D-05 MaxDP=2.50D-03 DE=-6.94D-05 OVMax= 3.79D-03

 Cycle   8  Pass 0  IDiag  1:
 RMSU=  1.99D-05    CP:  9.41D-01  1.95D+00  7.59D-01  6.96D-01  7.81D-01
                    CP:  9.36D-01  1.02D+00
 E= -615.114931431812     Delta-E=       -0.000020605768 Rises=F Damp=F
 DIIS: error= 2.17D-04 at cycle   8 NSaved=   8.
 NSaved= 8 IEnMin= 8 EnMin= -615.114931431812     IErMin= 8 ErrMin= 2.17D-04
 ErrMax= 2.17D-04  0.00D+00 EMaxC= 1.00D-01 BMatC= 1.37D-05 BMatP= 4.45D-05
 IDIUse=3 WtCom= 9.98D-01 WtEn= 2.17D-03
 Coeff-Com: -0.758D-03 0.355D-03-0.163D-01-0.440D-01-0.853D-01-0.842D-01
 Coeff-Com:  0.396D+00 0.834D+00
 Coeff-En:   0.000D+00 0.000D+00 0.000D+00 0.000D+00 0.000D+00 0.000D+00
 Coeff-En:   0.000D+00 0.100D+01
 Coeff:     -0.756D-03 0.354D-03-0.163D-01-0.440D-01-0.851D-01-0.841D-01
 Coeff:      0.395D+00 0.835D+00
 Gap=     0.192 Goal=   None    Shift=    0.000
 Gap=     0.143 Goal=   None    Shift=    0.000
 RMSDP=1.68D-05 MaxDP=1.55D-03 DE=-2.06D-05 OVMax= 3.14D-03

 Cycle   9  Pass 0  IDiag  1:
 RMSU=  9.65D-06    CP:  9.41D-01  1.95D+00  7.60D-01  6.99D-01  8.03D-01
                    CP:  9.76D-01  1.33D+00  1.04D+00
 E= -615.114938244860     Delta-E=       -0.000006813048 Rises=F Damp=F
 DIIS: error= 9.40D-05 at cycle   9 NSaved=   9.
 NSaved= 9 IEnMin= 9 EnMin= -615.114938244860     IErMin= 9 ErrMin= 9.40D-05
 ErrMax= 9.40D-05  0.00D+00 EMaxC= 1.00D-01 BMatC= 3.66D-06 BMatP= 1.37D-05
 IDIUse=1 WtCom= 1.00D+00 WtEn= 0.00D+00
 Coeff-Com: -0.976D-03 0.182D-02-0.652D-02-0.204D-01-0.559D-01-0.100D+00
 Coeff-Com:  0.120D+00 0.505D+00 0.557D+00
 Coeff:     -0.976D-03 0.182D-02-0.652D-02-0.204D-01-0.559D-01-0.100D+00
 Coeff:      0.120D+00 0.505D+00 0.557D+00
 Gap=     0.192 Goal=   None    Shift=    0.000
 Gap=     0.143 Goal=   None    Shift=    0.000
 RMSDP=6.54D-06 MaxDP=3.92D-04 DE=-6.81D-06 OVMax= 5.94D-04

 Initial convergence to 1.0D-05 achieved.  Increase integral accuracy.
 Cycle  10  Pass 1  IDiag  1:
 E= -615.114932622424     Delta-E=        0.000005622436 Rises=F Damp=F
 DIIS: error= 7.97D-05 at cycle   1 NSaved=   1.
 NSaved= 1 IEnMin= 1 EnMin= -615.114932622424     IErMin= 1 ErrMin= 7.97D-05
 ErrMax= 7.97D-05  0.00D+00 EMaxC= 1.00D-01 BMatC= 2.57D-06 BMatP= 2.57D-06
 IDIUse=1 WtCom= 1.00D+00 WtEn= 0.00D+00
 Coeff-Com:  0.100D+01
 Coeff:      0.100D+01
 Gap=     0.192 Goal=   None    Shift=    0.000
 Gap=     0.143 Goal=   None    Shift=    0.000
 RMSDP=6.54D-06 MaxDP=3.92D-04 DE= 5.62D-06 OVMax= 3.94D-04

 Cycle  11  Pass 1  IDiag  1:
 RMSU=  6.94D-05    CP:  1.00D+00
 E= -615.114932958731     Delta-E=       -0.000000336307 Rises=F Damp=F
 DIIS: error= 7.26D-05 at cycle   2 NSaved=   2.
 NSaved= 2 IEnMin= 2 EnMin= -615.114932958731     IErMin= 2 ErrMin= 7.26D-05
 ErrMax= 7.26D-05  0.00D+00 EMaxC= 1.00D-01 BMatC= 1.25D-06 BMatP= 2.57D-06
 IDIUse=1 WtCom= 1.00D+00 WtEn= 0.00D+00
 Coeff-Com:  0.368D+00 0.632D+00
 Coeff:      0.368D+00 0.632D+00
 Gap=     0.192 Goal=   None    Shift=    0.000
 Gap=     0.143 Goal=   None    Shift=    0.000
 RMSDP=4.87D-06 MaxDP=1.75D-04 DE=-3.36D-07 OVMax= 4.85D-04

 Cycle  12  Pass 1  IDiag  1:
 RMSU=  4.86D-06    CP:  1.00D+00  1.01D+00
 E= -615.114933035111     Delta-E=       -0.000000076380 Rises=F Damp=F
 DIIS: error= 6.58D-05 at cycle   3 NSaved=   3.
 NSaved= 3 IEnMin= 3 EnMin= -615.114933035111     IErMin= 3 ErrMin= 6.58D-05
 ErrMax= 6.58D-05  0.00D+00 EMaxC= 1.00D-01 BMatC= 1.01D-06 BMatP= 1.25D-06
 IDIUse=1 WtCom= 1.00D+00 WtEn= 0.00D+00
 Coeff-Com: -0.294D-02 0.474D+00 0.529D+00
 Coeff:     -0.294D-02 0.474D+00 0.529D+00
 Gap=     0.192 Goal=   None    Shift=    0.000
 Gap=     0.143 Goal=   None    Shift=    0.000
 RMSDP=2.43D-06 MaxDP=9.15D-05 DE=-7.64D-08 OVMax= 2.43D-04

 Cycle  13  Pass 1  IDiag  1:
 RMSU=  6.08D-07    CP:  1.00D+00  1.01D+00  5.28D-01
 E= -615.114933330296     Delta-E=       -0.000000295185 Rises=F Damp=F
 DIIS: error= 5.82D-06 at cycle   4 NSaved=   4.
 NSaved= 4 IEnMin= 4 EnMin= -615.114933330296     IErMin= 4 ErrMin= 5.82D-06
 ErrMax= 5.82D-06  0.00D+00 EMaxC= 1.00D-01 BMatC= 1.79D-08 BMatP= 1.01D-06
 IDIUse=1 WtCom= 1.00D+00 WtEn= 0.00D+00
 Coeff-Com: -0.708D-02 0.265D+00 0.306D+00 0.435D+00
 Coeff:     -0.708D-02 0.265D+00 0.306D+00 0.435D+00
 Gap=     0.192 Goal=   None    Shift=    0.000
 Gap=     0.143 Goal=   None    Shift=    0.000
 RMSDP=3.50D-07 MaxDP=2.58D-05 DE=-2.95D-07 OVMax= 3.98D-05

 Cycle  14  Pass 1  IDiag  1:
 RMSU=  3.17D-07    CP:  1.00D+00  1.01D+00  5.45D-01  7.97D-01
 E= -615.114933335300     Delta-E=       -0.000000005004 Rises=F Damp=F
 DIIS: error= 2.21D-06 at cycle   5 NSaved=   5.
 NSaved= 5 IEnMin= 5 EnMin= -615.114933335300     IErMin= 5 ErrMin= 2.21D-06
 ErrMax= 2.21D-06  0.00D+00 EMaxC= 1.00D-01 BMatC= 1.79D-09 BMatP= 1.79D-08
 IDIUse=1 WtCom= 1.00D+00 WtEn= 0.00D+00
 Coeff-Com: -0.139D-02-0.619D-01-0.650D-01 0.125D+00 0.100D+01
 Coeff:     -0.139D-02-0.619D-01-0.650D-01 0.125D+00 0.100D+01
 Gap=     0.192 Goal=   None    Shift=    0.000
 Gap=     0.143 Goal=   None    Shift=    0.000
 RMSDP=2.31D-07 MaxDP=1.59D-05 DE=-5.00D-09 OVMax= 4.56D-05

 Cycle  15  Pass 1  IDiag  1:
 RMSU=  1.68D-07    CP:  1.00D+00  1.01D+00  5.45D-01  1.04D+00  1.19D+00
 E= -615.114933336814     Delta-E=       -0.000000001515 Rises=F Damp=F
 DIIS: error= 1.74D-06 at cycle   6 NSaved=   6.
 NSaved= 6 IEnMin= 6 EnMin= -615.114933336814     IErMin= 6 ErrMin= 1.74D-06
 ErrMax= 1.74D-06  0.00D+00 EMaxC= 1.00D-01 BMatC= 1.40D-09 BMatP= 1.79D-09
 IDIUse=1 WtCom= 1.00D+00 WtEn= 0.00D+00
 Coeff-Com:  0.159D-02-0.144D+00-0.160D+00-0.793D-01 0.733D+00 0.648D+00
 Coeff:      0.159D-02-0.144D+00-0.160D+00-0.793D-01 0.733D+00 0.648D+00
 Gap=     0.192 Goal=   None    Shift=    0.000
 Gap=     0.143 Goal=   None    Shift=    0.000
 RMSDP=1.58D-07 MaxDP=1.02D-05 DE=-1.51D-09 OVMax= 2.04D-05

 Cycle  16  Pass 1  IDiag  1:
 RMSU=  8.32D-08    CP:  1.00D+00  1.01D+00  5.47D-01  1.16D+00  1.55D+00
                    CP:  1.00D+00
 E= -615.114933337401     Delta-E=       -0.000000000587 Rises=F Damp=F
 DIIS: error= 6.03D-07 at cycle   7 NSaved=   7.
 NSaved= 7 IEnMin= 7 EnMin= -615.114933337401     IErMin= 7 ErrMin= 6.03D-07
 ErrMax= 6.03D-07  0.00D+00 EMaxC= 1.00D-01 BMatC= 2.45D-10 BMatP= 1.40D-09
 IDIUse=1 WtCom= 1.00D+00 WtEn= 0.00D+00
 Coeff-Com:  0.125D-02-0.803D-01-0.898D-01-0.739D-01 0.299D+00 0.409D+00
 Coeff-Com:  0.534D+00
 Coeff:      0.125D-02-0.803D-01-0.898D-01-0.739D-01 0.299D+00 0.409D+00
 Coeff:      0.534D+00
 Gap=     0.192 Goal=   None    Shift=    0.000
 Gap=     0.143 Goal=   None    Shift=    0.000
 RMSDP=5.37D-08 MaxDP=3.57D-06 DE=-5.87D-10 OVMax= 5.76D-06

 Cycle  17  Pass 1  IDiag  1:
 RMSU=  3.70D-08    CP:  1.00D+00  1.01D+00  5.49D-01  1.19D+00  1.63D+00
                    CP:  1.03D+00  8.10D-01
 E= -615.114933337476     Delta-E=       -0.000000000075 Rises=F Damp=F
 DIIS: error= 2.01D-07 at cycle   8 NSaved=   8.
 NSaved= 8 IEnMin= 8 EnMin= -615.114933337476     IErMin= 8 ErrMin= 2.01D-07
 ErrMax= 2.01D-07  0.00D+00 EMaxC= 1.00D-01 BMatC= 3.39D-11 BMatP= 2.45D-10
 IDIUse=1 WtCom= 1.00D+00 WtEn= 0.00D+00
 Coeff-Com:  0.513D-03-0.280D-01-0.312D-01-0.329D-01 0.787D-01 0.152D+00
 Coeff-Com:  0.314D+00 0.547D+00
 Coeff:      0.513D-03-0.280D-01-0.312D-01-0.329D-01 0.787D-01 0.152D+00
 Coeff:      0.314D+00 0.547D+00
 Gap=     0.192 Goal=   None    Shift=    0.000
 Gap=     0.143 Goal=   None    Shift=    0.000
 RMSDP=1.83D-08 MaxDP=8.14D-07 DE=-7.48D-11 OVMax= 1.92D-06

 Cycle  18  Pass 1  IDiag  1:
 RMSU=  1.64D-08    CP:  1.00D+00  1.01D+00  5.49D-01  1.20D+00  1.64D+00
                    CP:  1.05D+00  8.61D-01  9.20D-01
 E= -615.114933337493     Delta-E=       -0.000000000017 Rises=F Damp=F
 DIIS: error= 1.36D-07 at cycle   9 NSaved=   9.
 NSaved= 9 IEnMin= 9 EnMin= -615.114933337493     IErMin= 9 ErrMin= 1.36D-07
 ErrMax= 1.36D-07  0.00D+00 EMaxC= 1.00D-01 BMatC= 6.02D-12 BMatP= 3.39D-11
 IDIUse=1 WtCom= 1.00D+00 WtEn= 0.00D+00
 Coeff-Com: -0.185D-03 0.144D-01 0.161D-01 0.938D-02-0.667D-01-0.691D-01
 Coeff-Com: -0.360D-01 0.239D+00 0.893D+00
 Coeff:     -0.185D-03 0.144D-01 0.161D-01 0.938D-02-0.667D-01-0.691D-01
 Coeff:     -0.360D-01 0.239D+00 0.893D+00
 Gap=     0.192 Goal=   None    Shift=    0.000
 Gap=     0.143 Goal=   None    Shift=    0.000
 RMSDP=1.45D-08 MaxDP=6.43D-07 DE=-1.71D-11 OVMax= 1.81D-06

 Cycle  19  Pass 1  IDiag  1:
 RMSU=  1.09D-08    CP:  1.00D+00  1.01D+00  5.49D-01  1.20D+00  1.65D+00
                    CP:  1.08D+00  9.19D-01  1.05D+00  1.14D+00
 E= -615.114933337496     Delta-E=       -0.000000000003 Rises=F Damp=F
 DIIS: error= 8.43D-08 at cycle  10 NSaved=  10.
 NSaved=10 IEnMin=10 EnMin= -615.114933337496     IErMin=10 ErrMin= 8.43D-08
 ErrMax= 8.43D-08  0.00D+00 EMaxC= 1.00D-01 BMatC= 1.98D-12 BMatP= 6.02D-12
 IDIUse=1 WtCom= 1.00D+00 WtEn= 0.00D+00
 Coeff-Com: -0.256D-03 0.158D-01 0.176D-01 0.152D-01-0.554D-01-0.805D-01
 Coeff-Com: -0.120D+00-0.771D-01 0.411D+00 0.874D+00
 Coeff:     -0.256D-03 0.158D-01 0.176D-01 0.152D-01-0.554D-01-0.805D-01
 Coeff:     -0.120D+00-0.771D-01 0.411D+00 0.874D+00
 Gap=     0.192 Goal=   None    Shift=    0.000
 Gap=     0.143 Goal=   None    Shift=    0.000
 RMSDP=9.86D-09 MaxDP=4.96D-07 DE=-3.18D-12 OVMax= 1.34D-06

 SCF Done:  E(UB3LYP) =  -615.114933337     A.U. after   19 cycles
            NFock= 19  Conv=0.99D-08     -V/T= 2.0107
 <Sx>= 0.0000 <Sy>= 0.0000 <Sz>= 0.5000 <S**2>= 0.7771 S= 0.5135
 <L.S>=  0.00000000000    
 KE= 6.085894460638D+02 PE=-3.079947560214D+03 EE= 1.030811595631D+03
 Annihilation of the first spin contaminant:
 S**2 before annihilation     0.7771,   after     0.7502
 Leave Link  502 at Wed Mar  6 07:12:45 2024, MaxMem=  8053063680 cpu:             402.7 elap:              12.7
 (Enter /public/software/apps/Gaussian/g16/l601.exe)
 Copying SCF densities to generalized density rwf, IOpCl= 1 IROHF=0.

 **********************************************************************

            Population analysis using the SCF Density.

 **********************************************************************

 Orbital symmetries:
 Alpha Orbitals:
       Occupied  (A) (A) (A) (A) (A) (A) (A) (A) (A) (A) (A) (A)
                 (A) (A) (A) (A) (A) (A) (A) (A) (A) (A) (A) (A)
                 (A) (A) (A) (A) (A) (A) (A) (A) (A) (A) (A) (A)
                 (A) (A) (A) (A) (A) (A) (A) (A) (A) (A) (A) (A)
                 (A) (A) (A)
       Virtual   (A) (A) (A) (A) (A) (A) (A) (A) (A) (A) (A) (A)
                 (A) (A) (A) (A) (A) (A) (A) (A) (A) (A) (A) (A)
                 (A) (A) (A) (A) (A) (A) (A) (A) (A) (A) (A) (A)
                 (A) (A) (A) (A) (A) (A) (A) (A) (A) (A) (A) (A)
                 (A) (A) (A) (A) (A) (A) (A) (A) (A) (A) (A) (A)
                 (A) (A) (A) (A) (A) (A) (A) (A) (A) (A) (A) (A)
                 (A) (A) (A) (A) (A) (A) (A) (A) (A) (A) (A) (A)
                 (A) (A) (A) (A) (A) (A) (A) (A) (A) (A) (A) (A)
                 (A) (A) (A) (A) (A) (A) (A) (A) (A) (A) (A) (A)
                 (A) (A) (A) (A) (A) (A) (A) (A) (A) (A) (A) (A)
                 (A) (A) (A) (A) (A) (A) (A) (A) (A) (A) (A) (A)
                 (A) (A) (A) (A) (A) (A) (A) (A) (A) (A) (A) (A)
                 (A) (A) (A) (A) (A) (A) (A) (A) (A) (A) (A) (A)
                 (A) (A) (A) (A) (A) (A) (A) (A) (A) (A) (A) (A)
                 (A) (A) (A) (A) (A) (A) (A) (A) (A) (A) (A) (A)
                 (A) (A) (A) (A) (A) (A) (A) (A) (A) (A) (A) (A)
                 (A) (A) (A) (A) (A) (A) (A) (A) (A) (A) (A) (A)
                 (A) (A) (A) (A) (A) (A)
 Beta  Orbitals:
       Occupied  (A) (A) (A) (A) (A) (A) (A) (A) (A) (A) (A) (A)
                 (A) (A) (A) (A) (A) (A) (A) (A) (A) (A) (A) (A)
                 (A) (A) (A) (A) (A) (A) (A) (A) (A) (A) (A) (A)
                 (A) (A) (A) (A) (A) (A) (A) (A) (A) (A) (A) (A)
                 (A) (A)
       Virtual   (A) (A) (A) (A) (A) (A) (A) (A) (A) (A) (A) (A)
                 (A) (A) (A) (A) (A) (A) (A) (A) (A) (A) (A) (A)
                 (A) (A) (A) (A) (A) (A) (A) (A) (A) (A) (A) (A)
                 (A) (A) (A) (A) (A) (A) (A) (A) (A) (A) (A) (A)
                 (A) (A) (A) (A) (A) (A) (A) (A) (A) (A) (A) (A)
                 (A) (A) (A) (A) (A) (A) (A) (A) (A) (A) (A) (A)
                 (A) (A) (A) (A) (A) (A) (A) (A) (A) (A) (A) (A)
                 (A) (A) (A) (A) (A) (A) (A) (A) (A) (A) (A) (A)
                 (A) (A) (A) (A) (A) (A) (A) (A) (A) (A) (A) (A)
                 (A) (A) (A) (A) (A) (A) (A) (A) (A) (A) (A) (A)
                 (A) (A) (A) (A) (A) (A) (A) (A) (A) (A) (A) (A)
                 (A) (A) (A) (A) (A) (A) (A) (A) (A) (A) (A) (A)
                 (A) (A) (A) (A) (A) (A) (A) (A) (A) (A) (A) (A)
                 (A) (A) (A) (A) (A) (A) (A) (A) (A) (A) (A) (A)
                 (A) (A) (A) (A) (A) (A) (A) (A) (A) (A) (A) (A)
                 (A) (A) (A) (A) (A) (A) (A) (A) (A) (A) (A) (A)
                 (A) (A) (A) (A) (A) (A) (A) (A) (A) (A) (A) (A)
                 (A) (A) (A) (A) (A) (A) (A)
 The electronic state is 2-A.
 Alpha  occ. eigenvalues --  -19.17607 -19.11798 -10.30779 -10.24509 -10.21769
 Alpha  occ. eigenvalues --  -10.20078 -10.19957 -10.19808 -10.19614 -10.19354
 Alpha  occ. eigenvalues --  -10.19347 -10.19227 -10.19141 -10.19139  -1.09433
 Alpha  occ. eigenvalues --   -1.00236  -0.85589  -0.82051  -0.76497  -0.73972
 Alpha  occ. eigenvalues --   -0.73459  -0.71169  -0.64741  -0.60345  -0.60151
 Alpha  occ. eigenvalues --   -0.58050  -0.55003  -0.51143  -0.48866  -0.48802
 Alpha  occ. eigenvalues --   -0.48079  -0.46757  -0.45560  -0.45316  -0.43325
 Alpha  occ. eigenvalues --   -0.42443  -0.41767  -0.40661  -0.39628  -0.38354
 Alpha  occ. eigenvalues --   -0.38192  -0.36156  -0.35015  -0.34518  -0.33856
 Alpha  occ. eigenvalues --   -0.32029  -0.30604  -0.27989  -0.25865  -0.25141
 Alpha  occ. eigenvalues --   -0.20937
 Alpha virt. eigenvalues --   -0.01752  -0.01294  -0.00422   0.05862   0.07019
 Alpha virt. eigenvalues --    0.07795   0.08424   0.08897   0.09572   0.11035
 Alpha virt. eigenvalues --    0.11956   0.12677   0.13240   0.14018   0.14267
 Alpha virt. eigenvalues --    0.14618   0.15829   0.16140   0.17530   0.22381
 Alpha virt. eigenvalues --    0.24045   0.25600   0.28318   0.28860   0.29620
 Alpha virt. eigenvalues --    0.30832   0.31673   0.32283   0.32884   0.35989
 Alpha virt. eigenvalues --    0.38514   0.38597   0.40163   0.41489   0.42495
 Alpha virt. eigenvalues --    0.43071   0.43614   0.44150   0.45970   0.46331
 Alpha virt. eigenvalues --    0.47135   0.47760   0.48560   0.49019   0.49607
 Alpha virt. eigenvalues --    0.51522   0.52109   0.52710   0.54035   0.54611
 Alpha virt. eigenvalues --    0.57848   0.58988   0.61079   0.62094   0.62183
 Alpha virt. eigenvalues --    0.62844   0.63241   0.63679   0.64272   0.64759
 Alpha virt. eigenvalues --    0.65301   0.66462   0.66496   0.67195   0.67418
 Alpha virt. eigenvalues --    0.68676   0.69008   0.69079   0.69841   0.71655
 Alpha virt. eigenvalues --    0.72682   0.73528   0.74198   0.75933   0.76647
 Alpha virt. eigenvalues --    0.76976   0.79170   0.80126   0.80970   0.81973
 Alpha virt. eigenvalues --    0.83026   0.88074   0.88816   0.93028   0.94678
 Alpha virt. eigenvalues --    1.00006   1.00323   1.02090   1.05016   1.05218
 Alpha virt. eigenvalues --    1.08494   1.11455   1.15503   1.19457   1.19865
 Alpha virt. eigenvalues --    1.21765   1.23018   1.24393   1.24813   1.25180
 Alpha virt. eigenvalues --    1.26387   1.29071   1.30203   1.30775   1.31081
 Alpha virt. eigenvalues --    1.32759   1.35883   1.45105   1.45353   1.48716
 Alpha virt. eigenvalues --    1.50697   1.52185   1.54956   1.55703   1.60599
 Alpha virt. eigenvalues --    1.61905   1.63853   1.65720   1.66473   1.67510
 Alpha virt. eigenvalues --    1.68612   1.68864   1.71732   1.72314   1.73081
 Alpha virt. eigenvalues --    1.73933   1.74608   1.74732   1.75218   1.76304
 Alpha virt. eigenvalues --    1.77230   1.78247   1.78784   1.79970   1.81875
 Alpha virt. eigenvalues --    1.83405   1.84263   1.85882   1.87040   1.88638
 Alpha virt. eigenvalues --    1.90042   1.92358   1.94114   1.94651   1.96352
 Alpha virt. eigenvalues --    1.97492   1.98046   1.98419   1.99392   2.01759
 Alpha virt. eigenvalues --    2.06216   2.06995   2.09677   2.11229   2.12995
 Alpha virt. eigenvalues --    2.13179   2.14063   2.15897   2.16604   2.22670
 Alpha virt. eigenvalues --    2.25190   2.26550   2.28552   2.29459   2.29770
 Alpha virt. eigenvalues --    2.30655   2.31838   2.34035   2.34312   2.34926
 Alpha virt. eigenvalues --    2.39930   2.43250   2.45829   2.47449   2.52023
 Alpha virt. eigenvalues --    2.54011   2.54914   2.59775   2.60691   2.63686
 Alpha virt. eigenvalues --    2.64072   2.64648   2.67321   2.70215   2.71324
 Alpha virt. eigenvalues --    2.71741   2.73871   2.79260   2.79427   2.82201
 Alpha virt. eigenvalues --    2.86696   2.87530   2.88773   2.89179   2.90397
 Alpha virt. eigenvalues --    2.91131   2.97258   2.98862   3.02831   3.06593
 Alpha virt. eigenvalues --    3.10405   3.11580   3.18085   3.20158   3.24236
 Alpha virt. eigenvalues --    3.29664   3.45182   3.61936   3.64273   3.66183
  Beta  occ. eigenvalues --  -19.17577 -19.11524 -10.30833 -10.24511 -10.20924
  Beta  occ. eigenvalues --  -10.20275 -10.19805 -10.19663 -10.19351 -10.19344
  Beta  occ. eigenvalues --  -10.19268 -10.19230 -10.19144 -10.19142  -1.09281
  Beta  occ. eigenvalues --   -0.99855  -0.85502  -0.81209  -0.76216  -0.73972
  Beta  occ. eigenvalues --   -0.72925  -0.70713  -0.63952  -0.60333  -0.59610
  Beta  occ. eigenvalues --   -0.57970  -0.54869  -0.51095  -0.48574  -0.48384
  Beta  occ. eigenvalues --   -0.47562  -0.46618  -0.45445  -0.45219  -0.43133
  Beta  occ. eigenvalues --   -0.42352  -0.40874  -0.40510  -0.39325  -0.38018
  Beta  occ. eigenvalues --   -0.37896  -0.36046  -0.34951  -0.34426  -0.33707
  Beta  occ. eigenvalues --   -0.30151  -0.29376  -0.27659  -0.25819  -0.25087
  Beta virt. eigenvalues --   -0.10784  -0.01360  -0.01240   0.01018   0.05877
  Beta virt. eigenvalues --    0.07049   0.08642   0.08952   0.08994   0.10421
  Beta virt. eigenvalues --    0.11117   0.12010   0.12739   0.13335   0.14174
  Beta virt. eigenvalues --    0.14349   0.14791   0.15880   0.16592   0.17738
  Beta virt. eigenvalues --    0.22421   0.24324   0.25811   0.28345   0.28863
  Beta virt. eigenvalues --    0.29744   0.31689   0.32103   0.32304   0.33088
  Beta virt. eigenvalues --    0.36170   0.38620   0.38634   0.40310   0.41507
  Beta virt. eigenvalues --    0.42642   0.43489   0.43750   0.44330   0.46607
  Beta virt. eigenvalues --    0.46611   0.47334   0.47900   0.49232   0.49761
  Beta virt. eigenvalues --    0.49900   0.51755   0.52686   0.54095   0.54294
  Beta virt. eigenvalues --    0.54760   0.57953   0.59066   0.61240   0.62208
  Beta virt. eigenvalues --    0.62942   0.62944   0.63587   0.63866   0.64310
  Beta virt. eigenvalues --    0.64872   0.65754   0.66582   0.66647   0.67556
  Beta virt. eigenvalues --    0.68176   0.68922   0.69196   0.69241   0.69936
  Beta virt. eigenvalues --    0.71856   0.72714   0.73574   0.74358   0.76160
  Beta virt. eigenvalues --    0.76800   0.77158   0.79285   0.80305   0.81080
  Beta virt. eigenvalues --    0.82586   0.83248   0.88245   0.88967   0.93125
  Beta virt. eigenvalues --    0.94853   1.00285   1.00519   1.02210   1.05126
  Beta virt. eigenvalues --    1.05307   1.09282   1.11500   1.15672   1.19938
  Beta virt. eigenvalues --    1.20720   1.22138   1.23188   1.24398   1.24895
  Beta virt. eigenvalues --    1.25554   1.26490   1.29101   1.30377   1.31111
  Beta virt. eigenvalues --    1.31181   1.33548   1.35989   1.45235   1.45924
  Beta virt. eigenvalues --    1.48913   1.50713   1.52244   1.55691   1.55752
  Beta virt. eigenvalues --    1.60930   1.61992   1.64040   1.65757   1.66601
  Beta virt. eigenvalues --    1.67632   1.68649   1.69469   1.72038   1.72418
  Beta virt. eigenvalues --    1.73446   1.74572   1.74758   1.74765   1.75227
  Beta virt. eigenvalues --    1.76752   1.77315   1.78317   1.79369   1.80523
  Beta virt. eigenvalues --    1.82248   1.83588   1.84381   1.86008   1.87080
  Beta virt. eigenvalues --    1.88902   1.90684   1.92754   1.94158   1.94666
  Beta virt. eigenvalues --    1.96397   1.97673   1.98105   1.98616   1.99552
  Beta virt. eigenvalues --    2.02830   2.06855   2.07299   2.09913   2.11592
  Beta virt. eigenvalues --    2.13150   2.14117   2.15278   2.16022   2.16793
  Beta virt. eigenvalues --    2.22879   2.26118   2.26822   2.28931   2.29703
  Beta virt. eigenvalues --    2.29761   2.30727   2.31999   2.34198   2.34322
  Beta virt. eigenvalues --    2.35564   2.39993   2.43435   2.46927   2.47615
  Beta virt. eigenvalues --    2.53412   2.54343   2.55439   2.59912   2.60712
  Beta virt. eigenvalues --    2.63896   2.64545   2.64665   2.67562   2.70478
  Beta virt. eigenvalues --    2.71515   2.71741   2.74196   2.79458   2.79518
  Beta virt. eigenvalues --    2.82724   2.86720   2.87736   2.88912   2.89232
  Beta virt. eigenvalues --    2.90590   2.91472   2.97503   2.99067   3.02971
  Beta virt. eigenvalues --    3.06710   3.10609   3.11587   3.18223   3.20681
  Beta virt. eigenvalues --    3.24248   3.29864   3.45361   3.61945   3.64350
  Beta virt. eigenvalues --    3.66403
          Condensed to atoms (all electrons):
               1          2          3          4          5          6
     1  C    5.607687   0.337769   0.194991   0.427601  -0.040756  -0.004642
     2  C    0.337769   4.767622  -0.064178  -0.070823   0.335734  -0.077359
     3  C    0.194991  -0.064178   4.648030  -0.039538   0.016068  -0.000532
     4  C    0.427601  -0.070823  -0.039538   4.729094  -0.016424   0.001177
     5  C   -0.040756   0.335734   0.016068  -0.016424   5.345680   0.253036
     6  C   -0.004642  -0.077359  -0.000532   0.001177   0.253036   5.153062
     7  C    0.000080   0.012562   0.000017  -0.000723   0.111856   0.258385
     8  C    0.000007  -0.000264   0.000000   0.000179  -0.169070   0.107948
     9  C    0.000078   0.012572   0.000017  -0.000719   0.111858  -0.147811
    10  C   -0.004610  -0.077402  -0.000532   0.001174   0.253161   0.062220
    11  H   -0.010735   0.332312  -0.006720   0.002208  -0.009175   0.008306
    12  H   -0.010712   0.332226  -0.006693   0.002176  -0.009127  -0.010908
    13  H    0.000677  -0.016495  -0.000312   0.000972  -0.077560   0.440165
    14  H    0.000001  -0.000335  -0.000001  -0.000002   0.016947  -0.075235
    15  H    0.000001   0.000021   0.000000  -0.000002  -0.001471   0.015085
    16  H    0.000001  -0.000335  -0.000001  -0.000002   0.016947  -0.002008
    17  H    0.000680  -0.016507  -0.000312   0.000968  -0.077544   0.016355
    18  O   -0.132127   0.015026   0.707762   0.003047   0.002064  -0.000005
    19  O   -0.130664   0.003149   0.390475   0.003214   0.000049  -0.000001
    20  C    0.011843  -0.000324  -0.028961  -0.000341   0.000001  -0.000000
    21  H    0.000928   0.000017  -0.004081  -0.000042  -0.000001  -0.000000
    22  H   -0.000003   0.000005   0.005416  -0.000038  -0.000000  -0.000000
    23  H    0.000924   0.000017  -0.004077  -0.000042  -0.000001   0.000000
    24  C   -0.059668   0.016051  -0.028293   0.564766  -0.002154  -0.000078
    25  H   -0.016289  -0.042126   0.010017   0.399243   0.015039   0.001523
    26  H    0.013086  -0.000367   0.000239  -0.009789   0.000084   0.000041
    27  H   -0.032783  -0.000533   0.007640   0.006637  -0.000050  -0.000013
               7          8          9         10         11         12
     1  C    0.000080   0.000007   0.000078  -0.004610  -0.010735  -0.010712
     2  C    0.012562  -0.000264   0.012572  -0.077402   0.332312   0.332226
     3  C    0.000017   0.000000   0.000017  -0.000532  -0.006720  -0.006693
     4  C   -0.000723   0.000179  -0.000719   0.001174   0.002208   0.002176
     5  C    0.111856  -0.169070   0.111858   0.253161  -0.009175  -0.009127
     6  C    0.258385   0.107948  -0.147811   0.062220   0.008306  -0.010908
     7  C    5.084867   0.243579   0.106413  -0.147804  -0.000573   0.000632
     8  C    0.243579   5.135384   0.243569   0.107958   0.000019   0.000019
     9  C    0.106413   0.243569   5.084921   0.258334   0.000634  -0.000574
    10  C   -0.147804   0.107958   0.258334   5.152987  -0.010919   0.008306
    11  H   -0.000573   0.000019   0.000634  -0.010919   0.682977  -0.025471
    12  H    0.000632   0.000019  -0.000574   0.008306  -0.025471   0.683023
    13  H   -0.072529   0.015361  -0.001937   0.016352   0.000257   0.005488
    14  H    0.440982  -0.078368   0.015600  -0.002008   0.000012  -0.000002
    15  H   -0.073987   0.438680  -0.073986   0.015085  -0.000001  -0.000001
    16  H    0.015600  -0.078368   0.440981  -0.075232  -0.000002   0.000012
    17  H   -0.001937   0.015361  -0.072541   0.440166   0.005489   0.000258
    18  O   -0.000000   0.000000  -0.000000  -0.000005   0.008495   0.008454
    19  O   -0.000000   0.000000  -0.000000  -0.000001   0.000283   0.000281
    20  C    0.000000  -0.000000   0.000000  -0.000000  -0.000015  -0.000015
    21  H    0.000000   0.000000  -0.000000   0.000000  -0.000002  -0.000008
    22  H    0.000000  -0.000000   0.000000  -0.000000  -0.000001  -0.000001
    23  H   -0.000000   0.000000   0.000000  -0.000000  -0.000008  -0.000002
    24  C   -0.000003   0.000003  -0.000003  -0.000078  -0.000430  -0.000431
    25  H    0.000357   0.000255   0.000355   0.001504   0.000628   0.000629
    26  H   -0.000001  -0.000002  -0.000001   0.000040   0.000009   0.000009
    27  H    0.000000   0.000000   0.000000  -0.000013  -0.000006  -0.000006
              13         14         15         16         17         18
     1  C    0.000677   0.000001   0.000001   0.000001   0.000680  -0.132127
     2  C   -0.016495  -0.000335   0.000021  -0.000335  -0.016507   0.015026
     3  C   -0.000312  -0.000001   0.000000  -0.000001  -0.000312   0.707762
     4  C    0.000972  -0.000002  -0.000002  -0.000002   0.000968   0.003047
     5  C   -0.077560   0.016947  -0.001471   0.016947  -0.077544   0.002064
     6  C    0.440165  -0.075235   0.015085  -0.002008   0.016355  -0.000005
     7  C   -0.072529   0.440982  -0.073987   0.015600  -0.001937  -0.000000
     8  C    0.015361  -0.078368   0.438680  -0.078368   0.015361   0.000000
     9  C   -0.001937   0.015600  -0.073986   0.440981  -0.072541  -0.000000
    10  C    0.016352  -0.002008   0.015085  -0.075232   0.440166  -0.000005
    11  H    0.000257   0.000012  -0.000001  -0.000002   0.005489   0.008495
    12  H    0.005488  -0.000002  -0.000001   0.000012   0.000258   0.008454
    13  H    0.730503  -0.013802  -0.000316   0.000037  -0.000321  -0.000008
    14  H   -0.013802   0.726719  -0.013473  -0.000325   0.000037   0.000000
    15  H   -0.000316  -0.013473   0.724055  -0.013472  -0.000316   0.000000
    16  H    0.000037  -0.000325  -0.013472   0.726717  -0.013801   0.000000
    17  H   -0.000321   0.000037  -0.000316  -0.013801   0.730508  -0.000008
    18  O   -0.000008   0.000000   0.000000   0.000000  -0.000008   7.686754
    19  O    0.000001   0.000000   0.000000   0.000000   0.000001  -0.080659
    20  C   -0.000000  -0.000000   0.000000  -0.000000  -0.000000  -0.000366
    21  H    0.000000   0.000000  -0.000000   0.000000  -0.000000   0.008777
    22  H   -0.000000   0.000000  -0.000000   0.000000  -0.000000   0.000955
    23  H   -0.000000   0.000000  -0.000000   0.000000   0.000000   0.008762
    24  C   -0.000023  -0.000000  -0.000000  -0.000000  -0.000023  -0.000089
    25  H   -0.000018   0.000002  -0.000003   0.000002  -0.000018  -0.000123
    26  H    0.000002   0.000000   0.000000   0.000000   0.000002   0.000003
    27  H    0.000001  -0.000000  -0.000000  -0.000000   0.000001   0.000234
              19         20         21         22         23         24
     1  C   -0.130664   0.011843   0.000928  -0.000003   0.000924  -0.059668
     2  C    0.003149  -0.000324   0.000017   0.000005   0.000017   0.016051
     3  C    0.390475  -0.028961  -0.004081   0.005416  -0.004077  -0.028293
     4  C    0.003214  -0.000341  -0.000042  -0.000038  -0.000042   0.564766
     5  C    0.000049   0.000001  -0.000001  -0.000000  -0.000001  -0.002154
     6  C   -0.000001  -0.000000  -0.000000  -0.000000   0.000000  -0.000078
     7  C   -0.000000   0.000000   0.000000   0.000000  -0.000000  -0.000003
     8  C    0.000000  -0.000000   0.000000  -0.000000   0.000000   0.000003
     9  C   -0.000000   0.000000  -0.000000   0.000000   0.000000  -0.000003
    10  C   -0.000001  -0.000000   0.000000  -0.000000  -0.000000  -0.000078
    11  H    0.000283  -0.000015  -0.000002  -0.000001  -0.000008  -0.000430
    12  H    0.000281  -0.000015  -0.000008  -0.000001  -0.000002  -0.000431
    13  H    0.000001  -0.000000   0.000000  -0.000000  -0.000000  -0.000023
    14  H    0.000000  -0.000000   0.000000   0.000000   0.000000  -0.000000
    15  H    0.000000   0.000000  -0.000000  -0.000000  -0.000000  -0.000000
    16  H    0.000000  -0.000000   0.000000   0.000000   0.000000  -0.000000
    17  H    0.000001  -0.000000  -0.000000  -0.000000   0.000000  -0.000023
    18  O   -0.080659  -0.000366   0.008777   0.000955   0.008762  -0.000089
    19  O    7.921389   0.281424  -0.028043  -0.026636  -0.028041  -0.014882
    20  C    0.281424   4.354751   0.396748   0.390246   0.396758   0.000048
    21  H   -0.028043   0.396748   0.658454  -0.027818  -0.033195  -0.000042
    22  H   -0.026636   0.390246  -0.027818   0.660168  -0.027823   0.000207
    23  H   -0.028041   0.396758  -0.033195  -0.027823   0.658465  -0.000041
    24  C   -0.014882   0.000048  -0.000042   0.000207  -0.000041   4.852969
    25  H   -0.000077   0.000029   0.000001   0.000002   0.000001  -0.064397
    26  H    0.000566  -0.000013   0.000002  -0.000017   0.000002   0.356894
    27  H    0.023183  -0.000603   0.000257  -0.000776   0.000257   0.368307
              25         26         27
     1  C   -0.016289   0.013086  -0.032783
     2  C   -0.042126  -0.000367  -0.000533
     3  C    0.010017   0.000239   0.007640
     4  C    0.399243  -0.009789   0.006637
     5  C    0.015039   0.000084  -0.000050
     6  C    0.001523   0.000041  -0.000013
     7  C    0.000357  -0.000001   0.000000
     8  C    0.000255  -0.000002   0.000000
     9  C    0.000355  -0.000001   0.000000
    10  C    0.001504   0.000040  -0.000013
    11  H    0.000628   0.000009  -0.000006
    12  H    0.000629   0.000009  -0.000006
    13  H   -0.000018   0.000002   0.000001
    14  H    0.000002   0.000000  -0.000000
    15  H   -0.000003   0.000000  -0.000000
    16  H    0.000002   0.000000  -0.000000
    17  H   -0.000018   0.000002   0.000001
    18  O   -0.000123   0.000003   0.000234
    19  O   -0.000077   0.000566   0.023183
    20  C    0.000029  -0.000013  -0.000603
    21  H    0.000001   0.000002   0.000257
    22  H    0.000002  -0.000017  -0.000776
    23  H    0.000001   0.000002   0.000257
    24  C   -0.064397   0.356894   0.368307
    25  H    0.683289  -0.016954   0.008824
    26  H   -0.016954   0.678580  -0.046102
    27  H    0.008824  -0.046102   0.628262
          Atomic-Atomic Spin Densities.
               1          2          3          4          5          6
     1  C    0.739643  -0.025707   0.009725  -0.019092  -0.004869   0.001142
     2  C   -0.025707  -0.050544  -0.000877   0.000780   0.005767   0.000061
     3  C    0.009725  -0.000877  -0.041599  -0.000067   0.000166  -0.000003
     4  C   -0.019092   0.000780  -0.000067  -0.249099   0.001344  -0.000138
     5  C   -0.004869   0.005767   0.000166   0.001344   0.002307  -0.001179
     6  C    0.001142   0.000061  -0.000003  -0.000138  -0.001179   0.001072
     7  C   -0.000057  -0.000020   0.000000   0.000046   0.000151  -0.000505
     8  C    0.000006  -0.000002  -0.000000  -0.000007   0.000084   0.000099
     9  C   -0.000058  -0.000019   0.000000   0.000046   0.000153   0.000431
    10  C    0.001147   0.000054  -0.000003  -0.000139  -0.001184  -0.002207
    11  H   -0.016540   0.006773  -0.000450   0.000246   0.001458   0.000995
    12  H   -0.016561   0.006771  -0.000451   0.000243   0.001456  -0.002275
    13  H    0.000210  -0.000224   0.000001  -0.000092   0.000053   0.000214
    14  H    0.000001   0.000000   0.000000   0.000000  -0.000022  -0.000029
    15  H   -0.000000   0.000000   0.000000   0.000000   0.000001  -0.000001
    16  H    0.000001   0.000000   0.000000   0.000000  -0.000022  -0.000004
    17  H    0.000212  -0.000224   0.000001  -0.000091   0.000052  -0.000026
    18  O   -0.011991   0.001393  -0.011587   0.000098  -0.000022  -0.000002
    19  O   -0.008081   0.000092   0.003996   0.001188  -0.000002  -0.000000
    20  C    0.000090  -0.000012   0.000207  -0.000039   0.000000   0.000000
    21  H    0.000075  -0.000001  -0.000145  -0.000000   0.000000  -0.000000
    22  H   -0.000006  -0.000000  -0.000016  -0.000000   0.000000   0.000000
    23  H    0.000075  -0.000001  -0.000145  -0.000000   0.000000   0.000000
    24  C   -0.031650  -0.000116  -0.000618   0.007386   0.000076  -0.000045
    25  H    0.000764   0.000039   0.000154  -0.000547   0.000486  -0.000254
    26  H   -0.000590   0.000024  -0.000057  -0.004474  -0.000010  -0.000000
    27  H    0.000934  -0.000004  -0.000203  -0.003591  -0.000001   0.000001
               7          8          9         10         11         12
     1  C   -0.000057   0.000006  -0.000058   0.001147  -0.016540  -0.016561
     2  C   -0.000020  -0.000002  -0.000019   0.000054   0.006773   0.006771
     3  C    0.000000  -0.000000   0.000000  -0.000003  -0.000450  -0.000451
     4  C    0.000046  -0.000007   0.000046  -0.000139   0.000246   0.000243
     5  C    0.000151   0.000084   0.000153  -0.001184   0.001458   0.001456
     6  C   -0.000505   0.000099   0.000431  -0.002207   0.000995  -0.002275
     7  C    0.002607  -0.000054  -0.000343   0.000430  -0.000030   0.000049
     8  C   -0.000054  -0.002485  -0.000054   0.000100  -0.000003  -0.000003
     9  C   -0.000343  -0.000054   0.002612  -0.000512   0.000050  -0.000030
    10  C    0.000430   0.000100  -0.000512   0.001085  -0.002275   0.000996
    11  H   -0.000030  -0.000003   0.000050  -0.002275   0.051392  -0.013996
    12  H    0.000049  -0.000003  -0.000030   0.000996  -0.013996   0.051461
    13  H   -0.000110  -0.000000   0.000007  -0.000025   0.000034  -0.000166
    14  H    0.000052   0.000034   0.000004  -0.000004   0.000000  -0.000001
    15  H    0.000003  -0.000027   0.000003  -0.000001  -0.000000  -0.000000
    16  H    0.000004   0.000034   0.000051  -0.000029  -0.000001   0.000000
    17  H    0.000007  -0.000000  -0.000111   0.000217  -0.000168   0.000035
    18  O    0.000000  -0.000000   0.000000  -0.000002   0.001204   0.001204
    19  O    0.000000  -0.000000   0.000000  -0.000000   0.000035   0.000035
    20  C   -0.000000   0.000000  -0.000000   0.000000   0.000003   0.000003
    21  H    0.000000   0.000000  -0.000000   0.000000  -0.000009   0.000005
    22  H    0.000000   0.000000   0.000000   0.000000   0.000000   0.000000
    23  H   -0.000000   0.000000   0.000000  -0.000000   0.000005  -0.000009
    24  C    0.000004  -0.000000   0.000004  -0.000045   0.000149   0.000149
    25  H   -0.000005   0.000008  -0.000005  -0.000255  -0.000002  -0.000003
    26  H   -0.000000   0.000000  -0.000000  -0.000000   0.000000   0.000000
    27  H   -0.000000   0.000000  -0.000000   0.000001  -0.000001  -0.000001
              13         14         15         16         17         18
     1  C    0.000210   0.000001  -0.000000   0.000001   0.000212  -0.011991
     2  C   -0.000224   0.000000   0.000000   0.000000  -0.000224   0.001393
     3  C    0.000001   0.000000   0.000000   0.000000   0.000001  -0.011587
     4  C   -0.000092   0.000000   0.000000   0.000000  -0.000091   0.000098
     5  C    0.000053  -0.000022   0.000001  -0.000022   0.000052  -0.000022
     6  C    0.000214  -0.000029  -0.000001  -0.000004  -0.000026  -0.000002
     7  C   -0.000110   0.000052   0.000003   0.000004   0.000007   0.000000
     8  C   -0.000000   0.000034  -0.000027   0.000034  -0.000000  -0.000000
     9  C    0.000007   0.000004   0.000003   0.000051  -0.000111   0.000000
    10  C   -0.000025  -0.000004  -0.000001  -0.000029   0.000217  -0.000002
    11  H    0.000034   0.000000  -0.000000  -0.000001  -0.000168   0.001204
    12  H   -0.000166  -0.000001  -0.000000   0.000000   0.000035   0.001204
    13  H   -0.000004   0.000016   0.000000  -0.000000   0.000001  -0.000001
    14  H    0.000016  -0.000148  -0.000001   0.000000  -0.000000  -0.000000
    15  H    0.000000  -0.000001   0.000122  -0.000001   0.000000  -0.000000
    16  H   -0.000000   0.000000  -0.000001  -0.000148   0.000016  -0.000000
    17  H    0.000001  -0.000000   0.000000   0.000016  -0.000003  -0.000001
    18  O   -0.000001  -0.000000  -0.000000  -0.000000  -0.000001   0.120769
    19  O   -0.000000  -0.000000  -0.000000  -0.000000  -0.000000   0.001744
    20  C    0.000000  -0.000000   0.000000  -0.000000  -0.000000  -0.000308
    21  H   -0.000000  -0.000000   0.000000   0.000000   0.000000  -0.000274
    22  H   -0.000000  -0.000000   0.000000  -0.000000  -0.000000  -0.000009
    23  H    0.000000   0.000000   0.000000  -0.000000  -0.000000  -0.000274
    24  C   -0.000009  -0.000000   0.000000  -0.000000  -0.000009   0.000043
    25  H    0.000008   0.000001   0.000000   0.000001   0.000008   0.000001
    26  H   -0.000000  -0.000000  -0.000000  -0.000000  -0.000000  -0.000000
    27  H    0.000000  -0.000000   0.000000  -0.000000   0.000000   0.000002
              19         20         21         22         23         24
     1  C   -0.008081   0.000090   0.000075  -0.000006   0.000075  -0.031650
     2  C    0.000092  -0.000012  -0.000001  -0.000000  -0.000001  -0.000116
     3  C    0.003996   0.000207  -0.000145  -0.000016  -0.000145  -0.000618
     4  C    0.001188  -0.000039  -0.000000  -0.000000  -0.000000   0.007386
     5  C   -0.000002   0.000000   0.000000   0.000000   0.000000   0.000076
     6  C   -0.000000   0.000000  -0.000000   0.000000   0.000000  -0.000045
     7  C    0.000000  -0.000000   0.000000   0.000000  -0.000000   0.000004
     8  C   -0.000000   0.000000   0.000000   0.000000   0.000000  -0.000000
     9  C    0.000000  -0.000000  -0.000000   0.000000   0.000000   0.000004
    10  C   -0.000000   0.000000   0.000000   0.000000  -0.000000  -0.000045
    11  H    0.000035   0.000003  -0.000009   0.000000   0.000005   0.000149
    12  H    0.000035   0.000003   0.000005   0.000000  -0.000009   0.000149
    13  H   -0.000000   0.000000  -0.000000  -0.000000   0.000000  -0.000009
    14  H   -0.000000  -0.000000  -0.000000  -0.000000   0.000000  -0.000000
    15  H   -0.000000   0.000000   0.000000   0.000000   0.000000   0.000000
    16  H   -0.000000  -0.000000   0.000000  -0.000000  -0.000000  -0.000000
    17  H   -0.000000  -0.000000   0.000000  -0.000000  -0.000000  -0.000009
    18  O    0.001744  -0.000308  -0.000274  -0.000009  -0.000274   0.000043
    19  O    0.011204  -0.000253   0.000046   0.000024   0.000045   0.000686
    20  C   -0.000253  -0.002533   0.000465   0.000110   0.000464   0.000034
    21  H    0.000046   0.000465   0.000400  -0.000018   0.000246  -0.000009
    22  H    0.000024   0.000110  -0.000018  -0.000024  -0.000018   0.000008
    23  H    0.000045   0.000464   0.000246  -0.000018   0.000402  -0.000009
    24  C    0.000686   0.000034  -0.000009   0.000008  -0.000009   0.629951
    25  H    0.000008  -0.000000  -0.000000   0.000000  -0.000000  -0.001351
    26  H    0.000000  -0.000000   0.000000  -0.000000   0.000000   0.008084
    27  H    0.000792  -0.000029   0.000007  -0.000026   0.000007   0.004291
              25         26         27
     1  C    0.000764  -0.000590   0.000934
     2  C    0.000039   0.000024  -0.000004
     3  C    0.000154  -0.000057  -0.000203
     4  C   -0.000547  -0.004474  -0.003591
     5  C    0.000486  -0.000010  -0.000001
     6  C   -0.000254  -0.000000   0.000001
     7  C   -0.000005  -0.000000  -0.000000
     8  C    0.000008   0.000000   0.000000
     9  C   -0.000005  -0.000000  -0.000000
    10  C   -0.000255  -0.000000   0.000001
    11  H   -0.000002   0.000000  -0.000001
    12  H   -0.000003   0.000000  -0.000001
    13  H    0.000008  -0.000000   0.000000
    14  H    0.000001  -0.000000  -0.000000
    15  H    0.000000  -0.000000   0.000000
    16  H    0.000001  -0.000000  -0.000000
    17  H    0.000008  -0.000000   0.000000
    18  O    0.000001  -0.000000   0.000002
    19  O    0.000008   0.000000   0.000792
    20  C   -0.000000  -0.000000  -0.000029
    21  H   -0.000000   0.000000   0.000007
    22  H    0.000000  -0.000000  -0.000026
    23  H   -0.000000   0.000000   0.000007
    24  C   -0.001351   0.008084   0.004291
    25  H    0.009295   0.000596  -0.000115
    26  H    0.000596  -0.034622   0.001801
    27  H   -0.000115   0.001801  -0.029291
 Mulliken charges and spin densities:
               1          2
     1  C   -0.153365   0.618823
     2  C    0.201966  -0.055999
     3  C    0.203560  -0.041971
     4  C   -0.003971  -0.265997
     5  C   -0.075191   0.006243
     6  C    0.001287  -0.002655
     7  C    0.022228   0.002229
     8  C    0.017750  -0.002272
     9  C    0.022240   0.002229
    10  C    0.001318  -0.002652
    11  H    0.022430   0.028871
    12  H    0.022437   0.028913
    13  H   -0.026494  -0.000085
    14  H   -0.016750  -0.000096
    15  H   -0.015899   0.000099
    16  H   -0.016751  -0.000096
    17  H   -0.026498  -0.000085
    18  O   -0.236945   0.101987
    19  O   -0.315010   0.011559
    20  C    0.198789  -0.001799
    21  H    0.028048   0.000787
    22  H    0.026112   0.000023
    23  H    0.028044   0.000787
    24  C    0.011389   0.617002
    25  H    0.018307   0.008831
    26  H    0.023685  -0.029249
    27  H    0.037281  -0.025427
 Sum of Mulliken charges =  -0.00000   1.00000
 Mulliken charges and spin densities with hydrogens summed into heavy atoms:
               1          2
     1  C   -0.153365   0.618823
     2  C    0.246833   0.001785
     3  C    0.203560  -0.041971
     4  C    0.014337  -0.257166
     5  C   -0.075191   0.006243
     6  C   -0.025206  -0.002740
     7  C    0.005478   0.002133
     8  C    0.001852  -0.002173
     9  C    0.005490   0.002133
    10  C   -0.025180  -0.002737
    18  O   -0.236945   0.101987
    19  O   -0.315010   0.011559
    20  C    0.280993  -0.000202
    24  C    0.072355   0.562327
 Electronic spatial extent (au):  <R**2>=           3643.2572
 Charge=             -0.0000 electrons
 Dipole moment (field-independent basis, Debye):
    X=             -0.1244    Y=              1.8194    Z=             -0.0017  Tot=              1.8236
 Quadrupole moment (field-independent basis, Debye-Ang):
   XX=            -70.9207   YY=            -87.2602   ZZ=            -79.1097
   XY=             -2.3140   XZ=              0.0026   YZ=              0.0118
 Traceless Quadrupole moment (field-independent basis, Debye-Ang):
   XX=              8.1762   YY=             -8.1634   ZZ=             -0.0128
   XY=             -2.3140   XZ=              0.0026   YZ=              0.0118
 Octapole moment (field-independent basis, Debye-Ang**2):
  XXX=            -70.8893  YYY=             14.0505  ZZZ=              0.0137  XYY=             -6.8474
  XXY=             20.8457  XXZ=             -0.0456  XZZ=             -1.5513  YZZ=             -6.9450
  YYZ=             -0.0244  XYZ=              0.0230
 Hexadecapole moment (field-independent basis, Debye-Ang**3):
 XXXX=          -3394.9504 YYYY=           -630.5941 ZZZZ=           -336.2146 XXXY=             47.0903
 XXXZ=             -0.0289 YYYX=            -19.6762 YYYZ=             -0.0385 ZZZX=             -0.0409
 ZZZY=              0.0611 XXYY=           -813.4993 XXZZ=           -669.6578 YYZZ=           -173.9337
 XXYZ=              0.1345 YYXZ=              0.0465 ZZXY=             13.7255
 N-N= 8.254315851823D+02 E-N=-3.079947552450D+03  KE= 6.085894460638D+02
                          Isotropic Fermi Contact Couplings
        Atom                 a.u.       MegaHertz       Gauss      10(-4) cm-1
     1  C(13)              0.10818     121.61919      43.39675      40.56779
     2  C(13)             -0.02428     -27.29603      -9.73990      -9.10498
     3  C(13)             -0.03012     -33.85901     -12.08174     -11.29415
     4  C(13)             -0.06632     -74.55410     -26.60276     -24.86857
     5  C(13)              0.00075       0.84656       0.30207       0.28238
     6  C(13)             -0.00048      -0.53572      -0.19116      -0.17870
     7  C(13)              0.00044       0.48903       0.17450       0.16312
     8  C(13)             -0.00043      -0.48142      -0.17178      -0.16058
     9  C(13)              0.00044       0.48994       0.17482       0.16343
    10  C(13)             -0.00047      -0.53378      -0.19047      -0.17805
    11  H(1)               0.01262      56.41631      20.13074      18.81846
    12  H(1)               0.01264      56.49629      20.15928      18.84513
    13  H(1)               0.00003       0.11801       0.04211       0.03937
    14  H(1)              -0.00003      -0.11262      -0.04019      -0.03757
    15  H(1)               0.00003       0.12605       0.04498       0.04205
    16  H(1)              -0.00003      -0.11243      -0.04012      -0.03750
    17  H(1)               0.00003       0.11851       0.04229       0.03953
    18  O(17)              0.03523     -21.35390      -7.61960      -7.12289
    19  O(17)             -0.00303       1.83419       0.65448       0.61182
    20  C(13)             -0.00115      -1.29009      -0.46034      -0.43033
    21  H(1)               0.00062       2.77118       0.98883       0.92437
    22  H(1)               0.00000       0.00995       0.00355       0.00332
    23  H(1)               0.00062       2.77115       0.98881       0.92436
    24  C(13)              0.10087     113.40029      40.46404      37.82627
    25  H(1)               0.00255      11.41935       4.07471       3.80908
    26  H(1)              -0.00799     -35.73028     -12.74945     -11.91834
    27  H(1)              -0.00777     -34.74995     -12.39965     -11.59134
 --------------------------------------------------------
       Center         ----  Spin Dipole Couplings  ----
                      3XX-RR        3YY-RR        3ZZ-RR
 --------------------------------------------------------
     1   Atom       -0.321545     -0.322014      0.643559
     2   Atom       -0.001538     -0.007498      0.009036
     3   Atom        0.005318      0.002927     -0.008245
     4   Atom        0.073961      0.116636     -0.190597
     5   Atom        0.005617     -0.000819     -0.004798
     6   Atom        0.003998     -0.003544     -0.000454
     7   Atom        0.001179      0.000573     -0.001752
     8   Atom        0.001997     -0.002373      0.000376
     9   Atom        0.001181      0.000572     -0.001752
    10   Atom        0.003998     -0.003544     -0.000454
    11   Atom       -0.000992      0.004970     -0.003978
    12   Atom       -0.000992      0.004937     -0.003945
    13   Atom        0.001964     -0.001537     -0.000427
    14   Atom        0.000900     -0.000531     -0.000368
    15   Atom        0.000744     -0.000421     -0.000323
    16   Atom        0.000899     -0.000532     -0.000367
    17   Atom        0.001962     -0.001535     -0.000427
    18   Atom       -0.205244     -0.200926      0.406170
    19   Atom       -0.019595     -0.031088      0.050683
    20   Atom        0.002529     -0.001434     -0.001095
    21   Atom        0.002782     -0.000967     -0.001814
    22   Atom        0.002893     -0.001085     -0.001808
    23   Atom        0.002783     -0.000968     -0.001815
    24   Atom       -0.306148     -0.300925      0.607073
    25   Atom       -0.002734      0.011769     -0.009034
    26   Atom       -0.024801      0.026571     -0.001769
    27   Atom        0.038006     -0.034635     -0.003370
 --------------------------------------------------------
                        XY            XZ            YZ
 --------------------------------------------------------
     1   Atom       -0.004447     -0.000303      0.000928
     2   Atom       -0.006836      0.000005      0.000018
     3   Atom        0.009557     -0.000008     -0.000003
     4   Atom       -0.009060     -0.000001     -0.000273
     5   Atom       -0.002907      0.000003     -0.000007
     6   Atom        0.000425      0.001714     -0.000213
     7   Atom       -0.001370      0.000674     -0.000079
     8   Atom        0.000882     -0.000002      0.000005
     9   Atom       -0.001374     -0.000670      0.000071
    10   Atom        0.000419     -0.001717      0.000223
    11   Atom       -0.005320     -0.001801      0.005323
    12   Atom       -0.005318      0.001815     -0.005348
    13   Atom       -0.000627      0.002925     -0.000318
    14   Atom       -0.000103      0.000709      0.000024
    15   Atom       -0.000030     -0.000000      0.000000
    16   Atom       -0.000106     -0.000709     -0.000023
    17   Atom       -0.000637     -0.002924      0.000323
    18   Atom        0.002052     -0.000155      0.000396
    19   Atom        0.002194     -0.000008      0.000068
    20   Atom        0.000106      0.000003      0.000001
    21   Atom        0.000665      0.001402      0.000260
    22   Atom        0.000016      0.000002     -0.000001
    23   Atom        0.000663     -0.001400     -0.000261
    24   Atom        0.005327      0.000155      0.000801
    25   Atom       -0.003384      0.000004     -0.000018
    26   Atom        0.032110     -0.000026     -0.000031
    27   Atom        0.003044     -0.000010      0.000028
 --------------------------------------------------------


 ---------------------------------------------------------------------------------
              Anisotropic Spin Dipole Couplings in Principal Axis System
 ---------------------------------------------------------------------------------

       Atom             a.u.   MegaHertz   Gauss  10(-4) cm-1        Axes

              Baa    -0.3262   -43.777   -15.621   -14.603  0.6882  0.7255 -0.0005
[...]
    23. BD (   2) C   9 - C  10          0.83352    -0.24816  243(v),248(v),120(v),119(v)
                                                    90(v)
    24. BD (   1) C   9 - H  16          0.99010    -0.50532  244(v),247(v),252(g),250(g)
                                                    116(v),134(v)
    25. BD (   1) C  10 - H  17          0.98999    -0.50334  242(v),250(v),244(g),89(v)
                                                    252(g),125(v)
    26. BD (   1) O  19 - C  20          0.99588    -0.82395  232(v),71(v)
    27. BD (   1) C  20 - H  21          0.99712    -0.51804  181(v)
    28. BD (   1) C  20 - H  22          0.99577    -0.52035  239(v)
    29. BD (   1) C  20 - H  23          0.99712    -0.51803  181(v)
    30. BD (   1) C  24 - H  26          0.99340    -0.50731  233(v),80(v),240(g)
    31. BD (   1) C  24 - H  27          0.99361    -0.50904  241(v),81(v),240(g)
    32. CR (   1) C   1                  0.99944   -10.08456  240(v),81(v),82(v),75(v)
                                                    72(v),237(v),65(v),239(v)
    33. CR (   1) C   2                  0.99953   -10.06736  233(v),242(v),244(v),53(v)
                                                    143(v),147(v),89(v)
    34. CR (   1) C   3                  0.99956   -10.19808  256(v),233(v),54(v),232(g)
                                                    231(v)
    35. CR (   1) C   4                  0.99949   -10.07127  211(v),54(v),232(v),231(v)
                                                    219(v),53(v),261(v)
    36. CR (   1) C   5                  0.99943   -10.06129  99(v),135(v),245(v),252(v)
                                                    63(v),246(v),255(v)
    37. CR (   1) C   6                  0.99943   -10.05649  108(v),91(v),234(v),244(v)
                                                    247(v),249(v),151(v),89(v)
    38. CR (   1) C   7                  0.99947   -10.06203  117(v),242(v),100(v),250(v)
                                                    246(v),251(v),99(v),155(v)
                                                    118(v)
    39. CR (   1) C   8                  0.99947   -10.06156  108(v),126(v),245(v),252(v)
                                                    249(v),254(v),159(v),109(v)
                                                    127(v)
    40. CR (   1) C   9                  0.99947   -10.06203  117(v),244(v),136(v),247(v)
                                                    255(v),251(v),135(v),163(v)
                                                    118(v)
    41. CR (   1) C  10                  0.99943   -10.05649  126(v),91(v),234(v),242(v)
                                                    250(v),254(v),167(v),89(v)
    42. CR (   1) O  18                  0.99987   -18.86721  71(v),232(v)
    43. CR (   1) O  19                  0.99983   -18.98125  71(v),72(v),190(v),189(v)
                                                    73(v)
    44. CR (   1) C  20                  0.99962   -10.14679  239(v),256(g),202(v),198(v)
                                                    206(v)
    45. CR (   1) C  24                  0.99955   -10.07440  81(v),233(v),227(v),223(v)
                                                    241(v)
    46. LP*(   1) C   1                  0.25417    -0.05836  238(v),52(r),236(v),235(v)
                                                    83(v),60(g),77(v)
    47. LP (   1) C   4                  0.57443    -0.12889  52(v),46(v),213(v),83(g)
                                                    60(v),216(v)
    48. LP (   1) O  18                  0.98786    -0.65066  71(v),232(v),239(v)
    49. LP (   2) O  18                  0.92578    -0.25613  239(v),232(v),72(v),73(v)
                                                    258(r),234(r),75(v)
    50. LP (   1) O  19                  0.97983    -0.53648  237(v),71(v),258(v),73(v)
                                                    189(v),261(r),257(v),259(v)
                                                    190(v)
    51. LP (   2) O  19                  0.89363    -0.32309  238(v),259(v),257(v),74(v)
                                                    191(v)
    52. LP*(   1) C  24                  0.21485    -0.06464  213(g),46(r),86(v)
    53. RY*(   1) C   1                  0.00356     1.03567   
    54. RY*(   2) C   1                  0.00171     0.95968   
    55. RY*(   3) C   1                  0.00082     0.61043   
    56. RY*(   4) C   1                  0.00073     1.23398   
    57. RY*(   5) C   1                  0.00018     2.27486   
    58. RY*(   6) C   1                  0.00010     1.86183   
    59. RY*(   7) C   1                  0.00011     2.32453   
    60. RY*(   8) C   1                  0.00002     1.43438   
    61. RY*(   9) C   1                  0.00001     2.19706   
    62. RY*(   1) C   2                  0.00303     0.86501   
    63. RY*(   2) C   2                  0.00296     0.72144   
    64. RY*(   3) C   2                  0.00067     0.99581   
    65. RY*(   4) C   2                  0.00042     1.05645   
    66. RY*(   5) C   2                  0.00010     1.97400   
    67. RY*(   6) C   2                  0.00008     2.18746   
    68. RY*(   7) C   2                  0.00006     2.09964   
    69. RY*(   8) C   2                  0.00000     2.32876   
    70. RY*(   9) C   2                  0.00001     2.10882   
    71. RY*(   1) C   3                  0.01135     0.63094   
    72. RY*(   2) C   3                  0.00405     1.49352   
    73. RY*(   3) C   3                  0.00229     1.47891   
    74. RY*(   4) C   3                  0.00210     1.90031   
    75. RY*(   5) C   3                  0.00070     1.09284   
    76. RY*(   6) C   3                  0.00051     2.03202   
    77. RY*(   7) C   3                  0.00037     0.82845   
    78. RY*(   8) C   3                  0.00014     1.59466   
    79. RY*(   9) C   3                  0.00002     2.12630   
    80. RY*(   1) C   4                  0.00287     1.09436   
    81. RY*(   2) C   4                  0.00128     0.87322   
    82. RY*(   3) C   4                  0.00035     0.58289   
    83. RY*(   4) C   4                  0.00022     0.60322   
    84. RY*(   5) C   4                  0.00009     2.32705   
    85. RY*(   6) C   4                  0.00004     2.42079   
    86. RY*(   7) C   4                  0.00001     1.93605   
    87. RY*(   8) C   4                  0.00001     1.88748   
    88. RY*(   9) C   4                  0.00001     2.20542   
    89. RY*(   1) C   5                  0.00293     1.17736   
    90. RY*(   2) C   5                  0.00163     0.81290   
    91. RY*(   3) C   5                  0.00162     0.94969   
    92. RY*(   4) C   5                  0.00062     0.77208   
    93. RY*(   5) C   5                  0.00036     1.92166   
    94. RY*(   6) C   5                  0.00018     2.36072   
    95. RY*(   7) C   5                  0.00010     1.87683   
    96. RY*(   8) C   5                  0.00008     2.22807   
    97. RY*(   9) C   5                  0.00002     2.23393   
    98. RY*(   1) C   6                  0.00292     1.15623   
    99. RY*(   2) C   6                  0.00133     0.72930   
   100. RY*(   3) C   6                  0.00054     0.62388   
   101. RY*(   4) C   6                  0.00041     0.88202   
   102. RY*(   5) C   6                  0.00030     1.68579   
   103. RY*(   6) C   6                  0.00006     2.36741   
   104. RY*(   7) C   6                  0.00001     1.93219   
   105. RY*(   8) C   6                  0.00001     2.21759   
   106. RY*(   9) C   6                  0.00001     2.35663   
   107. RY*(   1) C   7                  0.00271     1.16903   
   108. RY*(   2) C   7                  0.00139     0.66296   
   109. RY*(   3) C   7                  0.00043     0.66460   
   110. RY*(   4) C   7                  0.00034     0.62678   
   111. RY*(   5) C   7                  0.00035     1.93737   
   112. RY*(   6) C   7                  0.00007     2.39326   
   113. RY*(   7) C   7                  0.00002     2.26636   
   114. RY*(   8) C   7                  0.00000     2.17004   
   115. RY*(   9) C   7                  0.00000     1.91170   
   116. RY*(   1) C   8                  0.00259     1.17939   
   117. RY*(   2) C   8                  0.00129     0.65842   
   118. RY*(   3) C   8                  0.00046     0.65294   
   119. RY*(   4) C   8                  0.00039     0.73441   
   120. RY*(   5) C   8                  0.00032     1.82385   
   121. RY*(   6) C   8                  0.00007     2.39402   
   122. RY*(   7) C   8                  0.00002     2.25343   
   123. RY*(   8) C   8                  0.00000     2.09258   
   124. RY*(   9) C   8                  0.00000     1.98930   
   125. RY*(   1) C   9                  0.00271     1.16904   
   126. RY*(   2) C   9                  0.00139     0.66298   
   127. RY*(   3) C   9                  0.00043     0.69937   
   128. RY*(   4) C   9                  0.00039     1.22886   
   129. RY*(   5) C   9                  0.00031     1.30032   
   130. RY*(   6) C   9                  0.00007     2.39326   
   131. RY*(   7) C   9                  0.00002     2.26634   
   132. RY*(   8) C   9                  0.00000     2.17188   
   133. RY*(   9) C   9                  0.00000     1.90990   
   134. RY*(   1) C  10                  0.00292     1.15633   
   135. RY*(   2) C  10                  0.00133     0.72964   
   136. RY*(   3) C  10                  0.00053     0.62786   
   137. RY*(   4) C  10                  0.00038     0.63127   
   138. RY*(   5) C  10                  0.00032     1.93243   
   139. RY*(   6) C  10                  0.00006     2.36735   
   140. RY*(   7) C  10                  0.00001     1.93459   
   141. RY*(   8) C  10                  0.00001     2.21630   
   142. RY*(   9) C  10                  0.00001     2.35541   
   143. RY*(   1) H  11                  0.00108     0.41519   
   144. RY*(   2) H  11                  0.00010     1.90432   
   145. RY*(   3) H  11                  0.00007     1.86778   
   146. RY*(   4) H  11                  0.00002     2.33090   
   147. RY*(   1) H  12                  0.00108     0.41510   
   148. RY*(   2) H  12                  0.00010     1.90445   
   149. RY*(   3) H  12                  0.00007     1.86799   
   150. RY*(   4) H  12                  0.00002     2.33077   
   151. RY*(   1) H  13                  0.00084     0.36875   
   152. RY*(   2) H  13                  0.00009     1.66749   
   153. RY*(   3) H  13                  0.00004     2.08198   
   154. RY*(   4) H  13                  0.00003     2.25550   
   155. RY*(   1) H  14                  0.00083     0.35860   
   156. RY*(   2) H  14                  0.00009     1.65079   
   157. RY*(   3) H  14                  0.00004     2.05932   
   158. RY*(   4) H  14                  0.00003     2.24546   
   159. RY*(   1) H  15                  0.00081     0.35722   
   160. RY*(   2) H  15                  0.00009     1.65075   
   161. RY*(   3) H  15                  0.00004     1.96899   
   162. RY*(   4) H  15                  0.00003     2.33462   
   163. RY*(   1) H  16                  0.00083     0.35860   
   164. RY*(   2) H  16                  0.00009     1.65079   
   165. RY*(   3) H  16                  0.00004     2.05891   
   166. RY*(   4) H  16                  0.00003     2.24588   
   167. RY*(   1) H  17                  0.00084     0.36877   
   168. RY*(   2) H  17                  0.00009     1.66749   
   169. RY*(   3) H  17                  0.00004     2.08241   
   170. RY*(   4) H  17                  0.00003     2.25508   
   171. RY*(   1) O  18                  0.00087     1.23821   
   172. RY*(   2) O  18                  0.00030     1.09979   
   173. RY*(   3) O  18                  0.00007     1.71660   
   174. RY*(   4) O  18                  0.00006     1.17620   
   175. RY*(   5) O  18                  0.00001     2.95089   
   176. RY*(   6) O  18                  0.00000     2.66495   
   177. RY*(   7) O  18                  0.00000     2.84778   
   178. RY*(   8) O  18                  0.00001     2.97947   
   179. RY*(   9) O  18                  0.00000     2.91099   
   180. RY*(   1) O  19                  0.00116     1.32184   
   181. RY*(   2) O  19                  0.00080     1.14995   
   182. RY*(   3) O  19                  0.00036     1.75739   
   183. RY*(   4) O  19                  0.00014     2.25170   
   184. RY*(   5) O  19                  0.00007     2.68482   
   185. RY*(   6) O  19                  0.00005     2.25817   
   186. RY*(   7) O  19                  0.00003     2.79860   
   187. RY*(   8) O  19                  0.00000     2.62859   
   188. RY*(   9) O  19                  0.00001     2.85404   
   189. RY*(   1) C  20                  0.00228     0.84442   
   190. RY*(   2) C  20                  0.00083     0.55820   
   191. RY*(   3) C  20                  0.00064     1.88912   
   192. RY*(   4) C  20                  0.00027     1.89977   
   193. RY*(   5) C  20                  0.00008     1.23519   
   194. RY*(   6) C  20                  0.00006     0.91402   
   195. RY*(   7) C  20                  0.00000     2.12863   
   196. RY*(   8) C  20                  0.00000     1.86792   
   197. RY*(   9) C  20                  0.00000     2.24512   
   198. RY*(   1) H  21                  0.00121     0.36679   
   199. RY*(   2) H  21                  0.00011     1.78001   
   200. RY*(   3) H  21                  0.00007     1.89634   
   201. RY*(   4) H  21                  0.00001     2.12837   
   202. RY*(   1) H  22                  0.00044     0.42627   
   203. RY*(   2) H  22                  0.00010     1.72272   
   204. RY*(   3) H  22                  0.00005     1.86023   
   205. RY*(   4) H  22                  0.00001     2.06411   
   206. RY*(   1) H  23                  0.00121     0.36678   
   207. RY*(   2) H  23                  0.00011     1.78007   
   208. RY*(   3) H  23                  0.00007     1.89636   
   209. RY*(   4) H  23                  0.00001     2.12829   
   210. RY*(   1) C  24                  0.00181     1.04344   
   211. RY*(   2) C  24                  0.00045     0.50191   
   212. RY*(   3) C  24                  0.00007     1.38268   
   213. RY*(   4) C  24                  0.00004     0.55505   
   214. RY*(   5) C  24                  0.00003     1.97179   
   215. RY*(   6) C  24                  0.00000     1.92098   
   216. RY*(   7) C  24                  0.00000     1.93712   
   217. RY*(   8) C  24                  0.00001     2.07993   
   218. RY*(   9) C  24                  0.00000     2.23056   
   219. RY*(   1) H  25                  0.00135     0.45521   
   220. RY*(   2) H  25                  0.00009     1.66156   
   221. RY*(   3) H  25                  0.00007     2.06003   
   222. RY*(   4) H  25                  0.00003     2.31613   
   223. RY*(   1) H  26                  0.00071     0.41597   
   224. RY*(   2) H  26                  0.00006     1.85375   
   225. RY*(   3) H  26                  0.00004     1.61386   
   226. RY*(   4) H  26                  0.00003     2.24208   
   227. RY*(   1) H  27                  0.00115     0.44577   
   228. RY*(   2) H  27                  0.00007     1.86301   
   229. RY*(   3) H  27                  0.00004     2.29957   
   230. RY*(   4) H  27                  0.00004     1.63086   
   231. BD*(   1) C   1 - C   2          0.01219     0.42474   
   232. BD*(   1) C   1 - C   3          0.02990     0.46129   
   233. BD*(   1) C   1 - C   4          0.01346     0.56639   
   234. BD*(   1) C   2 - C   5          0.01236     0.44004   
   235. BD*(   1) C   2 - H  11          0.00547     0.44536   
   236. BD*(   1) C   2 - H  12          0.00547     0.44530   
   237. BD*(   1) C   3 - O  18          0.00936     0.60804   
   238. BD*(   2) C   3 - O  18          0.10516     0.01827  46(v),172(g),74(g),78(g)
   239. BD*(   1) C   3 - O  19          0.05085     0.37395   
   240. BD*(   1) C   4 - C  24          0.00529     0.60110   
   241. BD*(   1) C   4 - H  25          0.00971     0.47053   
   242. BD*(   1) C   5 - C   6          0.01348     0.57395   
   243. BD*(   2) C   5 - C   6          0.17429     0.04026  253(v),248(v),101(g),231(v)
                                                    90(g),137(v),236(v)
   244. BD*(   1) C   5 - C  10          0.01348     0.57399   
   245. BD*(   1) C   6 - C   7          0.00846     0.58142   
   246. BD*(   1) C   6 - H  13          0.00744     0.46621   
   247. BD*(   1) C   7 - C   8          0.00890     0.57800   
   248. BD*(   2) C   7 - C   8          0.16756     0.03737  253(v),243(v),119(g),110(g)
   249. BD*(   1) C   7 - H  14          0.00711     0.47074   
   250. BD*(   1) C   8 - C   9          0.00890     0.57799   
   251. BD*(   1) C   8 - H  15          0.00719     0.47176   
   252. BD*(   1) C   9 - C  10          0.00846     0.58143   
   253. BD*(   2) C   9 - C  10          0.16488     0.03789  248(v),243(v),137(g),128(g)
   254. BD*(   1) C   9 - H  16          0.00711     0.47075   
   255. BD*(   1) C  10 - H  17          0.00744     0.46623   
   256. BD*(   1) O  19 - C  20          0.00815     0.27539   
   257. BD*(   1) C  20 - H  21          0.00777     0.43748   
   258. BD*(   1) C  20 - H  22          0.00471     0.44681   
   259. BD*(   1) C  20 - H  23          0.00777     0.43746   
   260. BD*(   1) C  24 - H  26          0.00362     0.47031   
   261. BD*(   1) C  24 - H  27          0.00598     0.48783   
       -------------------------------
              Total Lewis   48.52854  ( 97.0571%)
        Valence non-Lewis    1.37094  (  2.7419%)
        Rydberg non-Lewis    0.10052  (  0.2010%)
       -------------------------------
            Total unit  1   50.00000  (100.0000%)
           Charge unit  1    0.50000
 Leave Link  607 at Wed Mar  6 07:12:48 2024, MaxMem=  8053063680 cpu:              84.9 elap:               2.7
 (Enter /public/software/apps/Gaussian/g16/l9999.exe)
 Unable to Open any file for archive entry.
 1\1\GINC-NODE2\SP\UB3LYP\def2SVP\C12H13O2(2)\TMJ_HG\06-Mar-2024\0\\#p 
 B3LYP def2svp sp EmpiricalDispersion=GD3BJ pop=nboread\\Title: radical
 _0554_opt_g16\\0,2\C,0,-0.94846,0.11778,-0.1349\C,0,0.134,0.03082,-1.1
 9286\C,0,-2.29191,0.30152,-0.72211\C,0,-0.64486,0.02679,1.23815\C,0,1.
 54125,-0.15635,-0.68714\C,0,2.06454,-1.44114,-0.48042\C,0,3.3588,-1.61
 711,0.01489\C,0,4.15289,-0.50588,0.31185\C,0,3.64384,0.77984,0.10836\C
 ,0,2.34891,0.95039,-0.38709\H,0,0.07206,0.93936,-1.81667\H,0,-0.13309,
 -0.78684,-1.88466\H,0,1.44645,-2.3134,-0.71034\H,0,3.7502,-2.62608,0.1
 6677\H,0,5.16633,-0.64142,0.69707\H,0,4.25923,1.65437,0.33367\H,0,1.95
 43,1.95811,-0.5436\O,0,-2.48555,0.37271,-1.9205\O,0,-3.3029,0.38628,0.
 17031\C,0,-4.60401,0.5639,-0.38272\H,0,-4.6571,1.49218,-0.97154\H,0,-5
 .29383,0.61234,0.46894\H,0,-4.86854,-0.27657,-1.04218\C,0,-1.47835,0.0
 821,2.33485\H,0,0.41952,-0.10842,1.45261\H,0,-1.04901,-0.0089,3.3355\H
 ,0,-2.5545,0.21361,2.24378\\Version=ES64L-G16RevC.01\State=2-A\HF=-615
 .1149333\S2=0.777115\S2-1=0.\S2A=0.750201\RMSD=9.856e-09\Dipole=-0.076
 2934,-0.0194072,0.7131396\Quadrupole=6.1078356,0.0556125,-6.1634481,-0
 .6777477,-1.2615701,0.3926992\PG=C01 [X(C12H13O2)]\\@
 The archive entry for this job was punched.


 YOU CANNOT THROW TO THE GROUND THE LETTERS OF
 THE GREEK ALPHABET AND PICK UP THE ILIAD.
        - RUFUS CHOATE, 1799-1859
 Job cpu time:       0 days  0 hours  8 minutes 51.9 seconds.
 Elapsed time:       0 days  0 hours  0 minutes 16.9 seconds.
 File lengths (MBytes):  RWF=     81 Int=      0 D2E=      0 Chk=     67 Scr=      2
 Normal termination of Gaussian 16 at Wed Mar  6 07:12:49 2024.
