 Entering Gaussian System, Link 0=g16
 Input=radical_0278_opt_g16.com
 Output=radical_0278_opt_g16.log
 Initial command:
 /public/software/apps/Gaussian/g16/l1.exe "/public/home/TMJ_HG/tmp/Gau-47553.inp" -scrdir="/public/home/TMJ_HG/tmp/"
 Entering Link 1 = /public/software/apps/Gaussian/g16/l1.exe PID=     47554.
  
 Copyright (c) 1988-2019, Gaussian, Inc.  All Rights Reserved.
  
 This is part of the Gaussian(R) 16 program.  It is based on
 the Gaussian(R) 09 system (copyright 2009, Gaussian, Inc.),
 the Gaussian(R) 03 system (copyright 2003, Gaussian, Inc.),
 the Gaussian(R) 98 system (copyright 1998, Gaussian, Inc.),
 the Gaussian(R) 94 system (copyright 1995, Gaussian, Inc.),
 the Gaussian 92(TM) system (copyright 1992, Gaussian, Inc.),
 the Gaussian 90(TM) system (copyright 1990, Gaussian, Inc.),
 the Gaussian 88(TM) system (copyright 1988, Gaussian, Inc.),
 the Gaussian 86(TM) system (copyright 1986, Carnegie Mellon
 University), and the Gaussian 82(TM) system (copyright 1983,
 Carnegie Mellon University). Gaussian is a federally registered
 trademark of Gaussian, Inc.
  
 This software contains proprietary and confidential information,
 including trade secrets, belonging to Gaussian, Inc.
  
 This software is provided under written license and may be
 used, copied, transmitted, or stored only in accord with that
 written license.
  
 The following legend is applicable only to US Government
 contracts under FAR:
  
                    RESTRICTED RIGHTS LEGEND
  
 Use, reproduction and disclosure by the US Government is
 subject to restrictions as set forth in subparagraphs (a)
 and (c) of the Commercial Computer Software - Restricted
 Rights clause in FAR 52.227-19.
  
 Gaussian, Inc.
 340 Quinnipiac St., Bldg. 40, Wallingford CT 06492
  
  
 ---------------------------------------------------------------
 Warning -- This program may not be used in any manner that
 competes with the business of Gaussian, Inc. or will provide
 assistance to any competitor of Gaussian, Inc.  The licensee
 of this program is prohibited from giving any competitor of
 Gaussian, Inc. access to this program.  By using this program,
 the user acknowledges that Gaussian, Inc. is engaged in the
 business of creating and licensing software in the field of
 computational chemistry and represents and warrants to the
 licensee that it is not a competitor of Gaussian, Inc. and that
 it will not use this program in any manner prohibited above.
 ---------------------------------------------------------------
  

 Cite this work as:
 Gaussian 16, Revision C.01,
 M. J. Frisch, G. W. Trucks, H. B. Schlegel, G. E. Scuseria, 
 M. A. Robb, J. R. Cheeseman, G. Scalmani, V. Barone, 
 G. A. Petersson, H. Nakatsuji, X. Li, M. Caricato, A. V. Marenich, 
 J. Bloino, B. G. Janesko, R. Gomperts, B. Mennucci, H. P. Hratchian, 
 J. V. Ortiz, A. F. Izmaylov, J. L. Sonnenberg, D. Williams-Young, 
 F. Ding, F. Lipparini, F. Egidi, J. Goings, B. Peng, A. Petrone, 
 T. Henderson, D. Ranasinghe, V. G. Zakrzewski, J. Gao, N. Rega, 
 G. Zheng, W. Liang, M. Hada, M. Ehara, K. Toyota, R. Fukuda, 
 J. Hasegawa, M. Ishida, T. Nakajima, Y. Honda, O. Kitao, H. Nakai, 
 T. Vreven, K. Throssell, J. A. Montgomery, Jr., J. E. Peralta, 
 F. Ogliaro, M. J. Bearpark, J. J. Heyd, E. N. Brothers, K. N. Kudin, 
 V. N. Staroverov, T. A. Keith, R. Kobayashi, J. Normand, 
 K. Raghavachari, A. P. Rendell, J. C. Burant, S. S. Iyengar, 
 J. Tomasi, M. Cossi, J. M. Millam, M. Klene, C. Adamo, R. Cammi, 
 J. W. Ochterski, R. L. Martin, K. Morokuma, O. Farkas, 
 J. B. Foresman, and D. J. Fox, Gaussian, Inc., Wallingford CT, 2019.
 
 ******************************************
 Gaussian 16:  ES64L-G16RevC.01  3-Jul-2019
                23-Feb-2024 
 ******************************************
 %mem=60GB
 %nprocshared=32
 Will use up to   32 processors via shared memory.
 %chk=radical_0278_opt_g16.chk
 ---------------------------------------------------------
 # B3LYP def2svp Opt freq EmpiricalDispersion=GD3BJ NoSymm
 ---------------------------------------------------------
 1/18=20,19=15,26=3,38=1/1,3;
 2/9=110,12=2,15=1,17=6,18=5,40=1/2;
 3/5=43,7=101,11=2,25=1,30=1,71=1,74=-5,124=41/1,2,3;
 4//1;
 5/5=2,38=5/2;
 6/7=2,8=2,9=2,10=2,28=1/1;
 7/30=1/1,2,3,16;
 1/18=20,19=15,26=3/3(2);
 2/9=110,15=1/2;
 99//99;
 2/9=110,15=1/2;
 3/5=43,7=101,11=2,25=1,30=1,71=1,74=-5,124=41/1,2,3;
 4/5=5,16=3,69=1/1;
 5/5=2,38=5/2;
 7/30=1/1,2,3,16;
 1/18=20,19=15,26=3/3(-5);
 2/9=110,15=1/2;
 6/7=2,8=2,9=2,10=2,19=2,28=1/1;
 99/9=1/99;
 -------------------
 Title: radical_0278
 -------------------
 Symbolic Z-matrix:
 Charge =  0 Multiplicity = 2
 C                    -0.5747   -0.5203    1.1897 
 H                    -0.6358    0.2671    1.9115 
 C                     0.3967   -1.566     1.7126 
 O                     0.        0.        0. 
 C                     1.6264   -1.5433    0.8759 
 C                     1.6915   -2.3548   -0.238 
 C                     2.8122   -2.376    -1.0559 
 C                     3.9046   -1.5837   -0.7831 
 C                     3.8255   -0.7745    0.3376 
 C                     2.7147   -0.749     1.1541 
 H                     0.6285   -1.3027    2.7626 
 H                    -0.0801   -2.5641    1.7429 
 H                     0.8371   -2.9928   -0.4755 
 H                     2.8403   -3.0216   -1.9253 
 H                     4.7994   -1.5727   -1.3993 
 H                     4.6755   -0.143     0.5696 
 H                     2.6675   -0.1004    2.0413 
 C                     1.3824    0.        0. 
 H                     1.7849    1.0365    0. 
 H                     1.7278   -0.5455   -0.9098 
 H                     1.829    -0.5207    0.864 
 

 GradGradGradGradGradGradGradGradGradGradGradGradGradGradGradGradGradGrad
 Berny optimization.
 Initialization pass.
                           ----------------------------
                           !    Initial Parameters    !
                           ! (Angstroms and Degrees)  !
 --------------------------                            --------------------------
 ! Name  Definition              Value          Derivative Info.                !
 --------------------------------------------------------------------------------
 ! R1    R(1,2)                  1.0699         estimate D2E/DX2                !
 ! R2    R(1,3)                  1.52           estimate D2E/DX2                !
 ! R3    R(1,4)                  1.42           estimate D2E/DX2                !
 ! R4    R(3,5)                  1.4875         estimate D2E/DX2                !
 ! R5    R(3,11)                 1.107          estimate D2E/DX2                !
 ! R6    R(3,12)                 1.1066         estimate D2E/DX2                !
 ! R7    R(4,18)                 1.3824         estimate D2E/DX2                !
 ! R8    R(5,6)                  1.3797         estimate D2E/DX2                !
 ! R9    R(5,10)                 1.3758         estimate D2E/DX2                !
 ! R10   R(5,18)                 1.7912         estimate D2E/DX2                !
 ! R11   R(5,21)                 1.0425         estimate D2E/DX2                !
 ! R12   R(6,7)                  1.3876         estimate D2E/DX2                !
 ! R13   R(6,13)                 1.0925         estimate D2E/DX2                !
 ! R14   R(7,8)                  1.3768         estimate D2E/DX2                !
 ! R15   R(7,14)                 1.0833         estimate D2E/DX2                !
 ! R16   R(8,9)                  1.3846         estimate D2E/DX2                !
 ! R17   R(8,15)                 1.0865         estimate D2E/DX2                !
 ! R18   R(9,10)                 1.3788         estimate D2E/DX2                !
 ! R19   R(9,16)                 1.084          estimate D2E/DX2                !
 ! R20   R(10,17)                1.1            estimate D2E/DX2                !
 ! R21   R(10,21)                0.9596         estimate D2E/DX2                !
 ! R22   R(18,19)                1.1119         estimate D2E/DX2                !
 ! R23   R(18,20)                1.1156         estimate D2E/DX2                !
 ! R24   R(18,21)                1.1032         estimate D2E/DX2                !
 ! A1    A(2,1,3)              108.1017         estimate D2E/DX2                !
 ! A2    A(2,1,4)              108.5828         estimate D2E/DX2                !
 ! A3    A(3,1,4)              106.3582         estimate D2E/DX2                !
 ! A4    A(1,3,5)              108.9233         estimate D2E/DX2                !
 ! A5    A(1,3,11)             107.2455         estimate D2E/DX2                !
 ! A6    A(1,3,12)             110.7672         estimate D2E/DX2                !
 ! A7    A(5,3,11)             110.9018         estimate D2E/DX2                !
 ! A8    A(5,3,12)             112.6667         estimate D2E/DX2                !
 ! A9    A(11,3,12)            106.1874         estimate D2E/DX2                !
 ! A10   A(1,4,18)             113.8736         estimate D2E/DX2                !
 ! A11   A(3,5,6)              118.9567         estimate D2E/DX2                !
 ! A12   A(3,5,10)             123.2993         estimate D2E/DX2                !
 ! A13   A(3,5,18)             100.1128         estimate D2E/DX2                !
 ! A14   A(3,5,21)             100.4885         estimate D2E/DX2                !
 ! A15   A(6,5,10)             117.7439         estimate D2E/DX2                !
 ! A16   A(6,5,18)              96.7998         estimate D2E/DX2                !
 ! A17   A(6,5,21)             123.9548         estimate D2E/DX2                !
 ! A18   A(10,5,18)             73.094          estimate D2E/DX2                !
 ! A19   A(5,6,7)              121.5328         estimate D2E/DX2                !
 ! A20   A(5,6,13)             118.8237         estimate D2E/DX2                !
 ! A21   A(7,6,13)             119.6435         estimate D2E/DX2                !
 ! A22   A(6,7,8)              121.0145         estimate D2E/DX2                !
 ! A23   A(6,7,14)             120.2074         estimate D2E/DX2                !
 ! A24   A(8,7,14)             118.778          estimate D2E/DX2                !
 ! A25   A(7,8,9)              116.8327         estimate D2E/DX2                !
 ! A26   A(7,8,15)             123.1549         estimate D2E/DX2                !
 ! A27   A(9,8,15)             120.0125         estimate D2E/DX2                !
 ! A28   A(8,9,10)             122.4215         estimate D2E/DX2                !
 ! A29   A(8,9,16)             117.9629         estimate D2E/DX2                !
 ! A30   A(10,9,16)            119.6156         estimate D2E/DX2                !
 ! A31   A(5,10,9)             120.4546         estimate D2E/DX2                !
 ! A32   A(5,10,17)            118.0068         estimate D2E/DX2                !
 ! A33   A(9,10,17)            121.5386         estimate D2E/DX2                !
 ! A34   A(9,10,21)            124.6786         estimate D2E/DX2                !
 ! A35   A(17,10,21)            93.6663         estimate D2E/DX2                !
 ! A36   A(4,18,5)              97.8291         estimate D2E/DX2                !
 ! A37   A(4,18,19)            111.2225         estimate D2E/DX2                !
 ! A38   A(4,18,20)            108.0353         estimate D2E/DX2                !
 ! A39   A(4,18,21)            113.8797         estimate D2E/DX2                !
 ! A40   A(5,18,19)            138.9245         estimate D2E/DX2                !
 ! A41   A(5,18,20)             86.2915         estimate D2E/DX2                !
 ! A42   A(19,18,20)           110.1044         estimate D2E/DX2                !
 ! A43   A(19,18,21)           107.0638         estimate D2E/DX2                !
 ! A44   A(20,18,21)           106.4133         estimate D2E/DX2                !
 ! A45   A(10,21,18)           136.2804         estimate D2E/DX2                !
 ! D1    D(2,1,3,5)           -110.4861         estimate D2E/DX2                !
 ! D2    D(2,1,3,11)             9.6017         estimate D2E/DX2                !
 ! D3    D(2,1,3,12)           125.063          estimate D2E/DX2                !
 ! D4    D(4,1,3,5)              5.9603         estimate D2E/DX2                !
 ! D5    D(4,1,3,11)           126.0482         estimate D2E/DX2                !
 ! D6    D(4,1,3,12)          -118.4906         estimate D2E/DX2                !
 ! D7    D(2,1,4,18)            85.2439         estimate D2E/DX2                !
 ! D8    D(3,1,4,18)           -30.8796         estimate D2E/DX2                !
 ! D9    D(1,3,5,6)            -90.0028         estimate D2E/DX2                !
 ! D10   D(1,3,5,10)            89.9901         estimate D2E/DX2                !
 ! D11   D(1,3,5,18)            13.6561         estimate D2E/DX2                !
 ! D12   D(1,3,5,21)            48.7285         estimate D2E/DX2                !
 ! D13   D(11,3,5,6)           152.1958         estimate D2E/DX2                !
 ! D14   D(11,3,5,10)          -27.8113         estimate D2E/DX2                !
 ! D15   D(11,3,5,18)         -104.1453         estimate D2E/DX2                !
 ! D16   D(11,3,5,21)          -69.073          estimate D2E/DX2                !
 ! D17   D(12,3,5,6)            33.3217         estimate D2E/DX2                !
 ! D18   D(12,3,5,10)         -146.6854         estimate D2E/DX2                !
 ! D19   D(12,3,5,18)          136.9806         estimate D2E/DX2                !
 ! D20   D(12,3,5,21)          172.053          estimate D2E/DX2                !
 ! D21   D(1,4,18,5)            36.8014         estimate D2E/DX2                !
 ! D22   D(1,4,18,19)         -113.6215         estimate D2E/DX2                !
 ! D23   D(1,4,18,20)          125.4323         estimate D2E/DX2                !
 ! D24   D(1,4,18,21)            7.4542         estimate D2E/DX2                !
 ! D25   D(3,5,6,7)            179.9936         estimate D2E/DX2                !
 ! D26   D(3,5,6,13)            -0.0026         estimate D2E/DX2                !
 ! D27   D(10,5,6,7)             0.0004         estimate D2E/DX2                !
 ! D28   D(10,5,6,13)         -179.9959         estimate D2E/DX2                !
 ! D29   D(18,5,6,7)            74.4441         estimate D2E/DX2                !
 ! D30   D(18,5,6,13)         -105.5522         estimate D2E/DX2                !
 ! D31   D(21,5,6,7)            51.4287         estimate D2E/DX2                !
 ! D32   D(21,5,6,13)         -128.5676         estimate D2E/DX2                !
 ! D33   D(3,5,10,9)          -179.9955         estimate D2E/DX2                !
 ! D34   D(3,5,10,17)            0.0172         estimate D2E/DX2                !
 ! D35   D(6,5,10,9)            -0.0025         estimate D2E/DX2                !
 ! D36   D(6,5,10,17)         -179.9898         estimate D2E/DX2                !
 ! D37   D(18,5,10,9)          -88.8539         estimate D2E/DX2                !
 ! D38   D(18,5,10,17)          91.1588         estimate D2E/DX2                !
 ! D39   D(3,5,18,4)           -29.2913         estimate D2E/DX2                !
 ! D40   D(3,5,18,19)          106.2594         estimate D2E/DX2                !
 ! D41   D(3,5,18,20)         -137.005          estimate D2E/DX2                !
 ! D42   D(6,5,18,4)            91.8092         estimate D2E/DX2                !
 ! D43   D(6,5,18,19)         -132.6401         estimate D2E/DX2                !
 ! D44   D(6,5,18,20)          -15.9045         estimate D2E/DX2                !
 ! D45   D(10,5,18,4)         -151.2061         estimate D2E/DX2                !
 ! D46   D(10,5,18,19)         -15.6554         estimate D2E/DX2                !
 ! D47   D(10,5,18,20)         101.0803         estimate D2E/DX2                !
 ! D48   D(5,6,7,8)              0.0029         estimate D2E/DX2                !
 ! D49   D(5,6,7,14)           179.9973         estimate D2E/DX2                !
 ! D50   D(13,6,7,8)           179.9992         estimate D2E/DX2                !
 ! D51   D(13,6,7,14)           -0.0064         estimate D2E/DX2                !
 ! D52   D(6,7,8,9)             -0.0039         estimate D2E/DX2                !
 ! D53   D(6,7,8,15)           179.9973         estimate D2E/DX2                !
 ! D54   D(14,7,8,9)          -179.9983         estimate D2E/DX2                !
 ! D55   D(14,7,8,15)            0.0028         estimate D2E/DX2                !
 ! D56   D(7,8,9,10)             0.0017         estimate D2E/DX2                !
 ! D57   D(7,8,9,16)          -179.9994         estimate D2E/DX2                !
 ! D58   D(15,8,9,10)         -179.9994         estimate D2E/DX2                !
 ! D59   D(15,8,9,16)           -0.0005         estimate D2E/DX2                !
 ! D60   D(8,9,10,5)             0.0015         estimate D2E/DX2                !
 ! D61   D(8,9,10,17)          179.9884         estimate D2E/DX2                !
 ! D62   D(8,9,10,21)          -58.9566         estimate D2E/DX2                !
 ! D63   D(16,9,10,5)         -179.9974         estimate D2E/DX2                !
 ! D64   D(16,9,10,17)          -0.0105         estimate D2E/DX2                !
 ! D65   D(16,9,10,21)         121.0445         estimate D2E/DX2                !
 ! D66   D(9,10,21,18)         -18.1341         estimate D2E/DX2                !
 ! D67   D(17,10,21,18)        114.8428         estimate D2E/DX2                !
 ! D68   D(4,18,21,10)         176.0404         estimate D2E/DX2                !
 ! D69   D(19,18,21,10)        -60.5926         estimate D2E/DX2                !
 ! D70   D(20,18,21,10)         57.1339         estimate D2E/DX2                !
 --------------------------------------------------------------------------------
 Trust Radius=3.00D-01 FncErr=1.00D-07 GrdErr=1.00D-06 EigMax=2.50D+02 EigMin=1.00D-04
 Number of steps in this run=    126 maximum allowed number of steps=    126.
 GradGradGradGradGradGradGradGradGradGradGradGradGradGradGradGradGradGrad

                          Input orientation:                          
 ---------------------------------------------------------------------
 Center     Atomic      Atomic             Coordinates (Angstroms)
 Number     Number       Type             X           Y           Z
 ---------------------------------------------------------------------
      1          6           0       -0.574700   -0.520300    1.189700
      2          1           0       -0.635800    0.267100    1.911500
      3          6           0        0.396700   -1.566000    1.712600
      4          8           0        0.000000    0.000000    0.000000
      5          6           0        1.626400   -1.543300    0.875900
      6          6           0        1.691500   -2.354800   -0.238000
      7          6           0        2.812200   -2.376000   -1.055900
      8          6           0        3.904600   -1.583700   -0.783100
      9          6           0        3.825500   -0.774500    0.337600
     10          6           0        2.714700   -0.749000    1.154100
     11          1           0        0.628500   -1.302700    2.762600
     12          1           0       -0.080100   -2.564100    1.742900
     13          1           0        0.837100   -2.992800   -0.475500
     14          1           0        2.840300   -3.021600   -1.925300
     15          1           0        4.799400   -1.572700   -1.399300
     16          1           0        4.675500   -0.143000    0.569600
     17          1           0        2.667500   -0.100400    2.041300
     18          6           0        1.382400    0.000000    0.000000
     19          1           0        1.784900    1.036500    0.000000
     20          1           0        1.727800   -0.545500   -0.909800
     21          1           0        1.829000   -0.520700    0.864000
 ---------------------------------------------------------------------
                    Distance matrix (angstroms):
                    1          2          3          4          5
     1  C    0.000000
     2  H    1.069919   0.000000
     3  C    1.520043   2.113261   0.000000
     4  O    1.419992   2.032097   2.354299   0.000000
     5  C    2.447415   3.076941   1.487530   2.407105   0.000000
     6  C    3.246441   4.112303   2.470537   2.909106   1.379690
     7  C    4.467374   5.261192   3.762357   3.829983   2.414821
     8  C    5.008681   5.594780   4.305136   4.285703   2.818529
     9  C    4.489148   4.844098   3.778064   3.917687   2.390996
    10  C    3.297533   3.582173   2.520424   3.043443   1.375756
    11  H    2.129285   2.187944   1.107049   3.118333   2.147866
    12  H    2.174345   2.890142   1.106553   3.101407   2.169300
    13  H    3.298382   4.300483   2.649055   3.143833   2.133149
    14  H    5.255659   6.133503   4.617821   4.572106   3.391997
    15  H    6.057344   6.624776   5.391450   5.240770   3.904527
    16  H    5.300140   5.493522   4.651828   4.712239   3.369224
    17  H    3.378372   3.326213   2.722602   3.360438   2.126971
    18  C    2.348689   2.792545   2.521301   1.382400   1.791232
    19  H    3.067038   3.178930   3.410734   2.064025   2.729046
    20  H    3.116094   3.769172   3.112913   2.027461   2.048075
    21  H    2.425666   2.791617   1.965771   2.088747   1.042545
                    6          7          8          9         10
     6  C    0.000000
     7  C    1.387580   0.000000
     8  C    2.406146   1.376770   0.000000
     9  C    2.717098   2.352323   1.384569   0.000000
    10  C    2.358702   2.746040   2.421844   1.378840   0.000000
    11  H    3.352683   4.527854   4.835678   4.047274   2.691856
    12  H    2.665772   4.029152   4.818682   4.520094   3.384107
    13  H    1.092451   2.149029   3.389651   3.809530   3.348972
    14  H    2.147404   1.083257   2.122478   3.337783   3.829255
    15  H    3.408715   2.170755   1.086504   2.145327   3.397691
    16  H    3.801123   3.331730   2.121250   1.084028   2.133920
    17  H    3.351135   3.846029   3.421671   2.167480   1.100015
    18  C    2.386895   2.967259   3.079423   2.585065   1.915195
    19  H    3.400924   3.716911   3.460032   2.749135   2.320449
    20  H    1.930337   2.132604   2.415030   2.451284   2.296751
    21  H    2.144116   2.845143   2.855000   2.080270   0.959554
                   11         12         13         14         15
    11  H    0.000000
    12  H    1.770037   0.000000
    13  H    3.658585   2.438511   0.000000
    14  H    5.461051   4.711023   2.472966   0.000000
    15  H    5.898366   5.887768   4.309282   2.492802   0.000000
    16  H    4.746827   5.463890   4.893558   4.228336   2.436383
    17  H    2.474534   3.702454   4.248603   4.929217   4.307017
    18  C    3.146006   3.428005   3.079010   3.868116   4.013392
    19  H    3.800142   4.413643   4.166495   4.613981   4.225302
    20  H    3.907472   3.792106   2.640311   2.898270   3.275588
    21  H    2.378530   2.931316   2.981510   3.880390   3.879756
                   16         17         18         19         20
    16  H    0.000000
    17  H    2.489936   0.000000
    18  C    3.345056   2.414222   0.000000
    19  H    3.173521   2.497685   1.111908   0.000000
    20  H    3.322584   3.128920   1.115620   1.825848   0.000000
    21  H    2.886501   1.505247   1.103212   1.781379   1.776858
                   21
    21  H    0.000000
 Symmetry turned off by external request.
 Stoichiometry    C9H11O(2)
 Framework group  C1[X(C9H11O)]
 Deg. of freedom    57
 Full point group                 C1      NOp   1
 Rotational constants (GHZ):           3.0247723           1.1867087           1.1340140
 Standard basis: def2SVP (5D, 7F)
   195 basis functions,   327 primitive gaussians,   205 cartesian basis functions
    37 alpha electrons       36 beta electrons
       nuclear repulsion energy       551.6226377844 Hartrees.
 NAtoms=   21 NActive=   21 NUniq=   21 SFac= 1.00D+00 NAtFMM=   60 NAOKFM=F Big=F
 Integral buffers will be    131072 words long.
 Raffenetti 2 integral format.
 Two-electron integral symmetry is turned off.
 Nuclear repulsion after empirical dispersion term =      551.5796152101 Hartrees.
 One-electron integrals computed using PRISM.
   1 Symmetry operations used in ECPInt.
 ECPInt:  NShTT=    4371 NPrTT=   15563 LenC2=    4346 LenP2D=   12639.
 LDataN:  DoStor=T MaxTD1= 4 Len=   56
 NBasis=   195 RedAO= T EigKep=  2.18D-04  NBF=   195
 NBsUse=   195 1.00D-06 EigRej= -1.00D+00 NBFU=   195
 ExpMin= 1.22D-01 ExpMax= 2.27D+03 ExpMxC= 3.41D+02 IAcc=3 IRadAn=         5 AccDes= 0.00D+00
 Harris functional with IExCor=  402 and IRadAn=       5 diagonalized for initial guess.
 HarFok:  IExCor=  402 AccDes= 0.00D+00 IRadAn=         5 IDoV= 1 UseB2=F ITyADJ=14
 ICtDFT=  3500011 ScaDFX=  1.000000  1.000000  1.000000  1.000000
 FoFCou: FMM=F IPFlag=           0 FMFlag=      100000 FMFlg1=           0
         NFxFlg=           0 DoJE=T BraDBF=F KetDBF=T FulRan=T
         wScrn=  0.000000 ICntrl=       500 IOpCl=  0 I1Cent=   200000004 NGrid=           0
         NMat0=    1 NMatS0=      1 NMatT0=    0 NMatD0=    1 NMtDS0=    0 NMtDT0=    0
 Symmetry not used in FoFCou.
 Initial guess <Sx>= 0.0000 <Sy>= 0.0000 <Sz>= 0.5000 <S**2>= 0.7500 S= 0.5000
 Requested convergence on RMS density matrix=1.00D-08 within 128 cycles.
 Requested convergence on MAX density matrix=1.00D-06.
 Requested convergence on             energy=1.00D-06.
 No special actions if energy rises.
 Integral accuracy reduced to 1.0D-05 until final iterations.
 Problem detected with inexpensive integrals.
 Switching to full accuracy and repeating last cycle.
 EnCoef did     5 forward-backward iterations
 EnCoef did     2 forward-backward iterations
 Restarting incremental Fock formation.
 Restarting incremental Fock formation.
 Restarting incremental Fock formation.
 Restarting incremental Fock formation.
 Restarting incremental Fock formation.
 Restarting incremental Fock formation.
 >>>>>>>>>> Convergence criterion not met.
 SCF Done:  E(UB3LYP) =  -423.956875752     A.U. after  129 cycles
            NFock=128  Conv=0.70D-04     -V/T= 2.0055
 <Sx>= 0.0000 <Sy>= 0.0000 <Sz>= 0.5000 <S**2>= 0.8577 S= 0.5525
 <L.S>=  0.00000000000    
 Annihilation of the first spin contaminant:
 S**2 before annihilation     0.8577,   after     0.7515
 Convergence failure -- run terminated.
 Error termination via Lnk1e in /public/software/apps/Gaussian/g16/l502.exe at Fri Feb 23 14:32:39 2024.
 Job cpu time:       0 days  0 hours 40 minutes 32.3 seconds.
 Elapsed time:       0 days  0 hours  1 minutes 16.5 seconds.
 File lengths (MBytes):  RWF=     54 Int=      0 D2E=      0 Chk=      3 Scr=      2
