 Entering Gaussian System, Link 0=g16
 Initial command:
 /public/software/apps/Gaussian/g16/l1.exe "/public/home/CTY_HG/tmp/Gau-22428.inp" -scrdir="/public/home/CTY_HG/tmp/"
 Entering Link 1 = /public/software/apps/Gaussian/g16/l1.exe PID=     22429.
  
 Copyright (c) 1988-2019, Gaussian, Inc.  All Rights Reserved.
  
 This is part of the Gaussian(R) 16 program.  It is based on
 the Gaussian(R) 09 system (copyright 2009, Gaussian, Inc.),
 the Gaussian(R) 03 system (copyright 2003, Gaussian, Inc.),
 the Gaussian(R) 98 system (copyright 1998, Gaussian, Inc.),
 the Gaussian(R) 94 system (copyright 1995, Gaussian, Inc.),
 the Gaussian 92(TM) system (copyright 1992, Gaussian, Inc.),
 the Gaussian 90(TM) system (copyright 1990, Gaussian, Inc.),
 the Gaussian 88(TM) system (copyright 1988, Gaussian, Inc.),
 the Gaussian 86(TM) system (copyright 1986, Carnegie Mellon
 University), and the Gaussian 82(TM) system (copyright 1983,
 Carnegie Mellon University). Gaussian is a federally registered
 trademark of Gaussian, Inc.
  
 This software contains proprietary and confidential information,
 including trade secrets, belonging to Gaussian, Inc.
  
 This software is provided under written license and may be
 used, copied, transmitted, or stored only in accord with that
 written license.
  
 The following legend is applicable only to US Government
 contracts under FAR:
  
                    RESTRICTED RIGHTS LEGEND
  
 Use, reproduction and disclosure by the US Government is
 subject to restrictions as set forth in subparagraphs (a)
 and (c) of the Commercial Computer Software - Restricted
 Rights clause in FAR 52.227-19.
  
 Gaussian, Inc.
 340 Quinnipiac St., Bldg. 40, Wallingford CT 06492
  
  
 ---------------------------------------------------------------
 Warning -- This program may not be used in any manner that
 competes with the business of Gaussian, Inc. or will provide
 assistance to any competitor of Gaussian, Inc.  The licensee
 of this program is prohibited from giving any competitor of
 Gaussian, Inc. access to this program.  By using this program,
 the user acknowledges that Gaussian, Inc. is engaged in the
 business of creating and licensing software in the field of
 computational chemistry and represents and warrants to the
 licensee that it is not a competitor of Gaussian, Inc. and that
 it will not use this program in any manner prohibited above.
 ---------------------------------------------------------------
  

 Cite this work as:
 Gaussian 16, Revision C.01,
 M. J. Frisch, G. W. Trucks, H. B. Schlegel, G. E. Scuseria, 
 M. A. Robb, J. R. Cheeseman, G. Scalmani, V. Barone, 
 G. A. Petersson, H. Nakatsuji, X. Li, M. Caricato, A. V. Marenich, 
 J. Bloino, B. G. Janesko, R. Gomperts, B. Mennucci, H. P. Hratchian, 
 J. V. Ortiz, A. F. Izmaylov, J. L. Sonnenberg, D. Williams-Young, 
 F. Ding, F. Lipparini, F. Egidi, J. Goings, B. Peng, A. Petrone, 
 T. Henderson, D. Ranasinghe, V. G. Zakrzewski, J. Gao, N. Rega, 
 G. Zheng, W. Liang, M. Hada, M. Ehara, K. Toyota, R. Fukuda, 
 J. Hasegawa, M. Ishida, T. Nakajima, Y. Honda, O. Kitao, H. Nakai, 
 T. Vreven, K. Throssell, J. A. Montgomery, Jr., J. E. Peralta, 
 F. Ogliaro, M. J. Bearpark, J. J. Heyd, E. N. Brothers, K. N. Kudin, 
 V. N. Staroverov, T. A. Keith, R. Kobayashi, J. Normand, 
 K. Raghavachari, A. P. Rendell, J. C. Burant, S. S. Iyengar, 
 J. Tomasi, M. Cossi, J. M. Millam, M. Klene, C. Adamo, R. Cammi, 
 J. W. Ochterski, R. L. Martin, K. Morokuma, O. Farkas, 
 J. B. Foresman, and D. J. Fox, Gaussian, Inc., Wallingford CT, 2019.
 
 ******************************************
 Gaussian 16:  ES64L-G16RevC.01  3-Jul-2019
                25-Oct-2023 
 ******************************************
 %nprocshared=32
 Will use up to   32 processors via shared memory.
 %mem=100GB
 ----------------------------------------------------------------------
 # opt=(calcfc,ts,maxcycle=150,noeigen) freq ub3lyp/genecp empiricaldis
 persion=gd3bj
 ----------------------------------------------------------------------
 1/5=1,6=150,10=4,11=1,18=20,26=3,38=1/1,3;
 2/9=110,12=2,17=6,18=5,40=1/2;
 3/5=7,11=2,16=1,17=8,25=1,30=1,71=2,74=-5,116=2,124=41,140=1/1,2,3;
 4//1;
 5/5=2,38=5/2;
 8/6=4,10=90,11=11/1;
 11/6=1,8=1,9=11,15=111,16=1/1,2,10;
 10/6=1,13=1/2;
 6/7=2,8=2,9=2,10=2,28=1/1;
 7/10=1,25=1/1,2,3,16;
 1/5=1,6=150,10=4,11=1,18=20,26=3/3(2);
 2/9=110/2;
 99//99;
 2/9=110/2;
 3/5=7,6=1,11=2,16=1,17=8,25=1,30=1,71=1,74=-5,82=7,116=2,124=41/1,2,3;
 4/5=5,16=3,69=1/1;
 5/5=2,38=5/2;
 7//1,2,3,16;
 1/5=1,6=150,11=1,18=20,26=3/3(-5);
 2/9=110/2;
 6/7=2,8=2,9=2,10=2,19=2,28=1/1;
 99/9=1/99;
 -------------------
 Title Card Required
 -------------------
 Symbolic Z-matrix:
 Charge =  0 Multiplicity = 1
 Ni                    0.7697    0.10411  -0.05125 
 Br                    2.3312    0.0042    1.91856 
 Br                    2.70589   0.5589   -1.48853 
 N                     0.60655   2.21761  -0.04609 
 C                     0.25808   2.95337  -1.08387 
 C                     0.97885   3.07593   0.96506 
 H                    -0.05216   2.56548  -2.04246 
 C                     0.84419   4.36594   0.52528 
 H                     1.34013   2.68853   1.90505 
 H                     0.21796   5.03932  -1.40965 
 H                     1.03528   5.31686   0.99714 
 N                    -0.73922   0.13811   1.20491 
 C                    -1.7821    0.93545   1.04073 
 C                    -0.89777  -0.51588   2.41347 
 H                    -1.95942   1.57144   0.194 
 C                    -2.07589  -0.11041   2.97434 
 H                    -0.14234  -1.19191   2.777 
 H                    -3.53557   1.22694   2.13899 
 H                    -2.5566   -0.37085   3.90346 
 N                    -2.61138   0.82278   2.09891 
 N                     0.37955   4.26983  -0.77664 
 S                    -0.3166   -0.30752  -2.01281 
 C                    -1.90334  -1.24305  -1.97118 
 H                    -2.11865  -1.33431  -3.04391 
 H                    -1.70953  -2.25066  -1.59838 
 C                    -3.0902   -0.63108  -1.275 
 C                    -3.76362  -1.33097  -0.26757 
 C                    -3.56975   0.63505  -1.6442 
 C                    -4.87609  -0.77754   0.37085 
 H                    -3.41405  -2.31921   0.0172 
 C                    -4.67507   1.19479  -1.00712 
 H                    -3.05287   1.18434  -2.42692 
 C                    -5.33279   0.49074   0.0093 
 H                    -5.38519  -1.34      1.14892 
 H                    -5.03484   2.17492  -1.309 
 H                    -6.20621   0.91903   0.49401 
 C                     0.74323  -1.92085  -0.29506 
 C                     1.88198  -2.55997  -0.78118 
 C                    -0.2819   -2.6607    0.29127 
 C                     2.00142  -3.94409  -0.63847 
 H                     2.67339  -1.99789  -1.25509 
 C                    -0.15024  -4.04803   0.42719 
 H                    -1.18173  -2.18638   0.65321 
 C                     0.99228  -4.69578  -0.03416 
 H                     2.89926  -4.43144  -1.0095 
 H                    -0.95175  -4.61093   0.89991 
 H                     1.09463  -5.77229   0.06913 
 

 GradGradGradGradGradGradGradGradGradGradGradGradGradGradGradGradGradGrad
 Berny optimization.
 Initialization pass.
                           ----------------------------
                           !    Initial Parameters    !
                           ! (Angstroms and Degrees)  !
 --------------------------                            --------------------------
 ! Name  Definition              Value          Derivative Info.                !
 --------------------------------------------------------------------------------
 ! R1    R(1,2)                  2.5156         calculate D2E/DX2 analytically  !
 ! R2    R(1,3)                  2.4539         calculate D2E/DX2 analytically  !
 ! R3    R(1,4)                  2.1198         calculate D2E/DX2 analytically  !
 ! R4    R(1,12)                 1.9637         calculate D2E/DX2 analytically  !
 ! R5    R(1,22)                 2.2797         calculate D2E/DX2 analytically  !
 ! R6    R(1,37)                 2.0398         calculate D2E/DX2 analytically  !
 ! R7    R(4,5)                  1.319          calculate D2E/DX2 analytically  !
 ! R8    R(4,6)                  1.3776         calculate D2E/DX2 analytically  !
 ! R9    R(5,7)                  1.0796         calculate D2E/DX2 analytically  !
 ! R10   R(5,21)                 1.3573         calculate D2E/DX2 analytically  !
 ! R11   R(6,8)                  1.3695         calculate D2E/DX2 analytically  !
 ! R12   R(6,9)                  1.079          calculate D2E/DX2 analytically  !
 ! R13   R(8,11)                 1.0786         calculate D2E/DX2 analytically  !
 ! R14   R(8,21)                 1.3857         calculate D2E/DX2 analytically  !
 ! R15   R(10,21)                1.0094         calculate D2E/DX2 analytically  !
 ! R16   R(12,13)                1.323          calculate D2E/DX2 analytically  !
 ! R17   R(12,14)                1.3833         calculate D2E/DX2 analytically  !
 ! R18   R(13,15)                1.0737         calculate D2E/DX2 analytically  !
 ! R19   R(13,20)                1.3491         calculate D2E/DX2 analytically  !
 ! R20   R(14,16)                1.3664         calculate D2E/DX2 analytically  !
 ! R21   R(14,17)                1.077          calculate D2E/DX2 analytically  !
 ! R22   R(16,19)                1.078          calculate D2E/DX2 analytically  !
 ! R23   R(16,20)                1.3871         calculate D2E/DX2 analytically  !
 ! R24   R(18,20)                1.0095         calculate D2E/DX2 analytically  !
 ! R25   R(22,23)                1.8425         calculate D2E/DX2 analytically  !
 ! R26   R(23,24)                1.0979         calculate D2E/DX2 analytically  !
 ! R27   R(23,25)                1.0917         calculate D2E/DX2 analytically  !
 ! R28   R(23,26)                1.5059         calculate D2E/DX2 analytically  !
 ! R29   R(26,27)                1.3994         calculate D2E/DX2 analytically  !
 ! R30   R(26,28)                1.4033         calculate D2E/DX2 analytically  !
 ! R31   R(27,29)                1.3969         calculate D2E/DX2 analytically  !
 ! R32   R(27,30)                1.0862         calculate D2E/DX2 analytically  !
 ! R33   R(28,31)                1.3932         calculate D2E/DX2 analytically  !
 ! R34   R(28,32)                1.087          calculate D2E/DX2 analytically  !
 ! R35   R(29,33)                1.3956         calculate D2E/DX2 analytically  !
 ! R36   R(29,34)                1.0867         calculate D2E/DX2 analytically  !
 ! R37   R(31,33)                1.4005         calculate D2E/DX2 analytically  !
 ! R38   R(31,35)                1.0868         calculate D2E/DX2 analytically  !
 ! R39   R(33,36)                1.0869         calculate D2E/DX2 analytically  !
 ! R40   R(37,38)                1.3934         calculate D2E/DX2 analytically  !
 ! R41   R(37,39)                1.3936         calculate D2E/DX2 analytically  !
 ! R42   R(38,40)                1.3966         calculate D2E/DX2 analytically  !
 ! R43   R(38,41)                1.0802         calculate D2E/DX2 analytically  !
 ! R44   R(39,42)                1.4002         calculate D2E/DX2 analytically  !
 ! R45   R(39,43)                1.0797         calculate D2E/DX2 analytically  !
 ! R46   R(40,44)                1.3959         calculate D2E/DX2 analytically  !
 ! R47   R(40,45)                1.0869         calculate D2E/DX2 analytically  !
 ! R48   R(42,44)                1.392          calculate D2E/DX2 analytically  !
 ! R49   R(42,46)                1.0875         calculate D2E/DX2 analytically  !
 ! R50   R(44,47)                1.0863         calculate D2E/DX2 analytically  !
 ! A1    A(2,1,3)               88.638          calculate D2E/DX2 analytically  !
 ! A2    A(2,1,4)               94.903          calculate D2E/DX2 analytically  !
 ! A3    A(2,1,12)              88.6683         calculate D2E/DX2 analytically  !
 ! A4    A(2,1,22)             164.2266         calculate D2E/DX2 analytically  !
 ! A5    A(2,1,37)              93.5675         calculate D2E/DX2 analytically  !
 ! A6    A(3,1,4)               82.9558         calculate D2E/DX2 analytically  !
 ! A7    A(3,1,22)              84.5755         calculate D2E/DX2 analytically  !
 ! A8    A(3,1,37)              97.1358         calculate D2E/DX2 analytically  !
 ! A9    A(4,1,12)              85.5286         calculate D2E/DX2 analytically  !
 ! A10   A(4,1,22)              98.3628         calculate D2E/DX2 analytically  !
 ! A11   A(12,1,22)            100.8005         calculate D2E/DX2 analytically  !
 ! A12   A(12,1,37)             94.8002         calculate D2E/DX2 analytically  !
 ! A13   A(22,1,37)             73.2448         calculate D2E/DX2 analytically  !
 ! A14   A(1,4,5)              125.0706         calculate D2E/DX2 analytically  !
 ! A15   A(1,4,6)              127.0276         calculate D2E/DX2 analytically  !
 ! A16   A(5,4,6)              107.5383         calculate D2E/DX2 analytically  !
 ! A17   A(4,5,7)              125.0353         calculate D2E/DX2 analytically  !
 ! A18   A(4,5,21)             109.8345         calculate D2E/DX2 analytically  !
 ! A19   A(7,5,21)             125.1119         calculate D2E/DX2 analytically  !
 ! A20   A(4,6,8)              108.942          calculate D2E/DX2 analytically  !
 ! A21   A(4,6,9)              120.4128         calculate D2E/DX2 analytically  !
 ! A22   A(8,6,9)              130.6073         calculate D2E/DX2 analytically  !
 ! A23   A(6,8,11)             132.2612         calculate D2E/DX2 analytically  !
 ! A24   A(6,8,21)             105.6252         calculate D2E/DX2 analytically  !
 ! A25   A(11,8,21)            122.1119         calculate D2E/DX2 analytically  !
 ! A26   A(1,12,13)            122.4649         calculate D2E/DX2 analytically  !
 ! A27   A(1,12,14)            129.7016         calculate D2E/DX2 analytically  !
 ! A28   A(13,12,14)           107.6387         calculate D2E/DX2 analytically  !
 ! A29   A(12,13,15)           125.8047         calculate D2E/DX2 analytically  !
 ! A30   A(12,13,20)           109.686          calculate D2E/DX2 analytically  !
 ! A31   A(15,13,20)           124.5056         calculate D2E/DX2 analytically  !
 ! A32   A(12,14,16)           108.4911         calculate D2E/DX2 analytically  !
 ! A33   A(12,14,17)           120.7501         calculate D2E/DX2 analytically  !
 ! A34   A(16,14,17)           130.7327         calculate D2E/DX2 analytically  !
 ! A35   A(14,16,19)           131.8023         calculate D2E/DX2 analytically  !
 ! A36   A(14,16,20)           105.8696         calculate D2E/DX2 analytically  !
 ! A37   A(19,16,20)           122.2989         calculate D2E/DX2 analytically  !
 ! A38   A(13,20,16)           108.2954         calculate D2E/DX2 analytically  !
 ! A39   A(13,20,18)           124.0863         calculate D2E/DX2 analytically  !
 ! A40   A(16,20,18)           126.7073         calculate D2E/DX2 analytically  !
 ! A41   A(5,21,8)             108.0564         calculate D2E/DX2 analytically  !
 ! A42   A(5,21,10)            125.6692         calculate D2E/DX2 analytically  !
 ! A43   A(8,21,10)            126.1573         calculate D2E/DX2 analytically  !
 ! A44   A(1,22,23)            118.8557         calculate D2E/DX2 analytically  !
 ! A45   A(22,23,24)           100.895          calculate D2E/DX2 analytically  !
 ! A46   A(22,23,25)           108.873          calculate D2E/DX2 analytically  !
 ! A47   A(22,23,26)           118.871          calculate D2E/DX2 analytically  !
 ! A48   A(24,23,25)           106.9628         calculate D2E/DX2 analytically  !
 ! A49   A(24,23,26)           109.3238         calculate D2E/DX2 analytically  !
 ! A50   A(25,23,26)           110.9238         calculate D2E/DX2 analytically  !
 ! A51   A(23,26,27)           120.5858         calculate D2E/DX2 analytically  !
 ! A52   A(23,26,28)           120.9532         calculate D2E/DX2 analytically  !
 ! A53   A(27,26,28)           118.4378         calculate D2E/DX2 analytically  !
 ! A54   A(26,27,29)           120.9368         calculate D2E/DX2 analytically  !
 ! A55   A(26,27,30)           119.2678         calculate D2E/DX2 analytically  !
 ! A56   A(29,27,30)           119.7953         calculate D2E/DX2 analytically  !
 ! A57   A(26,28,31)           120.8838         calculate D2E/DX2 analytically  !
 ! A58   A(26,28,32)           118.874          calculate D2E/DX2 analytically  !
 ! A59   A(31,28,32)           120.2332         calculate D2E/DX2 analytically  !
 ! A60   A(27,29,33)           120.1469         calculate D2E/DX2 analytically  !
 ! A61   A(27,29,34)           119.6854         calculate D2E/DX2 analytically  !
 ! A62   A(33,29,34)           120.1676         calculate D2E/DX2 analytically  !
 ! A63   A(28,31,33)           120.1655         calculate D2E/DX2 analytically  !
 ! A64   A(28,31,35)           119.8636         calculate D2E/DX2 analytically  !
 ! A65   A(33,31,35)           119.9662         calculate D2E/DX2 analytically  !
 ! A66   A(29,33,31)           119.418          calculate D2E/DX2 analytically  !
 ! A67   A(29,33,36)           120.3672         calculate D2E/DX2 analytically  !
 ! A68   A(31,33,36)           120.197          calculate D2E/DX2 analytically  !
 ! A69   A(1,37,38)            119.1073         calculate D2E/DX2 analytically  !
 ! A70   A(1,37,39)            119.0979         calculate D2E/DX2 analytically  !
 ! A71   A(38,37,39)           120.2951         calculate D2E/DX2 analytically  !
 ! A72   A(37,38,40)           119.2638         calculate D2E/DX2 analytically  !
 ! A73   A(37,38,41)           120.8735         calculate D2E/DX2 analytically  !
 ! A74   A(40,38,41)           119.8595         calculate D2E/DX2 analytically  !
 ! A75   A(37,39,42)           119.848          calculate D2E/DX2 analytically  !
 ! A76   A(37,39,43)           121.3921         calculate D2E/DX2 analytically  !
 ! A77   A(42,39,43)           118.7587         calculate D2E/DX2 analytically  !
 ! A78   A(38,40,44)           121.071          calculate D2E/DX2 analytically  !
 ! A79   A(38,40,45)           118.696          calculate D2E/DX2 analytically  !
 ! A80   A(44,40,45)           120.2329         calculate D2E/DX2 analytically  !
 ! A81   A(39,42,44)           120.4015         calculate D2E/DX2 analytically  !
 ! A82   A(39,42,46)           119.0605         calculate D2E/DX2 analytically  !
 ! A83   A(44,42,46)           120.5378         calculate D2E/DX2 analytically  !
 ! A84   A(40,44,42)           119.094          calculate D2E/DX2 analytically  !
 ! A85   A(40,44,47)           120.4442         calculate D2E/DX2 analytically  !
 ! A86   A(42,44,47)           120.4607         calculate D2E/DX2 analytically  !
 ! A87   L(3,1,12,2,-1)        177.3063         calculate D2E/DX2 analytically  !
 ! A88   L(4,1,37,2,-1)        188.4705         calculate D2E/DX2 analytically  !
 ! A89   L(3,1,12,2,-2)        168.2063         calculate D2E/DX2 analytically  !
 ! A90   L(4,1,37,2,-2)        180.1239         calculate D2E/DX2 analytically  !
 ! D1    D(2,1,4,5)            157.4512         calculate D2E/DX2 analytically  !
 ! D2    D(2,1,4,6)            -14.7493         calculate D2E/DX2 analytically  !
 ! D3    D(3,1,4,5)             69.4363         calculate D2E/DX2 analytically  !
 ! D4    D(3,1,4,6)           -102.7643         calculate D2E/DX2 analytically  !
 ! D5    D(12,1,4,5)          -114.2739         calculate D2E/DX2 analytically  !
 ! D6    D(12,1,4,6)            73.5255         calculate D2E/DX2 analytically  !
 ! D7    D(22,1,4,5)           -13.9923         calculate D2E/DX2 analytically  !
 ! D8    D(22,1,4,6)           173.8071         calculate D2E/DX2 analytically  !
 ! D9    D(2,1,12,13)          137.5997         calculate D2E/DX2 analytically  !
 ! D10   D(2,1,12,14)          -36.6738         calculate D2E/DX2 analytically  !
 ! D11   D(4,1,12,13)           42.5758         calculate D2E/DX2 analytically  !
 ! D12   D(4,1,12,14)         -131.6977         calculate D2E/DX2 analytically  !
 ! D13   D(22,1,12,13)         -55.1017         calculate D2E/DX2 analytically  !
 ! D14   D(22,1,12,14)         130.6247         calculate D2E/DX2 analytically  !
 ! D15   D(37,1,12,13)        -128.9313         calculate D2E/DX2 analytically  !
 ! D16   D(37,1,12,14)          56.7951         calculate D2E/DX2 analytically  !
 ! D17   D(2,1,22,23)           97.7907         calculate D2E/DX2 analytically  !
 ! D18   D(3,1,22,23)          162.7028         calculate D2E/DX2 analytically  !
 ! D19   D(4,1,22,23)         -115.2565         calculate D2E/DX2 analytically  !
 ! D20   D(12,1,22,23)         -28.2474         calculate D2E/DX2 analytically  !
 ! D21   D(37,1,22,23)          63.5597         calculate D2E/DX2 analytically  !
 ! D22   D(2,1,37,38)          -71.0911         calculate D2E/DX2 analytically  !
 ! D23   D(2,1,37,39)           94.987          calculate D2E/DX2 analytically  !
 ! D24   D(3,1,37,38)           17.9808         calculate D2E/DX2 analytically  !
 ! D25   D(3,1,37,39)         -175.9411         calculate D2E/DX2 analytically  !
 ! D26   D(12,1,37,38)        -160.0522         calculate D2E/DX2 analytically  !
 ! D27   D(12,1,37,39)           6.0259         calculate D2E/DX2 analytically  !
 ! D28   D(22,1,37,38)         100.0957         calculate D2E/DX2 analytically  !
 ! D29   D(22,1,37,39)         -93.8261         calculate D2E/DX2 analytically  !
 ! D30   D(1,4,5,7)              4.454          calculate D2E/DX2 analytically  !
 ! D31   D(1,4,5,21)          -174.0523         calculate D2E/DX2 analytically  !
 ! D32   D(6,4,5,7)            177.9299         calculate D2E/DX2 analytically  !
 ! D33   D(6,4,5,21)            -0.5764         calculate D2E/DX2 analytically  !
 ! D34   D(1,4,6,8)            173.617          calculate D2E/DX2 analytically  !
 ! D35   D(1,4,6,9)             -4.3733         calculate D2E/DX2 analytically  !
 ! D36   D(5,4,6,8)              0.3061         calculate D2E/DX2 analytically  !
 ! D37   D(5,4,6,9)           -177.6841         calculate D2E/DX2 analytically  !
 ! D38   D(4,5,21,8)             0.63           calculate D2E/DX2 analytically  !
 ! D39   D(4,5,21,10)          176.8846         calculate D2E/DX2 analytically  !
 ! D40   D(7,5,21,8)          -177.8749         calculate D2E/DX2 analytically  !
 ! D41   D(7,5,21,10)           -1.6204         calculate D2E/DX2 analytically  !
 ! D42   D(4,6,8,11)          -179.4365         calculate D2E/DX2 analytically  !
 ! D43   D(4,6,8,21)             0.074          calculate D2E/DX2 analytically  !
 ! D44   D(9,6,8,11)            -1.7196         calculate D2E/DX2 analytically  !
 ! D45   D(9,6,8,21)           177.7909         calculate D2E/DX2 analytically  !
 ! D46   D(6,8,21,5)            -0.418          calculate D2E/DX2 analytically  !
 ! D47   D(6,8,21,10)         -176.6494         calculate D2E/DX2 analytically  !
 ! D48   D(11,8,21,5)          179.1542         calculate D2E/DX2 analytically  !
 ! D49   D(11,8,21,10)           2.9229         calculate D2E/DX2 analytically  !
 ! D50   D(1,12,13,15)           5.3079         calculate D2E/DX2 analytically  !
 ! D51   D(1,12,13,20)        -175.3674         calculate D2E/DX2 analytically  !
 ! D52   D(14,12,13,15)       -179.3126         calculate D2E/DX2 analytically  !
 ! D53   D(14,12,13,20)          0.0121         calculate D2E/DX2 analytically  !
 ! D54   D(1,12,14,16)         175.7874         calculate D2E/DX2 analytically  !
 ! D55   D(1,12,14,17)          -2.5442         calculate D2E/DX2 analytically  !
 ! D56   D(13,12,14,16)          0.8554         calculate D2E/DX2 analytically  !
 ! D57   D(13,12,14,17)       -177.4762         calculate D2E/DX2 analytically  !
 ! D58   D(12,13,20,16)         -0.8612         calculate D2E/DX2 analytically  !
 ! D59   D(12,13,20,18)       -170.5615         calculate D2E/DX2 analytically  !
 ! D60   D(15,13,20,16)        178.4742         calculate D2E/DX2 analytically  !
 ! D61   D(15,13,20,18)          8.7739         calculate D2E/DX2 analytically  !
 ! D62   D(12,14,16,19)       -179.3622         calculate D2E/DX2 analytically  !
 ! D63   D(12,14,16,20)         -1.3444         calculate D2E/DX2 analytically  !
 ! D64   D(17,14,16,19)         -1.2545         calculate D2E/DX2 analytically  !
 ! D65   D(17,14,16,20)        176.7633         calculate D2E/DX2 analytically  !
 ! D66   D(14,16,20,13)          1.3538         calculate D2E/DX2 analytically  !
 ! D67   D(14,16,20,18)        170.7098         calculate D2E/DX2 analytically  !
 ! D68   D(19,16,20,13)        179.6057         calculate D2E/DX2 analytically  !
 ! D69   D(19,16,20,18)        -11.0383         calculate D2E/DX2 analytically  !
 ! D70   D(1,22,23,24)        -175.968          calculate D2E/DX2 analytically  !
 ! D71   D(1,22,23,25)         -63.6476         calculate D2E/DX2 analytically  !
 ! D72   D(1,22,23,26)          64.6298         calculate D2E/DX2 analytically  !
 ! D73   D(22,23,26,27)       -125.6114         calculate D2E/DX2 analytically  !
 ! D74   D(22,23,26,28)         56.1689         calculate D2E/DX2 analytically  !
 ! D75   D(24,23,26,27)        119.4235         calculate D2E/DX2 analytically  !
 ! D76   D(24,23,26,28)        -58.7962         calculate D2E/DX2 analytically  !
 ! D77   D(25,23,26,27)          1.7089         calculate D2E/DX2 analytically  !
 ! D78   D(25,23,26,28)       -176.5107         calculate D2E/DX2 analytically  !
 ! D79   D(23,26,27,29)       -179.1503         calculate D2E/DX2 analytically  !
 ! D80   D(23,26,27,30)          0.7143         calculate D2E/DX2 analytically  !
 ! D81   D(28,26,27,29)         -0.8866         calculate D2E/DX2 analytically  !
 ! D82   D(28,26,27,30)        178.978          calculate D2E/DX2 analytically  !
 ! D83   D(23,26,28,31)        179.4315         calculate D2E/DX2 analytically  !
 ! D84   D(23,26,28,32)         -1.6592         calculate D2E/DX2 analytically  !
 ! D85   D(27,26,28,31)          1.1745         calculate D2E/DX2 analytically  !
 ! D86   D(27,26,28,32)       -179.9162         calculate D2E/DX2 analytically  !
 ! D87   D(26,27,29,33)         -0.0343         calculate D2E/DX2 analytically  !
 ! D88   D(26,27,29,34)        179.8521         calculate D2E/DX2 analytically  !
 ! D89   D(30,27,29,33)       -179.8982         calculate D2E/DX2 analytically  !
 ! D90   D(30,27,29,34)         -0.0118         calculate D2E/DX2 analytically  !
 ! D91   D(26,28,31,33)         -0.5423         calculate D2E/DX2 analytically  !
 ! D92   D(26,28,31,35)       -179.7618         calculate D2E/DX2 analytically  !
 ! D93   D(32,28,31,33)       -179.4368         calculate D2E/DX2 analytically  !
 ! D94   D(32,28,31,35)          1.3437         calculate D2E/DX2 analytically  !
 ! D95   D(27,29,33,31)          0.6846         calculate D2E/DX2 analytically  !
 ! D96   D(27,29,33,36)        179.1505         calculate D2E/DX2 analytically  !
 ! D97   D(34,29,33,31)       -179.2012         calculate D2E/DX2 analytically  !
 ! D98   D(34,29,33,36)         -0.7353         calculate D2E/DX2 analytically  !
 ! D99   D(28,31,33,29)         -0.3993         calculate D2E/DX2 analytically  !
 ! D100  D(28,31,33,36)       -178.8679         calculate D2E/DX2 analytically  !
 ! D101  D(35,31,33,29)        178.8194         calculate D2E/DX2 analytically  !
 ! D102  D(35,31,33,36)          0.3509         calculate D2E/DX2 analytically  !
 ! D103  D(1,37,38,40)         164.0265         calculate D2E/DX2 analytically  !
 ! D104  D(1,37,38,41)         -15.3224         calculate D2E/DX2 analytically  !
 ! D105  D(39,37,38,40)         -1.8813         calculate D2E/DX2 analytically  !
 ! D106  D(39,37,38,41)        178.7698         calculate D2E/DX2 analytically  !
 ! D107  D(1,37,39,42)        -164.0711         calculate D2E/DX2 analytically  !
 ! D108  D(1,37,39,43)          15.5162         calculate D2E/DX2 analytically  !
 ! D109  D(38,37,39,42)          1.838          calculate D2E/DX2 analytically  !
 ! D110  D(38,37,39,43)       -178.5747         calculate D2E/DX2 analytically  !
 ! D111  D(37,38,40,44)          0.8606         calculate D2E/DX2 analytically  !
 ! D112  D(37,38,40,45)       -179.2209         calculate D2E/DX2 analytically  !
 ! D113  D(41,38,40,44)       -179.7838         calculate D2E/DX2 analytically  !
 ! D114  D(41,38,40,45)          0.1347         calculate D2E/DX2 analytically  !
 ! D115  D(37,39,42,44)         -0.7566         calculate D2E/DX2 analytically  !
 ! D116  D(37,39,42,46)        179.1065         calculate D2E/DX2 analytically  !
 ! D117  D(43,39,42,44)        179.6452         calculate D2E/DX2 analytically  !
 ! D118  D(43,39,42,46)         -0.4916         calculate D2E/DX2 analytically  !
 ! D119  D(38,40,44,42)          0.204          calculate D2E/DX2 analytically  !
 ! D120  D(38,40,44,47)        179.8324         calculate D2E/DX2 analytically  !
 ! D121  D(45,40,44,42)       -179.7132         calculate D2E/DX2 analytically  !
 ! D122  D(45,40,44,47)         -0.0848         calculate D2E/DX2 analytically  !
 ! D123  D(39,42,44,40)         -0.2575         calculate D2E/DX2 analytically  !
 ! D124  D(39,42,44,47)       -179.8859         calculate D2E/DX2 analytically  !
 ! D125  D(46,42,44,40)        179.8814         calculate D2E/DX2 analytically  !
 ! D126  D(46,42,44,47)          0.253          calculate D2E/DX2 analytically  !
 --------------------------------------------------------------------------------
 Trust Radius=3.00D-01 FncErr=1.00D-07 GrdErr=1.00D-06 EigMax=2.50D+02 EigMin=1.00D-04
 Number of steps in this run=    150 maximum allowed number of steps=    282.
 Search for a saddle point of order  1.
 GradGradGradGradGradGradGradGradGradGradGradGradGradGradGradGradGradGrad

                          Input orientation:                          
 ---------------------------------------------------------------------
 Center     Atomic      Atomic             Coordinates (Angstroms)
 Number     Number       Type             X           Y           Z
 ---------------------------------------------------------------------
      1         28           0        0.769702    0.104109   -0.051246
      2         35           0        2.331198    0.004196    1.918561
      3         35           0        2.705889    0.558904   -1.488532
      4          7           0        0.606550    2.217605   -0.046093
      5          6           0        0.258083    2.953371   -1.083873
      6          6           0        0.978845    3.075934    0.965057
      7          1           0       -0.052157    2.565477   -2.042460
      8          6           0        0.844190    4.365939    0.525278
      9          1           0        1.340131    2.688525    1.905045
     10          1           0        0.217961    5.039319   -1.409650
     11          1           0        1.035278    5.316859    0.997142
     12          7           0       -0.739223    0.138110    1.204907
     13          6           0       -1.782104    0.935450    1.040727
     14          6           0       -0.897766   -0.515884    2.413472
     15          1           0       -1.959423    1.571437    0.194004
     16          6           0       -2.075891   -0.110408    2.974341
     17          1           0       -0.142339   -1.191913    2.776996
     18          1           0       -3.535567    1.226942    2.138995
     19          1           0       -2.556604   -0.370851    3.903461
     20          7           0       -2.611379    0.822779    2.098911
     21          7           0        0.379550    4.269834   -0.776641
     22         16           0       -0.316597   -0.307521   -2.012806
     23          6           0       -1.903342   -1.243054   -1.971178
     24          1           0       -2.118647   -1.334307   -3.043913
     25          1           0       -1.709532   -2.250663   -1.598379
     26          6           0       -3.090204   -0.631077   -1.275000
     27          6           0       -3.763617   -1.330968   -0.267566
     28          6           0       -3.569745    0.635050   -1.644199
     29          6           0       -4.876092   -0.777538    0.370850
     30          1           0       -3.414047   -2.319212    0.017204
     31          6           0       -4.675072    1.194790   -1.007118
     32          1           0       -3.052871    1.184345   -2.426921
     33          6           0       -5.332788    0.490735    0.009296
     34          1           0       -5.385188   -1.339999    1.148924
     35          1           0       -5.034838    2.174925   -1.308999
     36          1           0       -6.206211    0.919028    0.494011
     37          6           0        0.743230   -1.920853   -0.295063
     38          6           0        1.881979   -2.559970   -0.781182
     39          6           0       -0.281900   -2.660701    0.291269
     40          6           0        2.001421   -3.944088   -0.638466
     41          1           0        2.673387   -1.997894   -1.255090
     42          6           0       -0.150240   -4.048035    0.427187
     43          1           0       -1.181730   -2.186378    0.653205
     44          6           0        0.992283   -4.695778   -0.034155
     45          1           0        2.899255   -4.431436   -1.009503
     46          1           0       -0.951753   -4.610932    0.899911
     47          1           0        1.094626   -5.772290    0.069134
 ---------------------------------------------------------------------
                    Distance matrix (angstroms):
                    1          2          3          4          5
     1  Ni   0.000000
     2  Br   2.515630   0.000000
     3  Br   2.453864   3.472229   0.000000
     4  N    2.119790   3.425413   3.039596   0.000000
     5  C    3.073494   4.691487   3.448039   1.319003   0.000000
     6  C    3.147754   3.489069   3.916404   1.377591   2.175462
     7  H    3.270889   5.284906   3.455429   2.130819   1.079629
     8  C    4.301293   4.814274   4.692001   2.235683   2.219963
     9  H    3.291150   2.861471   4.232841   2.137018   3.189765
    10  H    5.148396   6.394937   5.125439   3.157904   2.111615
    11  H    5.323759   5.545522   5.622068   3.298109   3.243568
    12  N    1.963652   3.155110   4.393231   2.774960   3.762822
    13  C    2.897455   4.307793   5.165367   2.920748   3.570475
    14  C    3.039683   3.307813   5.419145   3.972957   5.059954
    15  H    3.108267   4.882599   5.061747   2.656953   2.908615
    16  C    4.159038   4.533237   6.575001   4.662420   5.594933
    17  H    3.241982   2.878537   5.419639   4.489485   5.678911
    18  H    4.959158   5.996885   7.249897   4.786769   5.268702
    19  H    5.189374   5.288771   7.591565   5.683716   6.621663
    20  N    4.070795   5.013150   6.419713   4.111161   4.785744
    21  N    4.246373   5.410056   4.437301   2.190177   1.357284
    22  S    2.279737   4.750119   3.187629   3.331129   3.438981
    23  C    3.556143   5.883624   4.972425   4.688461   4.803025
    24  H    4.400870   6.798445   5.411063   5.387922   5.279658
    25  H    3.753022   5.812121   5.234661   5.266806   5.587325
    26  C    4.115452   6.324081   5.920840   4.826095   4.908750
    27  C    4.759960   6.611247   6.849590   5.633807   5.932621
    28  C    4.652977   6.921876   6.278026   4.743402   4.510083
    29  C    5.729787   7.412931   7.920216   6.261317   6.511195
    30  H    4.835383   6.482378   6.928521   6.062336   6.518975
    31  C    5.634611   7.685371   7.423927   5.464911   5.237797
    32  H    4.628478   7.018844   5.868140   4.486349   3.986935
    33  C    6.115025   7.913197   8.177314   6.185538   6.206241
    34  H    6.434946   7.870312   8.719377   7.070045   7.434038
    35  H    6.289905   8.329928   7.909653   5.781177   5.354594
    36  H    7.044484   8.703655   9.137051   6.956416   6.958115
    37  C    2.039759   3.335804   3.380177   4.148193   4.961416
    38  C    2.977798   3.750381   3.302506   4.999230   5.755483
    39  C    2.977811   4.071613   4.739244   4.970013   5.805205
    40  C    4.271985   4.715516   4.636359   6.345316   7.128293
    41  H    3.080856   3.767959   2.567639   4.848084   5.511627
    42  C    4.279660   4.980191   5.749029   6.328900   7.174240
    43  H    3.090416   4.329019   5.218926   4.804376   5.613156
    44  C    4.805075   5.262656   5.715185   6.924146   7.755671
    45  H    5.101414   5.345192   5.017006   7.098901   7.843258
    46  H    5.108788   5.754548   6.768324   7.067683   7.913140
    47  H    5.886606   6.190095   6.716138   8.005618   8.841176
                    6          7          8          9         10
     6  C    0.000000
     7  H    3.220045   0.000000
     8  C    1.369544   3.261653   0.000000
     9  H    1.078977   4.187649   2.227876   0.000000
    10  H    3.173808   2.567743   2.142323   4.215768   0.000000
    11  H    2.241865   4.241674   1.078619   2.797385   2.556889
    12  N    3.411758   4.112124   4.565482   3.364301   5.636839
    13  C    3.494315   3.893038   4.351019   3.683567   5.181346
    14  C    4.303572   5.483172   5.516510   3.941436   6.835305
    15  H    3.389905   3.102829   3.972308   3.881057   4.397603
    16  C    4.849888   6.035243   5.878985   4.543856   7.141486
    17  H    4.770188   6.111732   6.077268   4.244504   7.515722
    18  H    5.017651   5.604497   5.624914   5.095428   6.419974
    19  H    5.745776   7.088600   6.739043   5.342096   8.074484
    20  N    4.387715   5.170838   5.193386   4.374131   6.172064
    21  N    2.195009   2.166449   1.385684   3.258020   1.009415
    22  S    4.689734   2.885295   5.443393   5.202941   5.407240
    23  C    5.965076   4.235195   6.726219   6.403322   6.654581
    24  H    6.716883   4.525661   7.349172   7.255240   6.982382
    25  H    6.493936   5.112661   7.403434   6.780118   7.542857
    26  C    5.942806   4.476235   6.609888   6.384380   6.566238
    27  C    6.590227   5.666345   7.369887   6.850168   7.598544
    28  C    5.784099   4.032194   6.173248   6.396935   5.813718
    29  C    7.034388   6.345878   7.694208   7.280713   7.934443
    30  H    7.021647   6.277317   7.942416   7.158462   8.329188
    31  C    6.276540   4.931740   6.547265   6.847964   6.235720
    32  H    5.598067   3.325601   5.833104   6.350351   5.156938
    33  C    6.887194   6.033185   7.310164   7.276812   7.315315
    34  H    7.748238   7.340224   8.470644   7.875953   8.867766
    35  H    6.492113   5.051495   6.536672   7.157799   5.983877
    36  H    7.516592   6.856884   7.847951   7.878414   7.865794
    37  C    5.158614   4.879876   6.340892   5.142289   7.068395
    38  C    5.968954   5.621558   7.124048   5.920820   7.804686
    39  C    5.912060   5.728177   7.120148   5.818030   7.901474
    40  C    7.273078   6.968703   8.470539   7.134305   9.191140
    41  H    5.791740   5.373351   6.856679   5.807456   7.454889
    42  C    7.232916   7.060263   8.473103   7.055956   9.278445
    43  H    5.697128   5.578770   6.859561   5.629526   7.643638
    44  C    7.835695   7.605917   9.080177   7.642606   9.862235
    45  H    7.996716   7.663852   9.163659   7.849796   9.851125
    46  H    7.925867   7.808179   9.162422   7.716547   9.991479
    47  H    8.894220   8.677114  10.151575   8.661191  10.947430
                   11         12         13         14         15
    11  H    0.000000
    12  N    5.478272   0.000000
    13  C    5.209250   1.322992   0.000000
    14  C    6.305834   1.383284   2.184686   0.000000
    15  H    4.862247   2.136642   1.073714   3.226463   0.000000
    16  C    6.560786   2.231443   2.217880   1.366369   3.251529
    17  H    6.849728   2.143991   3.198302   1.076956   4.196397
    18  H    6.238900   3.142867   2.089448   3.173448   2.527033
    19  H    7.327916   3.293039   3.240605   2.234468   4.229560
    20  N    5.891414   2.184716   1.349128   2.197143   2.148070
    21  N    2.161607   4.716919   4.369633   5.891643   3.700580
    22  S    6.520813   3.275802   3.607874   4.469128   3.331572
    23  C    7.776816   3.653807   3.719160   4.556876   3.551411
    24  H    8.397343   4.703541   4.685012   5.651851   4.353482
    25  H    8.458020   3.808694   4.137809   4.445601   4.228892
    26  C    7.586842   3.502670   3.086701   4.292421   2.878838
    27  C    8.295932   3.670603   3.282480   4.008170   3.448495
    28  C    7.078295   4.046753   3.239557   4.992876   2.617049
    29  C    8.513414   4.318304   3.599420   4.479715   3.749122
    30  H    8.891926   3.821486   3.782018   3.914813   4.157444
    31  C    7.322336   4.636867   3.553898   5.375396   2.993210
    32  H    6.746469   4.431450   3.701538   5.564590   2.866133
    33  C    8.051061   4.759692   3.724108   5.144197   3.547059
    34  H    9.249821   4.875749   4.262815   4.734470   4.596107
    35  H    7.213622   5.377792   4.199737   6.181635   3.475830
    36  H    8.487239   5.568048   4.457790   5.824336   4.307070
    37  C    7.357959   2.947356   4.039816   3.464530   4.442928
    38  C    8.119346   4.253808   5.381711   4.702242   5.725022
    39  C    8.116322   2.979467   3.967947   3.079493   4.553519
    40  C    9.453771   5.251047   6.398800   5.428830   6.841221
    41  H    7.826977   4.718051   5.807468   5.329900   6.025191
    42  C    9.456825   4.298321   5.279634   4.120706   5.908129
    43  H    7.831474   2.429698   3.202567   2.443302   3.864822
    44  C   10.065700   5.282032   6.368934   5.199488   6.931278
    45  H   10.125724   6.246830   7.410940   6.439385   7.815988
    46  H   10.125156   4.763569   5.609961   4.366142   6.303601
    47  H   11.128070   6.291726   7.362971   6.090595   7.954441
                   16         17         18         19         20
    16  C    0.000000
    17  H    2.224235   0.000000
    18  H    2.148712   4.215673   0.000000
    19  H    1.078044   2.787784   2.573840   0.000000
    20  N    1.387070   3.258058   1.009494   2.164291   0.000000
    21  N    6.267821   6.536925   5.752240   7.215283   5.394130
    22  S    5.292032   4.873881   5.473006   6.326441   4.842501
    23  C    5.076497   5.064475   5.065428   5.974853   4.618940
    24  H    6.141591   6.148906   5.952327   7.027522   5.598611
    25  H    5.062082   4.766650   5.421817   5.875497   4.891761
    26  C    4.399639   5.042134   3.912281   5.212380   3.704895
    27  C    3.853329   4.733112   3.519438   4.447041   3.400955
    28  C    4.911030   5.884885   3.829368   5.728422   3.868408
    29  C    3.881282   5.326318   2.990198   4.245558   3.267435
    30  H    3.926084   4.426209   4.134244   4.431062   3.853555
    31  C    4.930649   6.368794   3.346271   5.572515   3.747618
    32  H    5.639548   6.418610   4.591557   6.537481   4.561666
    33  C    4.445249   6.118188   2.882295   4.859429   3.447145
    34  H    3.974354   5.491813   3.315196   4.065416   3.643364
    35  H    5.685518   7.208849   3.877518   6.308118   4.394918
    36  H    4.926593   6.814590   3.151686   5.158272   3.937993
    37  C    4.681256   3.279197   5.843060   5.560487   4.950962
    38  C    5.980723   4.316257   7.226198   6.814627   6.318876
    39  C    4.113548   2.890615   5.395758   4.844133   4.563844
    40  C    6.661377   4.882167   8.069205   7.360212   7.175944
    41  H    6.633727   4.983536   7.776277   7.524010   6.865440
    42  C    5.069618   3.698526   6.497392   5.603280   5.707600
    43  H    3.239884   2.565109   4.404415   3.968700   3.631665
    44  C    6.284135   4.633250   7.765476   6.841375   6.927541
    45  H    7.700284   5.838097   9.128922   8.389992   8.224117
    46  H    5.081502   3.983502   6.503245   5.438304   5.806649
    47  H    7.109804   5.462825   8.643625   7.563669   7.832586
                   21         22         23         24         25
    21  N    0.000000
    22  S    4.792171   0.000000
    23  C    6.085265   1.842475   0.000000
    24  H    6.541247   2.316216   1.097927   0.000000
    25  H    6.896115   2.426483   1.091704   1.759731   0.000000
    26  C    6.025486   2.888242   1.505929   2.137173   2.152647
    27  C    6.985268   3.996905   2.524014   3.227079   2.614607
    28  C    5.437025   3.406946   2.532013   2.818377   3.433632
    29  C    7.376617   5.166404   3.813010   4.424263   4.009372
    30  H    7.644416   4.214503   2.719193   3.466776   2.349506
    31  C    5.920998   4.718543   3.815099   4.132817   4.584230
    32  H    4.901549   3.143939   2.724222   2.756277   3.780254
    33  C    6.894207   5.467018   4.323124   4.794118   4.819530
    34  H    8.271048   6.062439   4.676290   5.315092   4.678400
    35  H    5.829892   5.377702   4.682663   4.881476   5.543215
    36  H    7.497647   6.517370   5.409846   5.856843   5.886014
    37  C    6.220031   2.583934   3.205170   4.011303   2.797043
    38  C    6.993106   3.379965   4.180791   4.756807   3.696273
    39  C    7.043455   3.293542   3.123694   4.031923   2.403546
    40  C    8.373653   4.526217   4.931418   5.438023   4.190500
    41  H    6.691414   3.517314   4.693508   5.157890   4.403603
    42  C    8.421213   4.469081   4.085761   4.825710   3.124877
    43  H    6.794463   3.374340   2.880620   3.908007   2.313512
    44  C    9.017146   4.988489   4.904896   5.480512   3.965500
    45  H    9.061746   5.324941   5.844274   6.237818   5.132588
    46  H    9.135163   5.235140   4.526729   5.258485   3.519453
    47  H   10.103016   6.015790   5.802126   6.301736   4.800600
                   26         27         28         29         30
    26  C    0.000000
    27  C    1.399377   0.000000
    28  C    1.403334   2.407889   0.000000
    29  C    2.433037   1.396947   2.786103   0.000000
    30  H    2.150457   1.086241   3.392958   2.153927   0.000000
    31  C    2.432562   2.785164   1.393172   2.414391   3.871386
    32  H    2.150366   3.390394   1.086985   3.873066   4.287086
    33  C    2.817279   2.420238   2.421403   1.395639   3.402563
    34  H    3.412467   2.153141   3.872749   1.086711   2.474883
    35  H    3.414148   3.871934   2.151760   3.400607   4.958129
    36  H    3.904065   3.407161   3.406397   2.159334   4.302293
    37  C    4.161612   4.545370   5.191778   5.772988   4.187977
    38  C    5.356033   5.800604   6.377636   7.083485   5.361276
    39  C    3.802518   3.768666   5.041620   4.965807   3.162605
    40  C    6.107853   6.340475   7.281339   7.638452   5.691873
    41  H    5.923476   6.546374   6.786788   7.818413   6.227265
    42  C    4.818343   4.574017   6.157511   5.747434   3.716094
    43  H    3.127173   2.871530   4.352142   3.963946   2.324948
    44  C    5.893063   5.830524   7.198755   7.067847   5.006640
    45  H    7.098369   7.386287   8.241364   8.701285   6.735978
    46  H    5.014225   4.475237   6.391143   5.511375   3.477649
    47  H    6.763991   6.590996   8.108383   7.790254   5.679311
                   31         32         33         34         35
    31  C    0.000000
    32  H    2.155803   0.000000
    33  C    1.400493   3.407971   0.000000
    34  H    3.402637   4.959706   2.157101   0.000000
    35  H    1.086843   2.481772   2.159438   4.303350   0.000000
    36  H    2.161902   4.306482   1.086854   2.491223   2.490028
    37  C    6.290648   5.347659   6.544187   6.322974   7.154686
    38  C    7.559377   6.409454   7.873025   7.617438   8.398820
    39  C    5.987535   5.463627   5.960078   5.340728   6.966675
    40  C    8.433240   7.419250   8.595224   8.033557   9.348844
    41  H    8.015895   6.655063   8.478843   8.435208   8.765390
    42  C    7.072379   6.629404   6.901729   5.937933   8.099313
    43  H    5.137354   4.934584   4.981248   4.316382   6.141470
    44  C    8.231911   7.527579   8.179751   7.302949   9.228108
    45  H    9.435298   8.305051   9.645323   9.102076  10.328772
    46  H    7.155856   7.004837   6.783338   5.515103   8.221844
    47  H    9.109772   8.475069   8.974448   7.924591  10.130538
                   36         37         38         39         40
    36  H    0.000000
    37  C    7.548662   0.000000
    38  C    8.896537   1.393388   0.000000
    39  C    6.924812   1.393575   2.417162   0.000000
    40  C    9.607165   2.407166   1.396573   2.779396   0.000000
    41  H    9.508683   2.157103   1.080206   3.400626   2.149287
    42  C    7.832686   2.417610   2.793637   1.400180   2.403345
    43  H    5.908832   2.162218   3.403432   1.079664   3.858809
    44  C    9.144579   2.798269   2.431313   2.423011   1.395919
    45  H   10.667593   3.385542   2.142281   3.866168   1.086868
    46  H    7.639014   3.396683   3.881051   2.150011   3.395957
    47  H    9.912441   3.884544   3.414961   3.409715   2.159930
                   41         42         43         44         45
    41  H    0.000000
    42  C    3.873758   0.000000
    43  H    4.305699   2.140286   0.000000
    44  C    3.405198   1.392037   3.390558   0.000000
    45  H    2.456309   3.392712   4.945637   2.158176   0.000000
    46  H    4.961213   1.087540   2.447900   2.158461   4.302132
    47  H    4.300247   2.156606   4.287389   1.086288   2.493598
                   46         47
    46  H    0.000000
    47  H    2.495318   0.000000
 Stoichiometry    C19H20Br2N4NiS
 Framework group  C1[X(C19H20Br2N4NiS)]
 Deg. of freedom   135
 Full point group                 C1      NOp   1
 Largest Abelian subgroup         C1      NOp   1
 Largest concise Abelian subgroup C1      NOp   1
                         Standard orientation:                         
 ---------------------------------------------------------------------
 Center     Atomic      Atomic             Coordinates (Angstroms)
 Number     Number       Type             X           Y           Z
 ---------------------------------------------------------------------
      1         28           0       -0.769702   -0.104109   -0.051246
      2         35           0       -2.331198   -0.004196    1.918561
      3         35           0       -2.705889   -0.558904   -1.488532
      4          7           0       -0.606550   -2.217605   -0.046093
      5          6           0       -0.258083   -2.953371   -1.083873
      6          6           0       -0.978845   -3.075934    0.965057
      7          1           0        0.052157   -2.565477   -2.042460
      8          6           0       -0.844190   -4.365939    0.525278
      9          1           0       -1.340131   -2.688525    1.905045
     10          1           0       -0.217961   -5.039319   -1.409650
     11          1           0       -1.035277   -5.316859    0.997142
     12          7           0        0.739223   -0.138110    1.204907
     13          6           0        1.782104   -0.935450    1.040727
     14          6           0        0.897766    0.515884    2.413472
     15          1           0        1.959423   -1.571437    0.194004
     16          6           0        2.075891    0.110408    2.974341
     17          1           0        0.142339    1.191913    2.776996
     18          1           0        3.535567   -1.226942    2.138995
     19          1           0        2.556604    0.370851    3.903461
     20          7           0        2.611379   -0.822779    2.098911
     21          7           0       -0.379550   -4.269834   -0.776641
     22         16           0        0.316597    0.307521   -2.012806
     23          6           0        1.903342    1.243054   -1.971178
     24          1           0        2.118647    1.334307   -3.043913
     25          1           0        1.709532    2.250663   -1.598379
     26          6           0        3.090204    0.631077   -1.275000
     27          6           0        3.763617    1.330968   -0.267566
     28          6           0        3.569745   -0.635050   -1.644199
     29          6           0        4.876092    0.777538    0.370850
     30          1           0        3.414047    2.319212    0.017204
     31          6           0        4.675072   -1.194790   -1.007118
     32          1           0        3.052871   -1.184345   -2.426921
     33          6           0        5.332788   -0.490734    0.009296
     34          1           0        5.385188    1.340000    1.148924
     35          1           0        5.034838   -2.174925   -1.308999
     36          1           0        6.206211   -0.919027    0.494011
     37          6           0       -0.743230    1.920853   -0.295063
     38          6           0       -1.881979    2.559970   -0.781182
     39          6           0        0.281900    2.660701    0.291269
     40          6           0       -2.001421    3.944088   -0.638466
     41          1           0       -2.673387    1.997894   -1.255090
     42          6           0        0.150240    4.048035    0.427187
     43          1           0        1.181730    2.186378    0.653205
     44          6           0       -0.992284    4.695778   -0.034155
     45          1           0       -2.899256    4.431436   -1.009503
     46          1           0        0.951752    4.610932    0.899911
     47          1           0       -1.094627    5.772290    0.069134
 ---------------------------------------------------------------------
 Rotational constants (GHZ):           0.1668182           0.1260452           0.1042845
 General basis read from cards:  (5D, 7F)
 ======================================================================================================
                                       Pseudopotential Parameters
 ======================================================================================================
  Center     Atomic      Valence      Angular      Power
  Number     Number     Electrons     Momentum     of R      Exponent        Coefficient   SO-Coeffient
 ======================================================================================================
    1         28           18
                                      D and up 
                                                     1      469.9324331      -10.00000000    0.00000000
                                                     2       85.4236411      -69.40848050    0.00000000
                                                     2       21.2674984      -12.09510200    0.00000000
                                      S - D
                                                     0      162.1686097        3.00000000    0.00000000
                                                     1      176.5333232       22.02536180    0.00000000
                                                     2       68.9562010      443.01810880    0.00000000
                                                     2       13.5792838      145.56964110    0.00000000
                                      P - D
                                                     0       69.0181506        5.00000000    0.00000000
                                                     1      275.5955596        4.98828240    0.00000000
                                                     2       47.1315453      256.69458530    0.00000000
                                                     2       12.9874075       78.47544500    0.00000000
    2         35            7
                                      F and up 
                                                     1      213.6143969      -28.00000000    0.00000000
                                                     2       41.0585380     -134.92688520    0.00000000
                                                     2        8.7086530      -41.92719130    0.00000000
                                                     2        2.6074661       -5.93364200    0.00000000
                                      S - F
                                                     0       54.1980682        3.00000000    0.00000000
                                                     1       32.9053558       27.34306420    0.00000000
                                                     2       13.6744890      118.80288470    0.00000000
                                                     2        3.0341152       43.43548760    0.00000000
                                      P - F
                                                     0       54.2563340        5.00000000    0.00000000
                                                     1       26.0095593       25.05042520    0.00000000
                                                     2       28.2012995       92.61574630    0.00000000
                                                     2        9.4341061       95.82490160    0.00000000
                                                     2        2.5321764       26.26849830    0.00000000
                                      D - F
                                                     0       87.6328721        3.00000000    0.00000000
                                                     1       61.7373377       22.55335570    0.00000000
                                                     2       32.4385104      178.12419880    0.00000000
                                                     2        8.7537199       76.99241620    0.00000000
                                                     2        1.6633189        9.48182700    0.00000000
    3         35            7
                                      F and up 
                                                     1      213.6143969      -28.00000000    0.00000000
                                                     2       41.0585380     -134.92688520    0.00000000
                                                     2        8.7086530      -41.92719130    0.00000000
                                                     2        2.6074661       -5.93364200    0.00000000
                                      S - F
                                                     0       54.1980682        3.00000000    0.00000000
                                                     1       32.9053558       27.34306420    0.00000000
                                                     2       13.6744890      118.80288470    0.00000000
                                                     2        3.0341152       43.43548760    0.00000000
                                      P - F
                                                     0       54.2563340        5.00000000    0.00000000
                                                     1       26.0095593       25.05042520    0.00000000
                                                     2       28.2012995       92.61574630    0.00000000
                                                     2        9.4341061       95.82490160    0.00000000
                                                     2        2.5321764       26.26849830    0.00000000
                                      D - F
                                                     0       87.6328721        3.00000000    0.00000000
                                                     1       61.7373377       22.55335570    0.00000000
                                                     2       32.4385104      178.12419880    0.00000000
                                                     2        8.7537199       76.99241620    0.00000000
                                                     2        1.6633189        9.48182700    0.00000000
    4          7
                                   No pseudopotential on this center.
    5          6
                                   No pseudopotential on this center.
    6          6
                                   No pseudopotential on this center.
    7          1
                                   No pseudopotential on this center.
    8          6
                                   No pseudopotential on this center.
    9          1
                                   No pseudopotential on this center.
   10          1
                                   No pseudopotential on this center.
   11          1
                                   No pseudopotential on this center.
   12          7
                                   No pseudopotential on this center.
   13          6
                                   No pseudopotential on this center.
   14          6
                                   No pseudopotential on this center.
   15          1
                                   No pseudopotential on this center.
   16          6
                                   No pseudopotential on this center.
   17          1
                                   No pseudopotential on this center.
   18          1
                                   No pseudopotential on this center.
   19          1
                                   No pseudopotential on this center.
   20          7
                                   No pseudopotential on this center.
   21          7
                                   No pseudopotential on this center.
   22         16
                                   No pseudopotential on this center.
   23          6
                                   No pseudopotential on this center.
   24          1
                                   No pseudopotential on this center.
   25          1
                                   No pseudopotential on this center.
   26          6
                                   No pseudopotential on this center.
   27          6
                                   No pseudopotential on this center.
   28          6
                                   No pseudopotential on this center.
   29          6
                                   No pseudopotential on this center.
   30          1
                                   No pseudopotential on this center.
   31          6
                                   No pseudopotential on this center.
   32          1
                                   No pseudopotential on this center.
   33          6
                                   No pseudopotential on this center.
   34          1
                                   No pseudopotential on this center.
   35          1
                                   No pseudopotential on this center.
   36          1
                                   No pseudopotential on this center.
   37          6
                                   No pseudopotential on this center.
   38          6
                                   No pseudopotential on this center.
   39          6
                                   No pseudopotential on this center.
   40          6
                                   No pseudopotential on this center.
   41          1
                                   No pseudopotential on this center.
   42          6
                                   No pseudopotential on this center.
   43          1
                                   No pseudopotential on this center.
   44          6
                                   No pseudopotential on this center.
   45          1
                                   No pseudopotential on this center.
   46          1
                                   No pseudopotential on this center.
   47          1
                                   No pseudopotential on this center.
 ======================================================================================================
 There are   444 symmetry adapted cartesian basis functions of A   symmetry.
 There are   418 symmetry adapted basis functions of A   symmetry.
   418 basis functions,   852 primitive gaussians,   444 cartesian basis functions
   105 alpha electrons      105 beta electrons
       nuclear repulsion energy      2981.9181225860 Hartrees.
 NAtoms=   47 NActive=   47 NUniq=   47 SFac= 1.00D+00 NAtFMM=   60 NAOKFM=F Big=F
 Integral buffers will be    131072 words long.
 Raffenetti 2 integral format.
 Two-electron integral symmetry is turned on.
 Nuclear repulsion after empirical dispersion term =     2981.7697602842 Hartrees.
 One-electron integrals computed using PRISM.
   1 Symmetry operations used in ECPInt.
 ECPInt:  NShTT=   11781 NPrTT=   72536 LenC2=   10522 LenP2D=   36992.
 LDataN:  DoStor=T MaxTD1= 5 Len=  102
 NBasis=   418 RedAO= T EigKep=  4.75D-04  NBF=   418
 NBsUse=   418 1.00D-06 EigRej= -1.00D+00 NBFU=   418
 ExpMin= 2.40D-02 ExpMax= 2.19D+04 ExpMxC= 3.30D+03 IAcc=3 IRadAn=         5 AccDes= 0.00D+00
 Harris functional with IExCor=  402 and IRadAn=       5 diagonalized for initial guess.
 HarFok:  IExCor=  402 AccDes= 0.00D+00 IRadAn=         5 IDoV= 1 UseB2=F ITyADJ=14
 ICtDFT=  3500011 ScaDFX=  1.000000  1.000000  1.000000  1.000000
 FoFCou: FMM=F IPFlag=           0 FMFlag=      100000 FMFlg1=           0
         NFxFlg=           0 DoJE=T BraDBF=F KetDBF=T FulRan=T
         wScrn=  0.000000 ICntrl=       500 IOpCl=  0 I1Cent=   200000004 NGrid=           0
         NMat0=    1 NMatS0=      1 NMatT0=    0 NMatD0=    1 NMtDS0=    0 NMtDT0=    0
 Petite list used in FoFCou.
 Initial guess <Sx>= 0.0000 <Sy>= 0.0000 <Sz>= 0.0000 <S**2>=-0.0000 S=-0.0000
 Requested convergence on RMS density matrix=1.00D-08 within 128 cycles.
 Requested convergence on MAX density matrix=1.00D-06.
 Requested convergence on             energy=1.00D-06.
 No special actions if energy rises.
 EnCoef did     7 forward-backward iterations
 EnCoef did   100 forward-backward iterations
 EnCoef did   100 forward-backward iterations
 EnCoef did    10 forward-backward iterations
 EnCoef did     5 forward-backward iterations
 EnCoef did     3 forward-backward iterations
 Restarting incremental Fock formation.
 SCF Done:  E(UB3LYP) =  -1549.05496073     A.U. after   23 cycles
            NFock= 23  Conv=0.56D-08     -V/T= 2.0609
 <Sx>= 0.0000 <Sy>= 0.0000 <Sz>= 0.0000 <S**2>=-0.0000 S=-0.0000
 <L.S>=  0.00000000000    
 Annihilation of the first spin contaminant:
 S**2 before annihilation    -0.0000,   after    -0.0000
 DoSCS=F DFT=T ScalE2(SS,OS)=  1.000000  1.000000
 Range of M.O.s used for correlation:     1   418
 NBasis=   418 NAE=   105 NBE=   105 NFC=     0 NFV=     0
 NROrb=    418 NOA=   105 NOB=   105 NVA=   313 NVB=   313

 **** Warning!!: The smallest alpha delta epsilon is  0.75938810D-01


 **** Warning!!: The smallest beta delta epsilon is  0.75938810D-01

   1 Symmetry operations used in ECPInt.
 ECPInt:  NShTT=   11781 NPrTT=   72536 LenC2=   10522 LenP2D=   36992.
 LDataN:  DoStor=T MaxTD1= 6 Len=  172
 Number of processors reduced to  30 by ecpmxn.
 Symmetrizing basis deriv contribution to polar:
 IMax=3 JMax=2 DiffMx= 0.00D+00
 G2DrvN: will do    48 centers at a time, making    1 passes.
 Calling FoFCou, ICntrl=  3107 FMM=F I1Cent=   0 AccDes= 0.00D+00.
 End of G2Drv F.D. properties file   721 does not exist.
 End of G2Drv F.D. properties file   722 does not exist.
 End of G2Drv F.D. properties file   788 does not exist.
          IDoAtm=11111111111111111111111111111111111111111111111
          Differentiating once with respect to nuclear coordinates.
 CalDSu exits because no D1Ps are significant.
          There are   144 degrees of freedom in the 1st order CPHF.  IDoFFX=6 NUNeed=     0.
    138 vectors produced by pass  0 Test12= 6.57D-14 1.00D-09 XBig12= 2.98D-01 1.02D-01.
 AX will form   138 AO Fock derivatives at one time.
    138 vectors produced by pass  1 Test12= 6.57D-14 1.00D-09 XBig12= 1.14D-01 5.96D-02.
    138 vectors produced by pass  2 Test12= 6.57D-14 1.00D-09 XBig12= 2.76D-03 9.41D-03.
    138 vectors produced by pass  3 Test12= 6.57D-14 1.00D-09 XBig12= 1.51D-05 4.00D-04.
    138 vectors produced by pass  4 Test12= 6.57D-14 1.00D-09 XBig12= 3.68D-08 1.45D-05.
    134 vectors produced by pass  5 Test12= 6.57D-14 1.00D-09 XBig12= 4.65D-11 6.09D-07.
     22 vectors produced by pass  6 Test12= 6.57D-14 1.00D-09 XBig12= 4.73D-14 1.24D-08.
 InvSVY:  IOpt=1 It=  1 EMax= 9.99D-16
 Solved reduced A of dimension   846 with   144 vectors.
 End of Minotr F.D. properties file   721 does not exist.
 End of Minotr F.D. properties file   722 does not exist.
 End of Minotr F.D. properties file   788 does not exist.

 **********************************************************************

            Population analysis using the SCF Density.

 **********************************************************************

 Orbital symmetries:
 Alpha Orbitals:
       Occupied  (A) (A) (A) (A) (A) (A) (A) (A) (A) (A) (A) (A)
                 (A) (A) (A) (A) (A) (A) (A) (A) (A) (A) (A) (A)
                 (A) (A) (A) (A) (A) (A) (A) (A) (A) (A) (A) (A)
                 (A) (A) (A) (A) (A) (A) (A) (A) (A) (A) (A) (A)
                 (A) (A) (A) (A) (A) (A) (A) (A) (A) (A) (A) (A)
                 (A) (A) (A) (A) (A) (A) (A) (A) (A) (A) (A) (A)
                 (A) (A) (A) (A) (A) (A) (A) (A) (A) (A) (A) (A)
                 (A) (A) (A) (A) (A) (A) (A) (A) (A) (A) (A) (A)
                 (A) (A) (A) (A) (A) (A) (A) (A) (A)
       Virtual   (A) (A) (A) (A) (A) (A) (A) (A) (A) (A) (A) (A)
                 (A) (A) (A) (A) (A) (A) (A) (A) (A) (A) (A) (A)
                 (A) (A) (A) (A) (A) (A) (A) (A) (A) (A) (A) (A)
                 (A) (A) (A) (A) (A) (A) (A) (A) (A) (A) (A) (A)
                 (A) (A) (A) (A) (A) (A) (A) (A) (A) (A) (A) (A)
                 (A) (A) (A) (A) (A) (A) (A) (A) (A) (A) (A) (A)
                 (A) (A) (A) (A) (A) (A) (A) (A) (A) (A) (A) (A)
                 (A) (A) (A) (A) (A) (A) (A) (A) (A) (A) (A) (A)
                 (A) (A) (A) (A) (A) (A) (A) (A) (A) (A) (A) (A)
                 (A) (A) (A) (A) (A) (A) (A) (A) (A) (A) (A) (A)
                 (A) (A) (A) (A) (A) (A) (A) (A) (A) (A) (A) (A)
                 (A) (A) (A) (A) (A) (A) (A) (A) (A) (A) (A) (A)
                 (A) (A) (A) (A) (A) (A) (A) (A) (A) (A) (A) (A)
                 (A) (A) (A) (A) (A) (A) (A) (A) (A) (A) (A) (A)
                 (A) (A) (A) (A) (A) (A) (A) (A) (A) (A) (A) (A)
                 (A) (A) (A) (A) (A) (A) (A) (A) (A) (A) (A) (A)
                 (A) (A) (A) (A) (A) (A) (A) (A) (A) (A) (A) (A)
                 (A) (A) (A) (A) (A) (A) (A) (A) (A) (A) (A) (A)
                 (A) (A) (A) (A) (A) (A) (A) (A) (A) (A) (A) (A)
                 (A) (A) (A) (A) (A) (A) (A) (A) (A) (A) (A) (A)
                 (A) (A) (A) (A) (A) (A) (A) (A) (A) (A) (A) (A)
                 (A) (A) (A) (A) (A) (A) (A) (A) (A) (A) (A) (A)
                 (A) (A) (A) (A) (A) (A) (A) (A) (A) (A) (A) (A)
                 (A) (A) (A) (A) (A) (A) (A) (A) (A) (A) (A) (A)
                 (A) (A) (A) (A) (A) (A) (A) (A) (A) (A) (A) (A)
                 (A) (A) (A) (A) (A) (A) (A) (A) (A) (A) (A) (A)
                 (A)
 Beta  Orbitals:
       Occupied  (A) (A) (A) (A) (A) (A) (A) (A) (A) (A) (A) (A)
                 (A) (A) (A) (A) (A) (A) (A) (A) (A) (A) (A) (A)
                 (A) (A) (A) (A) (A) (A) (A) (A) (A) (A) (A) (A)
                 (A) (A) (A) (A) (A) (A) (A) (A) (A) (A) (A) (A)
                 (A) (A) (A) (A) (A) (A) (A) (A) (A) (A) (A) (A)
                 (A) (A) (A) (A) (A) (A) (A) (A) (A) (A) (A) (A)
                 (A) (A) (A) (A) (A) (A) (A) (A) (A) (A) (A) (A)
                 (A) (A) (A) (A) (A) (A) (A) (A) (A) (A) (A) (A)
                 (A) (A) (A) (A) (A) (A) (A) (A) (A)
       Virtual   (A) (A) (A) (A) (A) (A) (A) (A) (A) (A) (A) (A)
                 (A) (A) (A) (A) (A) (A) (A) (A) (A) (A) (A) (A)
                 (A) (A) (A) (A) (A) (A) (A) (A) (A) (A) (A) (A)
                 (A) (A) (A) (A) (A) (A) (A) (A) (A) (A) (A) (A)
                 (A) (A) (A) (A) (A) (A) (A) (A) (A) (A) (A) (A)
                 (A) (A) (A) (A) (A) (A) (A) (A) (A) (A) (A) (A)
                 (A) (A) (A) (A) (A) (A) (A) (A) (A) (A) (A) (A)
                 (A) (A) (A) (A) (A) (A) (A) (A) (A) (A) (A) (A)
                 (A) (A) (A) (A) (A) (A) (A) (A) (A) (A) (A) (A)
                 (A) (A) (A) (A) (A) (A) (A) (A) (A) (A) (A) (A)
                 (A) (A) (A) (A) (A) (A) (A) (A) (A) (A) (A) (A)
                 (A) (A) (A) (A) (A) (A) (A) (A) (A) (A) (A) (A)
                 (A) (A) (A) (A) (A) (A) (A) (A) (A) (A) (A) (A)
                 (A) (A) (A) (A) (A) (A) (A) (A) (A) (A) (A) (A)
                 (A) (A) (A) (A) (A) (A) (A) (A) (A) (A) (A) (A)
                 (A) (A) (A) (A) (A) (A) (A) (A) (A) (A) (A) (A)
                 (A) (A) (A) (A) (A) (A) (A) (A) (A) (A) (A) (A)
                 (A) (A) (A) (A) (A) (A) (A) (A) (A) (A) (A) (A)
                 (A) (A) (A) (A) (A) (A) (A) (A) (A) (A) (A) (A)
                 (A) (A) (A) (A) (A) (A) (A) (A) (A) (A) (A) (A)
                 (A) (A) (A) (A) (A) (A) (A) (A) (A) (A) (A) (A)
                 (A) (A) (A) (A) (A) (A) (A) (A) (A) (A) (A) (A)
                 (A) (A) (A) (A) (A) (A) (A) (A) (A) (A) (A) (A)
                 (A) (A) (A) (A) (A) (A) (A) (A) (A) (A) (A) (A)
                 (A) (A) (A) (A) (A) (A) (A) (A) (A) (A) (A) (A)
                 (A) (A) (A) (A) (A) (A) (A) (A) (A) (A) (A) (A)
                 (A)
 The electronic state is 1-A.
 Alpha  occ. eigenvalues --  -88.84626 -14.41734 -14.41022 -14.37840 -14.35155
 Alpha  occ. eigenvalues --  -10.27109 -10.25688 -10.23719 -10.22769 -10.22268
 Alpha  occ. eigenvalues --  -10.20915 -10.20867 -10.20609 -10.20565 -10.20530
 Alpha  occ. eigenvalues --  -10.20486 -10.20385 -10.19957 -10.19930 -10.17422
 Alpha  occ. eigenvalues --  -10.17175 -10.16833 -10.16777 -10.16175  -7.91884
 Alpha  occ. eigenvalues --   -5.88299  -5.87976  -5.87316  -4.07268  -2.68529
 Alpha  occ. eigenvalues --   -2.66755  -2.66070  -1.05215  -1.03792  -0.91128
 Alpha  occ. eigenvalues --   -0.89585  -0.87447  -0.83743  -0.79695  -0.77849
 Alpha  occ. eigenvalues --   -0.76436  -0.76295  -0.73606  -0.72960  -0.72113
 Alpha  occ. eigenvalues --   -0.68020  -0.66206  -0.64924  -0.64037  -0.63864
 Alpha  occ. eigenvalues --   -0.62454  -0.62256  -0.61074  -0.59528  -0.59020
 Alpha  occ. eigenvalues --   -0.58652  -0.58062  -0.57459  -0.52801  -0.50230
 Alpha  occ. eigenvalues --   -0.48234  -0.47640  -0.47400  -0.47088  -0.46985
 Alpha  occ. eigenvalues --   -0.46211  -0.45808  -0.45049  -0.44569  -0.43968
 Alpha  occ. eigenvalues --   -0.43579  -0.43230  -0.43069  -0.42935  -0.41702
 Alpha  occ. eigenvalues --   -0.40471  -0.40210  -0.39033  -0.37965  -0.36938
 Alpha  occ. eigenvalues --   -0.36530  -0.36157  -0.35833  -0.34763  -0.34747
 Alpha  occ. eigenvalues --   -0.33486  -0.33126  -0.32433  -0.31042  -0.30388
 Alpha  occ. eigenvalues --   -0.30064  -0.28168  -0.27475  -0.27044  -0.26671
 Alpha  occ. eigenvalues --   -0.25476  -0.25127  -0.24835  -0.23555  -0.23171
 Alpha  occ. eigenvalues --   -0.22636  -0.21959  -0.21233  -0.20176  -0.19293
 Alpha virt. eigenvalues --   -0.11699  -0.07860  -0.02783  -0.02151  -0.00375
 Alpha virt. eigenvalues --    0.00636   0.01291   0.01835   0.03346   0.03858
 Alpha virt. eigenvalues --    0.04048   0.05124   0.05590   0.07243   0.07473
 Alpha virt. eigenvalues --    0.07796   0.09326   0.10754   0.11381   0.12150
 Alpha virt. eigenvalues --    0.12493   0.12880   0.13410   0.13874   0.14851
 Alpha virt. eigenvalues --    0.15628   0.15821   0.16781   0.17362   0.17520
 Alpha virt. eigenvalues --    0.17839   0.18345   0.18900   0.19786   0.19934
 Alpha virt. eigenvalues --    0.20165   0.21124   0.22009   0.22325   0.23344
 Alpha virt. eigenvalues --    0.23601   0.24304   0.25641   0.26622   0.27860
 Alpha virt. eigenvalues --    0.28584   0.30457   0.31141   0.31350   0.31969
 Alpha virt. eigenvalues --    0.32807   0.32829   0.33917   0.34741   0.34951
 Alpha virt. eigenvalues --    0.35168   0.37807   0.39357   0.40864   0.42364
 Alpha virt. eigenvalues --    0.43123   0.44133   0.46229   0.47671   0.48128
 Alpha virt. eigenvalues --    0.48424   0.49563   0.49984   0.51077   0.52538
 Alpha virt. eigenvalues --    0.52747   0.52793   0.53645   0.54110   0.54528
 Alpha virt. eigenvalues --    0.54941   0.55546   0.55945   0.56300   0.56797
 Alpha virt. eigenvalues --    0.57161   0.57599   0.58008   0.58168   0.58452
 Alpha virt. eigenvalues --    0.58576   0.59229   0.59764   0.59843   0.60047
 Alpha virt. eigenvalues --    0.60709   0.60886   0.61322   0.61930   0.62052
 Alpha virt. eigenvalues --    0.62793   0.63090   0.64098   0.64477   0.65481
 Alpha virt. eigenvalues --    0.66599   0.67040   0.67447   0.68425   0.69629
 Alpha virt. eigenvalues --    0.70137   0.70628   0.71810   0.72523   0.72875
 Alpha virt. eigenvalues --    0.74265   0.74834   0.75803   0.76836   0.77489
 Alpha virt. eigenvalues --    0.78580   0.79010   0.79772   0.79964   0.80643
 Alpha virt. eigenvalues --    0.81891   0.82256   0.82619   0.82873   0.83466
 Alpha virt. eigenvalues --    0.83913   0.84551   0.84676   0.85166   0.85851
 Alpha virt. eigenvalues --    0.86275   0.86811   0.87138   0.87954   0.88564
 Alpha virt. eigenvalues --    0.89049   0.89675   0.89946   0.90269   0.91035
 Alpha virt. eigenvalues --    0.91315   0.92344   0.92836   0.93569   0.94410
 Alpha virt. eigenvalues --    0.94714   0.95392   0.96347   0.97031   0.97379
 Alpha virt. eigenvalues --    0.99311   1.00140   1.01049   1.01434   1.01731
 Alpha virt. eigenvalues --    1.01923   1.02954   1.04579   1.05771   1.06786
 Alpha virt. eigenvalues --    1.07358   1.09291   1.09435   1.10895   1.11698
 Alpha virt. eigenvalues --    1.14089   1.15251   1.15608   1.16566   1.17840
 Alpha virt. eigenvalues --    1.18558   1.20274   1.21287   1.22013   1.22780
 Alpha virt. eigenvalues --    1.23572   1.24906   1.25770   1.27279   1.28154
 Alpha virt. eigenvalues --    1.29092   1.29923   1.31375   1.33329   1.34730
 Alpha virt. eigenvalues --    1.35858   1.36174   1.37695   1.38180   1.39542
 Alpha virt. eigenvalues --    1.40656   1.41654   1.42124   1.43107   1.44323
 Alpha virt. eigenvalues --    1.45723   1.46564   1.47037   1.47880   1.48605
 Alpha virt. eigenvalues --    1.49404   1.50176   1.50701   1.51882   1.52003
 Alpha virt. eigenvalues --    1.52840   1.53181   1.53785   1.54534   1.56237
 Alpha virt. eigenvalues --    1.58825   1.61311   1.62949   1.64779   1.68705
 Alpha virt. eigenvalues --    1.75455   1.78975   1.79581   1.79883   1.80181
 Alpha virt. eigenvalues --    1.82422   1.83480   1.85720   1.86893   1.87149
 Alpha virt. eigenvalues --    1.88828   1.90454   1.91246   1.92161   1.93416
 Alpha virt. eigenvalues --    1.96602   1.97991   1.98854   2.00614   2.00805
 Alpha virt. eigenvalues --    2.01794   2.02704   2.04087   2.05921   2.07093
 Alpha virt. eigenvalues --    2.07302   2.09373   2.10392   2.12236   2.12954
 Alpha virt. eigenvalues --    2.13736   2.13842   2.15623   2.17002   2.17575
 Alpha virt. eigenvalues --    2.18403   2.18667   2.19436   2.19983   2.20758
 Alpha virt. eigenvalues --    2.21905   2.22902   2.23642   2.27294   2.28362
 Alpha virt. eigenvalues --    2.28721   2.29070   2.30867   2.31137   2.32070
 Alpha virt. eigenvalues --    2.32421   2.32533   2.33635   2.34722   2.36115
 Alpha virt. eigenvalues --    2.37624   2.38807   2.40445   2.41074   2.54940
 Alpha virt. eigenvalues --    2.56104   2.56730   2.57126   2.57755   2.59051
 Alpha virt. eigenvalues --    2.60405   2.62511   2.63567   2.66988   2.68218
 Alpha virt. eigenvalues --    2.68839   2.69310   2.69914   2.70561   2.72122
 Alpha virt. eigenvalues --    2.72396   2.73390   2.73864   2.74968   2.75422
 Alpha virt. eigenvalues --    2.77099   2.77907   2.79197   2.81008   2.87750
 Alpha virt. eigenvalues --    2.94154   2.95358   2.97703   2.99207   3.03483
 Alpha virt. eigenvalues --    3.03570   3.04179   3.06174   3.38840   3.39395
 Alpha virt. eigenvalues --    8.12576  19.70939  20.17650
  Beta  occ. eigenvalues --  -88.84626 -14.41734 -14.41022 -14.37840 -14.35155
  Beta  occ. eigenvalues --  -10.27109 -10.25688 -10.23719 -10.22769 -10.22268
  Beta  occ. eigenvalues --  -10.20915 -10.20867 -10.20609 -10.20565 -10.20530
  Beta  occ. eigenvalues --  -10.20486 -10.20385 -10.19957 -10.19930 -10.17422
[...]
 000184,-0.00000139,-0.05714724,-0.00526953,0.02353991,0.04324434,-0.05
 828007,-0.00000186,0.00998344,0.07457832,-0.02114213,-0.22094866,-0.04
 429441,0.08326912,0.00189960,0.00261931,0.00194695,-0.28313414,0.06010
 035,0.07966979,0.00262091,0.00013640,0.00177001,0.59628500,0.00012141,
 -0.00009364,0.00070918,-0.00039692,0.00004585,-0.00064016,-0.00012488,
 -0.00037764,0.00013504,0.00009525,-0.00028470,-0.00001749,-0.00004681,
 0.00006798,-0.00011690,0.00002206,-0.00002341,0.00007059,0.00001560,0.
 00006024,-0.00000035,-0.00001679,-0.00005098,-0.00003624,-0.00000834,0
 .00001630,0.00000296,-0.00001600,0.00000143,-0.00000832,0.00000122,-0.
 00001545,0.00000475,0.00001270,-0.00026515,0.00002067,-0.00030242,0.00
 019949,-0.00000882,0.00017021,-0.00011249,0.00029988,-0.00003683,-0.00
 000186,0.00000446,0.00011699,0.00004094,-0.00004648,-0.00010785,-0.000
 12652,-0.00008361,-0.00001148,0.00000504,-0.00002222,0.00001316,-0.000
 02900,-0.00002769,0.00011365,0.00005425,-0.00018197,0.00001519,-0.0000
 9196,0.00002560,0.00085181,-0.00189439,0.00121064,-0.00058155,-0.00021
 678,0.00010153,0.00002684,-0.00000148,-0.00001122,0.00015678,0.0001066
 4,-0.00009121,-0.00002813,0.00019751,-0.00007153,0.00012117,-0.0001588
 9,0.00003722,0.00001354,-0.00000042,0.00004102,-0.00001254,0.00003999,
 -0.00000175,-0.00000064,-0.00004326,0.00000532,0.00000726,0.00004623,-
 0.00001095,-0.00002671,0.00003797,-0.00003940,0.00001239,-0.00001634,-
 0.00001097,0.00002021,-0.00000899,-0.00001620,-0.00000299,0.00000142,-
 0.00000065,0.00000066,0.00000264,-0.00000766,-0.00321813,0.00200467,-0
 .00045094,-0.01540045,-0.03380485,0.01807507,0.02912868,-0.02278223,-0
 .00451343,-0.10237720,-0.18512212,0.08098713,0.00253427,-0.00374333,0.
 00241653,0.11772671,-0.16259864,-0.02149778,0.00135962,-0.00447555,0.0
 0302638,-0.07055131,0.70993354,0.00008394,0.00029508,-0.00010779,0.000
 23562,0.00030883,0.00061690,0.00001863,0.00009718,-0.00016573,-0.00009
 272,0.00030505,-0.00002055,0.00004240,-0.00004076,0.00014001,-0.000028
 00,0.00002029,-0.00005650,-0.00000467,-0.00001299,-0.00000783,0.000009
 03,0.00003512,0.00001796,0.00001030,-0.00001530,-0.00000152,0.00001172
 ,0.00000893,0.00000358,0.00000130,0.00001535,-0.00000587,0.00014792,0.
 00004039,0.00003232,0.00008903,-0.00011023,0.00001505,-0.00010766,0.00
 024208,0.00001794,0.00002291,0.00000720,0.00000191,-0.00003498,-0.0000
 1529,0.00003574,-0.00000766,0.00010545,0.00005207,0.00001632,0.0000112
 8,0.00001886,-0.00001396,0.00001953,0.00001372,-0.00003802,-0.00003310
 ,0.00006092,-0.00001193,0.00007814,-0.00003842,-0.00026396,0.00075741,
 -0.00054206,0.00010241,-0.00023625,0.00055531,0.00009386,-0.00027111,0
 .00011041,-0.00044433,-0.00016475,-0.00024049,-0.00009004,0.00000091,0
 .00002985,-0.00002898,0.00006888,-0.00002081,0.00002168,-0.00003264,-0
 .00002566,0.00000565,-0.00001426,0.00000664,0.00000658,-0.00002666,0.0
 0000216,0.00000515,-0.00002074,-0.00001098,0.00001481,0.00000219,0.000
 01096,-0.00000025,-0.00000105,0.00000088,-0.00000498,0.00000322,0.0000
 0236,0.00000400,-0.00000330,0.00000197,0.00000264,-0.00000234,0.000000
 60,0.02302528,-0.00089158,-0.01752001,-0.01091895,0.03789279,0.0018371
 6,-0.01045904,-0.02404017,0.01790120,0.10066282,0.05527524,-0.12009639
 ,0.00163801,0.00196922,0.00569264,0.06289081,0.00424094,-0.08742098,0.
 00149524,0.00310145,0.00511237,-0.18477795,-0.13696331,0.24677866,-0.0
 0021175,-0.00008963,0.00005735,0.00004366,0.00002020,0.00009128,0.0000
 4611,0.00005788,-0.00005252,-0.00001724,0.00009840,-0.00000309,0.00001
 719,-0.00002777,0.00006223,-0.00001972,0.00000520,-0.00003998,-0.00000
 119,-0.00000397,0.00000174,0.00000508,0.00001804,0.00001341,0.00000049
 ,-0.00000944,-0.00000191,0.00000364,-0.00000106,0.00000760,-0.00000084
 ,0.00000599,-0.00000440,0.00003676,0.00002289,-0.00001494,0.00002873,-
 0.00002372,-0.00001877,0.00001630,0.00001083,0.00000992,0.00000335,0.0
 0000056,0.00000341,0.00001746,-0.00000039,0.00000148,-0.00001551,-0.00
 000737,-0.00002054,0.00000828,-0.00000727,-0.00000441,-0.00000285,-0.0
 0000434,-0.00000445,-0.00003902,0.00001855,0.00001389,-0.00000698,0.00
 005711,-0.00002327,0.00012197,0.00002405,0.00000510,0.00011953,0.00002
 013,0.00002045,0.00000988,-0.00000217,0.00000199,0.00005060,-0.0000664
 9,0.00008101,0.00001054,0.00000610,0.00000866,-0.00001268,-0.00002036,
 0.00000323,-0.00000500,-0.00000537,-0.00000219,0.00000374,0.00000310,-
 0.00001296,0.00001306,0.00001100,0.00000376,-0.00000588,-0.00000286,0.
 00000252,0.00000399,-0.00000054,0.00000276,-0.00000003,0.00000382,-0.0
 0000467,0.00000215,-0.00000114,0.00000285,0.00000026,0.00000421,0.0000
 0059,-0.00000174,0.00000355,0.00000273,0.00191932,0.00115881,0.0018821
 7,-0.00121250,0.00014169,0.00194953,0.00051320,-0.00026274,-0.00038442
 ,-0.26711613,0.10277481,0.07329061,-0.00001517,-0.00041469,-0.00196387
 ,-0.00033896,-0.00310784,0.00377747,-0.00015780,0.00000861,-0.00029894
 ,-0.01468311,0.01153990,0.00435396,0.28142042,0.00019232,-0.00019429,-
 0.00031686,-0.00006288,0.00010411,-0.00007659,-0.00012806,0.00005528,0
 .00014362,0.00005479,-0.00025785,-0.00000825,-0.00001957,0.00003393,-0
 .00009753,0.00004979,-0.00002470,0.00009838,0.00000578,0.00000740,-0.0
 0000586,-0.00001146,-0.00004611,-0.00002361,0.00000073,0.00000258,-0.0
 0000462,-0.00000499,-0.00000525,-0.00001038,0.00000041,-0.00001406,0.0
 0000795,-0.00003765,-0.00000897,0.00009981,-0.00004676,0.00002811,0.00
 000373,0.00003009,-0.00001264,0.00005147,-0.00001380,0.00000416,0.0000
 0575,0.00003068,0.00000789,-0.00001993,-0.00001692,-0.00001804,-0.0000
 0640,-0.00000206,0.00000472,0.00000436,0.00000198,-0.00000813,-0.00000
 567,0.00001948,-0.00000176,-0.00004040,-0.00000363,-0.00011590,0.00002
 805,0.00020345,0.00000255,-0.00020953,0.00002633,-0.00002854,0.0001500
 8,0.00008636,0.00000581,-0.00003109,0.00007723,-0.00002942,0.00000042,
 -0.00001322,0.00005829,0.00003813,0.00001680,-0.00004719,-0.00000063,0
 .00002181,-0.00002350,-0.00000026,-0.00000003,-0.00000105,-0.00000700,
 0.00000236,0.00000842,0.00000498,-0.00000967,0.00001988,0.00000707,-0.
 00001257,0.00001390,-0.00001437,0.00001173,0.00000115,-0.00001447,0.00
 000592,-0.00000103,-0.00000690,0.00000076,-0.00000357,-0.00000037,0.00
 000272,-0.00000062,-0.00000396,0.00099215,-0.00284216,0.00291220,0.027
 58067,-0.01132213,-0.00804563,-0.00045979,-0.00109980,0.00035822,0.103
 17891,-0.10514208,-0.02591246,-0.00068156,0.00092104,-0.00131838,-0.00
 198978,-0.00110784,0.00288063,-0.00000251,0.00011551,-0.00021622,-0.01
 629766,0.01132400,0.00476581,-0.11194505,0.10858153,-0.00031553,0.0000
 2143,0.00026312,-0.00013274,0.00000476,-0.00012164,0.00008329,-0.00011
 930,-0.00002706,-0.00000931,0.00009783,-0.00002476,0.00001081,0.000001
 23,0.00004775,-0.00001383,0.00001685,-0.00002658,-0.00000037,0.0000049
 2,-0.00000509,-0.00000045,0.00001465,0.00000237,-0.00000027,0.00000236
 ,-0.00000020,0.00000214,0.00000506,0.00000382,0.00000089,0.00000404,-0
 .00000302,0.00004987,-0.00001213,-0.00002891,0.00000485,-0.00000812,-0
 .00001818,-0.00000824,0.00001985,0.00004750,0.00000884,0.00000660,0.00
 000192,-0.00000851,0.00000681,-0.00000192,-0.00000216,0.00001522,0.000
 01416,0.00000602,0.00000641,0.00000615,-0.00000050,-0.00000099,0.00000
 148,-0.00000192,-0.00001417,0.00000423,-0.00000407,0.00003681,-0.00001
 249,0.00003215,0.00027783,-0.00028583,0.00021713,0.00019657,0.00003670
 ,0.00005165,-0.00004373,0.00001690,0.00008451,-0.00017910,0.00014502,0
 .00001194,0.00000013,0.00003455,-0.00000537,0.00001261,0.00000026,0.00
 000457,-0.00000246,-0.00001153,-0.00000230,-0.00000459,-0.00000012,-0.
 00000405,0.00000121,-0.00000175,-0.00000816,-0.00000485,0.00000496,0.0
 0000248,-0.00000140,0.00000386,-0.00000067,0.00000091,-0.00000830,0.00
 000006,0.00000113,-0.00000009,0.00000299,-0.00000156,0.00000132,0.0000
 0231,-0.00000087,0.00000067,0.00102975,0.00220783,0.00596312,-0.005726
 50,0.00349493,0.00508753,-0.00006268,0.00078747,-0.00069480,0.07310666
 ,-0.02543814,-0.06103719,-0.00183495,-0.00122480,-0.00336627,0.0038334
 9,0.00336903,0.00350981,-0.00025970,-0.00020911,-0.00057481,0.01235030
 ,-0.00779463,-0.00069543,-0.08163462,0.02564714,0.05411720,0.00013604,
 0.00013223,-0.00001950,-0.00006811,-0.00003643,-0.00014742,-0.00000678
 ,-0.00004866,0.00001972,0.00000280,-0.00003975,0.00000020,-0.00001053,
 0.00002106,-0.00003014,0.00000659,-0.00000648,0.00001608,-0.00000070,0
 .00000134,-0.00000166,0.,-0.00000848,-0.00000706,-0.00000389,0.0000101
 2,0.00000429,-0.00000428,0.00000158,-0.00000213,-0.00000029,-0.0000036
 0,0.00000309,-0.00000859,-0.00007045,-0.00002843,-0.00008046,0.0000765
 5,-0.00001983,0.00005250,-0.00008384,0.00000587,-0.00000572,-0.0000023
 9,-0.00000080,-0.00003870,0.00000647,-0.00001356,-0.00002766,-0.000080
 40,0.00003410,-0.00000164,0.00001084,0.00000705,0.00001210,-0.00001374
 ,-0.00000413,0.00006581,-0.00002222,-0.00002461,0.00000776,-0.00002583
 ,0.00001193,-0.00012448,0.00031640,-0.00017171,-0.00003735,-0.00003625
 ,0.00001184,0.00001227,0.00000492,0.00000288,-0.00007354,0.00000910,-0
 .00005315,0.00000537,-0.00001448,0.00000764,0.00002038,0.00002921,-0.0
 0000390,0.00000260,0.00000236,-0.00000006,-0.00000874,-0.00000851,0.00
 002006,-0.00000364,-0.00002446,0.00000616,0.00000231,-0.00000374,-0.00
 000372,0.00000052,-0.00000322,-0.00000113,0.00000274,-0.00000665,-0.00
 000385,0.00000263,0.00000176,-0.00000302,0.00000077,-0.00000335,-0.000
 00018,0.00000315,-0.00000490,-0.00000068,0.00241965,0.00144344,0.00167
 127,-0.00014667,0.00080109,-0.00030116,0.00632938,0.00474078,-0.002929
 67,-0.00284502,0.00465367,0.00266190,-0.00006786,-0.00014749,-0.000253
 60,-0.19625645,-0.10106907,0.09939320,0.00019575,-0.00080044,-0.001598
 06,-0.01480982,-0.01784315,0.01243875,-0.00079131,-0.00092048,0.000863
 06,0.20578319,-0.00051811,-0.00023197,0.00019168,0.00002719,0.00005223
 ,-0.00007918,-0.00000411,0.00002379,0.00005416,0.00011711,-0.00030798,
 -0.00004107,-0.00002219,0.00003503,-0.00011948,0.00006359,-0.00003445,
 0.00011176,-0.00000168,0.00000585,-0.00000123,-0.00001168,-0.00005514,
 -0.00002409,-0.00000608,0.00000560,-0.00000159,-0.00001636,-0.00000761
 ,-0.00000834,-0.00000276,-0.00001710,0.00001117,0.00006208,0.00005075,
 0.00001332,-0.00018503,0.00016594,-0.00003286,0.00013251,-0.00008969,0
 .00010585,-0.00002978,-0.00000920,0.00000370,0.00009058,0.00004036,-0.
 00004561,-0.00010486,-0.00010197,-0.00000357,-0.00000731,-0.00000854,-
 0.00001615,0.00001053,-0.00004528,-0.00004020,0.00012380,0.00000131,-0
 .00010737,0.00000503,-0.00013418,0.00002930,-0.00027442,-0.00024058,0.
 00018952,-0.00012168,-0.00006378,0.00002131,0.00005093,0.00002431,-0.0
 0005200,0.00001621,0.00005584,-0.00004453,-0.00008251,0.00014499,0.000
 04308,0.00007669,-0.00019844,0.00001983,0.00003533,-0.00003438,-0.0000
 0614,-0.00000682,0.00003773,-0.00003514,0.00001608,0.00001003,0.000033
 68,-0.00000966,0.00003604,0.00000576,-0.00001282,0.00002964,-0.0000220
 3,0.00001500,-0.00000216,-0.00001569,0.00002521,-0.00000897,-0.0000101
 4,-0.00000108,0.00000276,-0.00000363,-0.00000105,0.00000866,-0.0000033
 2,0.00238549,-0.00268305,0.00204306,0.00076574,-0.00080472,-0.00022899
 ,-0.02271304,-0.01403914,0.01462630,0.00307303,-0.00014869,0.00052905,
 -0.00019560,0.00002093,-0.00013976,-0.10182226,-0.13434200,0.07288157,
 -0.00038754,0.00099784,-0.00125361,0.01050906,0.01123875,-0.00710061,0
 .00067963,0.00046309,-0.00031101,0.10920872,0.13961148,0.00026877,-0.0
 0009675,-0.00026115,-0.00001564,0.00001575,-0.00002544,-0.00003889,0.0
 0000048,0.00002697,-0.00000629,-0.00004474,0.00001611,-0.00000747,-0.0
 0000207,-0.00001025,-0.00000854,-0.00000746,-0.00000676,-0.00000247,-0
 .00001466,0.00000435,0.00000253,-0.00000035,0.00000789,0.00000439,-0.0
 0000620,0.00000257,0.00000356,-0.00000499,0.00000227,0.00000118,-0.000
 00099,0.00000006,-0.00003121,-0.00007512,-0.00003301,-0.00001663,0.000
 02612,-0.00001012,0.00008143,-0.00001899,-0.00001506,0.00000572,-0.000
 00010,0.00000147,-0.00002512,-0.00000439,-0.00001016,-0.00000063,-0.00
 005354,-0.00001403,0.00000752,0.00000660,0.00000574,0.00000756,-0.0000
 0310,-0.00000012,-0.00000939,0.00001378,-0.00000507,0.00000103,0.00001
 431,-0.00000157,-0.00018984,0.00038291,0.00002344,-0.00007662,-0.00014
 768,-0.00011736,-0.00003706,0.00007357,-0.00001499,-0.00005535,0.00017
 070,-0.00005311,0.00003947,-0.00008084,-0.00001083,-0.00005808,0.00010
 090,-0.00006023,-0.00001428,0.00001510,0.00000426,-0.00001047,-0.00002
 836,0.00001933,0.00000098,0.00003594,0.00002549,0.00000360,-0.00001971
 ,-0.00000762,0.00001245,-0.00001591,0.00001347,0.00000197,-0.00000510,
 0.00000194,-0.00000349,0.00000608,0.00000698,-0.00000100,-0.00000224,-
 0.00000081,0.00000314,-0.00000505,0.00000432,0.00222715,0.00213230,0.0
 0560090,-0.00062950,0.00016765,-0.00016134,0.00522271,0.00198346,-0.00
 028112,0.00280490,0.00001211,0.00524860,-0.00029897,-0.00017223,-0.000
 65775,0.09958967,0.07275531,-0.09763777,-0.00189638,-0.00099922,-0.003
 06659,0.00413054,0.00501917,-0.00101332,0.00032781,0.00040998,0.000202
 80,-0.10981515,-0.08036268,0.09503851,-0.00002448,0.00014210,0.0000820
 3,0.00002177,-0.00000616,0.00002928,0.00005537,-0.00009268,-0.00003946
 ,-0.00002534,0.00008419,-0.00000351,0.00001308,-0.00001830,0.00004212,
 -0.00000841,-0.00000026,-0.00002036,-0.00000260,0.00000514,-0.00000248
 ,0.00000190,0.00000603,0.00000158,-0.00000171,-0.00000403,-0.00000004,
 0.00000277,0.00000212,0.00000282,-0.00000053,0.00000306,-0.00000212,-0
 .00000404,0.00011903,0.00004371,0.00007352,-0.00002866,0.00000036,-0.0
 0000293,0.00002326,-0.00002547,0.00000286,0.00000222,0.00000617,0.0000
 3573,-0.00001596,0.00000011,-0.00000740,-0.00000272,-0.00001493,0.0000
 0579,-0.00001015,-0.00000495,0.00000042,0.00000607,0.00000235,-0.00006
 511,0.00002554,0.00001243,-0.00000414,0.00003085,-0.00001414,0.0001389
 4,-0.00039614,0.00015691,-0.00003436,-0.00003576,-0.00005538,-0.000023
 15,0.00000625,-0.00000245,0.00003143,0.00001948,0.00003911,0.00001692,
 0.00000528,0.00001464,-0.00003186,-0.00001626,-0.00000342,0.00000426,-
 0.00001849,0.00000194,0.00000933,-0.00000522,-0.00002402,0.00002370,0.
 00002845,0.00000587,-0.00001105,0.00000455,0.00000646,-0.00000142,0.00
 000562,-0.00000199,0.00000284,0.00000868,-0.00000677,-0.00000020,0.000
 00118,0.00000366,0.00000035,0.00000127,0.00000106,0.00000025,0.0000031
 3,0.00000126,-0.00157541,-0.00029527,0.00018643,-0.00195251,-0.0017411
 6,0.00411840,-0.00344811,0.00218564,0.00375944,0.00813380,-0.02278640,
 0.00377505,0.00041111,-0.00092382,0.00022636,0.00009567,0.02777040,-0.
 00703985,-0.00012165,0.00133260,-0.00029815,-0.06399658,0.04691384,-0.
 00012269,0.00023967,0.00008685,-0.00172285,0.00035793,-0.00095113,-0.0
 0149960,0.06166363,-0.00002366,0.00010189,0.00002670,-0.00002548,-0.00
 001152,-0.00006615,0.00002128,-0.00013134,0.00001323,0.00000327,-0.000
 03467,-0.00000490,-0.00000611,0.00002388,-0.00002340,0.00001599,-0.000
 00527,0.00002534,0.00000015,0.00001360,-0.00000440,-0.00000643,-0.0000
 0958,-0.00001638,-0.00000144,0.00000820,0.00000106,-0.00000150,0.00000
 580,-0.00000357,-0.00000018,-0.00000410,0.00000146,0.00000203,-0.00000
 223,-0.00003003,-0.00004953,0.00005363,0.00000648,-0.00000381,-0.00003
 651,0.00002760,0.00000036,0.00000363,0.00000104,-0.00002921,0.00000930
 ,-0.00000082,0.00001803,-0.00000131,0.00004768,-0.00000628,0.00001082,
 0.00001220,0.00000595,-0.00000528,0.00000075,0.00005455,-0.00003483,-0
 .00002125,0.00000341,-0.00003335,0.00001129,0.00005383,-0.00021345,0.0
 0004731,-0.00003641,0.00002006,-0.00001714,0.00000546,-0.00003196,0.00
 001339,-0.00003007,-0.00002096,-0.00005869,-0.00001438,0.00001828,0.00
 002627,0.00003341,0.00001467,-0.00000311,0.00001828,-0.00000430,-0.000
 00704,-0.00001245,-0.00000398,0.00002041,-0.00002613,-0.00002332,-0.00
 000079,0.00000238,0.00000609,-0.00000114,-0.00000946,0.00000619,-0.000
 00534,0.00000602,-0.00000939,-0.00000534,0.00000329,0.00000071,-0.0000
 0698,0.00000210,-0.00000649,-0.00000019,0.00000427,-0.00000550,-0.0000
 0410,-0.00048722,0.00115187,-0.00032492,-0.00254910,0.00043803,0.00287
 375,0.00310910,0.00133810,0.00019675,0.00528326,-0.01263361,0.00191982
 ,0.00043232,-0.00051514,0.00004193,-0.00042779,-0.00934284,0.00342571,
 -0.00002476,-0.00049208,0.00028280,0.04700094,-0.31908480,0.06032849,-
 0.00069085,0.00059328,-0.00089065,-0.00014317,0.00054607,-0.00116975,-
 0.05147426,0.33833370,0.00010284,0.00031359,0.00009582,0.00005858,0.00
 001071,0.00010557,0.00005871,0.00016076,-0.00007890,-0.00006112,0.0001
 7266,-0.00001524,0.00002772,-0.00003872,0.00009302,-0.00001557,0.00000
 102,-0.00004504,0.00000173,0.00001222,-0.00000376,0.00000497,0.0000157
 6,0.00000550,0.00000223,-0.00001068,-0.00000157,0.00000936,0.00000436,
 0.00000558,-0.00000090,0.00000690,-0.00000440,-0.00004602,0.00010319,-
 0.00000696,0.00006280,-0.00001809,0.00001100,-0.00002984,0.00001014,-0
 .00001095,0.00001275,0.00000560,0.00000612,-0.00001159,-0.00001435,0.0
 0002165,0.00001686,0.00000667,0.00002290,0.00000705,-0.00000398,0.0000
 0861,0.00000060,0.00000177,0.00000336,-0.00006001,0.00001615,0.0000322
 9,-0.00001406,0.00006500,-0.00003183,0.00031120,-0.00081796,0.00036228
 ,-0.00009795,-0.00002265,-0.00013603,-0.00006631,-0.00004493,0.0000330
 6,-0.00004124,0.00000242,-0.00004489,0.00001297,-0.00001840,0.00001476
 ,-0.00000138,0.00002373,0.00000045,0.00000509,-0.00000701,-0.00000341,
 -0.00000616,-0.00000574,0.00000417,-0.00000923,-0.00000986,0.00000403,
 -0.00000117,-0.00000365,-0.00000292,-0.00000241,0.00000618,0.00000051,
 0.00000319,-0.00000635,-0.00000715,0.00000274,0.00000229,0.00000272,0.
 00000243,-0.00000095,0.00000133,0.00000245,-0.00000131,0.00000054,0.00
 016168,-0.00036417,-0.00126106,0.00428274,0.00259971,0.00373969,0.0035
 1083,0.00063142,0.00488525,-0.00407624,0.01416512,0.00002133,-0.000185
 20,0.00057525,-0.00004058,0.00082365,-0.00890037,0.00404342,0.00019816
 ,-0.00039232,0.00037300,-0.00011173,0.06047872,-0.05107981,-0.00148955
 ,-0.00122038,-0.00257123,-0.00174078,-0.00080407,-0.00278188,-0.001614
 90,-0.06668536,0.04422964\\0.00000025,0.00000313,0.00000665,-0.0000005
 9,0.00000107,0.00000058,0.00000039,0.00000069,0.00000071,0.00000448,0.
 00000039,-0.00000203,-0.00000119,0.00000058,0.00000070,-0.00000309,0.0
 0000007,0.00000184,0.00000070,0.00000032,0.00000035,-0.00000136,0.0000
 0009,0.00000111,-0.00000025,0.00000056,0.00000041,-0.00000058,0.000000
 30,0.00000073,-0.00000084,0.00000024,0.00000084,-0.00000190,-0.0000024
 0,-0.00000102,0.00000123,0.00000278,0.00000240,0.00000018,-0.00000008,
 0.00000078,-0.00000056,-0.00000072,0.00000091,-0.00000049,0.00000021,-
 0.00000046,-0.00000073,-0.00000011,0.00000023,-0.00000014,0.00000040,-
 0.00000005,-0.00000061,-0.00000066,-0.00000031,0.00000115,0.00000013,0
 .,-0.00000105,0.00000016,0.00000082,0.00000065,-0.00000408,0.00000071,
 -0.00000100,0.00000198,-0.00000124,-0.00000036,-0.00000022,-0.00000035
 ,0.00000051,0.00000086,-0.00000042,-0.00000086,-0.00000211,-0.00000233
 ,-0.00000088,-0.00000100,-0.00000165,-0.00000042,0.00000020,-0.0000001
 1,-0.00000078,-0.00000149,-0.00000147,0.00000058,-0.00000038,-0.000000
 39,0.00000018,-0.00000025,-0.00000064,-0.00000005,-0.00000032,-0.00000
 016,-0.00000067,-0.00000078,-0.00000077,0.,-0.00000077,-0.00000084,-0.
 00000015,-0.00000049,-0.00000024,-0.00000043,-0.00000074,-0.00000066,0
 .00000311,-0.00000641,-0.00000447,-0.00000221,0.00000339,0.00000123,0.
 00000268,0.00000287,-0.00000208,0.00000101,-0.00000041,0.00000042,0.00
 000054,0.00000056,0.00000053,0.00000059,-0.00000011,0.00000009,-0.0000
 0039,0.00000089,0.00000033,0.00000141,0.00000040,-0.00000026,0.0000007
 7,0.00000085,0.00000017,0.00000039,0.00000016,-0.00000030,0.00000076,0
 .00000028,-0.00000029\\\@
 The archive entry for this job was punched.


 OLD AGE AND TREACHERY WILL ALWAYS PREVAIL OVER YOUTH AND SKILL.
 Job cpu time:       0 days  5 hours 11 minutes  8.2 seconds.
 Elapsed time:       0 days  0 hours  9 minutes 45.9 seconds.
 File lengths (MBytes):  RWF=   2096 Int=      0 D2E=      0 Chk=     23 Scr=      2
 Normal termination of Gaussian 16 at Wed Oct 25 06:39:53 2023.
