 Entering Gaussian System, Link 0=g16
 Input=test_ccsd.gjf
 Output=test_ccsd.log
 Initial command:
 /home/tmj/soft/g16/l1.exe "/home/tmj/soft/g16temp/Gau-1649084.inp" -scrdir="/home/tmj/soft/g16temp/"
 Entering Link 1 = /home/tmj/soft/g16/l1.exe PID=   1649086.
  
 Copyright (c) 1988-2019, Gaussian, Inc.  All Rights Reserved.
  
 This is part of the Gaussian(R) 16 program.  It is based on
 the Gaussian(R) 09 system (copyright 2009, Gaussian, Inc.),
 the Gaussian(R) 03 system (copyright 2003, Gaussian, Inc.),
 the Gaussian(R) 98 system (copyright 1998, Gaussian, Inc.),
 the Gaussian(R) 94 system (copyright 1995, Gaussian, Inc.),
 the Gaussian 92(TM) system (copyright 1992, Gaussian, Inc.),
 the Gaussian 90(TM) system (copyright 1990, Gaussian, Inc.),
 the Gaussian 88(TM) system (copyright 1988, Gaussian, Inc.),
 the Gaussian 86(TM) system (copyright 1986, Carnegie Mellon
 University), and the Gaussian 82(TM) system (copyright 1983,
 Carnegie Mellon University). Gaussian is a federally registered
 trademark of Gaussian, Inc.
  
 This software contains proprietary and confidential information,
 including trade secrets, belonging to Gaussian, Inc.
  
 This software is provided under written license and may be
 used, copied, transmitted, or stored only in accord with that
 written license.
  
 The following legend is applicable only to US Government
 contracts under FAR:
  
                    RESTRICTED RIGHTS LEGEND
  
 Use, reproduction and disclosure by the US Government is
 subject to restrictions as set forth in subparagraphs (a)
 and (c) of the Commercial Computer Software - Restricted
 Rights clause in FAR 52.227-19.
  
 Gaussian, Inc.
 340 Quinnipiac St., Bldg. 40, Wallingford CT 06492
  
  
 ---------------------------------------------------------------
 Warning -- This program may not be used in any manner that
 competes with the business of Gaussian, Inc. or will provide
 assistance to any competitor of Gaussian, Inc.  The licensee
 of this program is prohibited from giving any competitor of
 Gaussian, Inc. access to this program.  By using this program,
 the user acknowledges that Gaussian, Inc. is engaged in the
 business of creating and licensing software in the field of
 computational chemistry and represents and warrants to the
 licensee that it is not a competitor of Gaussian, Inc. and that
 it will not use this program in any manner prohibited above.
 ---------------------------------------------------------------
  

 Cite this work as:
 Gaussian 16, Revision C.01,
 M. J. Frisch, G. W. Trucks, H. B. Schlegel, G. E. Scuseria, 
 M. A. Robb, J. R. Cheeseman, G. Scalmani, V. Barone, 
 G. A. Petersson, H. Nakatsuji, X. Li, M. Caricato, A. V. Marenich, 
 J. Bloino, B. G. Janesko, R. Gomperts, B. Mennucci, H. P. Hratchian, 
 J. V. Ortiz, A. F. Izmaylov, J. L. Sonnenberg, D. Williams-Young, 
 F. Ding, F. Lipparini, F. Egidi, J. Goings, B. Peng, A. Petrone, 
 T. Henderson, D. Ranasinghe, V. G. Zakrzewski, J. Gao, N. Rega, 
 G. Zheng, W. Liang, M. Hada, M. Ehara, K. Toyota, R. Fukuda, 
 J. Hasegawa, M. Ishida, T. Nakajima, Y. Honda, O. Kitao, H. Nakai, 
 T. Vreven, K. Throssell, J. A. Montgomery, Jr., J. E. Peralta, 
 F. Ogliaro, M. J. Bearpark, J. J. Heyd, E. N. Brothers, K. N. Kudin, 
 V. N. Staroverov, T. A. Keith, R. Kobayashi, J. Normand, 
 K. Raghavachari, A. P. Rendell, J. C. Burant, S. S. Iyengar, 
 J. Tomasi, M. Cossi, J. M. Millam, M. Klene, C. Adamo, R. Cammi, 
 J. W. Ochterski, R. L. Martin, K. Morokuma, O. Farkas, 
 J. B. Foresman, and D. J. Fox, Gaussian, Inc., Wallingford CT, 2019.
 
 ******************************************
 Gaussian 16:  ES64L-G16RevC.01  3-Jul-2019
                23-Mar-2024 
 ******************************************
 %mem=60GB
 %nprocshared=32
 Will use up to   32 processors via shared memory.
 %chk=H_anion_ccsd.chk
 ----------------------------------------------------------------------
 # ccsd def2svp Opt freq NoSymm scrf(SMD,solvent=ethanol) pop=Hirshfeld
 ----------------------------------------------------------------------
 1/18=20,19=15,26=6,38=1/1,3;
 2/9=110,12=2,15=1,17=6,18=5,40=1/2;
 3/5=43,7=101,11=9,25=1,30=1,70=32201,71=1,72=4/1,2,3;
 4//1;
 5/5=2,38=5,53=4/2;
 8/6=4,9=120000,10=1/1,4;
 9/5=7,15=1/13;
 11/28=-8,29=200,31=1,42=3/11;
 10/5=6,31=1/2;
 6/7=2,8=2,9=2,10=2,79=1/1;
 7/12=7,30=1/1,2,3,16;
 1/18=20,19=15,26=6/3(2);
 2/9=110,15=1/2;
 99//99;
 2/9=110,15=1/2;
 3/5=43,7=101,11=9,25=1,30=1,70=32205,71=1,72=4/1,2,3;
 4/5=5,16=3,69=1/1;
 5/5=2,38=5,53=4/2;
 8/6=4,9=120000,10=1/1,4;
 9/5=7,15=1/13;
 11/28=-8,29=200,31=1,42=3/11;
 10/5=6,31=1/2;
 7/12=7,30=1/1,2,3,16;
 1/18=20,19=15,26=6/3(-9);
 2/9=110,15=1/2;
 6/7=2,8=2,9=2,10=2,79=1/1;
 99/9=10/99;
 --------------
 Title: H_anion
 --------------
 Symbolic Z-matrix:
 Charge = -1 Multiplicity = 1
 H                     0.        0.        0. 
 

 GradGradGradGradGradGradGradGradGradGradGradGradGradGradGradGradGradGrad
 Berny optimization.
 Initialization pass.
 No Z-matrix variables, so optimization will use Cartesian coordinates.
 Trust Radius=3.00D-01 FncErr=5.00D-06 GrdErr=5.00D-06 EigMax=2.50D+02 EigMin=1.00D-04
 Number of steps in this run=     20 maximum allowed number of steps=    100.
 GradGradGradGradGradGradGradGradGradGradGradGradGradGradGradGradGradGrad

                          Input orientation:                          
 ---------------------------------------------------------------------
 Center     Atomic      Atomic             Coordinates (Angstroms)
 Number     Number       Type             X           Y           Z
 ---------------------------------------------------------------------
      1          1           0        0.000000    0.000000    0.000000
 ---------------------------------------------------------------------
 Symmetry turned off by external request.
 Stoichiometry    H(1-)
 Framework group  OH[O(H)]
 Deg. of freedom     0
 Full point group                 OH      NOp  48
 Standard basis: def2SVP (5D, 7F)
     5 basis functions,     7 primitive gaussians,     5 cartesian basis functions
     1 alpha electrons        1 beta electrons
       nuclear repulsion energy         0.0000000000 Hartrees.
 NAtoms=    1 NActive=    1 NUniq=    1 SFac= 1.00D+00 NAtFMM=   60 NAOKFM=F Big=F
 Integral buffers will be    131072 words long.
 Raffenetti 1 integral format.
 Two-electron integral symmetry is turned off.
 ------------------------------------------------------------------------------
 Polarizable Continuum Model (PCM)
 =================================
 Model                : PCM.
 Atomic radii         : SMD-Coulomb.
 Polarization charges : Total charges.
 Charge compensation  : None.
 Solution method      : On-the-fly selection.
 Cavity type          : VdW (van der Waals Surface) (Alpha=1.000).
 Cavity algorithm     : GePol (No added spheres)
                        Default sphere list used, NSphG=    1.
                        Lebedev-Laikov grids with approx.  5.0 points / Ang**2.
                        Smoothing algorithm: York/Karplus (Gamma=1.0000).
                        Polarization charges: spherical gaussians, with
                                              point-specific exponents (IZeta= 3).
                        Self-potential: point-specific (ISelfS= 7).
                        Self-field    : sphere-specific E.n sum rule (ISelfD= 2).
 1st derivatives      : Analytical E(r).r(x)/FMM algorithm (CHGder, D1EAlg=3).
                        Cavity 1st derivative terms included.
 Solvent              : Ethanol, Eps=  24.852000 Eps(inf)=   1.852593
 ------------------------------------------------------------------------------
 Spheres list:
 ISph  on   Nord     Re0    Alpha      Xe            Ye            Ze
    1   H      1    1.2000  1.000      0.000000      0.000000      0.000000
 ------------------------------------------------------------------------------
 ------------------------------------------------------------------------------
 Atomic radii for non-electrostatic terms: SMD-CDS.
 ------------------------------------------------------------------------------
 Nuclear repulsion after PCM non-electrostatic terms =        0.0005673610 Hartrees.
 One-electron integrals computed using PRISM.
   1 Symmetry operations used in ECPInt.
 ECPInt:  NShTT=       6 NPrTT=      18 LenC2=       7 LenP2D=      18.
 LDataN:  DoStor=T MaxTD1= 2 Len=   12
 NBasis=     5 RedAO= T EigKep=  3.15D-01  NBF=     5
 NBsUse=     5 1.00D-06 EigRej= -1.00D+00 NBFU=     5
 ExpMin= 1.22D-01 ExpMax= 1.30D+01 ExpMxC= 1.30D+01 IAcc=3 IRadAn=         5 AccDes= 0.00D+00
 Harris functional with IExCor=  205 and IRadAn=       5 diagonalized for initial guess.
 HarFok:  IExCor=  205 AccDes= 0.00D+00 IRadAn=         5 IDoV= 1 UseB2=F ITyADJ=14
 ICtDFT=  3500011 ScaDFX=  1.000000  1.000000  1.000000  1.000000
 FoFCou: FMM=F IPFlag=           0 FMFlag=      100000 FMFlg1=           0
         NFxFlg=           0 DoJE=T BraDBF=F KetDBF=T FulRan=T
         wScrn=  0.000000 ICntrl=       500 IOpCl=  0 I1Cent=   200000004 NGrid=           0
         NMat0=    1 NMatS0=      1 NMatT0=    0 NMatD0=    1 NMtDS0=    0 NMtDT0=    0
 Symmetry not used in FoFCou.
 Keep R1 ints in memory in canonical form, NReq=6401908.
 Requested convergence on RMS density matrix=1.00D-08 within 128 cycles.
 Requested convergence on MAX density matrix=1.00D-06.
 Requested convergence on             energy=1.00D-06.
 No special actions if energy rises.
 Inv3:  Mode=1 IEnd=       36300.
 Iteration    1 A*A^-1 deviation from unit magnitude is 2.00D-15 for     20.
 Iteration    1 A*A^-1 deviation from orthogonality  is 6.47D-16 for     97     13.
 Iteration    1 A^-1*A deviation from unit magnitude is 2.00D-15 for     19.
 Iteration    1 A^-1*A deviation from orthogonality  is 6.12D-16 for    105     68.
 Error on total polarization charges =  0.12079
 SCF Done:  E(RHF) = -0.607571827361     A.U. after    5 cycles
            NFock=  5  Conv=0.90D-12     -V/T= 1.9172
 SMD-CDS (non-electrostatic) energy       (kcal/mol) =       0.36
 (included in total energy above)
 Range of M.O.s used for correlation:     1     5
 NBasis=     5 NAE=     1 NBE=     1 NFC=     0 NFV=     0
 NROrb=      5 NOA=     1 NOB=     1 NVA=     4 NVB=     4
 Semi-Direct transformation.
 ModeAB=           2 MOrb=             1 LenV=    8052945730
 LASXX=           40 LTotXX=          40 LenRXX=          40
 LTotAB=          71 MaxLAS=          75 LenRXY=          75
 NonZer=          90 LenScr=      785920 LnRSAI=           0
 LnScr1=           0 LExtra=           0 Total=       786035
 MaxDsk=          -1 SrtSym=           F ITran=            4
 JobTyp=0 Pass  1:  I=   1 to   1.
 (rs|ai) integrals will be sorted in core.
 Spin components of T(2) and E(2):
     alpha-alpha T2 =       0.0000000000D+00 E2=      0.0000000000D+00
     alpha-beta  T2 =       0.5665513630D-02 E2=     -0.1631976141D-01
     beta-beta   T2 =       0.0000000000D+00 E2=      0.0000000000D+00
 ANorm=    0.1002828756D+01
 E2 =    -0.1631976141D-01 EUMP2 =    -0.62389158877125D+00
 Keep R2 and R3 ints in memory in canonical form, NReq=6404383.
 CIDS: In Core Option IDoMem=           1.
 Iterations=  50 Convergence= 0.100D-07
 Produce multiple copies of IABC intergrals
 Iteration Nr.   1
 **********************
 DD1Dir will call FoFMem   1 times, MxPair=         2
 NAB=     1 NAA=     0 NBB=     0.
 MP4(R+Q)=  0.92459831D-04
 E3=       -0.36549392D-02        EUMP3=      -0.62754652793D+00
 E4(DQ)=   -0.82311610D-03        UMP4(DQ)=   -0.62836964404D+00
 E4(SDQ)=  -0.95127183D-03        UMP4(SDQ)=  -0.62849779977D+00
 DE(Corr)= -0.19874557E-01 E(Corr)=    -0.62744638431    
 NORM(A)=   0.10049824D+01
 Iteration Nr.   2
 **********************
 DD1Dir will call FoFMem   1 times, MxPair=         2
 NAB=     1 NAA=     0 NBB=     0.
 DE(Corr)= -0.21118524E-01 E(CORR)=    -0.62869035140     Delta=-1.24D-03
 NORM(A)=   0.10053604D+01
 Iteration Nr.   3
 **********************
 DD1Dir will call FoFMem   1 times, MxPair=         2
 NAB=     1 NAA=     0 NBB=     0.
 DE(Corr)= -0.21302347E-01 E(CORR)=    -0.62887417479     Delta=-1.84D-04
 NORM(A)=   0.10053704D+01
 Iteration Nr.   4
 **********************
 DD1Dir will call FoFMem   1 times, MxPair=         2
 NAB=     1 NAA=     0 NBB=     0.
 DE(Corr)= -0.21305613E-01 E(CORR)=    -0.62887744076     Delta=-3.27D-06
 NORM(A)=   0.10053676D+01
 Iteration Nr.   5
 **********************
 DD1Dir will call FoFMem   1 times, MxPair=         2
 NAB=     1 NAA=     0 NBB=     0.
 DE(Corr)= -0.21304403E-01 E(CORR)=    -0.62887622987     Delta= 1.21D-06
 NORM(A)=   0.10053683D+01
 Iteration Nr.   6
 **********************
 DD1Dir will call FoFMem   1 times, MxPair=         2
 NAB=     1 NAA=     0 NBB=     0.
 DE(Corr)= -0.21304730E-01 E(CORR)=    -0.62887655695     Delta=-3.27D-07
 NORM(A)=   0.10053684D+01
 Iteration Nr.   7
 **********************
 DD1Dir will call FoFMem   1 times, MxPair=         2
 NAB=     1 NAA=     0 NBB=     0.
 DE(Corr)= -0.21304754E-01 E(CORR)=    -0.62887658178     Delta=-2.48D-08
 NORM(A)=   0.10053683D+01
 Iteration Nr.   8
 **********************
 DD1Dir will call FoFMem   1 times, MxPair=         2
 NAB=     1 NAA=     0 NBB=     0.
 DE(Corr)= -0.21304738E-01 E(CORR)=    -0.62887656514     Delta= 1.66D-08
 NORM(A)=   0.10053683D+01
 Iteration Nr.   9
 **********************
 DD1Dir will call FoFMem   1 times, MxPair=         2
 NAB=     1 NAA=     0 NBB=     0.
 DE(Corr)= -0.21304736E-01 E(CORR)=    -0.62887656328     Delta= 1.85D-09
 NORM(A)=   0.10053683D+01
 Wavefunction amplitudes converged. E(Corr)=    -0.62887656328    
 Largest amplitude= 8.69D-02

 Z-amplitude iterations

 Iteration Nr.   1
 **********************
 DD1Dir will call FoFMem   1 times, MxPair=         2
 NAB=     1 NAA=     0 NBB=     0.
 DE(Z)= -0.21135156E-01 E(Z)=    -0.62870698317     Delta= 1.70D-04
 NORM(A)=   0.10053667D+01
 Iteration Nr.   2
 **********************
 DD1Dir will call FoFMem   1 times, MxPair=         2
 NAB=     1 NAA=     0 NBB=     0.
 DE(Z)= -0.21134380E-01 E(Z)=    -0.62870620777     Delta= 7.75D-07
 NORM(A)=   0.10053657D+01
 Iteration Nr.   3
 **********************
 DD1Dir will call FoFMem   1 times, MxPair=         2
 NAB=     1 NAA=     0 NBB=     0.
 DE(Z)= -0.21133886E-01 E(Z)=    -0.62870571356     Delta= 4.94D-07
 NORM(A)=   0.10053701D+01
 Iteration Nr.   4
 **********************
 DD1Dir will call FoFMem   1 times, MxPair=         2
 NAB=     1 NAA=     0 NBB=     0.
 DE(Z)= -0.21135995E-01 E(Z)=    -0.62870782280     Delta=-2.11D-06
 NORM(A)=   0.10053696D+01
 Iteration Nr.   5
 **********************
 DD1Dir will call FoFMem   1 times, MxPair=         2
 NAB=     1 NAA=     0 NBB=     0.
 DE(Z)= -0.21135778E-01 E(Z)=    -0.62870760574     Delta= 2.17D-07
 NORM(A)=   0.10052155D+01
 Iteration Nr.   6
 **********************
 DD1Dir will call FoFMem   1 times, MxPair=         2
 NAB=     1 NAA=     0 NBB=     0.
 DE(Z)= -0.21061646E-01 E(Z)=    -0.62863347322     Delta= 7.41D-05
 NORM(A)=   0.10052154D+01
 Iteration Nr.   7
 **********************
 DD1Dir will call FoFMem   1 times, MxPair=         2
 NAB=     1 NAA=     0 NBB=     0.
 DE(Z)= -0.21061608E-01 E(Z)=    -0.62863343584     Delta= 3.74D-08
 NORM(A)=   0.10052154D+01
 Iteration Nr.   8
 **********************
 DD1Dir will call FoFMem   1 times, MxPair=         2
 NAB=     1 NAA=     0 NBB=     0.
 DE(Z)= -0.21061609E-01 E(Z)=    -0.62863343646     Delta=-6.19D-10
 NORM(A)=   0.10052154D+01
 Z-amplitudes converged.
 Discarding MO integrals.
          IDoAtm=1
 NEqPCM:  Using equilibrium solvation (IEInf=0, Eps=  24.8520, EpsInf=   1.8526)
          Differentiating once with respect to electric field.
                with respect to dipole field.
          Differentiating once with respect to nuclear coordinates.
 Keep R1 ints in memory in canonical form, NReq=6402212.
          There are     1 degrees of freedom in the 1st order CPHF.  IDoFFX=0 NUNeed=     1.
 LinEq1:  Iter=  0 NonCon=     1 RMS=2.00D-02 Max=4.00D-02 NDo=     1
 AX will form     1 AO Fock derivatives at one time.
 LinEq1:  Iter=  1 NonCon=     0 RMS=8.07D-19 Max=1.23D-18 NDo=     1
 Linear equations converged to 1.000D-10 1.000D-09 after     1 iterations.
 End of Minotr F.D. properties file   721 does not exist.
 End of Minotr F.D. properties file   722 does not exist.
 End of Minotr F.D. properties file   788 does not exist.

 **********************************************************************

            Population analysis using the SCF Density.

 **********************************************************************

 Alpha  occ. eigenvalues --   -0.31305
 Alpha virt. eigenvalues --    0.74883   1.78412   1.78412   1.78412
          Condensed to atoms (all electrons):
               1
     1  H    2.000000
 Mulliken charges:
               1
     1  H   -1.000000
 Sum of Mulliken charges =  -1.00000
 Mulliken charges with hydrogens summed into heavy atoms:
               1
 Electronic spatial extent (au):  <R**2>=              8.2805
 Charge=             -1.0000 electrons
 Dipole moment (field-independent basis, Debye):
    X=              0.0000    Y=             -0.0000    Z=              0.0000  Tot=              0.0000
 Quadrupole moment (field-independent basis, Debye-Ang):
   XX=             -3.7125   YY=             -3.7125   ZZ=             -3.7125
   XY=              0.0000   XZ=             -0.0000   YZ=              0.0000
 Traceless Quadrupole moment (field-independent basis, Debye-Ang):
   XX=              0.0000   YY=              0.0000   ZZ=              0.0000
   XY=              0.0000   XZ=             -0.0000   YZ=              0.0000
 Octapole moment (field-independent basis, Debye-Ang**2):
  XXX=              0.0000  YYY=             -0.0000  ZZZ=              0.0000  XYY=              0.0000
  XXY=             -0.0000  XXZ=              0.0000  XZZ=              0.0000  YZZ=             -0.0000
  YYZ=              0.0000  XYZ=              0.0000
 Hexadecapole moment (field-independent basis, Debye-Ang**3):
 XXXX=             -5.4032 YYYY=             -5.4032 ZZZZ=             -5.4032 XXXY=              0.0000
 XXXZ=             -0.0000 YYYX=              0.0000 YYYZ=              0.0000 ZZZX=             -0.0000
 ZZZY=              0.0000 XXYY=             -1.8011 XXZZ=             -1.8011 YYZZ=             -1.8011
 XXYZ=              0.0000 YYXZ=             -0.0000 ZZXY=              0.0000
 N-N= 5.673609642280D-04 E-N=-1.622559250516D+00  KE= 6.624001835072D-01
 There are a total of       21654 grid points.
 ElSum from          density=        1.9999999999
 ElSum from atomic densities=        1.0000000000

 Hirshfeld populations at iteration   1 (CX, CA, CB, DipXYZ):
               1          2          3          4          5          6
     1  H    0.000000   1.000000   1.000000   0.000000   0.000000   0.000000
       Tot   0.000000   1.000000   1.000000   0.000000   0.000000   0.000000

 Dip from Atomic Chgs              0.000000   0.000000   0.000000
         Total Dipole              0.000000   0.000000   0.000000

 Hirshfeld charges, spin densities, dipoles, and CM5 charges using IRadAn=      5:
              Q-H        S-H        Dx         Dy         Dz        Q-CM5   
     1  H   -1.000000   0.000000   0.000000   0.000000   0.000000  -1.000000
       Tot  -1.000000   0.000000   0.000000   0.000000   0.000000  -1.000000
 Hirshfeld charges with hydrogens summed into heavy atoms:
              Q-H       Q-CM5   
 
 EQQ=  0.00000000000     EQD=  0.00000000000     EDD=  0.00000000000    
 EQQ+QD+DD=  0.00000000000    
 
   1 Symmetry operations used in ECPInt.
 ECPInt:  NShTT=       6 NPrTT=      18 LenC2=       7 LenP2D=      18.
 LDataN:  DoStor=T MaxTD1= 3 Len=   28
 D1PCM: PCM CHGder 1st derivatives, ID1Alg=3 FixD1E=F DoIter=F DoCFld=F I1PDM=7.
 Calling FoFJK, ICntrl=  10002127 FMM=F ISym2X=0 I1Cent= 0 IOpClX= 0 NMat=1 NMatS=1 NMatT=0.
 -------------------------------------------------------------------
 Center     Atomic                   Forces (Hartrees/Bohr)
 Number     Number              X              Y              Z
 -------------------------------------------------------------------
      1        1           0.000000000   -0.000000000    0.000000000
 -------------------------------------------------------------------
 Cartesian Forces:  Max     0.000000000 RMS     0.000000000

 GradGradGradGradGradGradGradGradGradGradGradGradGradGradGradGradGradGrad
 Berny optimization.
 Search for a local minimum.
 Step number   1 out of a maximum of   20
 All quantities printed in internal units (Hartrees-Bohrs-Radians)
 Mixed Optimization -- En-DIIS/RFO-DIIS
 Second derivative matrix not updated -- first step.
 The second derivative matrix:
                          X1        Y1        Z1
           X1           0.00000
           Y1           0.00000   0.00000
           Z1           0.00000   0.00000   0.00000
 ITU=  0
     Eigenvalues --- 
 RFO step:  Lambda=-5.96046448D-09 EMin= 0.00000000D+00
 Linear search not attempted -- first point.
 B after Tr=     0.000000    0.000000    0.000000
         Rot=    1.000000    0.000000    0.000000    0.000000 Ang=   0.00 deg.
 Variable       Old X    -DE/DX   Delta X   Delta X   Delta X     New X
                                 (Linear)    (Quad)   (Total)
    X1        0.00000   0.00000   0.00000   0.00000   0.00000   0.00000
    Y1        0.00000  -0.00000   0.00000   0.00000   0.00000   0.00000
    Z1        0.00000   0.00000   0.00000   0.00000   0.00000   0.00000
         Item               Value     Threshold  Converged?
 Maximum Force            0.000000     0.000450     YES
 RMS     Force            0.000000     0.000300     YES
 Maximum Displacement     0.000000     0.001800     YES
 RMS     Displacement     0.000000     0.001200     YES
 Predicted change in Energy=-0.000000D+00
 Optimization completed.
    -- Stationary point found.
 GradGradGradGradGradGradGradGradGradGradGradGradGradGradGradGradGradGrad

                          Input orientation:                          
 ---------------------------------------------------------------------
 Center     Atomic      Atomic             Coordinates (Angstroms)
 Number     Number       Type             X           Y           Z
 ---------------------------------------------------------------------
      1          1           0        0.000000    0.000000    0.000000
 ---------------------------------------------------------------------
 Symmetry turned off by external request.
 Stoichiometry    H(1-)
 Framework group  OH[O(H)]
 Deg. of freedom     0
 Full point group                 OH      NOp  48
 Unable to Open any file for archive entry.
 1\1\GINC-TMJ\FOpt\RCCSD-FC\def2SVP\H1(1-)\TMJ\23-Mar-2024\0\\# ccsd de
 f2svp Opt freq NoSymm scrf(SMD,solvent=ethanol) pop=Hirshfeld\\Title: 
 H_anion\\-1,1\H,0.,0.,0.\\Version=ES64L-G16RevC.01\HF=-0.6075718\MP2=-
 0.6238916\MP3=-0.6275465\MP4D=-0.6284621\MP4DQ=-0.6283696\MP4SDQ=-0.62
 84978\CCSD=-0.6288766\RMSD=9.025e-13\RMSF=5.144e-18\Dipole=0.,0.,0.\PG
 =OH [O(H1)]\\@
 The archive entry for this job was punched.


 IF YOU WANT TO LEARN FROM THE THEORETICAL PHYSICISTS ABOUT THE
 METHODS WHICH THEY USE, I ADVISE YOU TO FOLLOW THIS PRINCIPLE VERY STRICTLY:
 DON'T LISTEN TO THEIR WORDS; PAY ATTENTION, INSTEAD, TO THEIR ACTIONS.
 -- A.EINSTEIN, 1934
 Job cpu time:       0 days  0 hours  5 minutes 18.4 seconds.
 Elapsed time:       0 days  0 hours  0 minutes 11.7 seconds.
 File lengths (MBytes):  RWF=     13 Int=      0 D2E=      0 Chk=      1 Scr=      1
 Normal termination of Gaussian 16 at Sat Mar 23 22:37:02 2024.
 Link1:  Proceeding to internal job step number  2.
 ----------------------------------------------------------------------
 #N Geom=AllCheck Guess=TCheck SCRF=Check GenChk RCCSD(FC)/def2SVP Freq
 ----------------------------------------------------------------------
 1/10=4,29=7,30=1,38=11,40=1/1,6,3;
 2/12=2,15=1,40=1/2;
 3/5=43,7=101,11=1,14=-4,25=1,30=1,70=2,71=1,116=1/1,2,3;
 4/5=101,69=2/1;
 5/5=2,38=6,98=1/2;
 8/6=4,9=120000,10=1/1,4;
 9/5=7,15=1/13;
 11/28=-8,29=200,31=1,42=3/11;
 10/5=6,31=1/2;
 6/7=2,8=2,9=2,10=2,22=-1,79=1/1;
 7/12=7,30=1/1,2,3,16;
 1/38=10/6(3);
 7/8=1,25=1,30=1,44=-1/16;
 1/10=4,30=1,38=10/3;
 99//99;
 3/5=43,7=101,11=1,14=-2,25=1,30=1,70=5,71=1,116=1/1,2,3;
 4/5=5,16=3,69=2/1;
 5/5=2,38=5,98=1/2;
 8/6=4,9=120000,10=1/1,4;
 9/5=7,15=1/13;
 11/28=-8,29=200,31=1,42=3/11;
 10/5=6,31=1/2;
 6/7=2,8=2,9=2,10=2,22=-1,79=1/1;
 7/7=1,12=7,30=1/1,2,3,16;
 1/38=10/6(-9);
 7/8=1,25=1,30=1,44=-1/16;
 1/10=4,30=1,38=10/3;
 99//99;
 Structure from the checkpoint file:  "H_anion_ccsd.chk"
 --------------
 Title: H_anion
 --------------
 Charge = -1 Multiplicity = 1
 No Z-Matrix found in chk file; cartesian coordinates used.
  H                                                 0.000000000000      0.000000000000      0.000000000000
 Recover connectivity data from disk.
 Numerical evaluation of force-constants.
 Nuclear step= 0.001000 Angstroms, electric field step= 0.000333 atomic units, NStep=1.

 GradGradGradGradGradGradGradGradGradGradGradGradGradGradGradGradGradGrad
 Berny optimization.
 Initialization pass.
 Trust Radius=3.00D-01 FncErr=1.00D-07 GrdErr=1.00D-07 EigMax=2.50D+02 EigMin=1.00D-04
 Number of steps in this run=      2 maximum allowed number of steps=      2.
 GradGradGradGradGradGradGradGradGradGradGradGradGradGradGradGradGradGrad

                          Input orientation:                          
 ---------------------------------------------------------------------
 Center     Atomic      Atomic             Coordinates (Angstroms)
 Number     Number       Type             X           Y           Z
 ---------------------------------------------------------------------
      1          1           0        0.000000    0.000000    0.000000
 ---------------------------------------------------------------------
 Symmetry turned off by external request.
 Stoichiometry    H(1-)
 Framework group  OH[O(H)]
 Deg. of freedom     0
 Full point group                 OH      NOp  48
 Standard basis: def2SVP (5D, 7F)
     5 basis functions,     7 primitive gaussians,     5 cartesian basis functions
     1 alpha electrons        1 beta electrons
       nuclear repulsion energy         0.0000000000 Hartrees.
 NAtoms=    1 NActive=    1 NUniq=    1 SFac= 1.00D+00 NAtFMM=   60 NAOKFM=F Big=F
 Integral buffers will be    131072 words long.
 Raffenetti 1 integral format.
 Two-electron integral symmetry is turned off.
 ------------------------------------------------------------------------------
 Polarizable Continuum Model (PCM)
 =================================
 Model                : PCM.
 Atomic radii         : SMD-Coulomb.
 Polarization charges : Total charges.
 Charge compensation  : None.
 Solution method      : On-the-fly selection.
 Cavity type          : VdW (van der Waals Surface) (Alpha=1.000).
 Cavity algorithm     : GePol (No added spheres)
                        Default sphere list used, NSphG=    1.
                        Lebedev-Laikov grids with approx.  5.0 points / Ang**2.
                        Smoothing algorithm: York/Karplus (Gamma=1.0000).
                        Polarization charges: spherical gaussians, with
                                              point-specific exponents (IZeta= 3).
                        Self-potential: point-specific (ISelfS= 7).
                        Self-field    : sphere-specific E.n sum rule (ISelfD= 2).
 1st derivatives      : Analytical E(r).r(x)/FMM algorithm (CHGder, D1EAlg=3).
                        Cavity 1st derivative terms included.
 Solvent              : Ethanol, Eps=  24.852000 Eps(inf)=   1.852593
 ------------------------------------------------------------------------------
 Spheres list:
 ISph  on   Nord     Re0    Alpha      Xe            Ye            Ze
    1   H      1    1.2000  1.000      0.000000      0.000000      0.000000
 ------------------------------------------------------------------------------
 ------------------------------------------------------------------------------
 Atomic radii for non-electrostatic terms: SMD-CDS.
 ------------------------------------------------------------------------------
 Nuclear repulsion after PCM non-electrostatic terms =        0.0005673610 Hartrees.
 One-electron integrals computed using PRISM.
   1 Symmetry operations used in ECPInt.
 ECPInt:  NShTT=       6 NPrTT=      18 LenC2=       7 LenP2D=      18.
 LDataN:  DoStor=T MaxTD1= 2 Len=   12
 NBasis=     5 RedAO= T EigKep=  3.15D-01  NBF=     5
 NBsUse=     5 1.00D-06 EigRej= -1.00D+00 NBFU=     5
 Initial guess from the checkpoint file:  "H_anion_ccsd.chk"
 B after Tr=     0.000000    0.000000    0.000000
         Rot=    1.000000    0.000000    0.000000    0.000000 Ang=   0.00 deg.
 Keep R1 ints in memory in canonical form, NReq=6401908.
 Requested convergence on RMS density matrix=1.00D-08 within 128 cycles.
 Requested convergence on MAX density matrix=1.00D-06.
 Requested convergence on             energy=1.00D-06.
 No special actions if energy rises.
 Inv3:  Mode=1 IEnd=       36300.
 Iteration    1 A*A^-1 deviation from unit magnitude is 2.00D-15 for     20.
 Iteration    1 A*A^-1 deviation from orthogonality  is 6.47D-16 for     97     13.
 Iteration    1 A^-1*A deviation from unit magnitude is 2.00D-15 for     19.
 Iteration    1 A^-1*A deviation from orthogonality  is 6.12D-16 for    105     68.
 Skip diagonalization as Alpha Fock matrix is already diagonal.
 Error on total polarization charges =  0.12079
 SCF Done:  E(RHF) = -0.607571827361     A.U. after    1 cycles
            NFock=  1  Conv=0.00D+00     -V/T= 1.9172
 SMD-CDS (non-electrostatic) energy       (kcal/mol) =       0.36
 (included in total energy above)
 Range of M.O.s used for correlation:     1     5
 NBasis=     5 NAE=     1 NBE=     1 NFC=     0 NFV=     0
 NROrb=      5 NOA=     1 NOB=     1 NVA=     4 NVB=     4
 Semi-Direct transformation.
 ModeAB=           2 MOrb=             1 LenV=    8052945730
 LASXX=           40 LTotXX=          40 LenRXX=          40
 LTotAB=          71 MaxLAS=          75 LenRXY=          75
 NonZer=          90 LenScr=      785920 LnRSAI=           0
 LnScr1=           0 LExtra=           0 Total=       786035
 MaxDsk=          -1 SrtSym=           F ITran=            4
 JobTyp=0 Pass  1:  I=   1 to   1.
 (rs|ai) integrals will be sorted in core.
 Spin components of T(2) and E(2):
     alpha-alpha T2 =       0.0000000000D+00 E2=      0.0000000000D+00
     alpha-beta  T2 =       0.5665513630D-02 E2=     -0.1631976141D-01
     beta-beta   T2 =       0.0000000000D+00 E2=      0.0000000000D+00
 ANorm=    0.1002828756D+01
 E2 =    -0.1631976141D-01 EUMP2 =    -0.62389158877125D+00
 Keep R2 and R3 ints in memory in canonical form, NReq=6404383.
 CIDS: In Core Option IDoMem=           1.
 Iterations=  50 Convergence= 0.100D-07
 Produce multiple copies of IABC intergrals
 Iteration Nr.   1
 **********************
 DD1Dir will call FoFMem   1 times, MxPair=         2
 NAB=     1 NAA=     0 NBB=     0.
 MP4(R+Q)=  0.92459831D-04
 E3=       -0.36549392D-02        EUMP3=      -0.62754652793D+00
 E4(DQ)=   -0.82311610D-03        UMP4(DQ)=   -0.62836964404D+00
 E4(SDQ)=  -0.95127183D-03        UMP4(SDQ)=  -0.62849779977D+00
 DE(Corr)= -0.19874557E-01 E(Corr)=    -0.62744638431    
 NORM(A)=   0.10049824D+01
 Iteration Nr.   2
 **********************
 DD1Dir will call FoFMem   1 times, MxPair=         2
 NAB=     1 NAA=     0 NBB=     0.
 DE(Corr)= -0.21118524E-01 E(CORR)=    -0.62869035140     Delta=-1.24D-03
 NORM(A)=   0.10053604D+01
 Iteration Nr.   3
 **********************
 DD1Dir will call FoFMem   1 times, MxPair=         2
 NAB=     1 NAA=     0 NBB=     0.
 DE(Corr)= -0.21302347E-01 E(CORR)=    -0.62887417479     Delta=-1.84D-04
 NORM(A)=   0.10053704D+01
 Iteration Nr.   4
 **********************
 DD1Dir will call FoFMem   1 times, MxPair=         2
 NAB=     1 NAA=     0 NBB=     0.
 DE(Corr)= -0.21305613E-01 E(CORR)=    -0.62887744076     Delta=-3.27D-06
 NORM(A)=   0.10053687D+01
 Iteration Nr.   5
 **********************
 DD1Dir will call FoFMem   1 times, MxPair=         2
 NAB=     1 NAA=     0 NBB=     0.
 DE(Corr)= -0.21304883E-01 E(CORR)=    -0.62887671077     Delta= 7.30D-07
 NORM(A)=   0.10053698D+01
 Iteration Nr.   6
 **********************
 DD1Dir will call FoFMem   1 times, MxPair=         2
 NAB=     1 NAA=     0 NBB=     0.
 DE(Corr)= -0.21305376E-01 E(CORR)=    -0.62887720297     Delta=-4.92D-07
 NORM(A)=   0.10053683D+01
 Iteration Nr.   7
 **********************
 DD1Dir will call FoFMem   1 times, MxPair=         2
 NAB=     1 NAA=     0 NBB=     0.
 DE(Corr)= -0.21304725E-01 E(CORR)=    -0.62887655194     Delta= 6.51D-07
 NORM(A)=   0.10053683D+01
 Iteration Nr.   8
 **********************
 DD1Dir will call FoFMem   1 times, MxPair=         2
 NAB=     1 NAA=     0 NBB=     0.
 DE(Corr)= -0.21304739E-01 E(CORR)=    -0.62887656641     Delta=-1.45D-08
 NORM(A)=   0.10053683D+01
 Iteration Nr.   9
 **********************
 DD1Dir will call FoFMem   1 times, MxPair=         2
 NAB=     1 NAA=     0 NBB=     0.
 DE(Corr)= -0.21304736E-01 E(CORR)=    -0.62887656328     Delta= 3.13D-09
 NORM(A)=   0.10053683D+01
 Wavefunction amplitudes converged. E(Corr)=    -0.62887656328    
 Largest amplitude= 8.69D-02

 Z-amplitude iterations

 Iteration Nr.   1
 **********************
 DD1Dir will call FoFMem   1 times, MxPair=         2
 NAB=     1 NAA=     0 NBB=     0.
 DE(Z)= -0.21135156E-01 E(Z)=    -0.62870698317     Delta= 1.70D-04
 NORM(A)=   0.10053689D+01
 Iteration Nr.   2
 **********************
 DD1Dir will call FoFMem   1 times, MxPair=         2
 NAB=     1 NAA=     0 NBB=     0.
 DE(Z)= -0.21135430E-01 E(Z)=    -0.62870725770     Delta=-2.75D-07
 NORM(A)=   0.10053687D+01
 Iteration Nr.   3
 **********************
 DD1Dir will call FoFMem   1 times, MxPair=         2
 NAB=     1 NAA=     0 NBB=     0.
 DE(Z)= -0.21135306E-01 E(Z)=    -0.62870713345     Delta= 1.24D-07
 NORM(A)=   0.10053705D+01
 Iteration Nr.   4
 **********************
 DD1Dir will call FoFMem   1 times, MxPair=         2
 NAB=     1 NAA=     0 NBB=     0.
 DE(Z)= -0.21136165E-01 E(Z)=    -0.62870799209     Delta=-8.59D-07
 NORM(A)=   0.10053668D+01
 Iteration Nr.   5
 **********************
 DD1Dir will call FoFMem   1 times, MxPair=         2
 NAB=     1 NAA=     0 NBB=     0.
 DE(Z)= -0.21134424E-01 E(Z)=    -0.62870625178     Delta= 1.74D-06
 NORM(A)=   0.10052154D+01
 Iteration Nr.   6
 **********************
 DD1Dir will call FoFMem   1 times, MxPair=         2
 NAB=     1 NAA=     0 NBB=     0.
 DE(Z)= -0.21061609E-01 E(Z)=    -0.62863343647     Delta= 7.28D-05
 NORM(A)=   0.10052154D+01
 Iteration Nr.   7
 **********************
 DD1Dir will call FoFMem   1 times, MxPair=         2
 NAB=     1 NAA=     0 NBB=     0.
 DE(Z)= -0.21061609E-01 E(Z)=    -0.62863343616     Delta= 3.10D-10
 NORM(A)=   0.10052154D+01
 Z-amplitudes converged.
 Discarding MO integrals.
          IDoAtm=1
 NEqPCM:  Using equilibrium solvation (IEInf=0, Eps=  24.8520, EpsInf=   1.8526)
          Differentiating once with respect to electric field.
                with respect to dipole field.
          Differentiating once with respect to nuclear coordinates.
 Keep R1 ints in memory in canonical form, NReq=6402212.
          There are     1 degrees of freedom in the 1st order CPHF.  IDoFFX=0 NUNeed=     1.
 LinEq1:  Iter=  0 NonCon=     1 RMS=2.00D-02 Max=4.00D-02 NDo=     1
 AX will form     1 AO Fock derivatives at one time.
 LinEq1:  Iter=  1 NonCon=     0 RMS=2.59D-19 Max=3.93D-19 NDo=     1
 Linear equations converged to 1.000D-10 1.000D-09 after     1 iterations.
 End of Minotr F.D. properties file   721 does not exist.
 End of Minotr F.D. properties file   722 does not exist.
 End of Minotr F.D. properties file   788 does not exist.

 **********************************************************************

            Population analysis using the CC Density.

 **********************************************************************

 Alpha  occ. eigenvalues --   -0.31305
 Alpha virt. eigenvalues --    0.74883   1.78412   1.78412   1.78412
          Condensed to atoms (all electrons):
               1
     1  H    2.000000
 Mulliken charges:
               1
     1  H   -1.000000
 Sum of Mulliken charges =  -1.00000
 Mulliken charges with hydrogens summed into heavy atoms:
               1
 Electronic spatial extent (au):  <R**2>=              8.1183
 Charge=             -1.0000 electrons
 Dipole moment (field-independent basis, Debye):
    X=              0.0000    Y=             -0.0000    Z=              0.0000  Tot=              0.0000
 Quadrupole moment (field-independent basis, Debye-Ang):
   XX=             -3.6398   YY=             -3.6398   ZZ=             -3.6398
   XY=             -0.0000   XZ=             -0.0000   YZ=             -0.0000
 Traceless Quadrupole moment (field-independent basis, Debye-Ang):
   XX=              0.0000   YY=              0.0000   ZZ=              0.0000
   XY=             -0.0000   XZ=             -0.0000   YZ=             -0.0000
 Octapole moment (field-independent basis, Debye-Ang**2):
  XXX=              0.0000  YYY=             -0.0000  ZZZ=              0.0000  XYY=              0.0000
  XXY=             -0.0000  XXZ=              0.0000  XZZ=              0.0000  YZZ=             -0.0000
  YYZ=              0.0000  XYZ=              0.0000
 Hexadecapole moment (field-independent basis, Debye-Ang**3):
 XXXX=             -5.2634 YYYY=             -5.2634 ZZZZ=             -5.2634 XXXY=             -0.0000
 XXXZ=             -0.0000 YYYX=             -0.0000 YYYZ=             -0.0000 ZZZX=             -0.0000
 ZZZY=             -0.0000 XXYY=             -1.7545 XXZZ=             -1.7545 YYZZ=             -1.7545
 XXYZ=             -0.0000 YYXZ=             -0.0000 ZZXY=             -0.0000
 N-N= 5.673609642280D-04 E-N=-1.653564942837D+00  KE= 7.066748279466D-01
 There are a total of       21654 grid points.
 ElSum from          density=        1.9999999999
 ElSum from atomic densities=        1.0000000000

 Hirshfeld populations at iteration   1 (CX, CA, CB, DipXYZ):
               1          2          3          4          5          6
     1  H    0.000000   1.000000   1.000000   0.000000   0.000000   0.000000
       Tot   0.000000   1.000000   1.000000   0.000000   0.000000   0.000000

 Dip from Atomic Chgs              0.000000   0.000000   0.000000
         Total Dipole              0.000000   0.000000   0.000000

 Hirshfeld charges, spin densities, dipoles, and CM5 charges using IRadAn=      5:
              Q-H        S-H        Dx         Dy         Dz        Q-CM5   
     1  H   -1.000000   0.000000   0.000000   0.000000   0.000000  -1.000000
       Tot  -1.000000   0.000000   0.000000   0.000000   0.000000  -1.000000
 Hirshfeld charges with hydrogens summed into heavy atoms:
              Q-H       Q-CM5   
 
 EQQ=  0.00000000000     EQD=  0.00000000000     EDD=  0.00000000000    
 EQQ+QD+DD=  0.00000000000    
 
   1 Symmetry operations used in ECPInt.
 ECPInt:  NShTT=       6 NPrTT=      18 LenC2=       7 LenP2D=      18.
 LDataN:  DoStor=T MaxTD1= 3 Len=   28
 D1PCM: PCM CHGder 1st derivatives, ID1Alg=3 FixD1E=F DoIter=F DoCFld=F I1PDM=7.
 Calling FoFJK, ICntrl=  10002127 FMM=F ISym2X=0 I1Cent= 0 IOpClX= 0 NMat=1 NMatS=1 NMatT=0.
 -------------------------------------------------------------------
 Center     Atomic                   Forces (Hartrees/Bohr)
 Number     Number              X              Y              Z
 -------------------------------------------------------------------
      1        1          -0.000000000   -0.000000000   -0.000000000
 -------------------------------------------------------------------
 Cartesian Forces:  Max     0.000000000 RMS     0.000000000
 NDeriv=      3 NFrqRd=  0 NDerD0=      0 MskFDP=       0 MskDFD=       0 MskDF0=       0
 At 1st pt F.D. properties file   721 does not exist.
 At 1st pt F.D. properties file   722 does not exist.
 D2Numr ... symmetry will not be used.
 Standard basis: def2SVP (5D, 7F)
     5 basis functions,     7 primitive gaussians,     5 cartesian basis functions
     1 alpha electrons        1 beta electrons
       nuclear repulsion energy         0.0000000000 Hartrees.
 NAtoms=    1 NActive=    1 NUniq=    1 SFac= 1.00D+00 NAtFMM=   60 NAOKFM=F Big=F
 Integral buffers will be    131072 words long.
 Raffenetti 1 integral format.
 Two-electron integral symmetry is turned off.
 ------------------------------------------------------------------------------
 Polarizable Continuum Model (PCM)
 =================================
 Model                : PCM.
 Atomic radii         : SMD-Coulomb.
 Polarization charges : Total charges.
 Charge compensation  : None.
 Solution method      : On-the-fly selection.
 Cavity type          : VdW (van der Waals Surface) (Alpha=1.000).
 Cavity algorithm     : GePol (No added spheres)
                        Default sphere list used, NSphG=    1.
                        Lebedev-Laikov grids with approx.  5.0 points / Ang**2.
                        Smoothing algorithm: York/Karplus (Gamma=1.0000).
                        Polarization charges: spherical gaussians, with
                                              point-specific exponents (IZeta= 3).
                        Self-potential: point-specific (ISelfS= 7).
                        Self-field    : sphere-specific E.n sum rule (ISelfD= 2).
 1st derivatives      : Analytical E(r).r(x)/FMM algorithm (CHGder, D1EAlg=3).
                        Cavity 1st derivative terms included.
 Solvent              : Ethanol, Eps=  24.852000 Eps(inf)=   1.852593
 ------------------------------------------------------------------------------
 Spheres list:
 ISph  on   Nord     Re0    Alpha      Xe            Ye            Ze
    1   H      1    1.2000  1.000      0.001000      0.000000      0.000000
 ------------------------------------------------------------------------------
 ------------------------------------------------------------------------------
 Atomic radii for non-electrostatic terms: SMD-CDS.
 ------------------------------------------------------------------------------
 Nuclear repulsion after PCM non-electrostatic terms =        0.0005673610 Hartrees.
 One-electron integrals computed using PRISM.
   1 Symmetry operations used in ECPInt.
 ECPInt:  NShTT=       6 NPrTT=      18 LenC2=       7 LenP2D=      18.
 LDataN:  DoStor=T MaxTD1= 2 Len=   12
 NBasis=     5 RedAO= T EigKep=  3.15D-01  NBF=     5
 NBsUse=     5 1.00D-06 EigRej= -1.00D+00 NBFU=     5
 Initial guess from the checkpoint file:  "H_anion_ccsd.chk"
 B after Tr=     0.001890    0.000000    0.000000
         Rot=    1.000000    0.000000    0.000000    0.000000 Ang=   0.00 deg.
 Keep R1 ints in memory in canonical form, NReq=6401908.
 Requested convergence on RMS density matrix=1.00D-08 within 128 cycles.
 Requested convergence on MAX density matrix=1.00D-06.
 Requested convergence on             energy=1.00D-06.
 No special actions if energy rises.
 Inv3:  Mode=1 IEnd=       36300.
 Iteration    1 A*A^-1 deviation from unit magnitude is 2.22D-15 for     19.
 Iteration    1 A*A^-1 deviation from orthogonality  is 7.42D-16 for     23      3.
 Iteration    1 A^-1*A deviation from unit magnitude is 2.22D-15 for     17.
 Iteration    1 A^-1*A deviation from orthogonality  is 6.73D-16 for    107     71.
 Skip diagonalization as Alpha Fock matrix is already diagonal.
 Error on total polarization charges =  0.12079
 SCF Done:  E(RHF) = -0.607571827361     A.U. after    1 cycles
            NFock=  1  Conv=0.00D+00     -V/T= 1.9172
 SMD-CDS (non-electrostatic) energy       (kcal/mol) =       0.36
 (included in total energy above)
 Range of M.O.s used for correlation:     1     5
 NBasis=     5 NAE=     1 NBE=     1 NFC=     0 NFV=     0
 NROrb=      5 NOA=     1 NOB=     1 NVA=     4 NVB=     4
 Semi-Direct transformation.
 ModeAB=           2 MOrb=             1 LenV=    8052945730
 LASXX=           40 LTotXX=          40 LenRXX=          40
 LTotAB=          71 MaxLAS=          75 LenRXY=          75
 NonZer=          90 LenScr=      785920 LnRSAI=           0
 LnScr1=           0 LExtra=           0 Total=       786035
 MaxDsk=          -1 SrtSym=           F ITran=            4
 JobTyp=0 Pass  1:  I=   1 to   1.
 (rs|ai) integrals will be sorted in core.
 Spin components of T(2) and E(2):
     alpha-alpha T2 =       0.0000000000D+00 E2=      0.0000000000D+00
     alpha-beta  T2 =       0.5665513630D-02 E2=     -0.1631976141D-01
     beta-beta   T2 =       0.0000000000D+00 E2=      0.0000000000D+00
 ANorm=    0.1002828756D+01
 E2 =    -0.1631976141D-01 EUMP2 =    -0.62389158877125D+00
 Keep R2 and R3 ints in memory in canonical form, NReq=6404383.
 CIDS: In Core Option IDoMem=           1.
 Iterations=  50 Convergence= 0.100D-07
 Produce multiple copies of IABC intergrals
 Iteration Nr.   1
 **********************
 DD1Dir will call FoFMem   1 times, MxPair=         2
 NAB=     1 NAA=     0 NBB=     0.
 MP4(R+Q)=  0.92459831D-04
 E3=       -0.36549392D-02        EUMP3=      -0.62754652793D+00
 E4(DQ)=   -0.82311610D-03        UMP4(DQ)=   -0.62836964404D+00
 E4(SDQ)=  -0.95127183D-03        UMP4(SDQ)=  -0.62849779977D+00
 DE(Corr)= -0.19874557E-01 E(Corr)=    -0.62744638431    
 NORM(A)=   0.10049824D+01
 Iteration Nr.   2
 **********************
 DD1Dir will call FoFMem   1 times, MxPair=         2
 NAB=     1 NAA=     0 NBB=     0.
 DE(Corr)= -0.21118524E-01 E(CORR)=    -0.62869035140     Delta=-1.24D-03
 NORM(A)=   0.10053604D+01
 Iteration Nr.   3
 **********************
 DD1Dir will call FoFMem   1 times, MxPair=         2
 NAB=     1 NAA=     0 NBB=     0.
 DE(Corr)= -0.21302347E-01 E(CORR)=    -0.62887417479     Delta=-1.84D-04
 NORM(A)=   0.10053704D+01
 Iteration Nr.   4
 **********************
 DD1Dir will call FoFMem   1 times, MxPair=         2
 NAB=     1 NAA=     0 NBB=     0.
 DE(Corr)= -0.21305613E-01 E(CORR)=    -0.62887744076     Delta=-3.27D-06
 NORM(A)=   0.10053726D+01
 Iteration Nr.   5
 **********************
 DD1Dir will call FoFMem   1 times, MxPair=         2
 NAB=     1 NAA=     0 NBB=     0.
 DE(Corr)= -0.21306569E-01 E(CORR)=    -0.62887839676     Delta=-9.56D-07
 NORM(A)=   0.10053691D+01
 Iteration Nr.   6
 **********************
 DD1Dir will call FoFMem   1 times, MxPair=         2
 NAB=     1 NAA=     0 NBB=     0.
 DE(Corr)= -0.21305054E-01 E(CORR)=    -0.62887688129     Delta= 1.52D-06
 NORM(A)=   0.10053683D+01
 Iteration Nr.   7
 **********************
 DD1Dir will call FoFMem   1 times, MxPair=         2
 NAB=     1 NAA=     0 NBB=     0.
 DE(Corr)= -0.21304728E-01 E(CORR)=    -0.62887655545     Delta= 3.26D-07
 NORM(A)=   0.10053683D+01
 Iteration Nr.   8
 **********************
 DD1Dir will call FoFMem   1 times, MxPair=         2
 NAB=     1 NAA=     0 NBB=     0.
 DE(Corr)= -0.21304738E-01 E(CORR)=    -0.62887656536     Delta=-9.91D-09
 NORM(A)=   0.10053683D+01
 Wavefunction amplitudes converged. E(Corr)=    -0.62887656536    
 Largest amplitude= 8.69D-02

 Z-amplitude iterations

 Iteration Nr.   1
 **********************
 DD1Dir will call FoFMem   1 times, MxPair=         2
 NAB=     1 NAA=     0 NBB=     0.
 DE(Z)= -0.21135156E-01 E(Z)=    -0.62870698379     Delta= 1.70D-04
 NORM(A)=   0.10053683D+01
 Iteration Nr.   2
 **********************
 DD1Dir will call FoFMem   1 times, MxPair=         2
 NAB=     1 NAA=     0 NBB=     0.
 DE(Z)= -0.21135157E-01 E(Z)=    -0.62870698485     Delta=-1.06D-09
 NORM(A)=   0.10053683D+01
 Iteration Nr.   3
 **********************
 DD1Dir will call FoFMem   1 times, MxPair=         2
 NAB=     1 NAA=     0 NBB=     0.
 DE(Z)= -0.21135163E-01 E(Z)=    -0.62870699069     Delta=-5.84D-09
 NORM(A)=   0.10053684D+01
 Iteration Nr.   4
 **********************
 DD1Dir will call FoFMem   1 times, MxPair=         2
 NAB=     1 NAA=     0 NBB=     0.
 DE(Z)= -0.21135171E-01 E(Z)=    -0.62870699814     Delta=-7.45D-09
 NORM(A)=   0.10053684D+01
 Iteration Nr.   5
 **********************
 DD1Dir will call FoFMem   1 times, MxPair=         2
 NAB=     1 NAA=     0 NBB=     0.
 DE(Z)= -0.21135165E-01 E(Z)=    -0.62870699271     Delta= 5.43D-09
 NORM(A)=   0.10052154D+01
 Iteration Nr.   6
 **********************
 DD1Dir will call FoFMem   1 times, MxPair=         2
 NAB=     1 NAA=     0 NBB=     0.
 DE(Z)= -0.21061623E-01 E(Z)=    -0.62863345020     Delta= 7.35D-05
 NORM(A)=   0.10052154D+01
 Iteration Nr.   7
 **********************
 DD1Dir will call FoFMem   1 times, MxPair=         2
 NAB=     1 NAA=     0 NBB=     0.
 DE(Z)= -0.21061610E-01 E(Z)=    -0.62863343703     Delta= 1.32D-08
 NORM(A)=   0.10052154D+01
 Iteration Nr.   8
 **********************
 DD1Dir will call FoFMem   1 times, MxPair=         2
 NAB=     1 NAA=     0 NBB=     0.
 DE(Z)= -0.21061609E-01 E(Z)=    -0.62863343617     Delta= 8.61D-10
 NORM(A)=   0.10052154D+01
 Z-amplitudes converged.
 Discarding MO integrals.
          IDoAtm=1
 NEqPCM:  Using equilibrium solvation (IEInf=0, Eps=  24.8520, EpsInf=   1.8526)
          Differentiating once with respect to electric field.
                with respect to dipole field.
          Differentiating once with respect to nuclear coordinates.
 Keep R1 ints in memory in canonical form, NReq=6402212.
          There are     1 degrees of freedom in the 1st order CPHF.  IDoFFX=0 NUNeed=     1.
 LinEq1:  Iter=  0 NonCon=     1 RMS=2.00D-02 Max=4.00D-02 NDo=     1
 AX will form     1 AO Fock derivatives at one time.
 LinEq1:  Iter=  1 NonCon=     0 RMS=6.36D-19 Max=1.07D-18 NDo=     1
 Linear equations converged to 1.000D-10 1.000D-09 after     1 iterations.
 End of Minotr F.D. properties file   721 does not exist.
 End of Minotr F.D. properties file   722 does not exist.
 End of Minotr F.D. properties file   788 does not exist.

 **********************************************************************

            Population analysis using the CC Density.

 **********************************************************************

 Alpha  occ. eigenvalues --   -0.31305
 Alpha virt. eigenvalues --    0.74883   1.78412   1.78412   1.78412
          Condensed to atoms (all electrons):
               1
     1  H    2.000000
 Mulliken charges:
               1
     1  H   -1.000000
 Sum of Mulliken charges =  -1.00000
 Mulliken charges with hydrogens summed into heavy atoms:
               1
 Electronic spatial extent (au):  <R**2>=              8.1183
 Charge=             -1.0000 electrons
 Dipole moment (field-independent basis, Debye):
    X=             -0.0048    Y=             -0.0000    Z=              0.0000  Tot=              0.0048
 Quadrupole moment (field-independent basis, Debye-Ang):
   XX=             -3.6398   YY=             -3.6398   ZZ=             -3.6398
   XY=             -0.0000   XZ=              0.0000   YZ=              0.0000
 Traceless Quadrupole moment (field-independent basis, Debye-Ang):
   XX=             -0.0000   YY=              0.0000   ZZ=              0.0000
   XY=             -0.0000   XZ=              0.0000   YZ=              0.0000
 Octapole moment (field-independent basis, Debye-Ang**2):
  XXX=             -0.0109  YYY=             -0.0000  ZZZ=              0.0000  XYY=             -0.0036
  XXY=             -0.0000  XXZ=              0.0000  XZZ=             -0.0036  YZZ=             -0.0000
  YYZ=              0.0000  XYZ=              0.0000
 Hexadecapole moment (field-independent basis, Debye-Ang**3):
 XXXX=             -5.2634 YYYY=             -5.2634 ZZZZ=             -5.2634 XXXY=             -0.0000
 XXXZ=              0.0000 YYYX=             -0.0000 YYYZ=              0.0000 ZZZX=              0.0000
 ZZZY=              0.0000 XXYY=             -1.7545 XXZZ=             -1.7545 YYZZ=             -1.7545
 XXYZ=              0.0000 YYXZ=              0.0000 ZZXY=             -0.0000
 N-N= 5.673609642280D-04 E-N=-1.653564944429D+00  KE= 7.066748313018D-01
 There are a total of       21654 grid points.
 ElSum from          density=        1.9999999999
 ElSum from atomic densities=        1.0000000000

 Hirshfeld populations at iteration   1 (CX, CA, CB, DipXYZ):
               1          2          3          4          5          6
     1  H    0.000000   1.000000   1.000000   0.000000   0.000000   0.000000
       Tot   0.000000   1.000000   1.000000   0.000000   0.000000   0.000000

 Dip from Atomic Chgs             -0.001890   0.000000   0.000000
         Total Dipole             -0.001890   0.000000   0.000000

 Hirshfeld charges, spin densities, dipoles, and CM5 charges using IRadAn=      5:
              Q-H        S-H        Dx         Dy         Dz        Q-CM5   
     1  H   -1.000000   0.000000   0.000000   0.000000   0.000000  -1.000000
       Tot  -1.000000   0.000000   0.000000   0.000000   0.000000  -1.000000
 Hirshfeld charges with hydrogens summed into heavy atoms:
              Q-H       Q-CM5   
 
 EQQ=  0.00000000000     EQD=  0.00000000000     EDD=  0.00000000000    
 EQQ+QD+DD=  0.00000000000    
 
   1 Symmetry operations used in ECPInt.
 ECPInt:  NShTT=       6 NPrTT=      18 LenC2=       7 LenP2D=      18.
 LDataN:  DoStor=T MaxTD1= 3 Len=   28
 D1PCM: PCM CHGder 1st derivatives, ID1Alg=3 FixD1E=F DoIter=F DoCFld=F I1PDM=7.
 Calling FoFJK, ICntrl=  10002127 FMM=F ISym2X=0 I1Cent= 0 IOpClX= 0 NMat=1 NMatS=1 NMatT=0.
 -------------------------------------------------------------------
 Center     Atomic                   Forces (Hartrees/Bohr)
 Number     Number              X              Y              Z
 -------------------------------------------------------------------
      1        1          -0.000000000    0.000000000   -0.000000000
 -------------------------------------------------------------------
 Cartesian Forces:  Max     0.000000000 RMS     0.000000000
 NDeriv=      3 NFrqRd=  0 NDerD0=      0 MskFDP=       0 MskDFD=       0 MskDF0=       0
 Re-enter D2Numr:  atom      1 IXYZ=1 step-up   number 1
 Standard basis: def2SVP (5D, 7F)
     5 basis functions,     7 primitive gaussians,     5 cartesian basis functions
     1 alpha electrons        1 beta electrons
       nuclear repulsion energy         0.0000000000 Hartrees.
 NAtoms=    1 NActive=    1 NUniq=    1 SFac= 1.00D+00 NAtFMM=   60 NAOKFM=F Big=F
 Integral buffers will be    131072 words long.
 Raffenetti 1 integral format.
 Two-electron integral symmetry is turned off.
 ------------------------------------------------------------------------------
 Polarizable Continuum Model (PCM)
 =================================
 Model                : PCM.
 Atomic radii         : SMD-Coulomb.
 Polarization charges : Total charges.
 Charge compensation  : None.
 Solution method      : On-the-fly selection.
 Cavity type          : VdW (van der Waals Surface) (Alpha=1.000).
 Cavity algorithm     : GePol (No added spheres)
                        Default sphere list used, NSphG=    1.
                        Lebedev-Laikov grids with approx.  5.0 points / Ang**2.
                        Smoothing algorithm: York/Karplus (Gamma=1.0000).
                        Polarization charges: spherical gaussians, with
                                              point-specific exponents (IZeta= 3).
                        Self-potential: point-specific (ISelfS= 7).
                        Self-field    : sphere-specific E.n sum rule (ISelfD= 2).
 1st derivatives      : Analytical E(r).r(x)/FMM algorithm (CHGder, D1EAlg=3).
                        Cavity 1st derivative terms included.
 Solvent              : Ethanol, Eps=  24.852000 Eps(inf)=   1.852593
 ------------------------------------------------------------------------------
 Spheres list:
 ISph  on   Nord     Re0    Alpha      Xe            Ye            Ze
    1   H      1    1.2000  1.000     -0.001000      0.000000      0.000000
 ------------------------------------------------------------------------------
 ------------------------------------------------------------------------------
 Atomic radii for non-electrostatic terms: SMD-CDS.
 ------------------------------------------------------------------------------
 Nuclear repulsion after PCM non-electrostatic terms =        0.0005673610 Hartrees.
 One-electron integrals computed using PRISM.
   1 Symmetry operations used in ECPInt.
 ECPInt:  NShTT=       6 NPrTT=      18 LenC2=       7 LenP2D=      18.
 LDataN:  DoStor=T MaxTD1= 2 Len=   12
 NBasis=     5 RedAO= T EigKep=  3.15D-01  NBF=     5
 NBsUse=     5 1.00D-06 EigRej= -1.00D+00 NBFU=     5
 Initial guess from the checkpoint file:  "H_anion_ccsd.chk"
 B after Tr=    -0.001890    0.000000    0.000000
         Rot=    1.000000    0.000000    0.000000    0.000000 Ang=   0.00 deg.
 Keep R1 ints in memory in canonical form, NReq=6401908.
 Requested convergence on RMS density matrix=1.00D-08 within 128 cycles.
 Requested convergence on MAX density matrix=1.00D-06.
 Requested convergence on             energy=1.00D-06.
 No special actions if energy rises.
 Inv3:  Mode=1 IEnd=       36300.
 Iteration    1 A*A^-1 deviation from unit magnitude is 2.00D-15 for     16.
 Iteration    1 A*A^-1 deviation from orthogonality  is 7.86D-16 for     82     34.
 Iteration    1 A^-1*A deviation from unit magnitude is 2.00D-15 for      9.
 Iteration    1 A^-1*A deviation from orthogonality  is 6.69D-16 for    100      2.
 Skip diagonalization as Alpha Fock matrix is already diagonal.
 Error on total polarization charges =  0.12079
 SCF Done:  E(RHF) = -0.607571827361     A.U. after    1 cycles
            NFock=  1  Conv=0.00D+00     -V/T= 1.9172
 SMD-CDS (non-electrostatic) energy       (kcal/mol) =       0.36
 (included in total energy above)
 Range of M.O.s used for correlation:     1     5
 NBasis=     5 NAE=     1 NBE=     1 NFC=     0 NFV=     0
 NROrb=      5 NOA=     1 NOB=     1 NVA=     4 NVB=     4
 Semi-Direct transformation.
 ModeAB=           2 MOrb=             1 LenV=    8052945730
 LASXX=           40 LTotXX=          40 LenRXX=          40
 LTotAB=          71 MaxLAS=          75 LenRXY=          75
 NonZer=          90 LenScr=      785920 LnRSAI=           0
 LnScr1=           0 LExtra=           0 Total=       786035
 MaxDsk=          -1 SrtSym=           F ITran=            4
 JobTyp=0 Pass  1:  I=   1 to   1.
 (rs|ai) integrals will be sorted in core.
 Spin components of T(2) and E(2):
     alpha-alpha T2 =       0.0000000000D+00 E2=      0.0000000000D+00
     alpha-beta  T2 =       0.5665513630D-02 E2=     -0.1631976141D-01
     beta-beta   T2 =       0.0000000000D+00 E2=      0.0000000000D+00
 ANorm=    0.1002828756D+01
 E2 =    -0.1631976141D-01 EUMP2 =    -0.62389158877125D+00
 Keep R2 and R3 ints in memory in canonical form, NReq=6404383.
 CIDS: In Core Option IDoMem=           1.
 Iterations=  50 Convergence= 0.100D-07
 Produce multiple copies of IABC intergrals
 Iteration Nr.   1
 **********************
 DD1Dir will call FoFMem   1 times, MxPair=         2
 NAB=     1 NAA=     0 NBB=     0.
 MP4(R+Q)=  0.92459831D-04
 E3=       -0.36549392D-02        EUMP3=      -0.62754652793D+00
 E4(DQ)=   -0.82311610D-03        UMP4(DQ)=   -0.62836964404D+00
 E4(SDQ)=  -0.95127183D-03        UMP4(SDQ)=  -0.62849779977D+00
 DE(Corr)= -0.19874557E-01 E(Corr)=    -0.62744638431    
 NORM(A)=   0.10049824D+01
 Iteration Nr.   2
 **********************
 DD1Dir will call FoFMem   1 times, MxPair=         2
 NAB=     1 NAA=     0 NBB=     0.
 DE(Corr)= -0.21118524E-01 E(CORR)=    -0.62869035140     Delta=-1.24D-03
 NORM(A)=   0.10053604D+01
 Iteration Nr.   3
 **********************
 DD1Dir will call FoFMem   1 times, MxPair=         2
 NAB=     1 NAA=     0 NBB=     0.
 DE(Corr)= -0.21302347E-01 E(CORR)=    -0.62887417479     Delta=-1.84D-04
 NORM(A)=   0.10053704D+01
 Iteration Nr.   4
 **********************
 DD1Dir will call FoFMem   1 times, MxPair=         2
 NAB=     1 NAA=     0 NBB=     0.
 DE(Corr)= -0.21305613E-01 E(CORR)=    -0.62887744076     Delta=-3.27D-06
 NORM(A)=   0.10053674D+01
 Iteration Nr.   5
 **********************
 DD1Dir will call FoFMem   1 times, MxPair=         2
 NAB=     1 NAA=     0 NBB=     0.
 DE(Corr)= -0.21304314E-01 E(CORR)=    -0.62887614170     Delta= 1.30D-06
 NORM(A)=   0.10053695D+01
 Iteration Nr.   6
 **********************
 DD1Dir will call FoFMem   1 times, MxPair=         2
 NAB=     1 NAA=     0 NBB=     0.
 DE(Corr)= -0.21305247E-01 E(CORR)=    -0.62887707473     Delta=-9.33D-07
 NORM(A)=   0.10053686D+01
 Iteration Nr.   7
 **********************
 DD1Dir will call FoFMem   1 times, MxPair=         2
 NAB=     1 NAA=     0 NBB=     0.
 DE(Corr)= -0.21304836E-01 E(CORR)=    -0.62887666382     Delta= 4.11D-07
 NORM(A)=   0.10053683D+01
 Iteration Nr.   8
 **********************
 DD1Dir will call FoFMem   1 times, MxPair=         2
 NAB=     1 NAA=     0 NBB=     0.
 DE(Corr)= -0.21304710E-01 E(CORR)=    -0.62887653708     Delta= 1.27D-07
 NORM(A)=   0.10053683D+01
 Iteration Nr.   9
 **********************
 DD1Dir will call FoFMem   1 times, MxPair=         2
 NAB=     1 NAA=     0 NBB=     0.
 DE(Corr)= -0.21304736E-01 E(CORR)=    -0.62887656327     Delta=-2.62D-08
 NORM(A)=   0.10053683D+01
 Iteration Nr.  10
 **********************
 DD1Dir will call FoFMem   1 times, MxPair=         2
 NAB=     1 NAA=     0 NBB=     0.
 DE(Corr)= -0.21304736E-01 E(CORR)=    -0.62887656328     Delta=-1.43D-11
 NORM(A)=   0.10053683D+01
 Wavefunction amplitudes converged. E(Corr)=    -0.62887656328    
 Largest amplitude= 8.69D-02

 Z-amplitude iterations

 Iteration Nr.   1
 **********************
 DD1Dir will call FoFMem   1 times, MxPair=         2
 NAB=     1 NAA=     0 NBB=     0.
 DE(Z)= -0.21135156E-01 E(Z)=    -0.62870698317     Delta= 1.70D-04
 NORM(A)=   0.10053675D+01
 Iteration Nr.   2
 **********************
 DD1Dir will call FoFMem   1 times, MxPair=         2
 NAB=     1 NAA=     0 NBB=     0.
 DE(Z)= -0.21134768E-01 E(Z)=    -0.62870659500     Delta= 3.88D-07
 NORM(A)=   0.10053630D+01
 Iteration Nr.   3
 **********************
 DD1Dir will call FoFMem   1 times, MxPair=         2
 NAB=     1 NAA=     0 NBB=     0.
 DE(Z)= -0.21132623E-01 E(Z)=    -0.62870445078     Delta= 2.14D-06
 NORM(A)=   0.10053628D+01
 Iteration Nr.   4
 **********************
 DD1Dir will call FoFMem   1 times, MxPair=         2
 NAB=     1 NAA=     0 NBB=     0.
 DE(Z)= -0.21132533E-01 E(Z)=    -0.62870436067     Delta= 9.01D-08
 NORM(A)=   0.10053679D+01
 Iteration Nr.   5
 **********************
 DD1Dir will call FoFMem   1 times, MxPair=         2
 NAB=     1 NAA=     0 NBB=     0.
 DE(Z)= -0.21134930E-01 E(Z)=    -0.62870675765     Delta=-2.40D-06
 NORM(A)=   0.10052154D+01
 Iteration Nr.   6
 **********************
 DD1Dir will call FoFMem   1 times, MxPair=         2
 NAB=     1 NAA=     0 NBB=     0.
 DE(Z)= -0.21061610E-01 E(Z)=    -0.62863343780     Delta= 7.33D-05
 NORM(A)=   0.10052154D+01
 Iteration Nr.   7
 **********************
 DD1Dir will call FoFMem   1 times, MxPair=         2
 NAB=     1 NAA=     0 NBB=     0.
 DE(Z)= -0.21061608E-01 E(Z)=    -0.62863343538     Delta= 2.42D-09
 NORM(A)=   0.10052154D+01
 Z-amplitudes converged.
 Discarding MO integrals.
          IDoAtm=1
 NEqPCM:  Using equilibrium solvation (IEInf=0, Eps=  24.8520, EpsInf=   1.8526)
          Differentiating once with respect to electric field.
                with respect to dipole field.
          Differentiating once with respect to nuclear coordinates.
 Keep R1 ints in memory in canonical form, NReq=6402212.
          There are     1 degrees of freedom in the 1st order CPHF.  IDoFFX=0 NUNeed=     1.
 LinEq1:  Iter=  0 NonCon=     1 RMS=2.00D-02 Max=4.00D-02 NDo=     1
 AX will form     1 AO Fock derivatives at one time.
 LinEq1:  Iter=  1 NonCon=     0 RMS=5.23D-19 Max=1.03D-18 NDo=     1
 Linear equations converged to 1.000D-10 1.000D-09 after     1 iterations.
 End of Minotr F.D. properties file   721 does not exist.
 End of Minotr F.D. properties file   722 does not exist.
 End of Minotr F.D. properties file   788 does not exist.

 **********************************************************************

            Population analysis using the CC Density.

 **********************************************************************

 Alpha  occ. eigenvalues --   -0.31305
 Alpha virt. eigenvalues --    0.74883   1.78412   1.78412   1.78412
          Condensed to atoms (all electrons):
               1
     1  H    2.000000
 Mulliken charges:
               1
     1  H   -1.000000
 Sum of Mulliken charges =  -1.00000
 Mulliken charges with hydrogens summed into heavy atoms:
               1
 Electronic spatial extent (au):  <R**2>=              8.1183
 Charge=             -1.0000 electrons
 Dipole moment (field-independent basis, Debye):
    X=              0.0048    Y=             -0.0000    Z=              0.0000  Tot=              0.0048
 Quadrupole moment (field-independent basis, Debye-Ang):
   XX=             -3.6398   YY=             -3.6398   ZZ=             -3.6398
   XY=              0.0000   XZ=             -0.0000   YZ=              0.0000
 Traceless Quadrupole moment (field-independent basis, Debye-Ang):
   XX=             -0.0000   YY=              0.0000   ZZ=              0.0000
   XY=              0.0000   XZ=             -0.0000   YZ=              0.0000
 Octapole moment (field-independent basis, Debye-Ang**2):
  XXX=              0.0109  YYY=             -0.0000  ZZZ=              0.0000  XYY=              0.0036
  XXY=             -0.0000  XXZ=              0.0000  XZZ=              0.0036  YZZ=             -0.0000
  YYZ=              0.0000  XYZ=             -0.0000
 Hexadecapole moment (field-independent basis, Debye-Ang**3):
 XXXX=             -5.2634 YYYY=             -5.2634 ZZZZ=             -5.2634 XXXY=              0.0000
 XXXZ=             -0.0000 YYYX=              0.0000 YYYZ=              0.0000 ZZZX=             -0.0000
 ZZZY=              0.0000 XXYY=             -1.7545 XXZZ=             -1.7545 YYZZ=             -1.7545
 XXYZ=              0.0000 YYXZ=             -0.0000 ZZXY=              0.0000
 N-N= 5.673609642280D-04 E-N=-1.653564942546D+00  KE= 7.066748268010D-01
 There are a total of       21654 grid points.
 ElSum from          density=        1.9999999999
 ElSum from atomic densities=        1.0000000000

 Hirshfeld populations at iteration   1 (CX, CA, CB, DipXYZ):
               1          2          3          4          5          6
     1  H    0.000000   1.000000   1.000000   0.000000   0.000000   0.000000
       Tot   0.000000   1.000000   1.000000   0.000000   0.000000   0.000000

 Dip from Atomic Chgs              0.001890   0.000000   0.000000
         Total Dipole              0.001890   0.000000   0.000000

 Hirshfeld charges, spin densities, dipoles, and CM5 charges using IRadAn=      5:
              Q-H        S-H        Dx         Dy         Dz        Q-CM5   
     1  H   -1.000000   0.000000   0.000000   0.000000   0.000000  -1.000000
       Tot  -1.000000   0.000000   0.000000   0.000000   0.000000  -1.000000
 Hirshfeld charges with hydrogens summed into heavy atoms:
              Q-H       Q-CM5   
 
 EQQ=  0.00000000000     EQD=  0.00000000000     EDD=  0.00000000000    
 EQQ+QD+DD=  0.00000000000    
 
   1 Symmetry operations used in ECPInt.
 ECPInt:  NShTT=       6 NPrTT=      18 LenC2=       7 LenP2D=      18.
 LDataN:  DoStor=T MaxTD1= 3 Len=   28
 D1PCM: PCM CHGder 1st derivatives, ID1Alg=3 FixD1E=F DoIter=F DoCFld=F I1PDM=7.
 Calling FoFJK, ICntrl=  10002127 FMM=F ISym2X=0 I1Cent= 0 IOpClX= 0 NMat=1 NMatS=1 NMatT=0.
 -------------------------------------------------------------------
 Center     Atomic                   Forces (Hartrees/Bohr)
 Number     Number              X              Y              Z
 -------------------------------------------------------------------
      1        1          -0.000000000   -0.000000000    0.000000000
 -------------------------------------------------------------------
 Cartesian Forces:  Max     0.000000000 RMS     0.000000000
 NDeriv=      3 NFrqRd=  0 NDerD0=      0 MskFDP=       0 MskDFD=       0 MskDF0=       0
 Re-enter D2Numr:  atom      1 IXYZ=1 step-down number 1
 Standard basis: def2SVP (5D, 7F)
     5 basis functions,     7 primitive gaussians,     5 cartesian basis functions
     1 alpha electrons        1 beta electrons
       nuclear repulsion energy         0.0000000000 Hartrees.
 NAtoms=    1 NActive=    1 NUniq=    1 SFac= 1.00D+00 NAtFMM=   60 NAOKFM=F Big=F
 Integral buffers will be    131072 words long.
 Raffenetti 1 integral format.
 Two-electron integral symmetry is turned off.
 ------------------------------------------------------------------------------
 Polarizable Continuum Model (PCM)
 =================================
 Model                : PCM.
 Atomic radii         : SMD-Coulomb.
 Polarization charges : Total charges.
 Charge compensation  : None.
 Solution method      : On-the-fly selection.
 Cavity type          : VdW (van der Waals Surface) (Alpha=1.000).
 Cavity algorithm     : GePol (No added spheres)
                        Default sphere list used, NSphG=    1.
                        Lebedev-Laikov grids with approx.  5.0 points / Ang**2.
                        Smoothing algorithm: York/Karplus (Gamma=1.0000).
                        Polarization charges: spherical gaussians, with
                                              point-specific exponents (IZeta= 3).
                        Self-potential: point-specific (ISelfS= 7).
                        Self-field    : sphere-specific E.n sum rule (ISelfD= 2).
 1st derivatives      : Analytical E(r).r(x)/FMM algorithm (CHGder, D1EAlg=3).
                        Cavity 1st derivative terms included.
 Solvent              : Ethanol, Eps=  24.852000 Eps(inf)=   1.852593
 ------------------------------------------------------------------------------
 Spheres list:
 ISph  on   Nord     Re0    Alpha      Xe            Ye            Ze
    1   H      1    1.2000  1.000      0.000000      0.001000      0.000000
 ------------------------------------------------------------------------------
 ------------------------------------------------------------------------------
 Atomic radii for non-electrostatic terms: SMD-CDS.
 ------------------------------------------------------------------------------
 Nuclear repulsion after PCM non-electrostatic terms =        0.0005673610 Hartrees.
 One-electron integrals computed using PRISM.
   1 Symmetry operations used in ECPInt.
 ECPInt:  NShTT=       6 NPrTT=      18 LenC2=       7 LenP2D=      18.
 LDataN:  DoStor=T MaxTD1= 2 Len=   12
 NBasis=     5 RedAO= T EigKep=  3.15D-01  NBF=     5
 NBsUse=     5 1.00D-06 EigRej= -1.00D+00 NBFU=     5
 Initial guess from the checkpoint file:  "H_anion_ccsd.chk"
 B after Tr=     0.000000    0.001890    0.000000
         Rot=    1.000000    0.000000    0.000000    0.000000 Ang=   0.00 deg.
 Keep R1 ints in memory in canonical form, NReq=6401908.
 Requested convergence on RMS density matrix=1.00D-08 within 128 cycles.
 Requested convergence on MAX density matrix=1.00D-06.
 Requested convergence on             energy=1.00D-06.
 No special actions if energy rises.
 Inv3:  Mode=1 IEnd=       36300.
 Iteration    1 A*A^-1 deviation from unit magnitude is 2.22D-15 for     22.
 Iteration    1 A*A^-1 deviation from orthogonality  is 7.00D-16 for     93     37.
 Iteration    1 A^-1*A deviation from unit magnitude is 2.00D-15 for     19.
 Iteration    1 A^-1*A deviation from orthogonality  is 6.70D-16 for     96      5.
 Skip diagonalization as Alpha Fock matrix is already diagonal.
 Error on total polarization charges =  0.12079
 SCF Done:  E(RHF) = -0.607571827361     A.U. after    1 cycles
            NFock=  1  Conv=0.00D+00     -V/T= 1.9172
 SMD-CDS (non-electrostatic) energy       (kcal/mol) =       0.36
 (included in total energy above)
 Range of M.O.s used for correlation:     1     5
 NBasis=     5 NAE=     1 NBE=     1 NFC=     0 NFV=     0
 NROrb=      5 NOA=     1 NOB=     1 NVA=     4 NVB=     4
 Semi-Direct transformation.
 ModeAB=           2 MOrb=             1 LenV=    8052945730
 LASXX=           40 LTotXX=          40 LenRXX=          40
 LTotAB=          71 MaxLAS=          75 LenRXY=          75
 NonZer=          90 LenScr=      785920 LnRSAI=           0
 LnScr1=           0 LExtra=           0 Total=       786035
 MaxDsk=          -1 SrtSym=           F ITran=            4
 JobTyp=0 Pass  1:  I=   1 to   1.
 (rs|ai) integrals will be sorted in core.
 Spin components of T(2) and E(2):
     alpha-alpha T2 =       0.0000000000D+00 E2=      0.0000000000D+00
     alpha-beta  T2 =       0.5665513630D-02 E2=     -0.1631976141D-01
     beta-beta   T2 =       0.0000000000D+00 E2=      0.0000000000D+00
 ANorm=    0.1002828756D+01
 E2 =    -0.1631976141D-01 EUMP2 =    -0.62389158877125D+00
 Keep R2 and R3 ints in memory in canonical form, NReq=6404383.
 CIDS: In Core Option IDoMem=           1.
 Iterations=  50 Convergence= 0.100D-07
 Produce multiple copies of IABC intergrals
 Iteration Nr.   1
 **********************
 DD1Dir will call FoFMem   1 times, MxPair=         2
 NAB=     1 NAA=     0 NBB=     0.
 MP4(R+Q)=  0.92459831D-04
 E3=       -0.36549392D-02        EUMP3=      -0.62754652793D+00
 E4(DQ)=   -0.82311610D-03        UMP4(DQ)=   -0.62836964404D+00
 E4(SDQ)=  -0.95127183D-03        UMP4(SDQ)=  -0.62849779977D+00
 DE(Corr)= -0.19874557E-01 E(Corr)=    -0.62744638431    
 NORM(A)=   0.10049824D+01
 Iteration Nr.   2
 **********************
 DD1Dir will call FoFMem   1 times, MxPair=         2
 NAB=     1 NAA=     0 NBB=     0.
 DE(Corr)= -0.21118524E-01 E(CORR)=    -0.62869035140     Delta=-1.24D-03
 NORM(A)=   0.10053604D+01
 Iteration Nr.   3
 **********************
 DD1Dir will call FoFMem   1 times, MxPair=         2
 NAB=     1 NAA=     0 NBB=     0.
 DE(Corr)= -0.21302347E-01 E(CORR)=    -0.62887417479     Delta=-1.84D-04
 NORM(A)=   0.10053704D+01
 Iteration Nr.   4
 **********************
 DD1Dir will call FoFMem   1 times, MxPair=         2
 NAB=     1 NAA=     0 NBB=     0.
 DE(Corr)= -0.21305613E-01 E(CORR)=    -0.62887744076     Delta=-3.27D-06
 NORM(A)=   0.10053682D+01
 Iteration Nr.   5
 **********************
 DD1Dir will call FoFMem   1 times, MxPair=         2
 NAB=     1 NAA=     0 NBB=     0.
 DE(Corr)= -0.21304676E-01 E(CORR)=    -0.62887650290     Delta= 9.38D-07
 NORM(A)=   0.10053685D+01
 Iteration Nr.   6
 **********************
 DD1Dir will call FoFMem   1 times, MxPair=         2
 NAB=     1 NAA=     0 NBB=     0.
 DE(Corr)= -0.21304787E-01 E(CORR)=    -0.62887661486     Delta=-1.12D-07
 NORM(A)=   0.10053683D+01
 Iteration Nr.   7
 **********************
 DD1Dir will call FoFMem   1 times, MxPair=         2
 NAB=     1 NAA=     0 NBB=     0.
 DE(Corr)= -0.21304726E-01 E(CORR)=    -0.62887655298     Delta= 6.19D-08
 NORM(A)=   0.10053683D+01
 Iteration Nr.   8
 **********************
 DD1Dir will call FoFMem   1 times, MxPair=         2
 NAB=     1 NAA=     0 NBB=     0.
 DE(Corr)= -0.21304738E-01 E(CORR)=    -0.62887656524     Delta=-1.23D-08
 NORM(A)=   0.10053683D+01
 Iteration Nr.   9
 **********************
 DD1Dir will call FoFMem   1 times, MxPair=         2
 NAB=     1 NAA=     0 NBB=     0.
 DE(Corr)= -0.21304736E-01 E(CORR)=    -0.62887656328     Delta= 1.95D-09
 NORM(A)=   0.10053683D+01
 Wavefunction amplitudes converged. E(Corr)=    -0.62887656328    
 Largest amplitude= 8.69D-02

 Z-amplitude iterations

 Iteration Nr.   1
 **********************
 DD1Dir will call FoFMem   1 times, MxPair=         2
 NAB=     1 NAA=     0 NBB=     0.
 DE(Z)= -0.21135156E-01 E(Z)=    -0.62870698317     Delta= 1.70D-04
 NORM(A)=   0.10053683D+01
 Iteration Nr.   2
 **********************
 DD1Dir will call FoFMem   1 times, MxPair=         2
 NAB=     1 NAA=     0 NBB=     0.
 DE(Z)= -0.21135126E-01 E(Z)=    -0.62870695375     Delta= 2.94D-08
 NORM(A)=   0.10053684D+01
 Iteration Nr.   3
 **********************
 DD1Dir will call FoFMem   1 times, MxPair=         2
 NAB=     1 NAA=     0 NBB=     0.
 DE(Z)= -0.21135189E-01 E(Z)=    -0.62870701684     Delta=-6.31D-08
 NORM(A)=   0.10053683D+01
 Iteration Nr.   4
 **********************
 DD1Dir will call FoFMem   1 times, MxPair=         2
 NAB=     1 NAA=     0 NBB=     0.
 DE(Z)= -0.21135158E-01 E(Z)=    -0.62870698546     Delta= 3.14D-08
 NORM(A)=   0.10053683D+01
 Iteration Nr.   5
 **********************
 DD1Dir will call FoFMem   1 times, MxPair=         2
 NAB=     1 NAA=     0 NBB=     0.
 DE(Z)= -0.21135130E-01 E(Z)=    -0.62870695693     Delta= 2.85D-08
 NORM(A)=   0.10052154D+01
 Iteration Nr.   6
 **********************
 DD1Dir will call FoFMem   1 times, MxPair=         2
 NAB=     1 NAA=     0 NBB=     0.
 DE(Z)= -0.21061625E-01 E(Z)=    -0.62863345197     Delta= 7.35D-05
 NORM(A)=   0.10052154D+01
 Iteration Nr.   7
 **********************
 DD1Dir will call FoFMem   1 times, MxPair=         2
 NAB=     1 NAA=     0 NBB=     0.
 DE(Z)= -0.21061609E-01 E(Z)=    -0.62863343643     Delta= 1.55D-08
 NORM(A)=   0.10052154D+01
 Iteration Nr.   8
 **********************
 DD1Dir will call FoFMem   1 times, MxPair=         2
 NAB=     1 NAA=     0 NBB=     0.
 DE(Z)= -0.21061609E-01 E(Z)=    -0.62863343624     Delta= 1.93D-10
 NORM(A)=   0.10052154D+01
 Z-amplitudes converged.
 Discarding MO integrals.
          IDoAtm=1
 NEqPCM:  Using equilibrium solvation (IEInf=0, Eps=  24.8520, EpsInf=   1.8526)
          Differentiating once with respect to electric field.
                with respect to dipole field.
          Differentiating once with respect to nuclear coordinates.
 Keep R1 ints in memory in canonical form, NReq=6402212.
          There are     1 degrees of freedom in the 1st order CPHF.  IDoFFX=0 NUNeed=     1.
 LinEq1:  Iter=  0 NonCon=     1 RMS=2.00D-02 Max=4.00D-02 NDo=     1
 AX will form     1 AO Fock derivatives at one time.
 LinEq1:  Iter=  1 NonCon=     0 RMS=4.38D-19 Max=7.35D-19 NDo=     1
 Linear equations converged to 1.000D-10 1.000D-09 after     1 iterations.
 End of Minotr F.D. properties file   721 does not exist.
 End of Minotr F.D. properties file   722 does not exist.
 End of Minotr F.D. properties file   788 does not exist.

 **********************************************************************

            Population analysis using the CC Density.

 **********************************************************************

 Alpha  occ. eigenvalues --   -0.31305
 Alpha virt. eigenvalues --    0.74883   1.78412   1.78412   1.78412
          Condensed to atoms (all electrons):
               1
     1  H    2.000000
 Mulliken charges:
               1
     1  H   -1.000000
 Sum of Mulliken charges =  -1.00000
 Mulliken charges with hydrogens summed into heavy atoms:
               1
 Electronic spatial extent (au):  <R**2>=              8.1183
 Charge=             -1.0000 electrons
 Dipole moment (field-independent basis, Debye):
    X=              0.0000    Y=             -0.0048    Z=              0.0000  Tot=              0.0048
 Quadrupole moment (field-independent basis, Debye-Ang):
   XX=             -3.6398   YY=             -3.6398   ZZ=             -3.6398
   XY=              0.0000   XZ=             -0.0000   YZ=              0.0000
 Traceless Quadrupole moment (field-independent basis, Debye-Ang):
   XX=              0.0000   YY=             -0.0000   ZZ=              0.0000
   XY=              0.0000   XZ=             -0.0000   YZ=              0.0000
 Octapole moment (field-independent basis, Debye-Ang**2):
  XXX=              0.0000  YYY=             -0.0109  ZZZ=              0.0000  XYY=              0.0000
  XXY=             -0.0036  XXZ=              0.0000  XZZ=              0.0000  YZZ=             -0.0036
  YYZ=              0.0000  XYZ=             -0.0000
 Hexadecapole moment (field-independent basis, Debye-Ang**3):
 XXXX=             -5.2634 YYYY=             -5.2634 ZZZZ=             -5.2634 XXXY=              0.0000
 XXXZ=             -0.0000 YYYX=              0.0000 YYYZ=              0.0000 ZZZX=             -0.0000
[...]
 Cartesian Forces:  Max     0.000000000 RMS     0.000000000
 NDeriv=      3 NFrqRd=  0 NDerD0=      0 MskFDP=       0 MskDFD=       0 MskDF0=       0
 Re-enter D2Numr:  atom      1 IXYZ=3 step-up   number 1
 Standard basis: def2SVP (5D, 7F)
     5 basis functions,     7 primitive gaussians,     5 cartesian basis functions
     1 alpha electrons        1 beta electrons
       nuclear repulsion energy         0.0000000000 Hartrees.
 NAtoms=    1 NActive=    1 NUniq=    1 SFac= 1.00D+00 NAtFMM=   60 NAOKFM=F Big=F
 Integral buffers will be    131072 words long.
 Raffenetti 1 integral format.
 Two-electron integral symmetry is turned off.
 ------------------------------------------------------------------------------
 Polarizable Continuum Model (PCM)
 =================================
 Model                : PCM.
 Atomic radii         : SMD-Coulomb.
 Polarization charges : Total charges.
 Charge compensation  : None.
 Solution method      : On-the-fly selection.
 Cavity type          : VdW (van der Waals Surface) (Alpha=1.000).
 Cavity algorithm     : GePol (No added spheres)
                        Default sphere list used, NSphG=    1.
                        Lebedev-Laikov grids with approx.  5.0 points / Ang**2.
                        Smoothing algorithm: York/Karplus (Gamma=1.0000).
                        Polarization charges: spherical gaussians, with
                                              point-specific exponents (IZeta= 3).
                        Self-potential: point-specific (ISelfS= 7).
                        Self-field    : sphere-specific E.n sum rule (ISelfD= 2).
 1st derivatives      : Analytical E(r).r(x)/FMM algorithm (CHGder, D1EAlg=3).
                        Cavity 1st derivative terms included.
 Solvent              : Ethanol, Eps=  24.852000 Eps(inf)=   1.852593
 ------------------------------------------------------------------------------
 Spheres list:
 ISph  on   Nord     Re0    Alpha      Xe            Ye            Ze
    1   H      1    1.2000  1.000      0.000000      0.000000     -0.001000
 ------------------------------------------------------------------------------
 ------------------------------------------------------------------------------
 Atomic radii for non-electrostatic terms: SMD-CDS.
 ------------------------------------------------------------------------------
 Nuclear repulsion after PCM non-electrostatic terms =        0.0005673610 Hartrees.
 One-electron integrals computed using PRISM.
   1 Symmetry operations used in ECPInt.
 ECPInt:  NShTT=       6 NPrTT=      18 LenC2=       7 LenP2D=      18.
 LDataN:  DoStor=T MaxTD1= 2 Len=   12
 NBasis=     5 RedAO= T EigKep=  3.15D-01  NBF=     5
 NBsUse=     5 1.00D-06 EigRej= -1.00D+00 NBFU=     5
 Initial guess from the checkpoint file:  "H_anion_ccsd.chk"
 B after Tr=     0.000000    0.000000   -0.001890
         Rot=    1.000000    0.000000    0.000000    0.000000 Ang=   0.00 deg.
 Keep R1 ints in memory in canonical form, NReq=6401908.
 Requested convergence on RMS density matrix=1.00D-08 within 128 cycles.
 Requested convergence on MAX density matrix=1.00D-06.
 Requested convergence on             energy=1.00D-06.
 No special actions if energy rises.
 Inv3:  Mode=1 IEnd=       36300.
 Iteration    1 A*A^-1 deviation from unit magnitude is 2.00D-15 for     15.
 Iteration    1 A*A^-1 deviation from orthogonality  is 8.12D-16 for     45     13.
 Iteration    1 A^-1*A deviation from unit magnitude is 2.66D-15 for     19.
 Iteration    1 A^-1*A deviation from orthogonality  is 5.65D-16 for    105     60.
 Skip diagonalization as Alpha Fock matrix is already diagonal.
 Error on total polarization charges =  0.12079
 SCF Done:  E(RHF) = -0.607571827361     A.U. after    1 cycles
            NFock=  1  Conv=0.00D+00     -V/T= 1.9172
 SMD-CDS (non-electrostatic) energy       (kcal/mol) =       0.36
 (included in total energy above)
 Range of M.O.s used for correlation:     1     5
 NBasis=     5 NAE=     1 NBE=     1 NFC=     0 NFV=     0
 NROrb=      5 NOA=     1 NOB=     1 NVA=     4 NVB=     4
 Semi-Direct transformation.
 ModeAB=           2 MOrb=             1 LenV=    8052945730
 LASXX=           40 LTotXX=          40 LenRXX=          40
 LTotAB=          71 MaxLAS=          75 LenRXY=          75
 NonZer=          90 LenScr=      785920 LnRSAI=           0
 LnScr1=           0 LExtra=           0 Total=       786035
 MaxDsk=          -1 SrtSym=           F ITran=            4
 JobTyp=0 Pass  1:  I=   1 to   1.
 (rs|ai) integrals will be sorted in core.
 Spin components of T(2) and E(2):
     alpha-alpha T2 =       0.0000000000D+00 E2=      0.0000000000D+00
     alpha-beta  T2 =       0.5665513630D-02 E2=     -0.1631976141D-01
     beta-beta   T2 =       0.0000000000D+00 E2=      0.0000000000D+00
 ANorm=    0.1002828756D+01
 E2 =    -0.1631976141D-01 EUMP2 =    -0.62389158877125D+00
 Keep R2 and R3 ints in memory in canonical form, NReq=6404383.
 CIDS: In Core Option IDoMem=           1.
 Iterations=  50 Convergence= 0.100D-07
 Produce multiple copies of IABC intergrals
 Iteration Nr.   1
 **********************
 DD1Dir will call FoFMem   1 times, MxPair=         2
 NAB=     1 NAA=     0 NBB=     0.
 MP4(R+Q)=  0.92459831D-04
 E3=       -0.36549392D-02        EUMP3=      -0.62754652793D+00
 E4(DQ)=   -0.82311610D-03        UMP4(DQ)=   -0.62836964404D+00
 E4(SDQ)=  -0.95127183D-03        UMP4(SDQ)=  -0.62849779977D+00
 DE(Corr)= -0.19874557E-01 E(Corr)=    -0.62744638431    
 NORM(A)=   0.10049824D+01
 Iteration Nr.   2
 **********************
 DD1Dir will call FoFMem   1 times, MxPair=         2
 NAB=     1 NAA=     0 NBB=     0.
 DE(Corr)= -0.21118524E-01 E(CORR)=    -0.62869035140     Delta=-1.24D-03
 NORM(A)=   0.10053604D+01
 Iteration Nr.   3
 **********************
 DD1Dir will call FoFMem   1 times, MxPair=         2
 NAB=     1 NAA=     0 NBB=     0.
 DE(Corr)= -0.21302347E-01 E(CORR)=    -0.62887417479     Delta=-1.84D-04
 NORM(A)=   0.10053704D+01
 Iteration Nr.   4
 **********************
 DD1Dir will call FoFMem   1 times, MxPair=         2
 NAB=     1 NAA=     0 NBB=     0.
 DE(Corr)= -0.21305613E-01 E(CORR)=    -0.62887744076     Delta=-3.27D-06
 NORM(A)=   0.10053682D+01
 Iteration Nr.   5
 **********************
 DD1Dir will call FoFMem   1 times, MxPair=         2
 NAB=     1 NAA=     0 NBB=     0.
 DE(Corr)= -0.21304676E-01 E(CORR)=    -0.62887650290     Delta= 9.38D-07
 NORM(A)=   0.10053685D+01
 Iteration Nr.   6
 **********************
 DD1Dir will call FoFMem   1 times, MxPair=         2
 NAB=     1 NAA=     0 NBB=     0.
 DE(Corr)= -0.21304787E-01 E(CORR)=    -0.62887661486     Delta=-1.12D-07
 NORM(A)=   0.10053683D+01
 Iteration Nr.   7
 **********************
 DD1Dir will call FoFMem   1 times, MxPair=         2
 NAB=     1 NAA=     0 NBB=     0.
 DE(Corr)= -0.21304726E-01 E(CORR)=    -0.62887655298     Delta= 6.19D-08
 NORM(A)=   0.10053683D+01
 Iteration Nr.   8
 **********************
 DD1Dir will call FoFMem   1 times, MxPair=         2
 NAB=     1 NAA=     0 NBB=     0.
 DE(Corr)= -0.21304738E-01 E(CORR)=    -0.62887656524     Delta=-1.23D-08
 NORM(A)=   0.10053683D+01
 Iteration Nr.   9
 **********************
 DD1Dir will call FoFMem   1 times, MxPair=         2
 NAB=     1 NAA=     0 NBB=     0.
 DE(Corr)= -0.21304736E-01 E(CORR)=    -0.62887656328     Delta= 1.95D-09
 NORM(A)=   0.10053683D+01
 Wavefunction amplitudes converged. E(Corr)=    -0.62887656328    
 Largest amplitude= 8.69D-02

 Z-amplitude iterations

 Iteration Nr.   1
 **********************
 DD1Dir will call FoFMem   1 times, MxPair=         2
 NAB=     1 NAA=     0 NBB=     0.
 DE(Z)= -0.21135156E-01 E(Z)=    -0.62870698317     Delta= 1.70D-04
 NORM(A)=   0.10053683D+01
 Iteration Nr.   2
 **********************
 DD1Dir will call FoFMem   1 times, MxPair=         2
 NAB=     1 NAA=     0 NBB=     0.
 DE(Z)= -0.21135126E-01 E(Z)=    -0.62870695375     Delta= 2.94D-08
 NORM(A)=   0.10053684D+01
 Iteration Nr.   3
 **********************
 DD1Dir will call FoFMem   1 times, MxPair=         2
 NAB=     1 NAA=     0 NBB=     0.
 DE(Z)= -0.21135189E-01 E(Z)=    -0.62870701684     Delta=-6.31D-08
 NORM(A)=   0.10053683D+01
 Iteration Nr.   4
 **********************
 DD1Dir will call FoFMem   1 times, MxPair=         2
 NAB=     1 NAA=     0 NBB=     0.
 DE(Z)= -0.21135158E-01 E(Z)=    -0.62870698546     Delta= 3.14D-08
 NORM(A)=   0.10053683D+01
 Iteration Nr.   5
 **********************
 DD1Dir will call FoFMem   1 times, MxPair=         2
 NAB=     1 NAA=     0 NBB=     0.
 DE(Z)= -0.21135130E-01 E(Z)=    -0.62870695693     Delta= 2.85D-08
 NORM(A)=   0.10052154D+01
 Iteration Nr.   6
 **********************
 DD1Dir will call FoFMem   1 times, MxPair=         2
 NAB=     1 NAA=     0 NBB=     0.
 DE(Z)= -0.21061625E-01 E(Z)=    -0.62863345197     Delta= 7.35D-05
 NORM(A)=   0.10052154D+01
 Iteration Nr.   7
 **********************
 DD1Dir will call FoFMem   1 times, MxPair=         2
 NAB=     1 NAA=     0 NBB=     0.
 DE(Z)= -0.21061609E-01 E(Z)=    -0.62863343643     Delta= 1.55D-08
 NORM(A)=   0.10052154D+01
 Iteration Nr.   8
 **********************
 DD1Dir will call FoFMem   1 times, MxPair=         2
 NAB=     1 NAA=     0 NBB=     0.
 DE(Z)= -0.21061609E-01 E(Z)=    -0.62863343624     Delta= 1.93D-10
 NORM(A)=   0.10052154D+01
 Z-amplitudes converged.
 Discarding MO integrals.
          IDoAtm=1
 NEqPCM:  Using equilibrium solvation (IEInf=0, Eps=  24.8520, EpsInf=   1.8526)
          Differentiating once with respect to electric field.
                with respect to dipole field.
          Differentiating once with respect to nuclear coordinates.
 Keep R1 ints in memory in canonical form, NReq=6402212.
          There are     1 degrees of freedom in the 1st order CPHF.  IDoFFX=0 NUNeed=     1.
 LinEq1:  Iter=  0 NonCon=     1 RMS=2.00D-02 Max=4.00D-02 NDo=     1
 AX will form     1 AO Fock derivatives at one time.
 LinEq1:  Iter=  1 NonCon=     0 RMS=5.49D-19 Max=1.08D-18 NDo=     1
 Linear equations converged to 1.000D-10 1.000D-09 after     1 iterations.
 End of Minotr F.D. properties file   721 does not exist.
 End of Minotr F.D. properties file   722 does not exist.
 End of Minotr F.D. properties file   788 does not exist.

 **********************************************************************

            Population analysis using the CC Density.

 **********************************************************************

 Alpha  occ. eigenvalues --   -0.31305
 Alpha virt. eigenvalues --    0.74883   1.78412   1.78412   1.78412
          Condensed to atoms (all electrons):
               1
     1  H    2.000000
 Mulliken charges:
               1
     1  H   -1.000000
 Sum of Mulliken charges =  -1.00000
 Mulliken charges with hydrogens summed into heavy atoms:
               1
 Electronic spatial extent (au):  <R**2>=              8.1183
 Charge=             -1.0000 electrons
 Dipole moment (field-independent basis, Debye):
    X=              0.0000    Y=             -0.0000    Z=              0.0048  Tot=              0.0048
 Quadrupole moment (field-independent basis, Debye-Ang):
   XX=             -3.6398   YY=             -3.6398   ZZ=             -3.6398
   XY=              0.0000   XZ=             -0.0000   YZ=              0.0000
 Traceless Quadrupole moment (field-independent basis, Debye-Ang):
   XX=              0.0000   YY=              0.0000   ZZ=             -0.0000
   XY=              0.0000   XZ=             -0.0000   YZ=              0.0000
 Octapole moment (field-independent basis, Debye-Ang**2):
  XXX=              0.0000  YYY=             -0.0000  ZZZ=              0.0109  XYY=              0.0000
  XXY=             -0.0000  XXZ=              0.0036  XZZ=              0.0000  YZZ=             -0.0000
  YYZ=              0.0036  XYZ=             -0.0000
 Hexadecapole moment (field-independent basis, Debye-Ang**3):
 XXXX=             -5.2634 YYYY=             -5.2634 ZZZZ=             -5.2634 XXXY=              0.0000
 XXXZ=             -0.0000 YYYX=              0.0000 YYYZ=              0.0000 ZZZX=             -0.0000
 ZZZY=              0.0000 XXYY=             -1.7545 XXZZ=             -1.7545 YYZZ=             -1.7545
 XXYZ=              0.0000 YYXZ=             -0.0000 ZZXY=              0.0000
 N-N= 5.673609642280D-04 E-N=-1.653564942865D+00  KE= 7.066748280577D-01
 There are a total of       21654 grid points.
 ElSum from          density=        1.9999999999
 ElSum from atomic densities=        1.0000000000

 Hirshfeld populations at iteration   1 (CX, CA, CB, DipXYZ):
               1          2          3          4          5          6
     1  H    0.000000   1.000000   1.000000   0.000000   0.000000   0.000000
       Tot   0.000000   1.000000   1.000000   0.000000   0.000000   0.000000

 Dip from Atomic Chgs              0.000000   0.000000   0.001890
         Total Dipole              0.000000   0.000000   0.001890

 Hirshfeld charges, spin densities, dipoles, and CM5 charges using IRadAn=      5:
              Q-H        S-H        Dx         Dy         Dz        Q-CM5   
     1  H   -1.000000   0.000000   0.000000   0.000000   0.000000  -1.000000
       Tot  -1.000000   0.000000   0.000000   0.000000   0.000000  -1.000000
 Hirshfeld charges with hydrogens summed into heavy atoms:
              Q-H       Q-CM5   
 
 EQQ=  0.00000000000     EQD=  0.00000000000     EDD=  0.00000000000    
 EQQ+QD+DD=  0.00000000000    
 
   1 Symmetry operations used in ECPInt.
 ECPInt:  NShTT=       6 NPrTT=      18 LenC2=       7 LenP2D=      18.
 LDataN:  DoStor=T MaxTD1= 3 Len=   28
 D1PCM: PCM CHGder 1st derivatives, ID1Alg=3 FixD1E=F DoIter=F DoCFld=F I1PDM=7.
 Calling FoFJK, ICntrl=  10002127 FMM=F ISym2X=0 I1Cent= 0 IOpClX= 0 NMat=1 NMatS=1 NMatT=0.
 -------------------------------------------------------------------
 Center     Atomic                   Forces (Hartrees/Bohr)
 Number     Number              X              Y              Z
 -------------------------------------------------------------------
      1        1           0.000000000   -0.000000000    0.000000000
 -------------------------------------------------------------------
 Cartesian Forces:  Max     0.000000000 RMS     0.000000000
 NDeriv=      3 NFrqRd=  0 NDerD0=      0 MskFDP=       0 MskDFD=       0 MskDF0=       0
 Re-enter D2Numr:  atom      1 IXYZ=3 step-down number 1
 Maximum difference in off-diagonal FC elements:
 I=  3 J=  1 Difference=    4.6743678869D-15
 Max difference between analytic and numerical forces:
 I=  1 Difference=    5.4986643918D-07
 Full mass-weighted force constant matrix:
 Low frequencies ---   -0.0003   -0.0001    0.0003
 Diagonal vibrational polarizability:
        0.0000000       0.0000000       0.0000000
 Harmonic frequencies (cm**-1), IR intensities (KM/Mole), Raman scattering
 activities (A**4/AMU), depolarization ratios for plane and unpolarized
 incident light, reduced masses (AMU), force constants (mDyne/A),
 and normal coordinates:

 -------------------
 - Thermochemistry -
 -------------------
 Temperature   298.150 Kelvin.  Pressure   1.00000 Atm.
 Atom     1 has atomic number  1 and mass   1.00783
 Molecular mass:     1.00783 amu.
 Zero-point vibrational energy          0.0 (Joules/Mol)
                                    0.00000 (Kcal/Mol)
 Vibrational temperatures: 
          (Kelvin)
 
 Zero-point correction=                           0.000000 (Hartree/Particle)
 Thermal correction to Energy=                    0.001416
 Thermal correction to Enthalpy=                  0.002360
 Thermal correction to Gibbs Free Energy=        -0.010000
 Sum of electronic and zero-point Energies=             -0.628877
 Sum of electronic and thermal Energies=                -0.627460
 Sum of electronic and thermal Enthalpies=              -0.626516
 Sum of electronic and thermal Free Energies=           -0.638876
 
                     E (Thermal)             CV                S
                      KCal/Mol        Cal/Mol-Kelvin    Cal/Mol-Kelvin
 Total                    0.889              2.981             26.014
 Electronic               0.000              0.000              0.000
 Translational            0.889              2.981             26.014
 Rotational               0.000              0.000              0.000
 Vibrational              0.000              0.000              0.000
                       Q            Log10(Q)             Ln(Q)
 Total Bot       0.397678D+05          4.599532         10.590813
 Total V=0       0.397678D+05          4.599532         10.590813
 Vib (Bot)       0.100000D+01          0.000000          0.000000
 Vib (V=0)       0.100000D+01          0.000000          0.000000
 Electronic      0.100000D+01          0.000000          0.000000
 Translational   0.397678D+05          4.599532         10.590813
 Rotational      0.100000D+01          0.000000          0.000000
 -------------------------------------------------------------------
 Center     Atomic                   Forces (Hartrees/Bohr)
 Number     Number              X              Y              Z
 -------------------------------------------------------------------
      1        1          -0.000000000   -0.000000000   -0.000000000
 -------------------------------------------------------------------
 Cartesian Forces:  Max     0.000000000 RMS     0.000000000

 GradGradGradGradGradGradGradGradGradGradGradGradGradGradGradGradGradGrad
 Berny optimization.
 Search for a local minimum.
 Step number   1 out of a maximum of    2
 All quantities printed in internal units (Hartrees-Bohrs-Radians)
 Second derivative matrix not updated -- analytic derivatives used.
 The second derivative matrix:
                          X1        Y1        Z1
           X1          -0.00000
           Y1          -0.00000  -0.00000
           Z1           0.00000   0.00000   0.00000
 ITU=  0
     Eigenvalues --- 
 Angle between quadratic step and forces=  90.00 degrees.
 Linear search not attempted -- first point.
 B after Tr=     0.000000    0.000000    0.000000
         Rot=    1.000000    0.000000    0.000000    0.000000 Ang=   0.00 deg.
 Variable       Old X    -DE/DX   Delta X   Delta X   Delta X     New X
                                 (Linear)    (Quad)   (Total)
    X1        0.00000  -0.00000   0.00000   0.00000   0.00000   0.00000
    Y1        0.00000  -0.00000   0.00000   0.00000   0.00000   0.00000
    Z1        0.00000  -0.00000   0.00000   0.00000   0.00000   0.00000
         Item               Value     Threshold  Converged?
 Maximum Force            0.000000     0.000450     YES
 RMS     Force            0.000000     0.000300     YES
 Maximum Displacement     0.000000     0.001800     YES
 RMS     Displacement     0.000000     0.001200     YES
 Predicted change in Energy=-0.000000D+00
 Optimization completed.
    -- Stationary point found.
 GradGradGradGradGradGradGradGradGradGradGradGradGradGradGradGradGradGrad

 Unable to Open any file for archive entry.
 1\1\GINC-TMJ\Freq\RCCSD-FC\def2SVP\H1(1-)\TMJ\23-Mar-2024\0\\#N Geom=A
 llCheck Guess=TCheck SCRF=Check GenChk RCCSD(FC)/def2SVP Freq\\Title: 
 H_anion\\-1,1\H,0.,0.,0.\\Version=ES64L-G16RevC.01\HF=-0.6075718\MP2=-
 0.6238916\MP3=-0.6275465\MP4D=-0.6284621\MP4DQ=-0.6283696\MP4SDQ=-0.62
 84978\CCSD=-0.6288766\RMSD=0.000e+00\RMSF=5.887e-18\Thermal=0.0014163\
 ETot=-0.6274603\HTot=-0.6265161\GTot=-0.6388762\Dipole=0.,0.,0.\Dipole
 Deriv=-1.,0.,0.,0.,-1.,0.,0.,0.,-1.\PG=OH [O(H1)]\NImag=0\\0.,0.,0.,0.
 ,0.,0.\\0.,0.,0.\\\@
 The archive entry for this job was punched.


    THE DOUGHNUT CREED
 AS YOU RAMBLE ON THROUGH LIFE, BROTHER
 WHATEVER BE YOUR GOAL
 KEEP YOUR EYE UPON THE DOUGHNUT
 AND NOT UPON THE HOLE.
 Job cpu time:       0 days  0 hours 27 minutes 11.4 seconds.
 Elapsed time:       0 days  0 hours  0 minutes 60.0 seconds.
 File lengths (MBytes):  RWF=     50 Int=      0 D2E=      0 Chk=     38 Scr=      1
 Normal termination of Gaussian 16 at Sat Mar 23 22:38:03 2024.
