 Entering Gaussian System, Link 0=g16
 Input=anie201900503-sup-0001-misc_information__3.gjf
 Output=anie201900503-sup-0001-misc_information__3.log
 Initial command:
 /cpfs01/projects-HDD/cfff-4405968bce88_HDD/xulicheng/g16/l1.exe "/cpfs01/projects-HDD/cfff-4405968bce88_HDD/xulicheng/g16_scratch/Gau-69622.inp" -scrdir="/cpfs01/projects-HDD/cfff-4405968bce88_HDD/xulicheng/g16_scratch/"
 Entering Link 1 = /cpfs01/projects-HDD/cfff-4405968bce88_HDD/xulicheng/g16/l1.exe PID=     69623.
  
 Copyright (c) 1988-2019, Gaussian, Inc.  All Rights Reserved.
  
 This is part of the Gaussian(R) 16 program.  It is based on
 the Gaussian(R) 09 system (copyright 2009, Gaussian, Inc.),
 the Gaussian(R) 03 system (copyright 2003, Gaussian, Inc.),
 the Gaussian(R) 98 system (copyright 1998, Gaussian, Inc.),
 the Gaussian(R) 94 system (copyright 1995, Gaussian, Inc.),
 the Gaussian 92(TM) system (copyright 1992, Gaussian, Inc.),
 the Gaussian 90(TM) system (copyright 1990, Gaussian, Inc.),
 the Gaussian 88(TM) system (copyright 1988, Gaussian, Inc.),
 the Gaussian 86(TM) system (copyright 1986, Carnegie Mellon
 University), and the Gaussian 82(TM) system (copyright 1983,
 Carnegie Mellon University). Gaussian is a federally registered
 trademark of Gaussian, Inc.
  
 This software contains proprietary and confidential information,
 including trade secrets, belonging to Gaussian, Inc.
  
 This software is provided under written license and may be
 used, copied, transmitted, or stored only in accord with that
 written license.
  
 The following legend is applicable only to US Government
 contracts under FAR:
  
                    RESTRICTED RIGHTS LEGEND
  
 Use, reproduction and disclosure by the US Government is
 subject to restrictions as set forth in subparagraphs (a)
 and (c) of the Commercial Computer Software - Restricted
 Rights clause in FAR 52.227-19.
  
 Gaussian, Inc.
 340 Quinnipiac St., Bldg. 40, Wallingford CT 06492
  
  
 ---------------------------------------------------------------
 Warning -- This program may not be used in any manner that
 competes with the business of Gaussian, Inc. or will provide
 assistance to any competitor of Gaussian, Inc.  The licensee
 of this program is prohibited from giving any competitor of
 Gaussian, Inc. access to this program.  By using this program,
 the user acknowledges that Gaussian, Inc. is engaged in the
 business of creating and licensing software in the field of
 computational chemistry and represents and warrants to the
 licensee that it is not a competitor of Gaussian, Inc. and that
 it will not use this program in any manner prohibited above.
 ---------------------------------------------------------------
  

 Cite this work as:
 Gaussian 16, Revision C.01,
 M. J. Frisch, G. W. Trucks, H. B. Schlegel, G. E. Scuseria, 
 M. A. Robb, J. R. Cheeseman, G. Scalmani, V. Barone, 
 G. A. Petersson, H. Nakatsuji, X. Li, M. Caricato, A. V. Marenich, 
 J. Bloino, B. G. Janesko, R. Gomperts, B. Mennucci, H. P. Hratchian, 
 J. V. Ortiz, A. F. Izmaylov, J. L. Sonnenberg, D. Williams-Young, 
 F. Ding, F. Lipparini, F. Egidi, J. Goings, B. Peng, A. Petrone, 
 T. Henderson, D. Ranasinghe, V. G. Zakrzewski, J. Gao, N. Rega, 
 G. Zheng, W. Liang, M. Hada, M. Ehara, K. Toyota, R. Fukuda, 
 J. Hasegawa, M. Ishida, T. Nakajima, Y. Honda, O. Kitao, H. Nakai, 
 T. Vreven, K. Throssell, J. A. Montgomery, Jr., J. E. Peralta, 
 F. Ogliaro, M. J. Bearpark, J. J. Heyd, E. N. Brothers, K. N. Kudin, 
 V. N. Staroverov, T. A. Keith, R. Kobayashi, J. Normand, 
 K. Raghavachari, A. P. Rendell, J. C. Burant, S. S. Iyengar, 
 J. Tomasi, M. Cossi, J. M. Millam, M. Klene, C. Adamo, R. Cammi, 
 J. W. Ochterski, R. L. Martin, K. Morokuma, O. Farkas, 
 J. B. Foresman, and D. J. Fox, Gaussian, Inc., Wallingford CT, 2019.
 
 ******************************************
 Gaussian 16:  ES64L-G16RevC.01  3-Jul-2019
                19-Mar-2025 
 ******************************************
 %chk=anie201900503-sup-0001-misc_information__3.chk
 %nproc=32
 Will use up to   32 processors via shared memory.
 %mem=80GB
 ----------------------------------------------------------------------
 # p opt(TS,calcfc,noeigen) freq b3lyp/def2svp EmpiricalDispersion=GD3B
 J geom=PrintInputOrient
 ----------------------------------------------------------------------
 1/5=1,10=4,11=1,18=20,26=3,38=1/1,3;
 2/9=2110,12=2,17=6,18=5,40=1/2;
 3/5=43,7=101,11=2,25=1,30=1,71=2,74=-5,124=41,140=1/1,2,3;
 4//1;
 5/5=2,38=5/2;
 8/6=4,10=90,11=11/1;
 11/6=1,8=1,9=11,15=111,16=1/1,2,10;
 10/6=1,13=1/2;
 6/7=2,8=2,9=2,10=2,28=1/1;
 7/10=1,25=1/1,2,3,16;
 1/5=1,10=4,11=1,18=20,26=3/3(2);
 2/9=2110/2;
 99//99;
 2/9=2110/2;
 3/5=43,7=101,11=2,25=1,30=1,71=1,74=-5,124=41/1,2,3;
 4/5=5,16=3,69=1/1;
 5/5=2,38=5/2;
 7//1,2,3,16;
 1/5=1,11=1,18=20,26=3/3(-5);
 2/9=2110/2;
 6/7=2,8=2,9=2,10=2,19=2,28=1/1;
 99/9=1/99;
 ----------------------------------------------------------------------
 C -2.42341600 -0.68444400 0.00010500//H -3.22063500 0.06276600 -0.0000
 5000//H -2.54625500 -1.31920100 -0.88446900//H -2.54633500 -1.31891500
  0.88487600//Electronic energy (ωB97XD/6-311+G(d,p)/SMD(MeCN)) = -308
 .653185 Hartrees//Zero-point correction = 0.127026 Hartrees//Thermal c
 orrection to enthalpy = 0.135217 Hartrees//Thermal correction to Gibbs
  free energy = 0.094751 Hartrees//Quasiharmonic free energy correction
  = 0.095992 Hartrees//SI-TS 1 (Endo TS)
 ----------------------------------------------------------------------
 Symbolic Z-matrix:
 Charge =  0 Multiplicity = 1
 C                    -3.09697   0.53987   0.08949 
 C                    -1.7249    1.19375   0.16339 
 C                    -0.73979   0.47239  -0.35074 
 C                    -0.72115  -0.84429  -0.64486 
 C                    -1.82222  -1.51331   0.13849 
 C                     1.2614    1.20505  -0.02796 
 C                     1.83662  -0.8993    0.1082 
 C                     1.24116   0.86703   1.32807 
 C                     1.56844  -0.48951   1.40092 
 O                     1.83315   0.17072  -0.71774 
 H                    -3.56916   0.71582   1.07102 
 H                    -3.74945   0.97663  -0.67491 
 H                    -1.99004  -2.55381  -0.14818 
 H                    -1.62637  -1.46236   1.21942 
 H                     0.91251   1.51476   2.1284 
 H                     1.55398  -1.13048   2.27124 
 H                    -0.38848  -1.24903  -1.59519 
 H                    -1.59926   2.08697   0.77041 
 O                    -3.05573  -0.84722  -0.17653 
 C                     2.36269  -2.17794  -0.44282 
 C                     1.3039    2.54298  -0.69063 
 H                     3.44755  -2.12521  -0.59328 
 H                     2.15097  -2.99456   0.25125 
 H                     1.8992   -2.40941  -1.4053 
 H                     2.30832   2.97814  -0.64227 
 H                     1.00629   2.46176  -1.73838 
 H                     0.60963   3.22241  -0.18944 
 
 Add virtual bond connecting atoms C6         and C3         Dist= 4.07D+00.

 GradGradGradGradGradGradGradGradGradGradGradGradGradGradGradGradGradGrad
 Berny optimization.
 Initialization pass.
                           ----------------------------
                           !    Initial Parameters    !
                           ! (Angstroms and Degrees)  !
 --------------------------                            --------------------------
 ! Name  Definition              Value          Derivative Info.                !
 --------------------------------------------------------------------------------
 ! R1    R(1,2)                  1.5217         calculate D2E/DX2 analytically  !
 ! R2    R(1,11)                 1.1033         calculate D2E/DX2 analytically  !
 ! R3    R(1,12)                 1.0958         calculate D2E/DX2 analytically  !
 ! R4    R(1,19)                 1.413          calculate D2E/DX2 analytically  !
 ! R5    R(2,3)                  1.3248         calculate D2E/DX2 analytically  !
 ! R6    R(2,18)                 1.0872         calculate D2E/DX2 analytically  !
 ! R7    R(3,4)                  1.3493         calculate D2E/DX2 analytically  !
 ! R8    R(3,6)                  2.1554         calculate D2E/DX2 analytically  !
 ! R9    R(4,5)                  1.5078         calculate D2E/DX2 analytically  !
 ! R10   R(4,17)                 1.0852         calculate D2E/DX2 analytically  !
 ! R11   R(5,13)                 1.0922         calculate D2E/DX2 analytically  !
 ! R12   R(5,14)                 1.0997         calculate D2E/DX2 analytically  !
 ! R13   R(5,19)                 1.4368         calculate D2E/DX2 analytically  !
 ! R14   R(6,8)                  1.3977         calculate D2E/DX2 analytically  !
 ! R15   R(6,10)                 1.3684         calculate D2E/DX2 analytically  !
 ! R16   R(6,21)                 1.4937         calculate D2E/DX2 analytically  !
 ! R17   R(7,9)                  1.3824         calculate D2E/DX2 analytically  !
 ! R18   R(7,10)                 1.3517         calculate D2E/DX2 analytically  !
 ! R19   R(7,20)                 1.4884         calculate D2E/DX2 analytically  !
 ! R20   R(8,9)                  1.3974         calculate D2E/DX2 analytically  !
 ! R21   R(8,15)                 1.0808         calculate D2E/DX2 analytically  !
 ! R22   R(9,16)                 1.081          calculate D2E/DX2 analytically  !
 ! R23   R(20,22)                1.0965         calculate D2E/DX2 analytically  !
 ! R24   R(20,23)                1.0924         calculate D2E/DX2 analytically  !
 ! R25   R(20,24)                1.093          calculate D2E/DX2 analytically  !
 ! R26   R(21,25)                1.0957         calculate D2E/DX2 analytically  !
 ! R27   R(21,26)                1.0922         calculate D2E/DX2 analytically  !
 ! R28   R(21,27)                1.0931         calculate D2E/DX2 analytically  !
 ! A1    A(2,1,11)             105.9116         calculate D2E/DX2 analytically  !
 ! A2    A(2,1,12)             113.546          calculate D2E/DX2 analytically  !
 ! A3    A(2,1,19)             113.8698         calculate D2E/DX2 analytically  !
 ! A4    A(11,1,12)            107.5884         calculate D2E/DX2 analytically  !
 ! A5    A(11,1,19)            109.6657         calculate D2E/DX2 analytically  !
 ! A6    A(12,1,19)            106.1004         calculate D2E/DX2 analytically  !
 ! A7    A(1,2,3)              114.6858         calculate D2E/DX2 analytically  !
 ! A8    A(1,2,18)             118.9684         calculate D2E/DX2 analytically  !
 ! A9    A(3,2,18)             125.3151         calculate D2E/DX2 analytically  !
 ! A10   A(2,3,4)              128.7715         calculate D2E/DX2 analytically  !
 ! A11   A(2,3,6)              116.5628         calculate D2E/DX2 analytically  !
 ! A12   A(4,3,6)              110.5812         calculate D2E/DX2 analytically  !
 ! A13   A(3,4,5)              108.0381         calculate D2E/DX2 analytically  !
 ! A14   A(3,4,17)             123.9933         calculate D2E/DX2 analytically  !
 ! A15   A(5,4,17)             120.8863         calculate D2E/DX2 analytically  !
 ! A16   A(4,5,13)             113.486          calculate D2E/DX2 analytically  !
 ! A17   A(4,5,14)             111.1029         calculate D2E/DX2 analytically  !
 ! A18   A(4,5,19)             107.8973         calculate D2E/DX2 analytically  !
 ! A19   A(13,5,14)            109.237          calculate D2E/DX2 analytically  !
 ! A20   A(13,5,19)            104.6058         calculate D2E/DX2 analytically  !
 ! A21   A(14,5,19)            110.2988         calculate D2E/DX2 analytically  !
 ! A22   A(3,6,8)               92.8455         calculate D2E/DX2 analytically  !
 ! A23   A(3,6,10)              93.182          calculate D2E/DX2 analytically  !
 ! A24   A(3,6,21)             105.3351         calculate D2E/DX2 analytically  !
 ! A25   A(8,6,10)             108.198          calculate D2E/DX2 analytically  !
 ! A26   A(8,6,21)             130.3523         calculate D2E/DX2 analytically  !
 ! A27   A(10,6,21)            116.2019         calculate D2E/DX2 analytically  !
 ! A28   A(9,7,10)             109.6483         calculate D2E/DX2 analytically  !
 ! A29   A(9,7,20)             132.0232         calculate D2E/DX2 analytically  !
 ! A30   A(10,7,20)            117.0484         calculate D2E/DX2 analytically  !
 ! A31   A(6,8,9)              106.3779         calculate D2E/DX2 analytically  !
 ! A32   A(6,8,15)             125.3032         calculate D2E/DX2 analytically  !
 ! A33   A(9,8,15)             127.9102         calculate D2E/DX2 analytically  !
 ! A34   A(7,9,8)              106.5265         calculate D2E/DX2 analytically  !
 ! A35   A(7,9,16)             125.4316         calculate D2E/DX2 analytically  !
 ! A36   A(8,9,16)             127.9135         calculate D2E/DX2 analytically  !
 ! A37   A(6,10,7)             106.9425         calculate D2E/DX2 analytically  !
 ! A38   A(1,19,5)             116.0317         calculate D2E/DX2 analytically  !
 ! A39   A(7,20,22)            111.05           calculate D2E/DX2 analytically  !
 ! A40   A(7,20,23)            109.7836         calculate D2E/DX2 analytically  !
 ! A41   A(7,20,24)            110.9801         calculate D2E/DX2 analytically  !
 ! A42   A(22,20,23)           108.3527         calculate D2E/DX2 analytically  !
 ! A43   A(22,20,24)           107.9918         calculate D2E/DX2 analytically  !
 ! A44   A(23,20,24)           108.6001         calculate D2E/DX2 analytically  !
 ! A45   A(6,21,25)            111.2388         calculate D2E/DX2 analytically  !
 ! A46   A(6,21,26)            110.5622         calculate D2E/DX2 analytically  !
 ! A47   A(6,21,27)            109.5887         calculate D2E/DX2 analytically  !
 ! A48   A(25,21,26)           108.763          calculate D2E/DX2 analytically  !
 ! A49   A(25,21,27)           108.3696         calculate D2E/DX2 analytically  !
 ! A50   A(26,21,27)           108.2401         calculate D2E/DX2 analytically  !
 ! D1    D(11,1,2,3)           136.6884         calculate D2E/DX2 analytically  !
 ! D2    D(11,1,2,18)          -32.3196         calculate D2E/DX2 analytically  !
 ! D3    D(12,1,2,3)          -105.4731         calculate D2E/DX2 analytically  !
 ! D4    D(12,1,2,18)           85.519          calculate D2E/DX2 analytically  !
 ! D5    D(19,1,2,3)            16.1032         calculate D2E/DX2 analytically  !
 ! D6    D(19,1,2,18)         -152.9048         calculate D2E/DX2 analytically  !
 ! D7    D(2,1,19,5)            21.7656         calculate D2E/DX2 analytically  !
 ! D8    D(11,1,19,5)          -96.692          calculate D2E/DX2 analytically  !
 ! D9    D(12,1,19,5)          147.3859         calculate D2E/DX2 analytically  !
 ! D10   D(1,2,3,4)            -16.5657         calculate D2E/DX2 analytically  !
 ! D11   D(1,2,3,6)           -171.478          calculate D2E/DX2 analytically  !
 ! D12   D(18,2,3,4)           151.6378         calculate D2E/DX2 analytically  !
 ! D13   D(18,2,3,6)            -3.2746         calculate D2E/DX2 analytically  !
 ! D14   D(2,3,4,5)            -19.9334         calculate D2E/DX2 analytically  !
 ! D15   D(2,3,4,17)           130.6129         calculate D2E/DX2 analytically  !
 ! D16   D(6,3,4,5)            136.169          calculate D2E/DX2 analytically  !
 ! D17   D(6,3,4,17)           -73.2848         calculate D2E/DX2 analytically  !
 ! D18   D(2,3,6,8)             71.8826         calculate D2E/DX2 analytically  !
 ! D19   D(2,3,6,10)          -179.7002         calculate D2E/DX2 analytically  !
 ! D20   D(2,3,6,21)           -61.4198         calculate D2E/DX2 analytically  !
 ! D21   D(4,3,6,8)            -87.4397         calculate D2E/DX2 analytically  !
 ! D22   D(4,3,6,10)            20.9775         calculate D2E/DX2 analytically  !
 ! D23   D(4,3,6,21)           139.258          calculate D2E/DX2 analytically  !
 ! D24   D(3,4,5,13)           170.9887         calculate D2E/DX2 analytically  !
 ! D25   D(3,4,5,14)           -65.4551         calculate D2E/DX2 analytically  !
 ! D26   D(3,4,5,19)            55.5687         calculate D2E/DX2 analytically  !
 ! D27   D(17,4,5,13)           19.3518         calculate D2E/DX2 analytically  !
 ! D28   D(17,4,5,14)          142.9079         calculate D2E/DX2 analytically  !
 ! D29   D(17,4,5,19)          -96.0683         calculate D2E/DX2 analytically  !
 ! D30   D(4,5,19,1)           -58.1424         calculate D2E/DX2 analytically  !
 ! D31   D(13,5,19,1)         -179.2691         calculate D2E/DX2 analytically  !
 ! D32   D(14,5,19,1)           63.3817         calculate D2E/DX2 analytically  !
 ! D33   D(3,6,8,9)             82.8829         calculate D2E/DX2 analytically  !
 ! D34   D(3,6,8,15)           -90.2529         calculate D2E/DX2 analytically  !
 ! D35   D(10,6,8,9)           -11.4093         calculate D2E/DX2 analytically  !
 ! D36   D(10,6,8,15)          175.4549         calculate D2E/DX2 analytically  !
 ! D37   D(21,6,8,9)          -164.1821         calculate D2E/DX2 analytically  !
 ! D38   D(21,6,8,15)           22.6821         calculate D2E/DX2 analytically  !
 ! D39   D(3,6,10,7)           -78.442          calculate D2E/DX2 analytically  !
 ! D40   D(8,6,10,7)            15.6072         calculate D2E/DX2 analytically  !
 ! D41   D(21,6,10,7)          172.74           calculate D2E/DX2 analytically  !
 ! D42   D(3,6,21,25)         -176.195          calculate D2E/DX2 analytically  !
 ! D43   D(3,6,21,26)          -55.2397         calculate D2E/DX2 analytically  !
 ! D44   D(3,6,21,27)           63.9909         calculate D2E/DX2 analytically  !
 ! D45   D(8,6,21,25)           76.3152         calculate D2E/DX2 analytically  !
 ! D46   D(8,6,21,26)         -162.7296         calculate D2E/DX2 analytically  !
 ! D47   D(8,6,21,27)          -43.499          calculate D2E/DX2 analytically  !
 ! D48   D(10,6,21,25)         -74.7109         calculate D2E/DX2 analytically  !
 ! D49   D(10,6,21,26)          46.2444         calculate D2E/DX2 analytically  !
 ! D50   D(10,6,21,27)         165.475          calculate D2E/DX2 analytically  !
 ! D51   D(10,7,9,8)             6.7655         calculate D2E/DX2 analytically  !
 ! D52   D(10,7,9,16)         -177.0871         calculate D2E/DX2 analytically  !
 ! D53   D(20,7,9,8)           173.1077         calculate D2E/DX2 analytically  !
 ! D54   D(20,7,9,16)          -10.745          calculate D2E/DX2 analytically  !
 ! D55   D(9,7,10,6)           -13.9077         calculate D2E/DX2 analytically  !
 ! D56   D(20,7,10,6)          177.451          calculate D2E/DX2 analytically  !
 ! D57   D(9,7,20,22)          -95.4253         calculate D2E/DX2 analytically  !
 ! D58   D(9,7,20,23)           24.375          calculate D2E/DX2 analytically  !
 ! D59   D(9,7,20,24)          144.439          calculate D2E/DX2 analytically  !
 ! D60   D(10,7,20,22)          70.1159         calculate D2E/DX2 analytically  !
 ! D61   D(10,7,20,23)        -170.0839         calculate D2E/DX2 analytically  !
 ! D62   D(10,7,20,24)         -50.0199         calculate D2E/DX2 analytically  !
 ! D63   D(6,8,9,7)              2.9024         calculate D2E/DX2 analytically  !
 ! D64   D(6,8,9,16)          -173.1184         calculate D2E/DX2 analytically  !
 ! D65   D(15,8,9,7)           175.801          calculate D2E/DX2 analytically  !
 ! D66   D(15,8,9,16)           -0.2198         calculate D2E/DX2 analytically  !
 --------------------------------------------------------------------------------
 Trust Radius=3.00D-01 FncErr=1.00D-07 GrdErr=1.00D-06 EigMax=2.50D+02 EigMin=1.00D-04
 Number of steps in this run=    154 maximum allowed number of steps=    162.
 Search for a saddle point of order  1.
 GradGradGradGradGradGradGradGradGradGradGradGradGradGradGradGradGradGrad

                          Input orientation:                          
 ---------------------------------------------------------------------
 Center     Atomic      Atomic             Coordinates (Angstroms)
 Number     Number       Type             X           Y           Z
 ---------------------------------------------------------------------
      1          6           0       -3.096972    0.539865    0.089493
      2          6           0       -1.724902    1.193750    0.163392
      3          6           0       -0.739789    0.472389   -0.350743
      4          6           0       -0.721154   -0.844288   -0.644859
      5          6           0       -1.822216   -1.513306    0.138489
      6          6           0        1.261395    1.205052   -0.027957
      7          6           0        1.836618   -0.899295    0.108200
      8          6           0        1.241156    0.867030    1.328071
      9          6           0        1.568438   -0.489510    1.400921
     10          8           0        1.833150    0.170719   -0.717736
     11          1           0       -3.569158    0.715815    1.071021
     12          1           0       -3.749454    0.976628   -0.674911
     13          1           0       -1.990040   -2.553806   -0.148180
     14          1           0       -1.626367   -1.462358    1.219415
     15          1           0        0.912505    1.514761    2.128395
     16          1           0        1.553979   -1.130477    2.271243
     17          1           0       -0.388477   -1.249031   -1.595193
     18          1           0       -1.599263    2.086972    0.770414
     19          8           0       -3.055731   -0.847223   -0.176528
     20          6           0        2.362686   -2.177936   -0.442822
     21          6           0        1.303902    2.542984   -0.690629
     22          1           0        3.447549   -2.125211   -0.593280
     23          1           0        2.150965   -2.994564    0.251252
     24          1           0        1.899203   -2.409410   -1.405297
     25          1           0        2.308319    2.978144   -0.642274
     26          1           0        1.006286    2.461758   -1.738383
     27          1           0        0.609630    3.222407   -0.189436
 ---------------------------------------------------------------------
                    Distance matrix (angstroms):
                    1          2          3          4          5
     1  C    0.000000
     2  C    1.521710   0.000000
     3  C    2.398890   1.324819   0.000000
     4  C    2.845991   2.411302   1.349255   0.000000
     5  C    2.417212   2.708919   2.313867   1.507832   0.000000
     6  C    4.410400   2.992442   2.155394   2.917338   4.114102
     7  C    5.139245   4.131381   2.954661   2.666894   3.710120
     8  C    4.523325   3.203236   2.626462   3.266760   4.057752
     9  C    4.954342   3.900119   3.053111   3.090844   3.760110
    10  O    5.009390   3.805616   2.616430   2.749549   4.114701
    11  H    1.103320   2.110330   3.175846   3.672777   2.981678
    12  H    1.095814   2.201977   3.068782   3.533729   3.252020
    13  H    3.294327   3.769821   3.280551   2.186141   1.092238
    14  H    2.729157   2.860036   2.644742   2.162623   1.099706
    15  H    4.602548   3.304573   3.156381   3.990600   4.539561
    16  H    5.401983   4.538296   3.834757   3.709688   4.011719
    17  H    3.657084   3.293301   2.152989   1.085185   2.265194
    18  H    2.258390   1.087247   2.145359   3.371403   3.662109
    19  O    1.412969   2.460126   2.671201   2.381091   1.436823
    20  C    6.121901   5.333305   4.081428   3.365933   4.277039
    21  C    4.897833   3.423951   2.929088   3.946715   5.187826
    22  H    7.099265   6.192116   4.933574   4.361365   5.355403
    23  H    6.329234   5.707192   4.553967   3.698076   4.241817
    24  H    5.991192   5.345810   4.047361   3.145496   4.127377
    25  H    5.974768   4.483306   3.956610   4.877366   6.151750
    26  H    4.885850   3.561458   2.988630   3.887131   5.227256
    27  H    4.583965   3.112873   3.067499   4.303069   5.333703
                    6          7          8          9         10
     6  C    0.000000
     7  C    2.185794   0.000000
     8  C    1.397670   2.227681   0.000000
     9  C    2.237746   1.382379   1.397362   0.000000
    10  O    1.368409   1.351707   2.240677   2.234879   0.000000
    11  H    4.978087   5.723462   4.819550   5.287394   5.716792
    12  H    5.057602   5.944455   5.378674   5.893947   5.640637
    13  H    4.971448   4.176895   4.931740   4.395884   4.729082
    14  H    4.124340   3.680231   3.696017   3.344571   4.288094
    15  H    2.206241   3.280677   1.080780   2.230822   3.279405
    16  H    3.290383   2.193646   2.231024   1.080976   3.271856
    17  H    3.346764   2.823988   3.959658   3.658290   2.778713
    18  H    3.098152   4.600173   3.141213   4.131601   4.203341
    19  O    4.782414   4.900904   4.864742   4.898902   5.022974
    20  C    3.581838   1.488387   3.696716   2.623166   2.423255
    21  C    1.493654   3.573681   2.624483   3.693316   2.430736
    22  H    4.023619   2.142439   4.184885   3.191146   2.809460
    23  H    4.301868   2.123542   4.110864   2.817157   3.325502
    24  H    3.920230   2.138934   4.317335   3.416179   2.670986
    25  H    2.148788   3.977467   3.078620   4.092272   2.848353
    26  H    2.137744   3.923773   3.464313   4.345253   2.640887
    27  H    2.126169   4.310744   2.872186   4.150527   3.330000
                   11         12         13         14         15
    11  H    0.000000
    12  H    1.774488   0.000000
    13  H    3.830207   3.979566   0.000000
    14  H    2.922481   3.747616   1.787130   0.000000
    15  H    4.673506   5.466441   5.491885   4.016884   0.000000
    16  H    5.576366   6.422314   4.521011   3.366168   2.725652
    17  H    4.591955   4.134809   2.522159   3.082190   4.816244
    18  H    2.418868   2.818714   4.746930   3.577720   2.912133
    19  O    2.064721   2.013969   2.012194   2.090485   5.161253
    20  C    6.771432   6.882107   4.378849   4.380368   4.727599
    21  C    5.494422   5.290569   6.092748   5.317660   3.026108
    22  H    7.750839   7.837405   5.472585   5.428615   5.204167
    23  H    6.867222   7.172384   4.183508   4.189658   5.038994
    24  H    6.767729   6.626164   4.089915   4.496183   5.372120
    25  H    6.526733   6.379949   7.022997   6.218175   3.430218
    26  H    5.645862   5.094472   6.054965   5.574775   3.982156
    27  H    5.033292   4.927557   6.334400   5.378807   2.894845
                   16         17         18         19         20
    16  H    0.000000
    17  H    4.328570   0.000000
    18  H    4.748410   4.265093   0.000000
    19  O    5.226973   3.047672   3.409912   0.000000
    20  C    3.019491   3.124055   5.946295   5.585781   0.000000
    21  C    4.725414   4.249913   3.281914   5.546549   4.844535
    22  H    3.574996   4.060371   6.713602   6.640752   1.096515
    23  H    2.812752   3.592354   6.336856   5.648341   1.092449
    24  H    3.907914   2.572162   6.098396   5.338696   1.093048
    25  H    5.092973   5.103898   4.249597   6.604800   5.160223
    26  H    5.411212   3.966840   3.636401   5.467058   5.004504
    27  H    5.088648   4.792299   2.662655   5.476945   5.683407
                   21         22         23         24         25
    21  C    0.000000
    22  H    5.137776   0.000000
    23  H    5.680589   1.774863   0.000000
    24  H    5.038982   1.771303   1.774808   0.000000
    25  H    1.095699   5.229195   6.041224   5.456676   0.000000
    26  H    1.092228   5.320837   5.919492   4.963519   1.778595
    27  H    1.093080   6.067445   6.420331   5.904124   1.774900
                   26         27
    26  H    0.000000
    27  H    1.770638   0.000000
 Stoichiometry    C11H14O2
 Framework group  C1[X(C11H14O2)]
 Deg. of freedom    75
 Full point group                 C1      NOp   1
 Largest Abelian subgroup         C1      NOp   1
 Largest concise Abelian subgroup C1      NOp   1
                         Standard orientation:                         
 ---------------------------------------------------------------------
 Center     Atomic      Atomic             Coordinates (Angstroms)
 Number     Number       Type             X           Y           Z
 ---------------------------------------------------------------------
      1          6           0       -3.096972    0.539865    0.089493
      2          6           0       -1.724902    1.193750    0.163392
      3          6           0       -0.739789    0.472389   -0.350743
      4          6           0       -0.721154   -0.844288   -0.644859
      5          6           0       -1.822216   -1.513306    0.138489
      6          6           0        1.261395    1.205052   -0.027957
      7          6           0        1.836618   -0.899295    0.108200
      8          6           0        1.241156    0.867030    1.328071
      9          6           0        1.568438   -0.489510    1.400921
     10          8           0        1.833150    0.170719   -0.717736
     11          1           0       -3.569158    0.715815    1.071021
     12          1           0       -3.749454    0.976628   -0.674911
     13          1           0       -1.990040   -2.553806   -0.148180
     14          1           0       -1.626367   -1.462358    1.219415
     15          1           0        0.912505    1.514761    2.128395
     16          1           0        1.553979   -1.130477    2.271243
     17          1           0       -0.388477   -1.249031   -1.595193
     18          1           0       -1.599263    2.086972    0.770414
     19          8           0       -3.055731   -0.847223   -0.176528
     20          6           0        2.362686   -2.177936   -0.442822
     21          6           0        1.303902    2.542984   -0.690629
     22          1           0        3.447549   -2.125211   -0.593280
     23          1           0        2.150965   -2.994564    0.251252
     24          1           0        1.899203   -2.409410   -1.405297
     25          1           0        2.308319    2.978144   -0.642274
     26          1           0        1.006286    2.461758   -1.738383
     27          1           0        0.609630    3.222407   -0.189436
 ---------------------------------------------------------------------
 Rotational constants (GHZ):           1.2634134           0.6656676           0.5168504
 Standard basis: def2SVP (5D, 7F)
 There are   265 symmetry adapted cartesian basis functions of A   symmetry.
 There are   252 symmetry adapted basis functions of A   symmetry.
   252 basis functions,   423 primitive gaussians,   265 cartesian basis functions
    48 alpha electrons       48 beta electrons
       nuclear repulsion energy       818.3594447432 Hartrees.
 NAtoms=   27 NActive=   27 NUniq=   27 SFac= 1.00D+00 NAtFMM=   60 NAOKFM=F Big=F
 Integral buffers will be    131072 words long.
 Raffenetti 2 integral format.
 Two-electron integral symmetry is turned on.
 Nuclear repulsion after empirical dispersion term =      818.3075131679 Hartrees.
 One-electron integrals computed using PRISM.
   1 Symmetry operations used in ECPInt.
 ECPInt:  NShTT=    7260 NPrTT=   25862 LenC2=    7099 LenP2D=   19202.
 LDataN:  DoStor=T MaxTD1= 4 Len=   56
 NBasis=   252 RedAO= T EigKep=  4.90D-04  NBF=   252
 NBsUse=   252 1.00D-06 EigRej= -1.00D+00 NBFU=   252
 ExpMin= 1.22D-01 ExpMax= 2.27D+03 ExpMxC= 3.41D+02 IAcc=3 IRadAn=         5 AccDes= 0.00D+00
 Harris functional with IExCor=  402 and IRadAn=       5 diagonalized for initial guess.
 HarFok:  IExCor=  402 AccDes= 0.00D+00 IRadAn=         5 IDoV= 1 UseB2=F ITyADJ=14
 ICtDFT=  3500011 ScaDFX=  1.000000  1.000000  1.000000  1.000000
 FoFCou: FMM=F IPFlag=           0 FMFlag=      100000 FMFlg1=           0
         NFxFlg=           0 DoJE=T BraDBF=F KetDBF=T FulRan=T
         wScrn=  0.000000 ICntrl=       500 IOpCl=  0 I1Cent=   200000004 NGrid=           0
         NMat0=    1 NMatS0=      1 NMatT0=    0 NMatD0=    1 NMtDS0=    0 NMtDT0=    0
 Petite list used in FoFCou.
 Requested convergence on RMS density matrix=1.00D-08 within 128 cycles.
 Requested convergence on MAX density matrix=1.00D-06.
 Requested convergence on             energy=1.00D-06.
 No special actions if energy rises.
 Integral accuracy reduced to 1.0D-05 until final iterations.
 Initial convergence to 1.0D-05 achieved.  Increase integral accuracy.
 SCF Done:  E(RB3LYP) =  -577.526539147     A.U. after   15 cycles
            NFock= 15  Conv=0.63D-08     -V/T= 2.0103
 DoSCS=F DFT=T ScalE2(SS,OS)=  1.000000  1.000000
 Range of M.O.s used for correlation:     1   252
 NBasis=   252 NAE=    48 NBE=    48 NFC=     0 NFV=     0
 NROrb=    252 NOA=    48 NOB=    48 NVA=   204 NVB=   204
   1 Symmetry operations used in ECPInt.
 ECPInt:  NShTT=    7260 NPrTT=   25862 LenC2=    7099 LenP2D=   19202.
 LDataN:  DoStor=T MaxTD1= 5 Len=  102
 Symmetrizing basis deriv contribution to polar:
 IMax=3 JMax=2 DiffMx= 0.00D+00
 G2DrvN: will do    28 centers at a time, making    1 passes.
 Calling FoFCou, ICntrl=  3107 FMM=F I1Cent=   0 AccDes= 0.00D+00.
 End of G2Drv F.D. properties file   721 does not exist.
 End of G2Drv F.D. properties file   722 does not exist.
 End of G2Drv F.D. properties file   788 does not exist.
          IDoAtm=111111111111111111111111111
          Differentiating once with respect to nuclear coordinates.
 Keep R1 ints in memory in canonical form, NReq=543152365.
          There are    84 degrees of freedom in the 1st order CPHF.  IDoFFX=6 NUNeed=     0.
     78 vectors produced by pass  0 Test12= 1.17D-14 1.19D-09 XBig12= 1.47D-01 1.47D-01.
 AX will form    78 AO Fock derivatives at one time.
     78 vectors produced by pass  1 Test12= 1.17D-14 1.19D-09 XBig12= 4.37D-02 5.26D-02.
     78 vectors produced by pass  2 Test12= 1.17D-14 1.19D-09 XBig12= 3.96D-04 3.82D-03.
     78 vectors produced by pass  3 Test12= 1.17D-14 1.19D-09 XBig12= 2.22D-06 2.16D-04.
     78 vectors produced by pass  4 Test12= 1.17D-14 1.19D-09 XBig12= 4.10D-09 6.56D-06.
     63 vectors produced by pass  5 Test12= 1.17D-14 1.19D-09 XBig12= 3.76D-12 1.95D-07.
     10 vectors produced by pass  6 Test12= 1.17D-14 1.19D-09 XBig12= 2.97D-15 6.23D-09.
 InvSVY:  IOpt=1 It=  1 EMax= 2.78D-16
 Solved reduced A of dimension   463 with    84 vectors.
 End of Minotr F.D. properties file   721 does not exist.
 End of Minotr F.D. properties file   722 does not exist.
 End of Minotr F.D. properties file   788 does not exist.

 **********************************************************************

            Population analysis using the SCF Density.

 **********************************************************************

 Orbital symmetries:
       Occupied  (A) (A) (A) (A) (A) (A) (A) (A) (A) (A) (A) (A)
                 (A) (A) (A) (A) (A) (A) (A) (A) (A) (A) (A) (A)
                 (A) (A) (A) (A) (A) (A) (A) (A) (A) (A) (A) (A)
                 (A) (A) (A) (A) (A) (A) (A) (A) (A) (A) (A) (A)
       Virtual   (A) (A) (A) (A) (A) (A) (A) (A) (A) (A) (A) (A)
                 (A) (A) (A) (A) (A) (A) (A) (A) (A) (A) (A) (A)
                 (A) (A) (A) (A) (A) (A) (A) (A) (A) (A) (A) (A)
                 (A) (A) (A) (A) (A) (A) (A) (A) (A) (A) (A) (A)
                 (A) (A) (A) (A) (A) (A) (A) (A) (A) (A) (A) (A)
                 (A) (A) (A) (A) (A) (A) (A) (A) (A) (A) (A) (A)
                 (A) (A) (A) (A) (A) (A) (A) (A) (A) (A) (A) (A)
                 (A) (A) (A) (A) (A) (A) (A) (A) (A) (A) (A) (A)
                 (A) (A) (A) (A) (A) (A) (A) (A) (A) (A) (A) (A)
                 (A) (A) (A) (A) (A) (A) (A) (A) (A) (A) (A) (A)
                 (A) (A) (A) (A) (A) (A) (A) (A) (A) (A) (A) (A)
                 (A) (A) (A) (A) (A) (A) (A) (A) (A) (A) (A) (A)
                 (A) (A) (A) (A) (A) (A) (A) (A) (A) (A) (A) (A)
                 (A) (A) (A) (A) (A) (A) (A) (A) (A) (A) (A) (A)
                 (A) (A) (A) (A) (A) (A) (A) (A) (A) (A) (A) (A)
                 (A) (A) (A) (A) (A) (A) (A) (A) (A) (A) (A) (A)
                 (A) (A) (A) (A) (A) (A) (A) (A) (A) (A) (A) (A)
 The electronic state is 1-A.
 Alpha  occ. eigenvalues --  -19.18833 -19.11951 -10.25342 -10.25135 -10.22935
 Alpha  occ. eigenvalues --  -10.22340 -10.19730 -10.19344 -10.18754 -10.18477
 Alpha  occ. eigenvalues --  -10.18341 -10.17733 -10.16535  -1.10368  -1.00994
 Alpha  occ. eigenvalues --   -0.80410  -0.79364  -0.78295  -0.74520  -0.73079
 Alpha  occ. eigenvalues --   -0.64993  -0.62393  -0.61181  -0.60025  -0.55322
 Alpha  occ. eigenvalues --   -0.50514  -0.49909  -0.49255  -0.46993  -0.45536
 Alpha  occ. eigenvalues --   -0.44871  -0.44163  -0.42649  -0.42531  -0.41331
 Alpha  occ. eigenvalues --   -0.40063  -0.39663  -0.39273  -0.38999  -0.38519
 Alpha  occ. eigenvalues --   -0.36637  -0.36491  -0.31626  -0.29514  -0.25443
 Alpha  occ. eigenvalues --   -0.25095  -0.23888  -0.19565
 Alpha virt. eigenvalues --   -0.04434   0.02021   0.04750   0.05748   0.06911
 Alpha virt. eigenvalues --    0.07349   0.08411   0.09188   0.10701   0.11361
 Alpha virt. eigenvalues --    0.12509   0.12592   0.13644   0.13834   0.14668
 Alpha virt. eigenvalues --    0.14850   0.15857   0.17866   0.18112   0.20489
 Alpha virt. eigenvalues --    0.21742   0.22610   0.23545   0.24662   0.26990
 Alpha virt. eigenvalues --    0.28889   0.29162   0.33912   0.36211   0.36789
 Alpha virt. eigenvalues --    0.39469   0.39599   0.41022   0.41945   0.43506
 Alpha virt. eigenvalues --    0.44649   0.45909   0.46411   0.47749   0.48411
 Alpha virt. eigenvalues --    0.49610   0.50499   0.51161   0.51922   0.53869
 Alpha virt. eigenvalues --    0.55134   0.55702   0.59094   0.59698   0.60407
 Alpha virt. eigenvalues --    0.60852   0.61768   0.63650   0.64216   0.64377
 Alpha virt. eigenvalues --    0.64514   0.64876   0.65231   0.66065   0.66838
 Alpha virt. eigenvalues --    0.67048   0.67313   0.68208   0.68493   0.69173
 Alpha virt. eigenvalues --    0.70394   0.71048   0.71592   0.72308   0.73069
 Alpha virt. eigenvalues --    0.73504   0.76152   0.77708   0.78994   0.80631
 Alpha virt. eigenvalues --    0.80875   0.83579   0.85787   0.88907   0.90887
 Alpha virt. eigenvalues --    0.91987   0.94758   0.95982   0.97458   1.01797
 Alpha virt. eigenvalues --    1.03646   1.04507   1.08520   1.13664   1.15491
 Alpha virt. eigenvalues --    1.16296   1.19345   1.21161   1.24899   1.26855
 Alpha virt. eigenvalues --    1.29177   1.31792   1.34953   1.35989   1.38595
 Alpha virt. eigenvalues --    1.42201   1.42952   1.47735   1.48555   1.51334
 Alpha virt. eigenvalues --    1.52471   1.52693   1.55068   1.56461   1.57502
 Alpha virt. eigenvalues --    1.59994   1.64051   1.64227   1.65808   1.65948
 Alpha virt. eigenvalues --    1.68821   1.70625   1.71025   1.73437   1.75098
 Alpha virt. eigenvalues --    1.75557   1.75972   1.77565   1.78179   1.79325
 Alpha virt. eigenvalues --    1.80380   1.81285   1.81649   1.82963   1.83617
 Alpha virt. eigenvalues --    1.86478   1.87279   1.87700   1.88836   1.90002
 Alpha virt. eigenvalues --    1.90691   1.92454   1.93441   1.94319   1.96390
 Alpha virt. eigenvalues --    1.97260   1.97858   1.99259   2.01481   2.02386
 Alpha virt. eigenvalues --    2.05934   2.07241   2.08456   2.10793   2.11656
 Alpha virt. eigenvalues --    2.13939   2.14420   2.16176   2.17240   2.23515
 Alpha virt. eigenvalues --    2.24397   2.25006   2.26586   2.27466   2.29938
 Alpha virt. eigenvalues --    2.32457   2.37198   2.37347   2.39620   2.43282
 Alpha virt. eigenvalues --    2.44824   2.46174   2.47401   2.50124   2.53931
 Alpha virt. eigenvalues --    2.54531   2.56405   2.59057   2.62004   2.65792
 Alpha virt. eigenvalues --    2.70181   2.71808   2.72431   2.73153   2.78149
 Alpha virt. eigenvalues --    2.78909   2.81968   2.83918   2.87043   2.88834
 Alpha virt. eigenvalues --    2.90042   2.90763   2.92772   2.93665   2.95213
 Alpha virt. eigenvalues --    2.96097   3.00204   3.02138   3.04261   3.06444
 Alpha virt. eigenvalues --    3.08026   3.15117   3.18632   3.20303   3.38109
 Alpha virt. eigenvalues --    3.38848   3.43248   3.49398   3.67512
          Condensed to atoms (all electrons):
               1          2          3          4          5          6
     1  C    4.450575   0.337370  -0.022233  -0.052654  -0.050957   0.002602
     2  C    0.337370   5.077429   0.585619  -0.129944  -0.008340  -0.039067
     3  C   -0.022233   0.585619   5.118493   0.525891  -0.006418   0.155136
     4  C   -0.052654  -0.129944   0.525891   5.036067   0.400233  -0.027477
     5  C   -0.050957  -0.008340  -0.006418   0.400233   4.421034   0.003668
     6  C    0.002602  -0.039067   0.155136  -0.027477   0.003668   5.030928
     7  C    0.000048   0.003158   0.003199   0.079856  -0.004395  -0.154013
     8  C   -0.001366   0.021282  -0.078690  -0.040838  -0.004459   0.307806
     9  C   -0.000044  -0.008819  -0.019289   0.012128  -0.001584   0.050500
    10  O   -0.000100   0.002541  -0.041994  -0.024677   0.000602   0.330212
    11  H    0.350430  -0.031361   0.005671   0.005698  -0.004186  -0.000117
    12  H    0.366728  -0.007814  -0.010201  -0.000843   0.007734  -0.000056
    13  H    0.005919   0.004308   0.010953  -0.017777   0.354813  -0.000177
    14  H   -0.004362  -0.001065  -0.036919  -0.002942   0.341431  -0.000031
    15  H   -0.000112   0.004673  -0.004749  -0.000184  -0.000134  -0.064301
    16  H   -0.000006  -0.000078   0.000281  -0.000295   0.000153   0.014619
    17  H    0.000744   0.009545  -0.030411   0.354673  -0.041025  -0.005384
    18  H   -0.055717   0.391122  -0.057407   0.012495  -0.000475  -0.006365
    19  O    0.363117  -0.052150  -0.033517  -0.037205   0.314619  -0.000005
    20  C   -0.000003  -0.000135  -0.000619  -0.010642  -0.000147   0.004062
    21  C   -0.000062  -0.004674  -0.019842   0.002353  -0.000140   0.415568
    22  H    0.000000   0.000002   0.000064   0.001584   0.000009   0.000590
    23  H    0.000001  -0.000006   0.000045   0.000016   0.000222   0.000120
    24  H    0.000003   0.000022   0.000689  -0.003807   0.000033   0.000624
    25  H    0.000012   0.000062   0.003868  -0.000141   0.000005  -0.013471
    26  H   -0.000037  -0.000263  -0.001973   0.001244   0.000019  -0.001006
    27  H   -0.000026   0.003686  -0.003138   0.000158  -0.000006   0.003335
               7          8          9         10         11         12
     1  C    0.000048  -0.001366  -0.000044  -0.000100   0.350430   0.366728
     2  C    0.003158   0.021282  -0.008819   0.002541  -0.031361  -0.007814
     3  C    0.003199  -0.078690  -0.019289  -0.041994   0.005671  -0.010201
     4  C    0.079856  -0.040838   0.012128  -0.024677   0.005698  -0.000843
     5  C   -0.004395  -0.004459  -0.001584   0.000602  -0.004186   0.007734
     6  C   -0.154013   0.307806   0.050500   0.330212  -0.000117  -0.000056
     7  C    4.909239   0.041849   0.379785   0.347144   0.000008  -0.000003
     8  C    0.041849   5.191556   0.271701  -0.048297  -0.000132   0.000075
     9  C    0.379785   0.271701   5.114209  -0.073403   0.000072  -0.000011
    10  O    0.347144  -0.048297  -0.073403   7.815398   0.000000   0.000004
    11  H    0.000008  -0.000132   0.000072   0.000000   0.754589  -0.039380
    12  H   -0.000003   0.000075  -0.000011   0.000004  -0.039380   0.692294
    13  H    0.000554   0.000070  -0.000066  -0.000010  -0.000816  -0.000089
    14  H   -0.001817   0.003503   0.003155   0.000052   0.008886  -0.000584
    15  H    0.014686   0.450581  -0.070966   0.004649  -0.000009   0.000004
    16  H   -0.060928  -0.072077   0.447509   0.004430   0.000002  -0.000000
    17  H    0.001923   0.004641  -0.003282   0.004162   0.000006   0.000427
    18  H   -0.000017   0.006062   0.000050   0.000240  -0.005671   0.004685
    19  O    0.000209  -0.000194   0.000023  -0.000004  -0.034899  -0.029923
    20  C    0.423060   0.013459  -0.085776  -0.049627  -0.000000   0.000000
    21  C    0.005477  -0.081940   0.012272  -0.050511   0.000010  -0.000009
    22  H   -0.009692  -0.000708  -0.000364  -0.000346   0.000000  -0.000000
    23  H    0.005165  -0.000035  -0.008239   0.003349  -0.000000  -0.000000
    24  H    0.001292  -0.000425   0.008300  -0.000167  -0.000000   0.000000
    25  H    0.000138  -0.007994   0.000344  -0.000722  -0.000000  -0.000001
    26  H    0.000282   0.010374  -0.000486   0.001172   0.000006  -0.000008
    27  H    0.000232  -0.004852  -0.000260   0.003419   0.000011  -0.000004
              13         14         15         16         17         18
     1  C    0.005919  -0.004362  -0.000112  -0.000006   0.000744  -0.055717
     2  C    0.004308  -0.001065   0.004673  -0.000078   0.009545   0.391122
     3  C    0.010953  -0.036919  -0.004749   0.000281  -0.030411  -0.057407
     4  C   -0.017777  -0.002942  -0.000184  -0.000295   0.354673   0.012495
     5  C    0.354813   0.341431  -0.000134   0.000153  -0.041025  -0.000475
     6  C   -0.000177  -0.000031  -0.064301   0.014619  -0.005384  -0.006365
     7  C    0.000554  -0.001817   0.014686  -0.060928   0.001923  -0.000017
     8  C    0.000070   0.003503   0.450581  -0.072077   0.004641   0.006062
     9  C   -0.000066   0.003155  -0.070966   0.447509  -0.003282   0.000050
    10  O   -0.000010   0.000052   0.004649   0.004430   0.004162   0.000240
    11  H   -0.000816   0.008886  -0.000009   0.000002   0.000006  -0.005671
    12  H   -0.000089  -0.000584   0.000004  -0.000000   0.000427   0.004685
    13  H    0.723944  -0.037906   0.000002  -0.000015  -0.008360   0.000080
    14  H   -0.037906   0.770459   0.000140   0.000405   0.008472   0.000417
    15  H    0.000002   0.000140   0.696853  -0.006097   0.000030   0.000683
    16  H   -0.000015   0.000405  -0.006097   0.702143  -0.000081   0.000009
    17  H   -0.008360   0.008472   0.000030  -0.000081   0.706698  -0.000152
    18  H    0.000080   0.000417   0.000683   0.000009  -0.000152   0.717838
    19  O   -0.026989  -0.039753  -0.000002  -0.000001   0.000031   0.002159
    20  C    0.000058  -0.000025  -0.000351  -0.008311  -0.002927   0.000008
    21  C    0.000004   0.000009  -0.006295  -0.000321  -0.000278   0.000287
    22  H   -0.000004  -0.000006  -0.000003   0.000195  -0.000278  -0.000001
    23  H   -0.000004   0.000014  -0.000012   0.002961  -0.000183  -0.000000
    24  H    0.000025  -0.000037   0.000015   0.000001   0.005285  -0.000001
    25  H   -0.000000  -0.000001   0.000097  -0.000002  -0.000022  -0.000249
    26  H   -0.000001  -0.000000  -0.000109   0.000011  -0.000103   0.000064
    27  H    0.000000  -0.000002   0.002191  -0.000008  -0.000013   0.002264
              19         20         21         22         23         24
     1  C    0.363117  -0.000003  -0.000062   0.000000   0.000001   0.000003
     2  C   -0.052150  -0.000135  -0.004674   0.000002  -0.000006   0.000022
     3  C   -0.033517  -0.000619  -0.019842   0.000064   0.000045   0.000689
     4  C   -0.037205  -0.010642   0.002353   0.001584   0.000016  -0.003807
     5  C    0.314619  -0.000147  -0.000140   0.000009   0.000222   0.000033
     6  C   -0.000005   0.004062   0.415568   0.000590   0.000120   0.000624
     7  C    0.000209   0.423060   0.005477  -0.009692   0.005165   0.001292
     8  C   -0.000194   0.013459  -0.081940  -0.000708  -0.000035  -0.000425
     9  C    0.000023  -0.085776   0.012272  -0.000364  -0.008239   0.008300
    10  O   -0.000004  -0.049627  -0.050511  -0.000346   0.003349  -0.000167
    11  H   -0.034899  -0.000000   0.000010   0.000000  -0.000000  -0.000000
    12  H   -0.029923   0.000000  -0.000009  -0.000000  -0.000000   0.000000
    13  H   -0.026989   0.000058   0.000004  -0.000004  -0.000004   0.000025
    14  H   -0.039753  -0.000025   0.000009  -0.000006   0.000014  -0.000037
    15  H   -0.000002  -0.000351  -0.006295  -0.000003  -0.000012   0.000015
    16  H   -0.000001  -0.008311  -0.000321   0.000195   0.002961   0.000001
    17  H    0.000031  -0.002927  -0.000278  -0.000278  -0.000183   0.005285
    18  H    0.002159   0.000008   0.000287  -0.000001  -0.000000  -0.000001
    19  O    7.971567  -0.000004  -0.000001   0.000000   0.000000  -0.000003
    20  C   -0.000004   4.505124  -0.000427   0.359262   0.362611   0.354590
    21  C   -0.000001  -0.000427   4.500720   0.000059   0.000011  -0.000077
    22  H    0.000000   0.359262   0.000059   0.661334  -0.018375  -0.022043
    23  H    0.000000   0.362611   0.000011  -0.018375   0.655824  -0.017151
    24  H   -0.000003   0.354590  -0.000077  -0.022043  -0.017151   0.651854
    25  H    0.000000  -0.000012   0.376761  -0.000025   0.000001   0.000015
    26  H    0.000003   0.000000   0.353950   0.000018   0.000001  -0.000012
    27  H    0.000001   0.000019   0.358497   0.000002  -0.000001  -0.000001
              25         26         27
     1  C    0.000012  -0.000037  -0.000026
     2  C    0.000062  -0.000263   0.003686
     3  C    0.003868  -0.001973  -0.003138
     4  C   -0.000141   0.001244   0.000158
     5  C    0.000005   0.000019  -0.000006
     6  C   -0.013471  -0.001006   0.003335
     7  C    0.000138   0.000282   0.000232
     8  C   -0.007994   0.010374  -0.004852
     9  C    0.000344  -0.000486  -0.000260
    10  O   -0.000722   0.001172   0.003419
    11  H   -0.000000   0.000006   0.000011
    12  H   -0.000001  -0.000008  -0.000004
    13  H   -0.000000  -0.000001   0.000000
    14  H   -0.000001  -0.000000  -0.000002
    15  H    0.000097  -0.000109   0.002191
    16  H   -0.000002   0.000011  -0.000008
    17  H   -0.000022  -0.000103  -0.000013
    18  H   -0.000249   0.000064   0.002264
    19  O    0.000000   0.000003   0.000001
    20  C   -0.000012   0.000000   0.000019
    21  C    0.376761   0.353950   0.358497
    22  H   -0.000025   0.000018   0.000002
    23  H    0.000001   0.000001  -0.000001
    24  H    0.000015  -0.000012  -0.000001
    25  H    0.659373  -0.023521  -0.020874
    26  H   -0.023521   0.652055  -0.013936
    27  H   -0.020874  -0.013936   0.659944
 Mulliken charges:
               1
     1  C    0.310131
     2  C   -0.157104
     3  C   -0.042511
     4  C   -0.082971
     5  C    0.277690
     6  C   -0.008301
     7  C    0.013558
     8  C    0.019049
     9  C   -0.027460
    10  O   -0.227517
    11  H   -0.008820
    12  H    0.016973
    13  H   -0.008516
    14  H   -0.011496
    15  H   -0.021280
    16  H   -0.024500
    17  H   -0.004139
    18  H   -0.012408
    19  O   -0.397078
    20  C    0.136754
    21  C    0.138600
    22  H    0.028726
    23  H    0.013666
    24  H    0.020975
    25  H    0.026361
    26  H    0.022254
    27  H    0.009363
 Sum of Mulliken charges =  -0.00000
 Mulliken charges with hydrogens summed into heavy atoms:
               1
     1  C    0.318285
     2  C   -0.169511
     3  C   -0.042511
     4  C   -0.087110
     5  C    0.257678
     6  C   -0.008301
     7  C    0.013558
     8  C   -0.002232
     9  C   -0.051960
    10  O   -0.227517
    19  O   -0.397078
    20  C    0.200122
    21  C    0.196577
 APT charges:
               1
     1  C   -0.556439
     2  C   -0.252518
     3  C   -0.447253
     4  C   -0.538685
     5  C   -0.327922
     6  C   -0.413727
     7  C   -0.446339
     8  C   -0.481845
     9  C   -0.538682
    10  O   -0.059456
    11  H    0.407770
    12  H    0.535860
    13  H    0.482003
    14  H    0.112428
    15  H    0.405906
    16  H    0.447837
    17  H    0.297384
    18  H    0.333255
    19  O   -0.124125
    20  C   -0.464650
    21  C   -0.519119
    22  H    0.587570
    23  H    0.350654
    24  H    0.162637
    25  H    0.566837
    26  H    0.213951
    27  H    0.266670
 Sum of APT charges =  -0.00000
 APT charges with hydrogens summed into heavy atoms:
               1
     1  C    0.387191
     2  C    0.080736
     3  C   -0.447253
     4  C   -0.241302
     5  C    0.266510
     6  C   -0.413727
     7  C   -0.446339
     8  C   -0.075940
     9  C   -0.090845
    10  O   -0.059456
    19  O   -0.124125
    20  C    0.636211
    21  C    0.528339
 Electronic spatial extent (au):  <R**2>=           2348.1710
 Charge=             -0.0000 electrons
 Dipole moment (field-independent basis, Debye):
    X=              1.7839    Y=              0.5846    Z=              1.1616  Tot=              2.2076
 Quadrupole moment (field-independent basis, Debye-Ang):
   XX=            -82.4164   YY=            -70.5176   ZZ=            -76.4288
   XY=             -5.6109   XZ=             -2.0020   YZ=              0.5540
 Traceless Quadrupole moment (field-independent basis, Debye-Ang):
   XX=             -5.9621   YY=              5.9367   ZZ=              0.0254
   XY=             -5.6109   XZ=             -2.0020   YZ=              0.5540
 Octapole moment (field-independent basis, Debye-Ang**2):
  XXX=             12.8972  YYY=             -3.8817  ZZZ=             -0.0761  XYY=              7.3220
  XXY=              9.5320  XXZ=              1.1883  XZZ=             -1.2627  YZZ=             -2.3035
  YYZ=             -0.2566  XYZ=             -1.1797
 Hexadecapole moment (field-independent basis, Debye-Ang**3):
 XXXX=          -1859.8467 YYYY=           -947.7138 ZZZZ=           -331.4708 XXXY=            -68.6988
 XXXZ=            -30.5402 YYYX=             13.7113 YYYZ=              4.3299 ZZZX=             -3.3284
 ZZZY=              0.3475 XXYY=           -449.2508 XXZZ=           -364.1679 YYZZ=           -211.5692
 XXYZ=             -4.8297 YYXZ=             -6.3035 ZZXY=             -1.5160
 N-N= 8.183075131679D+02 E-N=-2.978853355099D+03  KE= 5.716576814446D+02
  Exact polarizability:       0.000       0.000       0.000       0.000       0.000       0.000
 Approx polarizability:     244.639     -13.823     219.546       5.489      21.896     176.638
   1 Symmetry operations used in ECPInt.
 ECPInt:  NShTT=    7260 NPrTT=   25862 LenC2=    7099 LenP2D=   19202.
 LDataN:  DoStor=T MaxTD1= 6 Len=  172
 Calling FoFJK, ICntrl=    100127 FMM=F ISym2X=0 I1Cent= 0 IOpClX= 0 NMat=1 NMatS=1 NMatT=0.
 ***** Axes restored to original set *****
 -------------------------------------------------------------------
 Center     Atomic                   Forces (Hartrees/Bohr)
 Number     Number              X              Y              Z
 -------------------------------------------------------------------
      1        6           0.003171616   -0.003225710   -0.000402894
      2        6          -0.006509500   -0.000061715    0.000120563
      3        6           0.006481287    0.003343419   -0.001556870
      4        6          -0.001735092   -0.003480899    0.003275829
      5        6          -0.001589576    0.000286269   -0.003779744
      6        6          -0.001646220    0.008261087   -0.008820872
      7        6           0.004194805   -0.008842531   -0.007470071
      8        6           0.000011058    0.000728558    0.004735758
      9        6          -0.001109848    0.000182097    0.003524035
     10        8           0.001542375   -0.000483730   -0.001792463
     11        1          -0.002422377    0.001845019    0.004138944
     12        1          -0.003354339    0.003099366   -0.003179247
     13        1           0.000051215   -0.004895373   -0.000945226
     14        1           0.001408354    0.000014334    0.004565635
     15        1          -0.001292062    0.002835464    0.003744884
     16        1           0.000039667   -0.002814037    0.004041863
     17        1           0.002261722   -0.002143433   -0.004111721
     18        1           0.000502721    0.004292106    0.002646417
     19        8           0.000030771    0.000891415   -0.000009696
     20        6          -0.002856146    0.003627430    0.002943811
     21        6          -0.001076268   -0.003659558    0.002790499
     22        1           0.004823199    0.000142511   -0.000839782
     23        1          -0.000494684   -0.003341050    0.002467168
     24        1          -0.001468333   -0.000907315   -0.003906244
     25        1           0.004408617    0.001923350    0.000151269
     26        1          -0.000976483   -0.000366467   -0.004025294
     27        1          -0.002396478    0.002749392    0.001693447
 -------------------------------------------------------------------
 Cartesian Forces:  Max     0.008842531 RMS     0.003294213
 FormGI is forming the generalized inverse of G from B-inverse, IUseBI=4.

 GradGradGradGradGradGradGradGradGradGradGradGradGradGradGradGradGradGrad
 Berny optimization.
 Internal  Forces:  Max     0.009075970 RMS     0.002315693
 Search for a saddle point.
 Step number   1 out of a maximum of  154
 All quantities printed in internal units (Hartrees-Bohrs-Radians)
 Swapping is turned off.
 Second derivative matrix not updated -- analytic derivatives used.
 ITU=  0
     Eigenvalues ---   -0.01759   0.00108   0.00132   0.00318   0.00425
     Eigenvalues ---    0.00698   0.01069   0.01207   0.01286   0.01347
     Eigenvalues ---    0.01704   0.02040   0.02256   0.02819   0.04157
     Eigenvalues ---    0.04251   0.04413   0.04726   0.05463   0.05550
     Eigenvalues ---    0.05596   0.05732   0.06135   0.06359   0.07518
     Eigenvalues ---    0.08775   0.08954   0.09226   0.09756   0.09926
     Eigenvalues ---    0.10049   0.10419   0.10968   0.11241   0.11494
     Eigenvalues ---    0.12140   0.12315   0.12612   0.13098   0.14547
     Eigenvalues ---    0.14800   0.15981   0.16975   0.17772   0.20244
     Eigenvalues ---    0.20870   0.21628   0.25118   0.25329   0.26548
     Eigenvalues ---    0.30770   0.31641   0.32506   0.32626   0.33396
     Eigenvalues ---    0.34073   0.34625   0.34783   0.35424   0.35648
     Eigenvalues ---    0.35686   0.35809   0.35876   0.35899   0.36039
     Eigenvalues ---    0.36786   0.37182   0.37210   0.38692   0.38896
     Eigenvalues ---    0.41928   0.45174   0.53054   0.54574   0.60841
 Eigenvectors required to have negative eigenvalues:
                          R8        D40       D55       D35       D38
   1                    0.77636  -0.19421   0.18001   0.13969  -0.13622
                          D45       D47       D46       D39       D49
   1                    0.13514   0.13346   0.12969  -0.12000  -0.11586
 RFO step:  Lambda0=2.985742630D-05 Lambda=-2.02212099D-03.
 Linear search not attempted -- option 19 set.
 Iteration  1 RMS(Cart)=  0.02943338 RMS(Int)=  0.00022287
 Iteration  2 RMS(Cart)=  0.00034118 RMS(Int)=  0.00003158
 Iteration  3 RMS(Cart)=  0.00000009 RMS(Int)=  0.00003158
 Variable       Old X    -DE/DX   Delta X   Delta X   Delta X     New X
                                 (Linear)    (Quad)   (Total)
    R1        2.87562   0.00130   0.00000   0.00092   0.00092   2.87653
    R2        2.08497   0.00501   0.00000   0.01552   0.01552   2.10049
    R3        2.07079   0.00545   0.00000   0.01599   0.01599   2.08678
    R4        2.67012   0.00249   0.00000  -0.00088  -0.00089   2.66923
    R5        2.50354   0.00831   0.00000   0.01409   0.01410   2.51764
    R6        2.05460   0.00506   0.00000   0.01367   0.01367   2.06827
    R7        2.54972   0.00685   0.00000   0.00914   0.00916   2.55888
    R8        4.07310   0.00148   0.00000   0.03249   0.03249   4.10560
    R9        2.84939   0.00195   0.00000   0.00419   0.00419   2.85358
   R10        2.05070   0.00509   0.00000   0.01353   0.01353   2.06423
   R11        2.06403   0.00490   0.00000   0.01301   0.01301   2.07704
   R12        2.07814   0.00474   0.00000   0.01418   0.01418   2.09233
   R13        2.71520   0.00264   0.00000   0.00514   0.00513   2.72033
   R14        2.64121   0.00861   0.00000   0.01678   0.01678   2.65799
   R15        2.58592   0.00608   0.00000   0.01030   0.01029   2.59621
   R16        2.82260   0.00031   0.00000  -0.00256  -0.00256   2.82004
   R17        2.61232   0.00908   0.00000   0.01402   0.01403   2.62635
   R18        2.55436   0.00497   0.00000   0.00772   0.00772   2.56207
   R19        2.81264   0.00017   0.00000  -0.00355  -0.00355   2.80909
   R20        2.64063   0.00670   0.00000   0.01238   0.01239   2.65302
   R21        2.04238   0.00487   0.00000   0.01242   0.01242   2.05480
   R22        2.04275   0.00492   0.00000   0.01269   0.01269   2.05544
   R23        2.07211   0.00489   0.00000   0.01442   0.01442   2.08654
   R24        2.06443   0.00416   0.00000   0.01123   0.01123   2.07566
   R25        2.06556   0.00425   0.00000   0.01239   0.01239   2.07795
   R26        2.07057   0.00481   0.00000   0.01389   0.01389   2.08447
   R27        2.06401   0.00415   0.00000   0.01178   0.01178   2.07579
   R28        2.06562   0.00401   0.00000   0.01094   0.01094   2.07656
    A1        1.84851  -0.00029   0.00000  -0.00282  -0.00285   1.84566
    A2        1.98175  -0.00042   0.00000  -0.00307  -0.00307   1.97868
    A3        1.98740  -0.00027   0.00000   0.00007   0.00004   1.98744
    A4        1.87777  -0.00056   0.00000  -0.01084  -0.01088   1.86689
    A5        1.91403   0.00082   0.00000   0.00919   0.00919   1.92321
    A6        1.85180   0.00072   0.00000   0.00712   0.00714   1.85894
    A7        2.00165   0.00027   0.00000   0.00412   0.00413   2.00578
    A8        2.07639  -0.00018   0.00000  -0.00019  -0.00020   2.07619
    A9        2.18716  -0.00008   0.00000  -0.00311  -0.00311   2.18405
   A10        2.24749  -0.00203   0.00000  -0.00822  -0.00826   2.23923
   A11        2.03441   0.00104   0.00000   0.00545   0.00541   2.03982
   A12        1.93001   0.00107   0.00000   0.00810   0.00808   1.93808
   A13        1.88562   0.00080   0.00000   0.01072   0.01064   1.89626
   A14        2.16409  -0.00063   0.00000  -0.00068  -0.00086   2.16323
   A15        2.10986  -0.00021   0.00000   0.00331   0.00317   2.11304
   A16        1.98070  -0.00029   0.00000  -0.00303  -0.00306   1.97765
   A17        1.93911  -0.00037   0.00000  -0.00201  -0.00200   1.93711
   A18        1.88316  -0.00034   0.00000   0.00157   0.00155   1.88471
   A19        1.90655  -0.00017   0.00000  -0.00390  -0.00391   1.90263
   A20        1.82572   0.00141   0.00000   0.00769   0.00771   1.83343
   A21        1.92508  -0.00015   0.00000   0.00039   0.00039   1.92547
   A22        1.62046  -0.00028   0.00000  -0.00618  -0.00618   1.61428
   A23        1.62633   0.00076   0.00000   0.00453   0.00452   1.63086
   A24        1.83844  -0.00030   0.00000   0.00022   0.00021   1.83866
   A25        1.88841  -0.00141   0.00000  -0.00574  -0.00575   1.88266
   A26        2.27508   0.00046   0.00000   0.00130   0.00131   2.27638
   A27        2.02810   0.00085   0.00000   0.00515   0.00515   2.03325
   A28        1.91372  -0.00216   0.00000  -0.00517  -0.00525   1.90848
   A29        2.30424   0.00028   0.00000   0.00272   0.00268   2.30693
   A30        2.04288   0.00191   0.00000   0.00611   0.00607   2.04895
   A31        1.85664  -0.00028   0.00000   0.00083   0.00080   1.85744
   A32        2.18695   0.00028   0.00000   0.00199   0.00200   2.18896
   A33        2.23245   0.00002   0.00000  -0.00233  -0.00232   2.23013
   A34        1.85924   0.00096   0.00000   0.00326   0.00322   1.86246
   A35        2.18919  -0.00036   0.00000   0.00021   0.00019   2.18938
   A36        2.23251  -0.00055   0.00000  -0.00262  -0.00264   2.22987
   A37        1.86650   0.00299   0.00000   0.01140   0.01137   1.87787
   A38        2.02514   0.00258   0.00000   0.00936   0.00928   2.03441
   A39        1.93819  -0.00002   0.00000   0.00064   0.00064   1.93883
   A40        1.91608   0.00060   0.00000   0.00464   0.00463   1.92072
   A41        1.93697   0.00016   0.00000   0.00270   0.00269   1.93966
   A42        1.89111  -0.00029   0.00000  -0.00274  -0.00274   1.88837
   A43        1.88481  -0.00034   0.00000  -0.00627  -0.00627   1.87854
   A44        1.89543  -0.00014   0.00000   0.00075   0.00073   1.89616
   A45        1.94148  -0.00005   0.00000   0.00014   0.00014   1.94162
   A46        1.92968  -0.00013   0.00000   0.00068   0.00068   1.93035
   A47        1.91268   0.00051   0.00000   0.00319   0.00318   1.91587
   A48        1.89827  -0.00005   0.00000  -0.00311  -0.00311   1.89516
   A49        1.89141  -0.00021   0.00000  -0.00108  -0.00108   1.89033
   A50        1.88915  -0.00008   0.00000   0.00011   0.00011   1.88926
    D1        2.38566   0.00058   0.00000   0.00956   0.00955   2.39521
    D2       -0.56408   0.00050   0.00000   0.00556   0.00555  -0.55853
    D3       -1.84085  -0.00053   0.00000  -0.00720  -0.00718  -1.84803
    D4        1.49259  -0.00060   0.00000  -0.01120  -0.01118   1.48141
    D5        0.28105  -0.00010   0.00000   0.00001   0.00004   0.28109
    D6       -2.66869  -0.00017   0.00000  -0.00399  -0.00396  -2.67265
    D7        0.37988  -0.00001   0.00000  -0.00256  -0.00258   0.37730
    D8       -1.68759  -0.00005   0.00000  -0.00543  -0.00542  -1.69302
    D9        2.57237  -0.00019   0.00000  -0.00110  -0.00111   2.57126
   D10       -0.28913   0.00031   0.00000  -0.00554  -0.00555  -0.29467
   D11       -2.99286  -0.00029   0.00000  -0.02352  -0.02347  -3.01633
   D12        2.64658   0.00038   0.00000  -0.00081  -0.00082   2.64576
   D13       -0.05715  -0.00022   0.00000  -0.01878  -0.01874  -0.07589
   D14       -0.34790  -0.00006   0.00000   0.01309   0.01314  -0.33477
   D15        2.27962  -0.00014   0.00000   0.04006   0.04007   2.31970
   D16        2.37660   0.00056   0.00000   0.02996   0.02996   2.40656
   D17       -1.27906   0.00048   0.00000   0.05693   0.05690  -1.22216
   D18        1.25459   0.00051   0.00000  -0.00555  -0.00547   1.24911
   D19       -3.13636  -0.00087   0.00000  -0.01146  -0.01141   3.13541
   D20       -1.07198   0.00022   0.00000  -0.00442  -0.00436  -1.07634
   D21       -1.52611   0.00079   0.00000  -0.01640  -0.01644  -1.54255
   D22        0.36613  -0.00059   0.00000  -0.02231  -0.02238   0.34375
   D23        2.43051   0.00050   0.00000  -0.01526  -0.01533   2.41518
   D24        2.98432   0.00000   0.00000  -0.01031  -0.01031   2.97401
   D25       -1.14241  -0.00073   0.00000  -0.01931  -0.01929  -1.16170
   D26        0.96986  -0.00135   0.00000  -0.01904  -0.01904   0.95082
   D27        0.33775   0.00024   0.00000  -0.03478  -0.03482   0.30294
   D28        2.49421  -0.00049   0.00000  -0.04378  -0.04380   2.45041
   D29       -1.67671  -0.00111   0.00000  -0.04351  -0.04354  -1.72025
   D30       -1.01478   0.00008   0.00000   0.01379   0.01376  -1.00101
   D31       -3.12884  -0.00016   0.00000   0.01242   0.01239  -3.11644
   D32        1.10622  -0.00067   0.00000   0.01255   0.01253   1.11874
   D33        1.44658   0.00074   0.00000   0.00761   0.00760   1.45418
   D34       -1.57521   0.00052   0.00000   0.00368   0.00368  -1.57153
   D35       -0.19913   0.00014   0.00000   0.00532   0.00529  -0.19384
   D36        3.06227  -0.00009   0.00000   0.00138   0.00137   3.06363
   D37       -2.86552   0.00026   0.00000   0.00262   0.00260  -2.86291
   D38        0.39588   0.00003   0.00000  -0.00131  -0.00132   0.39456
   D39       -1.36907   0.00011   0.00000  -0.00812  -0.00812  -1.37719
   D40        0.27240  -0.00005   0.00000  -0.01358  -0.01361   0.25879
   D41        3.01488  -0.00016   0.00000  -0.01198  -0.01201   3.00287
   D42       -3.07518  -0.00042   0.00000  -0.00480  -0.00481  -3.07999
   D43       -0.96412  -0.00061   0.00000  -0.00819  -0.00820  -0.97231
   D44        1.11685  -0.00047   0.00000  -0.00563  -0.00563   1.11122
   D45        1.33195   0.00001   0.00000   0.00306   0.00307   1.33502
   D46       -2.84017  -0.00018   0.00000  -0.00032  -0.00032  -2.84049
   D47       -0.75920  -0.00003   0.00000   0.00224   0.00224  -0.75696
   D48       -1.30395   0.00063   0.00000   0.00261   0.00262  -1.30133
   D49        0.80712   0.00044   0.00000  -0.00077  -0.00077   0.80635
   D50        2.88808   0.00058   0.00000   0.00179   0.00179   2.88988
   D51        0.11808  -0.00080   0.00000  -0.01623  -0.01617   0.10191
   D52       -3.09075  -0.00017   0.00000  -0.00363  -0.00358  -3.09434
   D53        3.02130  -0.00043   0.00000   0.00361   0.00360   3.02490
   D54       -0.18753   0.00021   0.00000   0.01620   0.01620  -0.17134
   D55       -0.24274   0.00045   0.00000   0.01796   0.01796  -0.22477
   D56        3.09710   0.00028   0.00000   0.00169   0.00173   3.09883
   D57       -1.66549  -0.00008   0.00000  -0.02044  -0.02046  -1.68595
   D58        0.42542  -0.00006   0.00000  -0.02043  -0.02046   0.40497
   D59        2.52094   0.00025   0.00000  -0.01476  -0.01477   2.50617
   D60        1.22375  -0.00013   0.00000  -0.00067  -0.00066   1.22309
   D61       -2.96852  -0.00012   0.00000  -0.00066  -0.00065  -2.96918
   D62       -0.87301   0.00020   0.00000   0.00501   0.00504  -0.86797
   D63        0.05066   0.00044   0.00000   0.00670   0.00671   0.05736
   D64       -3.02149  -0.00023   0.00000  -0.00646  -0.00642  -3.02791
   D65        3.06831   0.00069   0.00000   0.01118   0.01115   3.07946
   D66       -0.00384   0.00002   0.00000  -0.00198  -0.00198  -0.00581
         Item               Value     Threshold  Converged?
 Maximum Force            0.009076     0.000450     NO 
 RMS     Force            0.002316     0.000300     NO 
 Maximum Displacement     0.109493     0.001800     NO 
 RMS     Displacement     0.029439     0.001200     NO 
 Predicted change in Energy=-1.018128D-03
 GradGradGradGradGradGradGradGradGradGradGradGradGradGradGradGradGradGrad

                          Input orientation:                          
 ---------------------------------------------------------------------
 Center     Atomic      Atomic             Coordinates (Angstroms)
 Number     Number       Type             X           Y           Z
 ---------------------------------------------------------------------
      1          6           0       -3.118723    0.551831    0.099542
      2          6           0       -1.740827    1.192778    0.187102
      3          6           0       -0.751598    0.471195   -0.337982
      4          6           0       -0.746769   -0.847351   -0.646207
      5          6           0       -1.863742   -1.524432    0.111536
      6          6           0        1.269409    1.209313   -0.036567
      7          6           0        1.867702   -0.905261    0.112764
      8          6           0        1.253708    0.874440    1.329446
      9          6           0        1.589258   -0.486500    1.408395
     10          8           0        1.841758    0.164112   -0.720266
     11          1           0       -3.596540    0.727566    1.087628
     12          1           0       -3.770616    1.016840   -0.660874
     13          1           0       -2.038249   -2.562080   -0.206121
     14          1           0       -1.670005   -1.508627    1.201552
     15          1           0        0.925323    1.527323    2.134586
     16          1           0        1.583950   -1.123798    2.289813
     17          1           0       -0.382914   -1.250895   -1.593826
     18          1           0       -1.609154    2.083076    0.809935
     19          8           0       -3.088835   -0.830644   -0.188588
     20          6           0        2.398175   -2.183063   -0.430854
     21          6           0        1.306828    2.542654   -0.705719
     22          1           0        3.488134   -2.122245   -0.596473
     23          1           0        2.203638   -3.002063    0.274736
     24          1           0        1.928189   -2.429700   -1.393879
     25          1           0        2.317755    2.982080   -0.665041
     26          1           0        1.005105    2.455441   -1.758322
     27          1           0        0.611297    3.229870   -0.204238
 ---------------------------------------------------------------------
                    Distance matrix (angstroms):
                    1          2          3          4          5
     1  C    0.000000
     2  C    1.522195   0.000000
     3  C    2.408571   1.332280   0.000000
     4  C    2.853073   2.417578   1.354101   0.000000
     5  C    2.426106   2.721038   2.328402   1.510048   0.000000
     6  C    4.439202   3.018579   2.172588   2.943892   4.160761
     7  C    5.194972   4.174779   2.993081   2.723022   3.782466
     8  C    4.553559   3.220796   2.638972   3.296920   4.117814
     9  C    4.995630   3.924411   3.073535   3.131873   3.831757
    10  O    5.042697   3.836194   2.639306   2.780110   4.156177
    11  H    1.111532   2.114483   3.192458   3.688867   3.004469
    12  H    1.104277   2.206821   3.084876   3.552333   3.269685
    13  H    3.310181   3.787089   3.297516   2.191322   1.099124
    14  H    2.749309   2.886471   2.670830   2.168840   1.107212
    15  H    4.631123   3.318579   3.168763   4.020917   4.602697
    16  H    5.451620   4.565311   3.860582   3.758841   4.097802
    17  H    3.688085   3.314690   2.163022   1.092345   2.275068
    18  H    2.264546   1.094481   2.156682   3.384001   3.683299
    19  O    1.412498   2.460184   2.679512   2.386414   1.439538
    20  C    6.180383   5.376756   4.120046   3.423620   4.346483
    21  C    4.919078   3.450724   2.943347   3.963955   5.221265
    22  H    7.161403   6.240625   4.976753   4.422921   5.431504
    23  H    6.402217   5.758747   4.601343   3.767734   4.330543
    24  H    6.049063   5.392914   4.087954   3.196598   4.179058
    25  H    6.003831   4.516617   3.978999   4.904712   6.196502
    26  H    4.907275   3.594319   3.006760   3.900551   5.250337
    27  H    4.601872   3.136140   3.079880   4.320117   5.369257
                    6          7          8          9         10
     6  C    0.000000
     7  C    2.202653   0.000000
     8  C    1.406548   2.241571   0.000000
     9  C    2.250778   1.389803   1.403918   0.000000
    10  O    1.373854   1.355791   2.247596   2.240145   0.000000
    11  H    5.017305   5.785709   4.858493   5.335668   5.758563
    12  H    5.082190   6.006964   5.406060   5.938868   5.677095
    13  H    5.019239   4.254784   5.000462   4.480346   4.769792
    14  H    4.190500   3.750318   3.774051   3.422035   4.338654
    15  H    2.221132   3.300501   1.087355   2.241348   3.293687
    16  H    3.309741   2.206313   2.241499   1.087692   3.284166
    17  H    3.347814   2.845556   3.967506   3.672478   2.777502
    18  H    3.125084   4.637320   3.150662   4.146169   4.234706
    19  O    4.814440   4.966251   4.906060   4.955134   5.057961
    20  C    3.596914   1.486506   3.709014   2.629735   2.429524
    21  C    1.492301   3.587842   2.632045   3.704729   2.437996
    22  H    4.041722   2.147060   4.204991   3.209500   2.820161
    23  H    4.324972   2.129710   4.128202   2.826783   3.338509
    24  H    3.939379   2.144189   4.334601   3.426900   2.681247
    25  H    2.153302   3.989855   3.090683   4.106201   2.858420
    26  H    2.141760   3.941999   3.477885   4.361691   2.650989
    27  H    2.131637   4.333400   2.883215   4.167541   3.343530
                   11         12         13         14         15
    11  H    0.000000
    12  H    1.780797   0.000000
    13  H    3.863137   4.002069   0.000000
    14  H    2.953824   3.776133   1.796361   0.000000
    15  H    4.709881   5.488809   5.566406   4.101618   0.000000
    16  H    5.631188   6.477674   4.628030   3.452626   2.736115
    17  H    4.629459   4.182050   2.526868   3.088230   4.830221
    18  H    2.421616   2.823483   4.774303   3.613502   2.913269
    19  O    2.077139   2.025111   2.025318   2.098864   5.202942
    20  C    6.834775   6.953147   4.458252   4.435053   4.745285
    21  C    5.527536   5.301939   6.123516   5.376997   3.040358
    22  H    7.819861   7.908694   5.557583   5.496892   5.229343
    23  H    6.943557   7.260760   4.291667   4.253756   5.060480
    24  H    6.829995   6.700172   4.142574   4.531185   5.395723
    25  H    6.567614   6.397690   7.065627   6.289105   3.448636
    26  H    5.679799   5.107002   6.070160   5.624136   4.002812
    27  H    5.063233   4.930231   6.369206   5.443706   2.909876
                   16         17         18         19         20
    16  H    0.000000
    17  H    4.355153   0.000000
    18  H    4.761302   4.289184   0.000000
    19  O    5.297484   3.077875   3.417056   0.000000
    20  C    3.031011   3.155297   5.983158   5.656413   0.000000
    21  C    4.742666   4.246761   3.318339   5.564928   4.857879
    22  H    3.599092   4.091330   6.756113   6.714993   1.104147
    23  H    2.823548   3.639830   6.378280   5.739338   1.098390
    24  H    3.923450   2.602068   6.142861   5.401874   1.099606
    25  H    5.111542   5.106303   4.290032   6.632879   5.171075
    26  H    5.434466   3.961134   3.683606   5.479304   5.021807
    27  H    5.110849   4.795484   2.697051   5.493541   5.704747
                   21         22         23         24         25
    21  C    0.000000
    22  H    5.150856   0.000000
    23  H    5.701705   1.784100   0.000000
    24  H    5.058059   1.778711   1.785426   0.000000
    25  H    1.103051   5.237234   6.058561   5.474516   0.000000
    26  H    1.098461   5.335780   5.945936   4.984928   1.787642
    27  H    1.098869   6.088939   6.449957   5.931289   1.784863
                   26         27
    26  H    0.000000
    27  H    1.780450   0.000000
 Stoichiometry    C11H14O2
 Framework group  C1[X(C11H14O2)]
 Deg. of freedom    75
 Full point group                 C1      NOp   1
 Largest Abelian subgroup         C1      NOp   1
 Largest concise Abelian subgroup C1      NOp   1
                         Standard orientation:                         
 ---------------------------------------------------------------------
 Center     Atomic      Atomic             Coordinates (Angstroms)
 Number     Number       Type             X           Y           Z
 ---------------------------------------------------------------------
      1          6           0       -3.119092    0.536556    0.102490
      2          6           0       -1.744143    1.184172    0.187268
      3          6           0       -0.752149    0.466398   -0.337821
      4          6           0       -0.741447   -0.852630   -0.643830
      5          6           0       -1.854268   -1.533714    0.116431
      6          6           0        1.265705    1.214593   -0.040146
      7          6           0        1.874198   -0.896867    0.112008
      8          6           0        1.253267    0.881959    1.326448
      9          6           0        1.595362   -0.477240    1.407275
     10          8           0        1.842163    0.170961   -0.722789
     11          1           0       -3.596523    0.711694    1.090867
     12          1           0       -3.774113    0.997184   -0.657903
     13          1           0       -2.024243   -2.572713   -0.199262
     14          1           0       -1.659270   -1.515149    1.206179
     15          1           0        0.922779    1.534638    2.130891
     16          1           0        1.594157   -1.113066    2.289770
     17          1           0       -0.376847   -1.256047   -1.591216
     18          1           0       -1.615928    2.076135    0.808437
     19          8           0       -3.083004   -0.846247   -0.183348
     20          6           0        2.410055   -2.173058   -0.430111
     21          6           0        1.295981    2.546963   -0.711589
     22          1           0        3.499510   -2.107356   -0.597179
     23          1           0        2.220269   -2.991776    0.277097
     24          1           0        1.940062   -2.423547   -1.392138
     25          1           0        2.304862    2.991242   -0.672900
     26          1           0        0.993383    2.456542   -1.763671
     27          1           0        0.597816    3.231722   -0.210408
 ---------------------------------------------------------------------
 Rotational constants (GHZ):           1.2570433           0.6522052           0.5084451
 Standard basis: def2SVP (5D, 7F)
 There are   265 symmetry adapted cartesian basis functions of A   symmetry.
 There are   252 symmetry adapted basis functions of A   symmetry.
   252 basis functions,   423 primitive gaussians,   265 cartesian basis functions
[...]
 2,0.00004435,0.00003471,0.00023948,0.00032623,-0.00015636,-0.00074065,
 0.00019333,0.00054811,-0.00092717,0.00015488,-0.00027448,-0.00000175,0
 .00002537,-0.00000117,-0.00026968,-0.00024232,0.00003296,0.01481418,0.
 54088531,-0.00009822,0.00003593,-0.00007365,0.00023891,-0.00000406,-0.
 00015885,-0.00030739,-0.00057354,0.00030224,0.00035386,-0.00041118,-0.
 00039011,-0.00004543,-0.00016820,0.00017953,0.00337102,0.00148694,-0.0
 0482512,0.02978811,-0.06119463,-0.11465768,0.00166423,-0.00015479,-0.0
 0440546,0.01059254,-0.02403321,-0.00079489,-0.01289760,0.02760488,0.01
 258554,0.00003596,0.00000780,-0.00001642,-0.00001135,-0.00002231,0.000
 00109,0.00002037,-0.00000925,0.00002662,-0.00001500,-0.00002921,-0.000
 08168,0.00017355,-0.00113180,0.00047034,-0.00111949,0.00023195,0.00048
 774,-0.00092267,0.00046058,-0.00034569,0.00000026,-0.00003191,-0.00000
 977,0.00019208,0.00000344,-0.00005037,0.00701979,-0.02658809,0.5766150
 8,-0.00024277,0.00038764,-0.00075771,0.00094447,-0.00101659,-0.0010939
 1,-0.00869545,-0.01048488,0.00361895,-0.00108540,0.00190808,-0.0003625
 1,0.00004283,-0.00074209,0.00084449,-0.05525362,-0.00923305,0.01452910
 ,0.00094818,-0.00310934,0.00982987,-0.00146902,0.00493644,-0.00706240,
 0.00527202,-0.00332518,-0.00320662,-0.00725311,0.02660899,-0.00948462,
 0.00017805,0.00000579,0.00003451,-0.00017144,-0.00013596,0.00000160,-0
 .00009315,-0.00005836,-0.00000977,0.00002524,-0.00004356,-0.00009457,-
 0.00156559,-0.00051217,-0.00022249,0.00062866,0.00028196,-0.00011251,-
 0.00012538,-0.00009734,-0.00007543,-0.00013495,-0.00001462,0.00041061,
 0.00057467,0.00011470,-0.00003936,0.00142603,0.00147600,-0.00077935,0.
 55726025,-0.00020183,-0.00006797,-0.00068253,0.00149220,-0.00021553,0.
 00000208,-0.00676527,-0.00659870,0.00098132,-0.00061688,0.00090990,0.0
 0023750,-0.00021155,-0.00044522,0.00035434,0.00493441,-0.20467975,0.06
 759981,0.00221193,0.00018150,-0.00444833,-0.00192564,-0.00009210,0.003
 96627,0.00013484,0.00159392,-0.00081667,0.00125467,-0.03309586,0.01001
 821,0.00022141,0.00000992,0.00001330,-0.00003140,-0.00002148,0.0000423
 8,-0.00004560,-0.00002161,-0.00000541,-0.00001565,-0.00003092,-0.00003
 947,-0.00025437,0.00004815,-0.00046474,-0.00022314,0.00044546,0.000092
 88,0.00008373,0.00001614,0.00003609,0.00011008,0.00012861,-0.00010971,
 0.00037666,0.00015998,0.00001799,-0.00017457,-0.00037682,0.00090053,-0
 .01196394,0.52558516,0.00011950,-0.00008891,0.00004223,-0.00037290,0.0
 0008443,0.00005711,-0.00020584,-0.00031060,-0.00039939,-0.00038473,0.0
 0026825,0.00028057,0.00010758,0.00001206,-0.00001233,0.00745478,0.0751
 7713,-0.12485831,0.00253800,-0.00221852,-0.00229684,-0.00020569,0.0294
 7973,-0.00529142,0.00198304,-0.00075767,-0.00601644,-0.00151624,-0.020
 93150,0.01294376,-0.00001020,0.00001992,-0.00000173,-0.00002811,0.0000
 1003,0.00000972,-0.00001429,-0.00000703,0.00001026,0.00000781,0.000003
 80,-0.00001457,-0.00105954,-0.00098591,0.00075192,-0.00060767,0.001235
 52,0.00025608,0.00010903,-0.00009730,0.00006668,0.00010450,0.00004528,
 -0.00022714,-0.00012188,-0.00005620,-0.00006674,0.00043830,-0.00051536
 ,0.00096805,-0.00369149,0.03012991,0.57299768,0.00006461,-0.00008679,-
 0.00003804,0.00018278,0.00015936,-0.00003900,-0.00046281,-0.00066847,-
 0.00022678,0.00008505,0.00051410,0.00044013,0.00019561,0.00024942,-0.0
 0015970,-0.00021067,0.00124078,0.00167315,-0.00853740,0.00436257,0.005
 12873,0.00012060,0.00165256,-0.00087774,-0.00004182,-0.00133568,-0.002
 04506,0.00073683,-0.00148897,-0.00018010,-0.00001713,0.00001978,0.0000
 1273,-0.00003269,-0.00000326,-0.00002275,-0.00000783,-0.00001934,-0.00
 000529,-0.00002173,0.00000890,0.00002631,0.00006687,0.00006604,-0.0000
 4248,-0.00015492,-0.00008806,-0.00006378,0.00020687,-0.00013905,0.0000
 9736,0.00000390,-0.00002112,0.00010180,-0.00036255,-0.00001545,0.00005
 654,-0.29622076,-0.02371514,0.04306895,0.00020319,-0.00006493,0.000003
 13,0.31953602,-0.00012347,0.00002950,-0.00015912,0.00002038,-0.0000352
 7,0.00004820,-0.00051594,-0.00057522,-0.00005437,-0.00043748,0.0004511
 1,-0.00053398,-0.00001986,-0.00039610,0.00030918,0.00160771,-0.0020106
 1,-0.00176903,0.03002546,-0.00012419,-0.00707532,-0.00047462,-0.001344
 38,0.00055077,-0.00012980,0.00041495,0.00104596,-0.00140072,0.00382952
 ,0.00058019,0.00006344,-0.00000853,0.00000314,0.00000931,0.00000635,0.
 00002801,0.00006328,0.00006911,0.00001496,0.00003948,-0.00003172,-0.00
 003146,-0.00013892,-0.00014675,0.00005448,0.00028102,0.00010769,0.0000
 0239,0.00010788,-0.00005529,0.00014840,-0.00000924,0.00001027,-0.00000
 603,0.00037093,0.00019644,-0.00004532,-0.02026372,-0.04685468,0.004171
 79,-0.00060032,0.00005711,-0.00012685,0.02066828,0.04889900,-0.0000399
 6,0.00000747,-0.00008912,-0.00006121,-0.00002619,0.00010135,-0.0003004
 0,-0.00030273,-0.00004037,-0.00062128,0.00046765,-0.00024607,-0.000025
 46,-0.00009028,0.00009768,0.00036568,-0.00037180,-0.00007652,0.0130061
 7,-0.00105982,-0.00476074,-0.00078558,-0.00024232,-0.00017823,0.000041
 96,-0.00090510,0.00043773,-0.00026806,0.00121789,0.00011633,0.00003345
 ,-0.00000369,0.00000351,0.00000709,0.00000911,0.00001988,0.00002182,0.
 00002656,-0.00000738,0.00000574,-0.00000451,0.00000765,-0.00000790,-0.
 00009765,0.00002535,0.00047775,0.00011329,0.00006293,0.00033993,-0.000
 13492,0.00031178,-0.00000210,0.00002039,0.00000055,0.00012550,0.000095
 59,-0.00000576,0.04393953,0.00465460,-0.05107999,-0.00013226,0.0000227
 7,-0.00000324,-0.04958492,-0.00102557,0.05221823,0.00000422,0.00003250
 ,0.00002390,0.00003386,-0.00001697,-0.00000902,0.00006135,0.00011050,0
 .00011962,0.00020959,-0.00041204,0.00001796,-0.00007581,0.00017532,-0.
 00006111,0.00067242,0.00027311,-0.00065457,-0.00019062,0.00831364,-0.0
 0999243,-0.00025051,-0.00018864,-0.00000829,0.00007921,-0.00030220,0.0
 0000674,-0.00036443,0.00357331,0.00132974,0.00000114,-0.00000637,-0.00
 001013,0.00000913,-0.00001349,-0.00000093,-0.00005796,-0.00003505,-0.0
 0002155,-0.00003010,0.00001064,0.00005573,-0.00003520,-0.00003801,0.00
 003035,0.00016430,0.00004550,0.00007821,-0.00001960,0.00006131,-0.0000
 3839,-0.00000311,-0.00000487,-0.00002745,-0.00001489,-0.00011146,0.000
 03258,-0.05023655,-0.03244893,0.02925388,-0.00014740,0.00015111,0.0001
 4178,-0.00240476,-0.02265405,0.01982688,0.05070805,-0.00002591,-0.0000
 3685,-0.00003824,0.00005778,0.00005203,0.00003384,-0.00011539,-0.00028
 525,-0.00026167,-0.00020989,0.00034750,-0.00018029,0.00004862,-0.00016
 130,0.00017693,-0.00044741,0.00008850,0.00155783,-0.00621911,-0.017292
 84,0.02172973,0.00025102,-0.00003836,0.00006432,-0.00008888,0.00165006
 ,-0.00003156,0.00232872,-0.00551310,-0.00352979,0.00002150,0.00000093,
 0.00000094,0.00000715,0.00001128,0.00000686,0.00003045,0.00003310,0.00
 000765,0.00002866,-0.00002134,-0.00004686,0.00000563,0.00011698,-0.000
 05670,0.00009902,-0.00012091,-0.00061333,0.00004307,-0.00003775,0.0000
 1955,-0.00000238,0.00000128,0.00001681,0.00010077,0.00009759,-0.000037
 40,-0.02997976,-0.19586733,0.13174908,0.00036793,-0.00023186,-0.000330
 31,-0.00005712,-0.00102538,-0.00008401,0.03153086,0.21122302,0.0000191
 4,0.00002105,0.00002452,0.00003246,0.00000350,-0.00001895,0.00003643,-
 0.00002986,0.00004843,-0.00001053,-0.00018031,-0.00013112,0.00001088,0
 .00015534,0.00003749,0.00022481,-0.00059152,0.00056156,-0.00315702,-0.
 00917419,0.00913483,-0.00034937,0.00017750,0.00016802,-0.00004869,-0.0
 0017394,-0.00014510,0.00107198,-0.00308856,-0.00028309,-0.00000403,-0.
 00000479,-0.00000357,0.00000196,-0.00000863,-0.00000541,-0.00004210,-0
 .00003533,-0.00001842,-0.00002594,0.00000106,0.00001757,-0.00000750,0.
 00004276,-0.00000472,0.00023216,0.00003080,0.00003411,0.00001629,0.000
 06747,0.00000509,-0.00000213,0.00000401,-0.00000918,-0.00004265,-0.000
 07070,0.00000265,0.02829055,0.13577623,-0.16840704,0.00020794,-0.00005
 809,-0.00009605,-0.00017886,0.00196290,-0.00295668,-0.03193002,-0.1441
 6393,0.17620386,-0.00003929,-0.00005300,-0.00014932,0.00007359,-0.0000
 1028,0.00004893,-0.00036131,-0.00012394,-0.00024143,-0.00019586,0.0003
 0441,0.00113808,-0.00007363,0.00019546,-0.00013330,0.00052003,-0.00020
 235,0.00026206,0.00567019,0.00335796,0.01452732,-0.00073127,0.00056049
 ,0.00026847,-0.00029376,0.00175110,-0.00018157,0.00013881,-0.00084335,
 -0.00026900,0.00004946,0.00001328,-0.00000182,0.00000043,-0.00000108,0
 .00001589,-0.00003956,-0.00002584,0.00000497,0.00004471,-0.00000355,-0
 .00003103,-0.00016888,0.00014635,-0.00003247,0.00020813,-0.00001804,-0
 .00006920,-0.00001452,0.00015578,-0.00031535,0.00002337,-0.00007511,0.
 00007114,-0.00012547,-0.00002672,0.00001364,-0.10022064,-0.02921836,-0
 .10953580,-0.00006236,-0.00000365,-0.00007974,-0.01286992,-0.00652431,
 -0.02640082,0.00187858,0.00225896,0.00564622,0.10657618,-0.00008646,0.
 00002618,-0.00019111,0.00014139,0.00009110,0.00008752,-0.00078281,-0.0
 0112464,0.00001204,-0.00072533,0.00067983,-0.00082331,0.00009912,-0.00
 004604,0.00036543,0.00200405,-0.00101612,-0.00077567,-0.01225698,-0.00
 807177,-0.02653060,0.00071914,-0.00012029,-0.00040654,0.00056689,-0.00
 279577,0.00074302,-0.00093172,0.00399803,0.00075878,0.00005857,-0.0000
 0878,0.00000410,-0.00000387,-0.00001141,0.00001378,-0.00000261,0.00002
 085,-0.00001246,-0.00004714,-0.00003033,0.00002306,0.00021977,-0.00022
 643,0.00009947,-0.00008770,0.00000462,-0.00008593,0.00055087,0.0000249
 0,0.00045254,-0.00002317,0.00000858,0.00004194,0.00017299,0.00010772,-
 0.00000691,-0.02833653,-0.06039028,-0.05248755,-0.00018577,0.00014081,
 0.00006281,-0.00138312,-0.00127648,-0.00221772,0.01191118,0.00709831,0
 .01939825,0.02838865,0.06305357,-0.00005784,-0.00003353,-0.00015971,-0
 .00001375,0.00003498,0.00010981,-0.00062709,-0.00073380,-0.00015101,-0
 .00089025,0.00114746,-0.00008729,0.00011025,-0.00011857,0.00003195,0.0
 0072413,-0.00013314,0.00020530,-0.00204855,-0.00379073,-0.01155646,0.0
 0074008,0.00039306,-0.00029961,-0.00074298,-0.00189189,0.00103439,-0.0
 0000199,0.00115615,0.00081837,0.00003263,0.00000414,0.00001901,-0.0000
 0976,0.00001523,0.00001749,0.00005750,0.00006205,0.00000917,0.00002889
 ,-0.00001433,0.00001574,0.00006776,-0.00013414,0.00008179,-0.00023348,
 0.00007286,0.00014179,0.00059507,-0.00028321,0.00063182,-0.00001603,0.
 00002370,0.00007750,0.00001678,0.00020645,0.00001272,-0.10782518,-0.05
 305798,-0.24627431,-0.00017659,0.00000082,0.00000524,0.00294524,0.0017
 9843,0.00600403,-0.00815005,-0.00605889,-0.01418471,0.11544253,0.06139
 423,0.26346953,0.00008302,0.00011209,-0.00011652,0.00039185,-0.0002976
 7,-0.00005227,0.00001338,-0.00016817,0.00023633,-0.00022309,0.00016973
 ,0.00024835,0.00010284,-0.00006335,-0.00003305,0.00236942,-0.00061687,
 0.00208278,-0.00006152,0.00016239,0.00032861,0.00059637,0.00052908,-0.
 00079833,0.00029472,-0.00055424,-0.00026452,0.00051131,-0.00035365,0.0
 0017849,0.00000110,-0.00000297,0.00001321,-0.00003949,-0.00003242,-0.0
 0001522,-0.00004816,-0.00003132,0.00000189,0.00000245,-0.00000549,0.00
 000826,-0.00019813,-0.00008210,-0.00002876,-0.00002402,-0.00002322,-0.
 00000763,0.00000794,-0.00001122,-0.00003807,0.00010398,0.00007024,-0.0
 0009837,-0.00003091,-0.00009321,0.00000526,-0.00004530,-0.00004071,-0.
 00007733,-0.26911467,-0.09244569,-0.01134087,0.00000496,-0.00000972,0.
 00001451,0.00000200,-0.00001331,-0.00000677,-0.00000896,-0.00003229,0.
 00000848,0.28751716,-0.00017885,0.00024448,-0.00018551,-0.00025657,-0.
 00012531,-0.00042468,0.00061808,-0.00071216,0.00118017,-0.00043115,0.0
 0000799,0.00004437,0.00014155,-0.00018064,0.00001885,-0.02505601,-0.01
 520537,0.00231839,0.00025778,-0.00207141,0.00327559,-0.00041922,0.0021
 2380,-0.00243740,0.00136185,-0.00199547,-0.00141609,-0.00119145,0.0036
 2968,-0.00076203,-0.00000062,-0.00000289,0.00001973,-0.00009585,-0.000
 05996,-0.00000065,-0.00004538,-0.00003158,0.00001549,0.00000612,0.0000
 0012,-0.00002331,-0.00036385,-0.00005572,-0.00000158,0.00006604,-0.000
 01768,-0.00002049,0.00000579,-0.00002545,0.00002434,-0.00007294,-0.000
 11922,0.00032458,0.00003413,0.00007582,0.00000425,0.00036810,0.0003043
 8,-0.00009873,-0.09455605,-0.08410234,-0.00542929,0.00012114,-0.000230
 13,-0.00007414,-0.00001078,0.00002935,0.00001633,-0.00002408,-0.000099
 29,-0.00004783,0.10359345,0.09145642,-0.00006610,0.00001939,-0.0000758
 5,0.00022666,0.00003100,0.00011433,-0.00113018,0.00006144,0.00017544,0
 .00037520,0.00035583,-0.00016807,-0.00007415,0.00013695,0.00014341,0.0
 1465669,0.00700113,-0.00110425,0.00016350,0.00078534,-0.00043125,0.000
 37274,0.00001597,0.00051293,-0.00077509,0.00003876,0.00024122,0.000312
 37,-0.00144715,0.00019505,0.00003339,0.00000234,-0.00000737,0.00001239
 ,-0.00001954,-0.00000805,0.00003393,0.00001680,-0.00002767,0.00000024,
 -0.00000722,0.00000030,0.00038518,0.00012317,-0.00006731,-0.00008167,-
 0.00000149,-0.00000874,-0.00006058,0.00005113,-0.00005532,-0.00012106,
 -0.00011397,0.00007733,0.00006009,-0.00005786,-0.00000202,-0.00014050,
 -0.00010630,0.00004547,-0.01080615,-0.00437832,-0.04660819,-0.00004326
 ,0.00009864,0.00003641,0.00001121,0.00000537,-0.00001020,-0.00000382,0
 .00003777,0.00001989,0.01120752,0.00160959,0.04549517,-0.00011687,-0.0
 0006339,-0.00023301,-0.00019655,0.00033805,0.00000898,-0.00012213,-0.0
 0054028,0.00022647,-0.00009541,0.00019512,-0.00000807,0.00001950,-0.00
 005219,0.00010190,-0.00106504,0.00052882,0.00304619,0.00015903,0.00092
 835,-0.00045859,0.00116592,-0.00050395,-0.00005821,0.00004060,-0.00022
 470,0.00039785,0.00016513,-0.00098688,0.00012658,0.00006961,0.00002025
 ,-0.00000487,-0.00004206,-0.00001442,0.00002395,0.00000829,0.00001734,
 -0.00000177,-0.00001010,0.00000153,-0.00001526,-0.00003333,0.00006747,
 -0.00013748,-0.00002303,-0.00006663,0.00000492,0.00000541,0.00002453,0
 .00003657,0.00003858,-0.00014501,0.00012496,0.00001991,0.00010988,-0.0
 0000149,-0.00003624,-0.00010758,0.00002519,-0.06626164,-0.00713708,-0.
 07527644,-0.00005634,0.00004712,0.00000598,0.00000316,-0.00001437,0.00
 001014,0.00001931,0.00003954,0.00000978,-0.00644405,-0.00199220,-0.027
 27084,0.06664516,0.00005002,0.00002720,0.00006503,-0.00033314,-0.00025
 875,-0.00002731,0.00143027,0.00089192,0.00042514,-0.00001762,-0.000530
 49,0.00002563,-0.00001883,-0.00006304,-0.00021177,0.00661123,0.0022301
 2,0.03247276,-0.00051954,-0.00059570,0.00061683,0.00098527,-0.00481911
 ,0.00012345,-0.00036999,-0.00017795,0.00134035,-0.00040447,0.00334549,
 -0.00145661,-0.00002451,0.00000278,0.00000764,0.00001820,0.00003345,0.
 00001942,-0.00001623,-0.00000798,0.00002038,0.00001542,0.00002312,0.00
 000196,0.00003052,0.00007816,0.00006053,0.00006122,-0.00042462,-0.0000
 6977,-0.00004492,-0.00010009,0.00001688,0.00000210,0.00008415,-0.00004
 757,-0.00004444,0.00002277,0.00004193,-0.00010967,0.00006714,-0.000147
 04,-0.00769383,-0.04871654,-0.02826904,0.00004174,-0.00000853,-0.00000
 222,-0.00001597,0.00003716,-0.00000751,0.00001341,-0.00006802,-0.00001
 420,-0.00190957,-0.00156387,-0.01100216,0.00945942,0.05180482,-0.00008
 765,0.00015571,-0.00021031,0.00072073,-0.00024672,-0.00001560,-0.00178
 507,-0.00099762,0.00062105,0.00008139,0.00055915,-0.00001896,-0.000101
 54,-0.00001791,0.00019569,-0.00180804,-0.00074659,-0.01474451,0.000453
 31,0.00043250,-0.00001985,-0.00086971,0.00238050,0.00071373,0.00046881
 ,-0.00020450,-0.00063355,0.00013951,-0.00108919,0.00157601,0.00005054,
 -0.00000991,0.00000012,-0.00001869,-0.00004523,-0.00001009,-0.00000276
 ,-0.00000487,-0.00002216,0.00000199,-0.00002145,-0.00001249,-0.0001020
 9,-0.00015808,0.00011098,-0.00007358,0.00018475,0.00009541,0.00001753,
 0.00002137,-0.00004065,-0.00006769,-0.00001671,0.00006745,0.00018259,-
 0.00006181,-0.00001152,-0.00006322,-0.00006468,0.00003793,-0.07340344,
 -0.02445223,-0.29785350,-0.00003808,0.00003377,0.00001357,0.00000439,-
 0.00000744,0.00000411,-0.00000177,0.00002910,0.00000487,0.00052602,0.0
 0001905,0.00126578,0.07978503,0.02402098,0.31932047,-0.00018527,-0.000
 01834,-0.00001535,-0.00003863,-0.00010641,-0.00007829,0.00025784,-0.00
 031255,-0.00032042,-0.00008840,0.00010361,0.00004395,-0.00003613,-0.00
 007061,-0.00000170,-0.00064640,-0.00170772,-0.00149857,0.00044953,-0.0
 0002472,-0.00034841,0.00066497,-0.00029773,0.00030739,-0.00028390,0.00
 034936,0.00011035,0.00064118,-0.00185997,-0.00004169,0.00003537,-0.000
 00597,-0.00002415,0.00000762,-0.00000578,0.00000591,-0.00000159,0.0000
 0912,0.00000471,-0.00000611,-0.00000261,-0.00000666,0.00011705,0.00006
 826,-0.00023045,-0.00004803,-0.00002268,0.00000493,0.00001682,0.000019
 04,0.00003472,-0.00023062,-0.00016672,0.00033704,0.00007648,0.00011003
 ,0.00001732,0.00006112,-0.00004463,0.00001093,-0.15582763,0.11111015,0
 .08190819,-0.00000596,-0.00000210,0.00001798,0.00000393,-0.00000662,0.
 00000464,0.00000264,0.00001333,0.00001441,-0.01576420,0.01812100,0.012
 72228,0.00614320,-0.00719610,-0.00400851,0.16468513,-0.00032075,0.0000
 5390,0.00009572,-0.00027448,0.00002204,-0.00034605,0.00143987,0.000413
 00,0.00013793,-0.00006194,-0.00010240,-0.00002050,0.00002195,0.0000604
 3,-0.00008673,0.01703606,-0.01609742,-0.01732769,0.00054647,0.00025550
 ,-0.00209779,-0.00043172,0.00111790,0.00013252,-0.00040746,0.00006769,
 0.00010645,0.00103454,-0.00655730,0.00459296,-0.00001752,-0.00000191,-
 0.00001562,0.00000842,-0.00000597,0.00000754,0.00002546,0.00001989,0.0
 0001120,-0.00000782,0.00001246,-0.00000781,0.00004771,-0.00003355,0.00
 045790,-0.00007176,0.00007858,0.00005802,0.00004172,0.00003370,0.00008
 460,-0.00029047,0.00002475,0.00049718,-0.00003823,0.00020879,0.0000374
 6,-0.00019390,-0.00036119,0.00043260,0.10768550,-0.15057994,-0.0764043
 9,-0.00001815,0.00005219,0.00000736,0.00006986,-0.00015479,-0.00006986
 ,0.00000782,0.00003114,0.00000266,-0.00784979,0.00872645,0.00674338,0.
 00007124,-0.00131358,0.00030806,-0.11805263,0.16402963,-0.00003557,-0.
 00005230,-0.00006774,-0.00017564,0.00041351,-0.00004363,-0.00018326,-0
 .00023619,-0.00010436,0.00009251,0.00019161,-0.00017428,0.00005145,0.0
 0001918,0.00012537,-0.01026441,0.00831070,0.00786753,-0.00013576,0.000
 72994,0.00068161,-0.00004915,-0.00042302,-0.00040733,-0.00014391,-0.00
 035615,0.00023661,-0.00034397,0.00330915,-0.00087726,0.00001581,0.0000
 0777,-0.00000462,-0.00003120,-0.00001792,-0.00000582,0.00001753,0.0000
 1350,-0.00000512,-0.00000823,-0.00000497,-0.00000232,0.00021906,0.0001
 4615,-0.00009509,0.00006866,-0.00005631,0.00000118,-0.00004081,0.00004
 270,-0.00000966,0.00021058,-0.00003362,0.00012932,-0.00001843,0.000030
 72,-0.00001782,0.00017168,0.00015476,-0.00014861,0.08203409,-0.0789607
 2,-0.10464340,-0.00000822,-0.00002413,-0.00001288,-0.00002901,0.000071
 49,0.00003200,0.00000719,0.00001395,0.00000268,-0.00198201,0.00205100,
 0.00025155,0.01953155,-0.01800369,-0.01043397,-0.08897055,0.08266289,0
 .10772604\\0.00000224,-0.00000177,-0.00000059,-0.00000102,-0.00000153,
 0.00000116,0.00000310,0.00000151,-0.00000113,-0.00000194,-0.00000153,0
 .00000289,0.00000072,0.00000157,-0.00000120,-0.00000233,-0.00000038,-0
 .00000178,-0.00000218,-0.00000142,-0.00000337,0.00000057,0.00000046,0.
 00000148,-0.00000245,-0.00000068,-0.00000013,0.00000418,0.00000097,-0.
 00000089,-0.00000084,0.00000057,0.00000263,-0.00000129,0.00000167,-0.0
 0000100,-0.00000066,-0.00000054,-0.00000087,0.00000042,-0.00000018,0.0
 0000149,0.00000006,-0.00000005,0.00000129,0.00000024,-0.00000143,0.000
 00062,-0.00000018,0.00000003,-0.00000169,0.00000052,0.00000111,0.00000
 149,-0.00000074,0.00000148,-0.00000047,-0.00000218,0.00000061,-0.00000
 004,-0.00000051,-0.00000109,0.00000149,0.00000242,-0.00000022,-0.00000
 131,0.,-0.00000057,-0.00000028,0.00000021,-0.00000014,-0.00000130,0.00
 000173,0.00000076,0.00000072,-0.00000008,0.00000030,-0.00000030,-0.000
 00001,0.00000046,0.00000109\\\@
 The archive entry for this job was punched.


 The mind is not a vessel to be filled but a fire to be kindled.
                                  -- Plutarch
 Job cpu time:       0 days  1 hours 10 minutes 16.0 seconds.
 Elapsed time:       0 days  0 hours  2 minutes 16.3 seconds.
 File lengths (MBytes):  RWF=    424 Int=      0 D2E=      0 Chk=     12 Scr=      8
 Normal termination of Gaussian 16 at Wed Mar 19 13:49:17 2025.
