 Entering Gaussian System, Link 0=g16
 Initial command:
 /public/software/apps/Gaussian/g16/l1.exe "/public/home/LLG_HG/tmp/Gau-30709.inp" -scrdir="/public/home/LLG_HG/tmp/"
 Entering Link 1 = /public/software/apps/Gaussian/g16/l1.exe PID=     30710.
  
 Copyright (c) 1988-2019, Gaussian, Inc.  All Rights Reserved.
  
 This is part of the Gaussian(R) 16 program.  It is based on
 the Gaussian(R) 09 system (copyright 2009, Gaussian, Inc.),
 the Gaussian(R) 03 system (copyright 2003, Gaussian, Inc.),
 the Gaussian(R) 98 system (copyright 1998, Gaussian, Inc.),
 the Gaussian(R) 94 system (copyright 1995, Gaussian, Inc.),
 the Gaussian 92(TM) system (copyright 1992, Gaussian, Inc.),
 the Gaussian 90(TM) system (copyright 1990, Gaussian, Inc.),
 the Gaussian 88(TM) system (copyright 1988, Gaussian, Inc.),
 the Gaussian 86(TM) system (copyright 1986, Carnegie Mellon
 University), and the Gaussian 82(TM) system (copyright 1983,
 Carnegie Mellon University). Gaussian is a federally registered
 trademark of Gaussian, Inc.
  
 This software contains proprietary and confidential information,
 including trade secrets, belonging to Gaussian, Inc.
  
 This software is provided under written license and may be
 used, copied, transmitted, or stored only in accord with that
 written license.
  
 The following legend is applicable only to US Government
 contracts under FAR:
  
                    RESTRICTED RIGHTS LEGEND
  
 Use, reproduction and disclosure by the US Government is
 subject to restrictions as set forth in subparagraphs (a)
 and (c) of the Commercial Computer Software - Restricted
 Rights clause in FAR 52.227-19.
  
 Gaussian, Inc.
 340 Quinnipiac St., Bldg. 40, Wallingford CT 06492
  
  
 ---------------------------------------------------------------
 Warning -- This program may not be used in any manner that
 competes with the business of Gaussian, Inc. or will provide
 assistance to any competitor of Gaussian, Inc.  The licensee
 of this program is prohibited from giving any competitor of
 Gaussian, Inc. access to this program.  By using this program,
 the user acknowledges that Gaussian, Inc. is engaged in the
 business of creating and licensing software in the field of
 computational chemistry and represents and warrants to the
 licensee that it is not a competitor of Gaussian, Inc. and that
 it will not use this program in any manner prohibited above.
 ---------------------------------------------------------------
  

 Cite this work as:
 Gaussian 16, Revision C.01,
 M. J. Frisch, G. W. Trucks, H. B. Schlegel, G. E. Scuseria, 
 M. A. Robb, J. R. Cheeseman, G. Scalmani, V. Barone, 
 G. A. Petersson, H. Nakatsuji, X. Li, M. Caricato, A. V. Marenich, 
 J. Bloino, B. G. Janesko, R. Gomperts, B. Mennucci, H. P. Hratchian, 
 J. V. Ortiz, A. F. Izmaylov, J. L. Sonnenberg, D. Williams-Young, 
 F. Ding, F. Lipparini, F. Egidi, J. Goings, B. Peng, A. Petrone, 
 T. Henderson, D. Ranasinghe, V. G. Zakrzewski, J. Gao, N. Rega, 
 G. Zheng, W. Liang, M. Hada, M. Ehara, K. Toyota, R. Fukuda, 
 J. Hasegawa, M. Ishida, T. Nakajima, Y. Honda, O. Kitao, H. Nakai, 
 T. Vreven, K. Throssell, J. A. Montgomery, Jr., J. E. Peralta, 
 F. Ogliaro, M. J. Bearpark, J. J. Heyd, E. N. Brothers, K. N. Kudin, 
 V. N. Staroverov, T. A. Keith, R. Kobayashi, J. Normand, 
 K. Raghavachari, A. P. Rendell, J. C. Burant, S. S. Iyengar, 
 J. Tomasi, M. Cossi, J. M. Millam, M. Klene, C. Adamo, R. Cammi, 
 J. W. Ochterski, R. L. Martin, K. Morokuma, O. Farkas, 
 J. B. Foresman, and D. J. Fox, Gaussian, Inc., Wallingford CT, 2019.
 
 ******************************************
 Gaussian 16:  ES64L-G16RevC.01  3-Jul-2019
                29-Oct-2025 
 ******************************************
 %nprocs=32
 Will use up to   32 processors via shared memory.
 %mem=50GB
 ----------------------------------------------------------------------
 # opt=(modredundant,maxstep=6,notrust,gdiis,maxcyc=300) b3lyp def2svp 
 em=gd3bj
 ----------------------------------------------------------------------

 Warning!  Use of Opt=GDIIS is deprecated since it is seldom a good choice.

 1/6=300,8=6,9=1,18=120,19=11,26=3,38=1/1,3;
 2/9=110,12=2,17=6,18=5,40=1/2;
 3/5=43,7=101,11=2,25=1,30=1,71=1,74=-5,124=41/1,2,3;
 4//1;
 5/5=2,38=5/2;
 6/7=2,8=2,9=2,10=2,28=1/1;
 7//1,2,3,16;
 1/6=300,8=6,9=1,18=20,19=11,26=3/3(2);
 2/9=110/2;
 99//99;
 2/9=110/2;
 3/5=43,7=101,11=2,25=1,30=1,71=1,74=-5,124=41/1,2,3;
 4/5=5,16=3,69=1/1;
 5/5=2,38=5/2;
 7//1,2,3,16;
 1/6=300,8=6,9=1,18=20,19=11,26=3/3(-5);
 2/9=110/2;
 6/7=2,8=2,9=2,10=2,19=2,28=1/1;
 99/9=1/99;
 -----------------------------------------------------------------
 Title: 6_2-TSC2-from2_1_003-YeCHH-TSA1_CuL8-CONFIG003-Opt-MN15L-1
 -----------------------------------------------------------------
 Symbolic Z-matrix:
 Charge =  0 Multiplicity = 1
 O                    -2.62336   4.40991   0.05773 
 H                    -1.66336   4.40991   0.05773 
 H                    -2.94381   5.31484   0.05773 
 F                    -0.97373   5.33184   0.16553 
 H                    -0.37059   5.90155   0.45889 
 
 Add virtual bond connecting atoms F4         and H2         Dist= 2.19D+00.
 The following ModRedundant input section has been read:
 B       2       4 S   2 0.0200                                                
 

 GradGradGradGradGradGradGradGradGradGradGradGradGradGradGradGradGradGrad
 Berny optimization.
 Initialization pass.
                           ----------------------------
                           !    Initial Parameters    !
                           ! (Angstroms and Degrees)  !
 --------------------------                            --------------------------
 ! Name  Definition              Value          Derivative Info.                !
 --------------------------------------------------------------------------------
 ! R1    R(1,2)                  0.96           estimate D2E/DX2                !
 ! R2    R(1,3)                  0.96           estimate D2E/DX2                !
 ! R3    R(2,4)                  1.1564         Scan                            !
 ! R4    R(4,5)                  0.88           estimate D2E/DX2                !
 ! A1    A(2,1,3)              109.5            estimate D2E/DX2                !
 ! A2    A(1,2,4)              126.6111         estimate D2E/DX2                !
 ! A3    A(2,4,5)              162.9357         estimate D2E/DX2                !
 ! D1    D(3,1,2,4)              6.6694         estimate D2E/DX2                !
 ! D2    D(1,2,4,5)            119.2954         estimate D2E/DX2                !
 --------------------------------------------------------------------------------
 Trust Radius=6.00D-02 FncErr=1.00D-07 GrdErr=1.00D-06 EigMax=2.50D+02 EigMin=1.00D-04
 Number of optimizations in scan=   3
 Number of steps in this run=    100 maximum allowed number of steps=    100.
 GradGradGradGradGradGradGradGradGradGradGradGradGradGradGradGradGradGrad

                          Input orientation:                          
 ---------------------------------------------------------------------
 Center     Atomic      Atomic             Coordinates (Angstroms)
 Number     Number       Type             X           Y           Z
 ---------------------------------------------------------------------
      1          8           0       -2.623359    4.409907    0.057729
      2          1           0       -1.663359    4.409907    0.057729
      3          1           0       -2.943813    5.314843    0.057729
      4          9           0       -0.973729    5.331838    0.165532
      5          1           0       -0.370592    5.901547    0.458890
 ---------------------------------------------------------------------
                    Distance matrix (angstroms):
                    1          2          3          4          5
     1  O    0.000000
     2  H    0.960000   0.000000
     3  H    0.960000   1.567952   0.000000
     4  F    1.892844   1.156360   1.973105   0.000000
     5  H    2.731461   2.014241   2.669573   0.880000   0.000000
 Stoichiometry    FH3O
 Framework group  C1[X(FH3O)]
 Deg. of freedom     9
 Full point group                 C1      NOp   1
 Largest Abelian subgroup         C1      NOp   1
 Largest concise Abelian subgroup C1      NOp   1
                         Standard orientation:                         
 ---------------------------------------------------------------------
 Center     Atomic      Atomic             Coordinates (Angstroms)
 Number     Number       Type             X           Y           Z
 ---------------------------------------------------------------------
      1          8           0       -1.036253   -0.056096    0.017760
      2          1           0       -0.190721   -0.509029   -0.021331
      3          1           0       -0.896086    0.890933   -0.053571
      4          9           0        0.855627   -0.016811   -0.028133
      5          1           0        1.676190    0.218167    0.186020
 ---------------------------------------------------------------------
 Rotational constants (GHZ):         419.2657660          14.5137234          14.0699414
 Standard basis: def2SVP (5D, 7F)
 There are    45 symmetry adapted cartesian basis functions of A   symmetry.
 There are    43 symmetry adapted basis functions of A   symmetry.
    43 basis functions,    71 primitive gaussians,    45 cartesian basis functions
    10 alpha electrons       10 beta electrons
       nuclear repulsion energy        43.2411772930 Hartrees.
 NAtoms=    5 NActive=    5 NUniq=    5 SFac= 1.00D+00 NAtFMM=   60 NAOKFM=F Big=F
 Integral buffers will be    131072 words long.
 Raffenetti 2 integral format.
 Two-electron integral symmetry is turned on.
 Nuclear repulsion after empirical dispersion term =       43.2393810752 Hartrees.
 One-electron integrals computed using PRISM.
   1 Symmetry operations used in ECPInt.
 ECPInt:  NShTT=     231 NPrTT=     815 LenC2=     232 LenP2D=     757.
 LDataN:  DoStor=T MaxTD1= 4 Len=   56
 NBasis=    43 RedAO= T EigKep=  3.15D-02  NBF=    43
 NBsUse=    43 1.00D-06 EigRej= -1.00D+00 NBFU=    43
 ExpMin= 1.22D-01 ExpMax= 2.89D+03 ExpMxC= 4.35D+02 IAcc=3 IRadAn=         5 AccDes= 0.00D+00
 Harris functional with IExCor=  402 and IRadAn=       5 diagonalized for initial guess.
 HarFok:  IExCor=  402 AccDes= 0.00D+00 IRadAn=         5 IDoV= 1 UseB2=F ITyADJ=14
 ICtDFT=  3500011 ScaDFX=  1.000000  1.000000  1.000000  1.000000
 FoFCou: FMM=F IPFlag=           0 FMFlag=      100000 FMFlg1=           0
         NFxFlg=           0 DoJE=T BraDBF=F KetDBF=T FulRan=T
         wScrn=  0.000000 ICntrl=       500 IOpCl=  0 I1Cent=   200000004 NGrid=           0
         NMat0=    1 NMatS0=      1 NMatT0=    0 NMatD0=    1 NMtDS0=    0 NMtDT0=    0
 Petite list used in FoFCou.
 Keep R1 ints in memory in canonical form, NReq=28241327.
 Requested convergence on RMS density matrix=1.00D-08 within 128 cycles.
 Requested convergence on MAX density matrix=1.00D-06.
 Requested convergence on             energy=1.00D-06.
 No special actions if energy rises.
 Integral accuracy reduced to 1.0D-05 until final iterations.
 Initial convergence to 1.0D-05 achieved.  Increase integral accuracy.
 SCF Done:  E(RB3LYP) =  -176.623083040     A.U. after   12 cycles
            NFock= 12  Conv=0.21D-08     -V/T= 2.0017

 **********************************************************************

            Population analysis using the SCF Density.

 **********************************************************************

 Orbital symmetries:
       Occupied  (A) (A) (A) (A) (A) (A) (A) (A) (A) (A)
       Virtual   (A) (A) (A) (A) (A) (A) (A) (A) (A) (A) (A) (A)
                 (A) (A) (A) (A) (A) (A) (A) (A) (A) (A) (A) (A)
                 (A) (A) (A) (A) (A) (A) (A) (A) (A)
 The electronic state is 1-A.
 Alpha  occ. eigenvalues --  -24.72153 -19.03344  -1.26386  -0.93447  -0.66451
 Alpha  occ. eigenvalues --   -0.49116  -0.47657  -0.42619  -0.26351  -0.23109
 Alpha virt. eigenvalues --    0.01969   0.11084   0.20790   0.50480   0.64492
 Alpha virt. eigenvalues --    0.70922   0.92970   0.98746   1.02705   1.07995
 Alpha virt. eigenvalues --    1.10334   1.20301   1.26248   1.35720   1.45575
 Alpha virt. eigenvalues --    1.50194   1.55797   1.72735   1.87266   1.98571
 Alpha virt. eigenvalues --    2.29354   2.36422   2.56148   2.93998   3.01722
 Alpha virt. eigenvalues --    3.03990   3.09941   3.22410   3.44930   3.55294
 Alpha virt. eigenvalues --    3.79795   3.93356   4.55799
          Condensed to atoms (all electrons):
               1          2          3          4          5
     1  O    7.763679   0.405788   0.343993  -0.151648   0.016488
     2  H    0.405788   0.488944  -0.062777   0.042888  -0.003294
     3  H    0.343993  -0.062777   0.580379   0.019733   0.001004
     4  F   -0.151648   0.042888   0.019733   8.864404   0.253012
     5  H    0.016488  -0.003294   0.001004   0.253012   0.572220
 Mulliken charges:
               1
     1  O   -0.378299
     2  H    0.128450
     3  H    0.117668
     4  F   -0.028389
     5  H    0.160570
 Sum of Mulliken charges =  -0.00000
 Mulliken charges with hydrogens summed into heavy atoms:
               1
     1  O   -0.132181
     4  F    0.132181
 Electronic spatial extent (au):  <R**2>=             95.8306
 Charge=             -0.0000 electrons
 Dipole moment (field-independent basis, Debye):
    X=              4.2820    Y=              1.2311    Z=              0.2324  Tot=              4.4615
 Quadrupole moment (field-independent basis, Debye-Ang):
   XX=            -10.7309   YY=             -9.8400   ZZ=            -12.2404
   XY=             -0.6757   XZ=              0.9061   YZ=              0.0234
 Traceless Quadrupole moment (field-independent basis, Debye-Ang):
   XX=              0.2062   YY=              1.0971   ZZ=             -1.3033
   XY=             -0.6757   XZ=              0.9061   YZ=              0.0234
 Octapole moment (field-independent basis, Debye-Ang**2):
  XXX=             18.2861  YYY=              1.2165  ZZZ=             -0.0210  XYY=              0.5067
  XXY=              3.3221  XXZ=              1.1383  XZZ=              2.3382  YZZ=              0.1659
  YYZ=             -0.0500  XYZ=              0.2532
 Hexadecapole moment (field-independent basis, Debye-Ang**3):
 XXXX=            -64.7541 YYYY=             -9.1904 ZZZZ=             -7.9212 XXXY=              0.2983
 XXXZ=              2.4208 YYYX=             -1.1909 YYYZ=             -0.0677 ZZZX=              0.2840
 ZZZY=              0.0150 XXYY=            -12.9523 XXZZ=            -14.3900 YYZZ=             -3.1060
 XXYZ=              0.2022 YYXZ=              0.1612 ZZXY=             -0.1013
 N-N= 4.323938107516D+01 E-N=-5.072593359217D+02  KE= 1.763275719615D+02
   1 Symmetry operations used in ECPInt.
 ECPInt:  NShTT=     231 NPrTT=     815 LenC2=     232 LenP2D=     757.
 LDataN:  DoStor=T MaxTD1= 5 Len=  102
 Calling FoFJK, ICntrl=      2127 FMM=F ISym2X=0 I1Cent= 0 IOpClX= 0 NMat=1 NMatS=1 NMatT=0.
 ***** Axes restored to original set *****
 -------------------------------------------------------------------
 Center     Atomic                   Forces (Hartrees/Bohr)
 Number     Number              X              Y              Z
 -------------------------------------------------------------------
      1        8          -0.110043093   -0.073213426   -0.009396635
      2        1          -0.060317085   -0.052004248   -0.006297225
      3        1           0.006717681   -0.003049309   -0.000722647
      4        9           0.104031288    0.081410997   -0.006563947
      5        1           0.059611208    0.046855986    0.022980454
 -------------------------------------------------------------------
 Cartesian Forces:  Max     0.110043093 RMS     0.056430255

 GradGradGradGradGradGradGradGradGradGradGradGradGradGradGradGradGradGrad
 Berny optimization.
 FormGI is forming the generalized inverse of G from B-inverse, IUseBI=4.
 Internal  Forces:  Max     0.201387093 RMS     0.090978791
 Search for a local minimum.
 Step number   1 out of a maximum of  100 on scan point     1 out of     3
 All quantities printed in internal units (Hartrees-Bohrs-Radians)
 Swapping is turned off.
 Second derivative matrix not updated -- first step.
 The second derivative matrix:
                          R1        R2        R3        R4        A1
           R1           0.55473
           R2           0.00000   0.55473
           R3           0.00000   0.00000   0.28146
           R4           0.00000   0.00000   0.00000   0.76963
           A1           0.00000   0.00000   0.00000   0.00000   0.16000
           A2           0.00000   0.00000   0.00000   0.00000   0.00000
           A3           0.00000   0.00000   0.00000   0.00000   0.00000
           D1           0.00000   0.00000   0.00000   0.00000   0.00000
           D2           0.00000   0.00000   0.00000   0.00000   0.00000
                          A2        A3        D1        D2
           A2           0.25000
           A3           0.00000   0.16000
           D1           0.00000   0.00000   0.01558
           D2           0.00000   0.00000   0.00000   0.00230
 ITU=  0
     Eigenvalues ---    0.00230   0.01558   0.16000   0.16000   0.25000
     Eigenvalues ---    0.55473   0.55473   0.769631000.00000
 Quadratic step=1.717D+00 exceeds max=6.000D-02 adjusted using Lamda=-2.631D+00.
 Angle between NR and scaled steps=  70.58 degrees.
 Angle between quadratic step and forces=   3.75 degrees.
 Linear search not attempted -- option 19 set.
 Iteration  1 RMS(Cart)=  0.03997277 RMS(Int)=  0.00043473
 Iteration  2 RMS(Cart)=  0.00042674 RMS(Int)=  0.00000014
 Iteration  3 RMS(Cart)=  0.00000011 RMS(Int)=  0.00000000
 Iteration  1 RMS(Cart)=  0.00000000 RMS(Int)=  0.00000000
 Variable       Old X    -DE/DX   Delta X   Delta X   Delta X     New X
                                 (Linear)    (Quad)   (Total)
    R1        1.81414   0.10333   0.00000   0.03243   0.03243   1.84657
    R2        1.81414  -0.00512   0.00000  -0.00161  -0.00161   1.81253
    R3        2.18520   0.20139   0.00000   0.00000  -0.00000   2.18520
    R4        1.66296   0.07885   0.00000   0.02319   0.02319   1.68614
    A1        1.91114  -0.00964   0.00000  -0.00345  -0.00345   1.90768
    A2        2.20978   0.13002   0.00000   0.04513   0.04513   2.25491
    A3        2.84376  -0.00187   0.00000  -0.00067  -0.00067   2.84309
    D1        0.11640   0.00124   0.00000   0.00047   0.00047   0.11687
    D2        2.08210   0.00372   0.00000   0.00141   0.00141   2.08351
         Item               Value     Threshold  Converged?
 Maximum Force            0.130022     0.000450     NO 
 RMS     Force            0.065132     0.000300     NO 
 Maximum Displacement     0.069978     0.001800     NO 
 RMS     Displacement     0.039875     0.001200     NO 
 Predicted change in Energy=-1.034048D-02
 GradGradGradGradGradGradGradGradGradGradGradGradGradGradGradGradGradGrad

                          Input orientation:                          
 ---------------------------------------------------------------------
 Center     Atomic      Atomic             Coordinates (Angstroms)
 Number     Number       Type             X           Y           Z
 ---------------------------------------------------------------------
      1          8           0       -2.639796    4.401563    0.055697
      2          1           0       -1.662995    4.427614    0.060894
      3          1           0       -2.980844    5.298020    0.051319
      4          9           0       -0.956742    5.337117    0.166628
      5          1           0       -0.334474    5.903729    0.463070
 ---------------------------------------------------------------------
                    Distance matrix (angstroms):
                    1          2          3          4          5
     1  O    0.000000
     2  H    0.977162   0.000000
     3  H    0.959150   1.579375   0.000000
     4  F    1.928792   1.156360   2.027761   0.000000
     5  H    2.781540   2.026236   2.745851   0.892269   0.000000
 Stoichiometry    FH3O
 Framework group  C1[X(FH3O)]
 Deg. of freedom     9
 Full point group                 C1      NOp   1
 Largest Abelian subgroup         C1      NOp   1
 Largest concise Abelian subgroup C1      NOp   1
                         Standard orientation:                         
 ---------------------------------------------------------------------
 Center     Atomic      Atomic             Coordinates (Angstroms)
 Number     Number       Type             X           Y           Z
 ---------------------------------------------------------------------
      1          8           0       -1.055026   -0.059633    0.017798
      2          1           0       -0.180099   -0.492959   -0.021906
      3          1           0       -0.941811    0.890274   -0.051689
      4          9           0        0.872683   -0.014654   -0.028610
      5          1           0        1.707974    0.211637    0.188703
 ---------------------------------------------------------------------
 Rotational constants (GHZ):         424.5162195          13.9607960          13.5560296
 Standard basis: def2SVP (5D, 7F)
 There are    45 symmetry adapted cartesian basis functions of A   symmetry.
 There are    43 symmetry adapted basis functions of A   symmetry.
    43 basis functions,    71 primitive gaussians,    45 cartesian basis functions
    10 alpha electrons       10 beta electrons
       nuclear repulsion energy        42.6156025981 Hartrees.
 NAtoms=    5 NActive=    5 NUniq=    5 SFac= 1.00D+00 NAtFMM=   60 NAOKFM=F Big=F
 Integral buffers will be    131072 words long.
 Raffenetti 2 integral format.
 Two-electron integral symmetry is turned on.
 Nuclear repulsion after empirical dispersion term =       42.6138198646 Hartrees.
 One-electron integrals computed using PRISM.
   1 Symmetry operations used in ECPInt.
 ECPInt:  NShTT=     231 NPrTT=     815 LenC2=     232 LenP2D=     756.
 LDataN:  DoStor=T MaxTD1= 4 Len=   56
 NBasis=    43 RedAO= T EigKep=  3.24D-02  NBF=    43
 NBsUse=    43 1.00D-06 EigRej= -1.00D+00 NBFU=    43
 Initial guess from the checkpoint file:  "/public/home/LLG_HG/tmp/Gau-30710.chk"
 B after Tr=    -0.000000    0.000000   -0.000000
         Rot=    0.999996   -0.002219   -0.000057   -0.001620 Ang=  -0.31 deg.
 ExpMin= 1.22D-01 ExpMax= 2.89D+03 ExpMxC= 4.35D+02 IAcc=3 IRadAn=         5 AccDes= 0.00D+00
 Harris functional with IExCor=  402 and IRadAn=       5 diagonalized for initial guess.
 HarFok:  IExCor=  402 AccDes= 0.00D+00 IRadAn=         5 IDoV= 1 UseB2=F ITyADJ=14
 ICtDFT=  3500011 ScaDFX=  1.000000  1.000000  1.000000  1.000000
 FoFCou: FMM=F IPFlag=           0 FMFlag=      100000 FMFlg1=           0
         NFxFlg=           0 DoJE=T BraDBF=F KetDBF=T FulRan=T
         wScrn=  0.000000 ICntrl=       500 IOpCl=  0 I1Cent=   200000004 NGrid=           0
         NMat0=    1 NMatS0=      1 NMatT0=    0 NMatD0=    1 NMtDS0=    0 NMtDT0=    0
 Petite list used in FoFCou.
 Keep R1 ints in memory in canonical form, NReq=28241327.
 Requested convergence on RMS density matrix=1.00D-08 within 128 cycles.
 Requested convergence on MAX density matrix=1.00D-06.
 Requested convergence on             energy=1.00D-06.
 No special actions if energy rises.
 Integral accuracy reduced to 1.0D-05 until final iterations.
 Initial convergence to 1.0D-05 achieved.  Increase integral accuracy.
 SCF Done:  E(RB3LYP) =  -176.633068295     A.U. after   10 cycles
            NFock= 10  Conv=0.50D-08     -V/T= 2.0022
   1 Symmetry operations used in ECPInt.
 ECPInt:  NShTT=     231 NPrTT=     815 LenC2=     232 LenP2D=     756.
 LDataN:  DoStor=T MaxTD1= 5 Len=  102
 Calling FoFJK, ICntrl=      2127 FMM=F ISym2X=0 I1Cent= 0 IOpClX= 0 NMat=1 NMatS=1 NMatT=0.
 ***** Axes restored to original set *****
 -------------------------------------------------------------------
 Center     Atomic                   Forces (Hartrees/Bohr)
 Number     Number              X              Y              Z
 -------------------------------------------------------------------
      1        8          -0.082166838   -0.067274154   -0.008332469
      2        1          -0.073561364   -0.049737990   -0.005851542
      3        1           0.006877060   -0.000226350   -0.000567571
      4        9           0.102172534    0.083260089   -0.002333628
      5        1           0.046678608    0.033978405    0.017085210
 -------------------------------------------------------------------
 Cartesian Forces:  Max     0.102172534 RMS     0.051843305

 GradGradGradGradGradGradGradGradGradGradGradGradGradGradGradGradGradGrad
 Berny optimization.
 Using GDIIS optimizer.
 FormGI is forming the generalized inverse of G from B-inverse, IUseBI=4.
 Internal  Forces:  Max     0.184471163 RMS     0.078825851
 Search for a local minimum.
 Step number   2 out of a maximum of  100 on scan point     1 out of     3
 All quantities printed in internal units (Hartrees-Bohrs-Radians)
 Swapping is turned off.
 Update second derivatives using D2CorX and points    1    2
 The second derivative matrix:
                          R1        R2        R3        R4        A1
           R1           0.65706
           R2          -0.01913   0.55700
           R3           0.20435  -0.01920   0.41332
           R4           0.01743  -0.01108   0.14845   0.72585
           A1           0.02904  -0.00244   0.01449   0.02285   0.16139
           A2           0.10125  -0.01548   0.15207   0.03786   0.02084
           A3           0.00404  -0.00032   0.00178   0.00327   0.00016
           D1           0.00234  -0.00022   0.00157   0.00168   0.00017
           D2           0.00392  -0.00037   0.00256   0.00284   0.00028
                          A2        A3        D1        D2
           A2           0.34108
           A3           0.00286   0.16002
           D1           0.00175   0.00002   0.01559
           D2           0.00292   0.00003   0.00003   0.00235
 ITU=  0  0
     Eigenvalues ---    0.00230   0.01558   0.15765   0.16000   0.30945
     Eigenvalues ---    0.55320   0.67569   0.746481000.00000
 DIIS coeff's:      5.11362     -4.11362
 Cosine:  1.000 >  0.970
 Length:  1.000
 GDIIS step was calculated using  2 of the last  2 vectors.
 Maximum step size (   0.060) exceeded in Quadratic search.
    -- Step size scaled by   0.171
 Iteration  1 RMS(Cart)=  0.04124879 RMS(Int)=  0.00192905
 Iteration  2 RMS(Cart)=  0.00136583 RMS(Int)=  0.00001139
 Iteration  3 RMS(Cart)=  0.00000955 RMS(Int)=  0.00000000
 Iteration  4 RMS(Cart)=  0.00000000 RMS(Int)=  0.00000000
 Iteration  1 RMS(Cart)=  0.00000000 RMS(Int)=  0.00000000
 Variable       Old X    -DE/DX   Delta X   Delta X   Delta X     New X
                                 (Linear)    (Quad)   (Total)
    R1        1.84657   0.07711   0.02277  -0.01070   0.01207   1.85864
    R2        1.81253  -0.00265  -0.00113   0.00236   0.00123   1.81376
    R3        2.18520   0.18447  -0.00000   0.00000   0.00000   2.18520
    R4        1.68614   0.05981   0.01628  -0.00500   0.01128   1.69742
    A1        1.90768  -0.01150  -0.00243  -0.02029  -0.02272   1.88497
    A2        2.25491   0.11051   0.03168   0.01893   0.05062   2.30553
    A3        2.84309  -0.00210  -0.00047  -0.00322  -0.00369   2.83941
    D1        0.11687   0.00104   0.00033   0.00228   0.00261   0.11948
    D2        2.08351   0.00340   0.00099   0.15188   0.15287   2.23638
         Item               Value     Threshold  Converged?
 Maximum Force            0.110513     0.000450     NO 
 RMS     Force            0.052312     0.000300     NO 
 Maximum Displacement     0.075290     0.001800     NO 
 RMS     Displacement     0.040700     0.001200     NO 
 Predicted change in Energy=-7.305310D-03
 GradGradGradGradGradGradGradGradGradGradGradGradGradGradGradGradGradGrad

                          Input orientation:                          
 ---------------------------------------------------------------------
 Center     Atomic      Atomic             Coordinates (Angstroms)
 Number     Number       Type             X           Y           Z
 ---------------------------------------------------------------------
      1          8           0       -2.650641    4.387618    0.050569
      2          1           0       -1.669339    4.452405    0.065456
      3          1           0       -3.006679    5.278922    0.044516
      4          9           0       -0.953561    5.353608    0.177989
      5          1           0       -0.294632    5.895489    0.459078
 ---------------------------------------------------------------------
                    Distance matrix (angstroms):
                    1          2          3          4          5
     1  O    0.000000
     2  H    0.983550   0.000000
     3  H    0.959803   1.572274   0.000000
     4  F    1.956898   1.156360   2.058807   0.000000
     5  H    2.826893   2.031563   2.811976   0.898238   0.000000
 Stoichiometry    FH3O
 Framework group  C1[X(FH3O)]
 Deg. of freedom     9
 Full point group                 C1      NOp   1
 Largest Abelian subgroup         C1      NOp   1
 Largest concise Abelian subgroup C1      NOp   1
                         Standard orientation:                         
 ---------------------------------------------------------------------
 Center     Atomic      Atomic             Coordinates (Angstroms)
 Number     Number       Type             X           Y           Z
 ---------------------------------------------------------------------
      1          8           0       -1.070560   -0.064094    0.016286
      2          1           0       -0.175468   -0.469369   -0.027684
      3          1           0       -0.967980    0.888495   -0.040927
      4          9           0        0.885086   -0.008509   -0.026248
      5          1           0        1.742157    0.170209    0.174552
 ---------------------------------------------------------------------
 Rotational constants (GHZ):         441.4357087          13.5479990          13.1763817
 Standard basis: def2SVP (5D, 7F)
 There are    45 symmetry adapted cartesian basis functions of A   symmetry.
 There are    43 symmetry adapted basis functions of A   symmetry.
    43 basis functions,    71 primitive gaussians,    45 cartesian basis functions
    10 alpha electrons       10 beta electrons
       nuclear repulsion energy        42.2017309709 Hartrees.
 NAtoms=    5 NActive=    5 NUniq=    5 SFac= 1.00D+00 NAtFMM=   60 NAOKFM=F Big=F
 Integral buffers will be    131072 words long.
 Raffenetti 2 integral format.
 Two-electron integral symmetry is turned on.
 Nuclear repulsion after empirical dispersion term =       42.1999599680 Hartrees.
 One-electron integrals computed using PRISM.
   1 Symmetry operations used in ECPInt.
 ECPInt:  NShTT=     231 NPrTT=     815 LenC2=     232 LenP2D=     754.
 LDataN:  DoStor=T MaxTD1= 4 Len=   56
 NBasis=    43 RedAO= T EigKep=  3.23D-02  NBF=    43
 NBsUse=    43 1.00D-06 EigRej= -1.00D+00 NBFU=    43
 Initial guess from the checkpoint file:  "/public/home/LLG_HG/tmp/Gau-30710.chk"
 B after Tr=    -0.000000   -0.000000    0.000000
         Rot=    0.999960   -0.008945   -0.000107   -0.000599 Ang=  -1.03 deg.
 ExpMin= 1.22D-01 ExpMax= 2.89D+03 ExpMxC= 4.35D+02 IAcc=3 IRadAn=         5 AccDes= 0.00D+00
 Harris functional with IExCor=  402 and IRadAn=       5 diagonalized for initial guess.
 HarFok:  IExCor=  402 AccDes= 0.00D+00 IRadAn=         5 IDoV= 1 UseB2=F ITyADJ=14
 ICtDFT=  3500011 ScaDFX=  1.000000  1.000000  1.000000  1.000000
 FoFCou: FMM=F IPFlag=           0 FMFlag=      100000 FMFlg1=           0
         NFxFlg=           0 DoJE=T BraDBF=F KetDBF=T FulRan=T
         wScrn=  0.000000 ICntrl=       500 IOpCl=  0 I1Cent=   200000004 NGrid=           0
         NMat0=    1 NMatS0=      1 NMatT0=    0 NMatD0=    1 NMtDS0=    0 NMtDT0=    0
 Petite list used in FoFCou.
 Keep R1 ints in memory in canonical form, NReq=28241327.
 Requested convergence on RMS density matrix=1.00D-08 within 128 cycles.
 Requested convergence on MAX density matrix=1.00D-06.
 Requested convergence on             energy=1.00D-06.
 No special actions if energy rises.
 Integral accuracy reduced to 1.0D-05 until final iterations.
 Initial convergence to 1.0D-05 achieved.  Increase integral accuracy.
 SCF Done:  E(RB3LYP) =  -176.640445808     A.U. after   10 cycles
            NFock= 10  Conv=0.45D-08     -V/T= 2.0026
   1 Symmetry operations used in ECPInt.
 ECPInt:  NShTT=     231 NPrTT=     815 LenC2=     232 LenP2D=     754.
 LDataN:  DoStor=T MaxTD1= 5 Len=  102
 Calling FoFJK, ICntrl=      2127 FMM=F ISym2X=0 I1Cent= 0 IOpClX= 0 NMat=1 NMatS=1 NMatT=0.
 ***** Axes restored to original set *****
 -------------------------------------------------------------------
 Center     Atomic                   Forces (Hartrees/Bohr)
 Number     Number              X              Y              Z
 -------------------------------------------------------------------
      1        8          -0.066561476   -0.059751200   -0.008018176
      2        1          -0.076566659   -0.050862154   -0.006484055
      3        1           0.005550941    0.000225556   -0.000389615
      4        9           0.096258910    0.083177483    0.001350935
      5        1           0.041318285    0.027210314    0.013540911
 -------------------------------------------------------------------
 Cartesian Forces:  Max     0.096258910 RMS     0.048582886

 GradGradGradGradGradGradGradGradGradGradGradGradGradGradGradGradGradGrad
 Berny optimization.
 Using GDIIS optimizer.
 FormGI is forming the generalized inverse of G from B-inverse, IUseBI=4.
 Internal  Forces:  Max     0.172638546 RMS     0.071217355
 Search for a local minimum.
 Step number   3 out of a maximum of  100 on scan point     1 out of     3
 All quantities printed in internal units (Hartrees-Bohrs-Radians)
 Swapping is turned off.
 Update second derivatives using D2CorX and points    1    2    3
 The second derivative matrix:
                          R1        R2        R3        R4        A1
           R1           0.65781
           R2          -0.02415   0.55769
           R3           0.21372  -0.02399   0.42878
           R4           0.01039  -0.01426   0.14897   0.71506
           A1           0.02780  -0.00198   0.01258   0.02252   0.16171
           A2           0.08174  -0.01978   0.14609   0.01481   0.02070
           A3           0.02100  -0.00165   0.01639   0.01552  -0.00125
           D1           0.00298  -0.00033   0.00222   0.00205   0.00010
           D2           0.00474  -0.00060   0.00358   0.00317   0.00016
                          A2        A3        D1        D2
           A2           0.29630
           A3           0.02165   0.16117
           D1           0.00222   0.00027   0.01561
           D2           0.00318   0.00067   0.00006   0.00241
 ITU=  0  0  0
     Eigenvalues ---    0.00234   0.01558   0.15227   0.16258   0.28127
     Eigenvalues ---    0.55146   0.67670   0.725561000.00000
 DIIS coeff's:      6.20022     -4.82325     -0.37697
 Cosine:  1.000 >  0.840
 Length:  0.988
 GDIIS step was calculated using  3 of the last  3 vectors.
 Maximum step size (   0.060) exceeded in Quadratic search.
    -- Step size scaled by   0.171
 Iteration  1 RMS(Cart)=  0.03800916 RMS(Int)=  0.00169450
 Iteration  2 RMS(Cart)=  0.00092569 RMS(Int)=  0.00000346
 Iteration  3 RMS(Cart)=  0.00000354 RMS(Int)=  0.00000000
 Iteration  4 RMS(Cart)=  0.00000000 RMS(Int)=  0.00000000
 Iteration  1 RMS(Cart)=  0.00000000 RMS(Int)=  0.00000000
 Variable       Old X    -DE/DX   Delta X   Delta X   Delta X     New X
                                 (Linear)    (Quad)   (Total)
    R1        1.85864   0.06492   0.01284  -0.00203   0.01081   1.86945
    R2        1.81376  -0.00185   0.00099   0.00098   0.00197   1.81574
    R3        2.18520   0.17264   0.00000   0.00000   0.00000   2.18520
    R4        1.69742   0.05096   0.01154  -0.00019   0.01135   1.70878
    A1        1.88497  -0.00949  -0.02045   0.00014  -0.02030   1.86466
    A2        2.30553   0.09444   0.04798   0.00377   0.05175   2.35727
    A3        2.83941  -0.00316  -0.00333  -0.00936  -0.01268   2.82672
    D1        0.11948   0.00082   0.00235  -0.00411  -0.00176   0.11772
    D2        2.23638   0.00278   0.13620  -0.03652   0.09968   2.33606
         Item               Value     Threshold  Converged?
 Maximum Force            0.094443     0.000450     NO 
 RMS     Force            0.044502     0.000300     NO 
 Maximum Displacement     0.067046     0.001800     NO 
 RMS     Displacement     0.037761     0.001200     NO 
 Predicted change in Energy=-6.108122D-03
 GradGradGradGradGradGradGradGradGradGradGradGradGradGradGradGradGradGrad

                          Input orientation:                          
 ---------------------------------------------------------------------
 Center     Atomic      Atomic             Coordinates (Angstroms)
 Number     Number       Type             X           Y           Z
 ---------------------------------------------------------------------
      1          8           0       -2.659631    4.374754    0.046665
      2          1           0       -1.675977    4.477268    0.070632
      3          1           0       -3.031646    5.260619    0.038044
      4          9           0       -0.948445    5.368813    0.184709
      5          1           0       -0.259153    5.886589    0.457558
 ---------------------------------------------------------------------
                    Distance matrix (angstroms):
                    1          2          3          4          5
     1  O    0.000000
     2  H    0.989272   0.000000
     3  H    0.960847   1.566059   0.000000
     4  F    1.983776   1.156360   2.091158   0.000000
     5  H    2.866491   2.035506   2.873073   0.904246   0.000000
 Stoichiometry    FH3O
 Framework group  C1[X(FH3O)]
 Deg. of freedom     9
 Full point group                 C1      NOp   1
 Largest Abelian subgroup         C1      NOp   1
 Largest concise Abelian subgroup C1      NOp   1
                         Standard orientation:                         
 ---------------------------------------------------------------------
 Center     Atomic      Atomic             Coordinates (Angstroms)
 Number     Number       Type             X           Y           Z
 ---------------------------------------------------------------------
      1          8           0       -1.084983   -0.068512    0.015039
      2          1           0       -0.171263   -0.444956   -0.030407
      3          1           0       -0.994994    0.886962   -0.031836
      4          9           0        0.897308   -0.003032   -0.025003
      5          1           0        1.770351    0.133377    0.166958
 ---------------------------------------------------------------------
 Rotational constants (GHZ):         455.2290251          13.1735649          12.8302809
 Standard basis: def2SVP (5D, 7F)
 There are    45 symmetry adapted cartesian basis functions of A   symmetry.
 There are    43 symmetry adapted basis functions of A   symmetry.
    43 basis functions,    71 primitive gaussians,    45 cartesian basis functions
    10 alpha electrons       10 beta electrons
       nuclear repulsion energy        41.8133736990 Hartrees.
 NAtoms=    5 NActive=    5 NUniq=    5 SFac= 1.00D+00 NAtFMM=   60 NAOKFM=F Big=F
 Integral buffers will be    131072 words long.
 Raffenetti 2 integral format.
 Two-electron integral symmetry is turned on.
 Nuclear repulsion after empirical dispersion term =       41.8116137594 Hartrees.
 One-electron integrals computed using PRISM.
   1 Symmetry operations used in ECPInt.
 ECPInt:  NShTT=     231 NPrTT=     815 LenC2=     232 LenP2D=     753.
 LDataN:  DoStor=T MaxTD1= 4 Len=   56
 NBasis=    43 RedAO= T EigKep=  3.22D-02  NBF=    43
 NBsUse=    43 1.00D-06 EigRej= -1.00D+00 NBFU=    43
 Initial guess from the checkpoint file:  "/public/home/LLG_HG/tmp/Gau-30710.chk"
 B after Tr=     0.000000    0.000000    0.000000
         Rot=    0.999968   -0.008005   -0.000051   -0.000677 Ang=  -0.92 deg.
 ExpMin= 1.22D-01 ExpMax= 2.89D+03 ExpMxC= 4.35D+02 IAcc=3 IRadAn=         5 AccDes= 0.00D+00
 Harris functional with IExCor=  402 and IRadAn=       5 diagonalized for initial guess.
 HarFok:  IExCor=  402 AccDes= 0.00D+00 IRadAn=         5 IDoV= 1 UseB2=F ITyADJ=14
 ICtDFT=  3500011 ScaDFX=  1.000000  1.000000  1.000000  1.000000
 FoFCou: FMM=F IPFlag=           0 FMFlag=      100000 FMFlg1=           0
         NFxFlg=           0 DoJE=T BraDBF=F KetDBF=T FulRan=T
         wScrn=  0.000000 ICntrl=       500 IOpCl=  0 I1Cent=   200000004 NGrid=           0
         NMat0=    1 NMatS0=      1 NMatT0=    0 NMatD0=    1 NMtDS0=    0 NMtDT0=    0
 Petite list used in FoFCou.
 Keep R1 ints in memory in canonical form, NReq=28241327.
 Requested convergence on RMS density matrix=1.00D-08 within 128 cycles.
 Requested convergence on MAX density matrix=1.00D-06.
 Requested convergence on             energy=1.00D-06.
 No special actions if energy rises.
 Integral accuracy reduced to 1.0D-05 until final iterations.
 Initial convergence to 1.0D-05 achieved.  Increase integral accuracy.
 SCF Done:  E(RB3LYP) =  -176.646609873     A.U. after   10 cycles
            NFock= 10  Conv=0.38D-08     -V/T= 2.0028
   1 Symmetry operations used in ECPInt.
 ECPInt:  NShTT=     231 NPrTT=     815 LenC2=     232 LenP2D=     753.
 LDataN:  DoStor=T MaxTD1= 5 Len=  102
 Calling FoFJK, ICntrl=      2127 FMM=F ISym2X=0 I1Cent= 0 IOpClX= 0 NMat=1 NMatS=1 NMatT=0.
 ***** Axes restored to original set *****
 -------------------------------------------------------------------
 Center     Atomic                   Forces (Hartrees/Bohr)
 Number     Number              X              Y              Z
 -------------------------------------------------------------------
      1        8          -0.053700337   -0.052306103   -0.007367143
      2        1          -0.078997021   -0.052083580   -0.006760544
      3        1           0.004455284    0.000154544   -0.000258930
      4        9           0.092797103    0.083046792    0.003683091
      5        1           0.035444971    0.021188347    0.010703526
 -------------------------------------------------------------------
 Cartesian Forces:  Max     0.092797103 RMS     0.046212767

 GradGradGradGradGradGradGradGradGradGradGradGradGradGradGradGradGradGrad
 Berny optimization.
 Using GDIIS optimizer.
 FormGI is forming the generalized inverse of G from B-inverse, IUseBI=4.
 Internal  Forces:  Max     0.162468196 RMS     0.064774316
 Search for a local minimum.
 Step number   4 out of a maximum of  100 on scan point     1 out of     3
 All quantities printed in internal units (Hartrees-Bohrs-Radians)
 Swapping is turned off.
 Update second derivatives using D2CorX and points    1    2    3    4
 The second derivative matrix:
                          R1        R2        R3        R4        A1
           R1           0.65643
           R2          -0.02294   0.55744
           R3           0.20549  -0.02267   0.41591
           R4           0.01573  -0.01381   0.14824   0.72397
           A1           0.02311  -0.00169   0.00853   0.01838   0.16309
           A2           0.06784  -0.01860   0.12491   0.01055   0.01714
           A3           0.02626  -0.00161   0.02203   0.02010  -0.00283
           D1           0.00342  -0.00033   0.00259   0.00249  -0.00006
           D2           0.00433  -0.00055   0.00305   0.00306  -0.00003
                          A2        A3        D1        D2
           A2           0.25928
           A3           0.03022   0.16117
           D1           0.00265   0.00038   0.01563
           D2           0.00222   0.00096   0.00008   0.00239
 ITU=  0  0  0  0
     Eigenvalues ---    0.00234   0.01558   0.14706   0.16493   0.25516
     Eigenvalues ---    0.55192   0.66823   0.734181000.00000
 DIIS coeff's:      7.70969     -7.40597      0.55122      0.14506
 Cosine:  1.000 >  0.710
 Length:  1.025
 GDIIS step was calculated using  4 of the last  4 vectors.
 Maximum step size (   0.060) exceeded in Quadratic search.
    -- Step size scaled by   0.166
 Iteration  1 RMS(Cart)=  0.03934045 RMS(Int)=  0.00179734
 Iteration  2 RMS(Cart)=  0.00100462 RMS(Int)=  0.00000350
 Iteration  3 RMS(Cart)=  0.00000352 RMS(Int)=  0.00000000
 Iteration  4 RMS(Cart)=  0.00000000 RMS(Int)=  0.00000000
 Iteration  1 RMS(Cart)=  0.00000000 RMS(Int)=  0.00000000
 Variable       Old X    -DE/DX   Delta X   Delta X   Delta X     New X
                                 (Linear)    (Quad)   (Total)
    R1        1.86945   0.05455   0.00985  -0.00088   0.00897   1.87843
    R2        1.81574  -0.00158   0.00209  -0.00021   0.00188   1.81762
    R3        2.18520   0.16247   0.00000   0.00000   0.00000   2.18520
    R4        1.70878   0.04238   0.01077  -0.00146   0.00931   1.71809
    A1        1.86466  -0.00755  -0.01987   0.00437  -0.01551   1.84916
    A2        2.35727   0.08072   0.05062   0.00217   0.05279   2.41006
    A3        2.82672  -0.00334  -0.01366  -0.00391  -0.01757   2.80916
    D1        0.11772   0.00064  -0.00226  -0.00389  -0.00616   0.11156
    D2        2.33606   0.00236   0.09317   0.00332   0.09648   2.43255
         Item               Value     Threshold  Converged?
 Maximum Force            0.080725     0.000450     NO 
 RMS     Force            0.037692     0.000300     NO 
 Maximum Displacement     0.066251     0.001800     NO 
 RMS     Displacement     0.039108     0.001200     NO 
 Predicted change in Energy=-5.070862D-03
 GradGradGradGradGradGradGradGradGradGradGradGradGradGradGradGradGradGrad

                          Input orientation:                          
 ---------------------------------------------------------------------
 Center     Atomic      Atomic             Coordinates (Angstroms)
 Number     Number       Type             X           Y           Z
 ---------------------------------------------------------------------
      1          8           0       -2.666171    4.362987    0.042316
      2          1           0       -1.682778    4.503749    0.076967
      3          1           0       -3.058623    5.241056    0.031398
      4          9           0       -0.943184    5.385255    0.191497
      5          1           0       -0.224095    5.874995    0.455430
 ---------------------------------------------------------------------
                    Distance matrix (angstroms):
                    1          2          3          4          5
     1  O    0.000000
     2  H    0.994021   0.000000
     3  H    0.961844   1.561617   0.000000
     4  F    2.008973   1.156360   2.126384   0.000000
     5  H    2.901821   2.037475   2.935342   0.909173   0.000000
 Stoichiometry    FH3O
 Framework group  C1[X(FH3O)]
 Deg. of freedom     9
 Full point group                 C1      NOp   1
 Largest Abelian subgroup         C1      NOp   1
 Largest concise Abelian subgroup C1      NOp   1
                         Standard orientation:                         
 ---------------------------------------------------------------------
 Center     Atomic      Atomic             Coordinates (Angstroms)
 Number     Number       Type             X           Y           Z
 ---------------------------------------------------------------------
      1          8           0       -1.098058   -0.073346    0.013463
      2          1           0       -0.167298   -0.419404   -0.031325
      3          1           0       -1.025663    0.885115   -0.021968
      4          9           0        0.909121    0.003007   -0.023593
      5          1           0        1.795330    0.093997    0.157928
 ---------------------------------------------------------------------
 Rotational constants (GHZ):         468.3350814          12.8355445          12.5159683
 Standard basis: def2SVP (5D, 7F)
 There are    45 symmetry adapted cartesian basis functions of A   symmetry.
 There are    43 symmetry adapted basis functions of A   symmetry.
    43 basis functions,    71 primitive gaussians,    45 cartesian basis functions
    10 alpha electrons       10 beta electrons
       nuclear repulsion energy        41.4600370717 Hartrees.
 NAtoms=    5 NActive=    5 NUniq=    5 SFac= 1.00D+00 NAtFMM=   60 NAOKFM=F Big=F
 Integral buffers will be    131072 words long.
 Raffenetti 2 integral format.
 Two-electron integral symmetry is turned on.
 Nuclear repulsion after empirical dispersion term =       41.4582880990 Hartrees.
 One-electron integrals computed using PRISM.
   1 Symmetry operations used in ECPInt.
 ECPInt:  NShTT=     231 NPrTT=     815 LenC2=     232 LenP2D=     751.
 LDataN:  DoStor=T MaxTD1= 4 Len=   56
 NBasis=    43 RedAO= T EigKep=  3.21D-02  NBF=    43
 NBsUse=    43 1.00D-06 EigRej= -1.00D+00 NBFU=    43
 Initial guess from the checkpoint file:  "/public/home/LLG_HG/tmp/Gau-30710.chk"
 B after Tr=     0.000000    0.000000   -0.000000
         Rot=    0.999963   -0.008503   -0.000032   -0.000842 Ang=  -0.98 deg.
 ExpMin= 1.22D-01 ExpMax= 2.89D+03 ExpMxC= 4.35D+02 IAcc=3 IRadAn=         5 AccDes= 0.00D+00
 Harris functional with IExCor=  402 and IRadAn=       5 diagonalized for initial guess.
 HarFok:  IExCor=  402 AccDes= 0.00D+00 IRadAn=         5 IDoV= 1 UseB2=F ITyADJ=14
 ICtDFT=  3500011 ScaDFX=  1.000000  1.000000  1.000000  1.000000
 FoFCou: FMM=F IPFlag=           0 FMFlag=      100000 FMFlg1=           0
         NFxFlg=           0 DoJE=T BraDBF=F KetDBF=T FulRan=T
         wScrn=  0.000000 ICntrl=       500 IOpCl=  0 I1Cent=   200000004 NGrid=           0
         NMat0=    1 NMatS0=      1 NMatT0=    0 NMatD0=    1 NMtDS0=    0 NMtDT0=    0
 Petite list used in FoFCou.
 Keep R1 ints in memory in canonical form, NReq=28241327.
 Requested convergence on RMS density matrix=1.00D-08 within 128 cycles.
 Requested convergence on MAX density matrix=1.00D-06.
 Requested convergence on             energy=1.00D-06.
 No special actions if energy rises.
 Integral accuracy reduced to 1.0D-05 until final iterations.
 Initial convergence to 1.0D-05 achieved.  Increase integral accuracy.
 SCF Done:  E(RB3LYP) =  -176.651728576     A.U. after   10 cycles
            NFock= 10  Conv=0.30D-08     -V/T= 2.0031
   1 Symmetry operations used in ECPInt.
 ECPInt:  NShTT=     231 NPrTT=     815 LenC2=     232 LenP2D=     751.
 LDataN:  DoStor=T MaxTD1= 5 Len=  102
 Calling FoFJK, ICntrl=      2127 FMM=F ISym2X=0 I1Cent= 0 IOpClX= 0 NMat=1 NMatS=1 NMatT=0.
 ***** Axes restored to original set *****
 -------------------------------------------------------------------
 Center     Atomic                   Forces (Hartrees/Bohr)
 Number     Number              X              Y              Z
 -------------------------------------------------------------------
      1        8          -0.043294943   -0.045599480   -0.006673972
      2        1          -0.080649364   -0.053297236   -0.007075462
      3        1           0.003613870    0.000035578   -0.000145466
      4        9           0.089785646    0.082340908    0.005358238
      5        1           0.030544792    0.016520229    0.008536662
 -------------------------------------------------------------------
 Cartesian Forces:  Max     0.089785646 RMS     0.044388693

 GradGradGradGradGradGradGradGradGradGradGradGradGradGradGradGradGradGrad
 Berny optimization.
 Using GDIIS optimizer.
 FormGI is forming the generalized inverse of G from B-inverse, IUseBI=4.
 Internal  Forces:  Max     0.153700991 RMS     0.059431307
 Search for a local minimum.
 Step number   5 out of a maximum of  100 on scan point     1 out of     3
 All quantities printed in internal units (Hartrees-Bohrs-Radians)
 Swapping is turned off.
 Update second derivatives using D2CorX and points    1    2    3    4    5
 The second derivative matrix:
                          R1        R2        R3        R4        A1
           R1           0.65329
           R2          -0.02103   0.55724
           R3           0.20174  -0.02105   0.41107
           R4           0.01571  -0.01238   0.14779   0.72599
           A1           0.01871  -0.00180   0.00402   0.01438   0.16500
           A2           0.05794  -0.01687   0.11150   0.00586   0.01267
           A3           0.03002  -0.00136   0.02722   0.02324  -0.00409
           D1           0.00409  -0.00031   0.00330   0.00307  -0.00029
           D2           0.00439  -0.00050   0.00306   0.00322  -0.00027
                          A2        A3        D1        D2
           A2           0.22863
           A3           0.03889   0.16035
           D1           0.00356   0.00044   0.01565
           D2           0.00188   0.00123   0.00012   0.00240
 ITU=  0  0  0  0  0
     Eigenvalues ---    0.00234   0.01556   0.13847   0.16684   0.23594
     Eigenvalues ---    0.55253   0.66265   0.734221000.00000
 Cut down GDIIS temporarily because of the coefficient check. E 2
 DIIS coeff's:      6.67873     -5.67873
 Cosine:  1.000 >  0.970
 Length:  1.000
 GDIIS step was calculated using  2 of the last  5 vectors.
 Maximum step size (   0.060) exceeded in Quadratic search.
    -- Step size scaled by   0.172
 Iteration  1 RMS(Cart)=  0.03920014 RMS(Int)=  0.00147150
 Iteration  2 RMS(Cart)=  0.00097075 RMS(Int)=  0.00000224
 Iteration  3 RMS(Cart)=  0.00000212 RMS(Int)=  0.00000000
 Iteration  4 RMS(Cart)=  0.00000000 RMS(Int)=  0.00000000
 Iteration  1 RMS(Cart)=  0.00000000 RMS(Int)=  0.00000000
 Variable       Old X    -DE/DX   Delta X   Delta X   Delta X     New X
                                 (Linear)    (Quad)   (Total)
    R1        1.87843   0.04595   0.00877  -0.00076   0.00801   1.88644
    R2        1.81762  -0.00144   0.00184  -0.00020   0.00164   1.81926
    R3        2.18520   0.15370  -0.00000   0.00000  -0.00000   2.18520
    R4        1.71809   0.03554   0.00910  -0.00069   0.00841   1.72650
    A1        1.84916  -0.00601  -0.01515   0.00279  -0.01236   1.83680
    A2        2.41006   0.06883   0.05159   0.00167   0.05326   2.46333
    A3        2.80916  -0.00324  -0.01717  -0.00285  -0.02003   2.78913
    D1        0.11156   0.00047  -0.00602  -0.00488  -0.01089   0.10067
    D2        2.43255   0.00198   0.09430  -0.01040   0.08390   2.51645
         Item               Value     Threshold  Converged?
 Maximum Force            0.068833     0.000450     NO 
 RMS     Force            0.031947     0.000300     NO 
 Maximum Displacement     0.063108     0.001800     NO 
 RMS     Displacement     0.038967     0.001200     NO 
 Predicted change in Energy=-4.232225D-03
 GradGradGradGradGradGradGradGradGradGradGradGradGradGradGradGradGradGrad

                          Input orientation:                          
 ---------------------------------------------------------------------
 Center     Atomic      Atomic             Coordinates (Angstroms)
 Number     Number       Type             X           Y           Z
 ---------------------------------------------------------------------
      1          8           0       -2.670877    4.352376    0.037782
      2          1           0       -1.689819    4.531004    0.084048
      3          1           0       -3.085922    5.220928    0.024896
      4          9           0       -0.937535    5.401817    0.197719
      5          1           0       -0.190700    5.861918    0.453163
 ---------------------------------------------------------------------
                    Distance matrix (angstroms):
                    1          2          3          4          5
     1  O    0.000000
     2  H    0.998260   0.000000
     3  H    0.962710   1.558395   0.000000
     4  F    2.032580   1.156360   2.162904   0.000000
     5  H    2.933008   2.038366   2.996096   0.913623   0.000000
 Stoichiometry    FH3O
 Framework group  C1[X(FH3O)]
 Deg. of freedom     9
 Full point group                 C1      NOp   1
 Largest Abelian subgroup         C1      NOp   1
 Largest concise Abelian subgroup C1      NOp   1
                         Standard orientation:                         
 ---------------------------------------------------------------------
 Center     Atomic      Atomic             Coordinates (Angstroms)
 Number     Number       Type             X           Y           Z
 ---------------------------------------------------------------------
      1          8           0       -1.109938   -0.078255    0.011713
      2          1           0       -0.163605   -0.393242   -0.030218
      3          1           0       -1.058087    0.882757   -0.012328
      4          9           0        0.920482    0.009076   -0.022183
      5          1           0        1.816854    0.054845    0.148490
 ---------------------------------------------------------------------
 Rotational constants (GHZ):         479.9012111          12.5307419          12.2308373
 Standard basis: def2SVP (5D, 7F)
 There are    45 symmetry adapted cartesian basis functions of A   symmetry.
 There are    43 symmetry adapted basis functions of A   symmetry.
    43 basis functions,    71 primitive gaussians,    45 cartesian basis functions
    10 alpha electrons       10 beta electrons
       nuclear repulsion energy        41.1358031548 Hartrees.
 NAtoms=    5 NActive=    5 NUniq=    5 SFac= 1.00D+00 NAtFMM=   60 NAOKFM=F Big=F
 Integral buffers will be    131072 words long.
 Raffenetti 2 integral format.
 Two-electron integral symmetry is turned on.
 Nuclear repulsion after empirical dispersion term =       41.1340647491 Hartrees.
 One-electron integrals computed using PRISM.
   1 Symmetry operations used in ECPInt.
 ECPInt:  NShTT=     231 NPrTT=     815 LenC2=     232 LenP2D=     749.
 LDataN:  DoStor=T MaxTD1= 4 Len=   56
 NBasis=    43 RedAO= T EigKep=  3.18D-02  NBF=    43
 NBsUse=    43 1.00D-06 EigRej= -1.00D+00 NBFU=    43
 Initial guess from the checkpoint file:  "/public/home/LLG_HG/tmp/Gau-30710.chk"
 B after Tr=     0.000000    0.000000   -0.000000
         Rot=    0.999965   -0.008273   -0.000009   -0.000915 Ang=  -0.95 deg.
 ExpMin= 1.22D-01 ExpMax= 2.89D+03 ExpMxC= 4.35D+02 IAcc=3 IRadAn=         5 AccDes= 0.00D+00
 Harris functional with IExCor=  402 and IRadAn=       5 diagonalized for initial guess.
 HarFok:  IExCor=  402 AccDes= 0.00D+00 IRadAn=         5 IDoV= 1 UseB2=F ITyADJ=14
 ICtDFT=  3500011 ScaDFX=  1.000000  1.000000  1.000000  1.000000
 FoFCou: FMM=F IPFlag=           0 FMFlag=      100000 FMFlg1=           0
         NFxFlg=           0 DoJE=T BraDBF=F KetDBF=T FulRan=T
         wScrn=  0.000000 ICntrl=       500 IOpCl=  0 I1Cent=   200000004 NGrid=           0
         NMat0=    1 NMatS0=      1 NMatT0=    0 NMatD0=    1 NMtDS0=    0 NMtDT0=    0
 Petite list used in FoFCou.
 Keep R1 ints in memory in canonical form, NReq=28241327.
 Requested convergence on RMS density matrix=1.00D-08 within 128 cycles.
 Requested convergence on MAX density matrix=1.00D-06.
 Requested convergence on             energy=1.00D-06.
 No special actions if energy rises.
 Integral accuracy reduced to 1.0D-05 until final iterations.
 Initial convergence to 1.0D-05 achieved.  Increase integral accuracy.
 SCF Done:  E(RB3LYP) =  -176.656000479     A.U. after   10 cycles
            NFock= 10  Conv=0.29D-08     -V/T= 2.0033
   1 Symmetry operations used in ECPInt.
 ECPInt:  NShTT=     231 NPrTT=     815 LenC2=     232 LenP2D=     749.
 LDataN:  DoStor=T MaxTD1= 5 Len=  102
 Calling FoFJK, ICntrl=      2127 FMM=F ISym2X=0 I1Cent= 0 IOpClX= 0 NMat=1 NMatS=1 NMatT=0.
 ***** Axes restored to original set *****
 -------------------------------------------------------------------
 Center     Atomic                   Forces (Hartrees/Bohr)
 Number     Number              X              Y              Z
 -------------------------------------------------------------------
      1        8          -0.034655658   -0.039524783   -0.005920835
      2        1          -0.081928817   -0.054507591   -0.007387162
      3        1           0.002898196   -0.000079314   -0.000057722
      4        9           0.087693402    0.081440442    0.006603815
      5        1           0.025992877    0.012671247    0.006761904
 -------------------------------------------------------------------
 Cartesian Forces:  Max     0.087693402 RMS     0.043044837

 GradGradGradGradGradGradGradGradGradGradGradGradGradGradGradGradGradGrad
 Berny optimization.
 Using GDIIS optimizer.
 FormGI is forming the generalized inverse of G from B-inverse, IUseBI=4.
 Internal  Forces:  Max     0.146146016 RMS     0.054961091
 Search for a local minimum.
 Step number   6 out of a maximum of  100 on scan point     1 out of     3
 All quantities printed in internal units (Hartrees-Bohrs-Radians)
 Swapping is turned off.
 Update second derivatives using D2CorX and points    1    2    3    4    5
                                                      6
 The second derivative matrix:
                          R1        R2        R3        R4        A1
           R1           0.64588
           R2          -0.01911   0.55714
           R3           0.19414  -0.01925   0.40220
           R4           0.01314  -0.01084   0.14537   0.72675
           A1           0.01611  -0.00218   0.00077   0.01147   0.16680
           A2           0.04841  -0.01505   0.09713   0.00302   0.00872
           A3           0.02894  -0.00098   0.02835   0.02242  -0.00429
           D1           0.00447  -0.00026   0.00383   0.00346  -0.00048
           D2           0.00439  -0.00043   0.00303   0.00339  -0.00050
                          A2        A3        D1        D2
           A2           0.20147
           A3           0.04320   0.15866
           D1           0.00441   0.00033   0.01567
           D2           0.00167   0.00132   0.00015   0.00242
 ITU=  0  0  0  0  0  0
     Eigenvalues ---    0.00236   0.01552   0.12929   0.16785   0.22035
     Eigenvalues ---    0.55298   0.65430   0.732131000.00000
 Cut down GDIIS temporarily because of the coefficient check. E 2
 DIIS coeff's:      9.89596    -11.77019      2.87423
 Cosine:  0.999 >  0.840
 Length:  1.070
 GDIIS step was calculated using  3 of the last  6 vectors.
 Maximum step size (   0.060) exceeded in Quadratic search.
    -- Step size scaled by   0.163
 Iteration  1 RMS(Cart)=  0.03894285 RMS(Int)=  0.00100540
 Iteration  2 RMS(Cart)=  0.00091513 RMS(Int)=  0.00000064
 Iteration  3 RMS(Cart)=  0.00000050 RMS(Int)=  0.00000000
 Iteration  1 RMS(Cart)=  0.00000000 RMS(Int)=  0.00000000
 Variable       Old X    -DE/DX   Delta X   Delta X   Delta X     New X
                                 (Linear)    (Quad)   (Total)
    R1        1.88644   0.03857   0.00740  -0.00061   0.00679   1.89323
    R2        1.81926  -0.00132   0.00149  -0.00019   0.00131   1.82056
    R3        2.18520   0.14615   0.00000   0.00000   0.00000   2.18520
    R4        1.72650   0.02952   0.00782  -0.00091   0.00692   1.73341
    A1        1.83680  -0.00468  -0.01065   0.00257  -0.00808   1.82872
    A2        2.46333   0.05859   0.05244   0.00175   0.05419   2.51751
    A3        2.78913  -0.00294  -0.02078  -0.00065  -0.02143   2.76770
    D1        0.10067   0.00033  -0.01290  -0.00452  -0.01742   0.08325
    D2        2.51645   0.00164   0.07637  -0.01269   0.06368   2.58012
         Item               Value     Threshold  Converged?
 Maximum Force            0.058595     0.000450     NO 
 RMS     Force            0.026990     0.000300     NO 
 Maximum Displacement     0.058831     0.001800     NO 
 RMS     Displacement     0.038698     0.001200     NO 
 Predicted change in Energy=-3.504687D-03
 GradGradGradGradGradGradGradGradGradGradGradGradGradGradGradGradGradGrad

                          Input orientation:                          
 ---------------------------------------------------------------------
 Center     Atomic      Atomic             Coordinates (Angstroms)
 Number     Number       Type             X           Y           Z
 ---------------------------------------------------------------------
      1          8           0       -2.673623    4.343374    0.033501
      2          1           0       -1.697000    4.559059    0.091815
      3          1           0       -3.114022    5.200092    0.018563
      4          9           0       -0.930638    5.417955    0.202070
      5          1           0       -0.159568    5.847563    0.451659
 ---------------------------------------------------------------------
                    Distance matrix (angstroms):
                    1          2          3          4          5
     1  O    0.000000
     2  H    1.001855   0.000000
     3  H    0.963401   1.556998   0.000000
     4  F    2.054541   1.156360   2.201887   0.000000
     5  H    2.959378   2.037996   3.055420   0.917282   0.000000
 Stoichiometry    FH3O
 Framework group  C1[X(FH3O)]
 Deg. of freedom     9
 Full point group                 C1      NOp   1
 Largest Abelian subgroup         C1      NOp   1
 Largest concise Abelian subgroup C1      NOp   1
                         Standard orientation:                         
 ---------------------------------------------------------------------
 Center     Atomic      Atomic             Coordinates (Angstroms)
 Number     Number       Type             X           Y           Z
 ---------------------------------------------------------------------
      1          8           0       -1.120488   -0.083190    0.009946
      2          1           0       -0.160190   -0.366368   -0.026836
      3          1           0       -1.093410    0.879740   -0.003216
      4          9           0        0.931471    0.014962   -0.021189
      5          1           0        1.834264    0.017493    0.141187
 ---------------------------------------------------------------------
 Rotational constants (GHZ):         489.3292115          12.2565777          11.9732307
 Standard basis: def2SVP (5D, 7F)
 There are    45 symmetry adapted cartesian basis functions of A   symmetry.
 There are    43 symmetry adapted basis functions of A   symmetry.
    43 basis functions,    71 primitive gaussians,    45 cartesian basis functions
    10 alpha electrons       10 beta electrons
       nuclear repulsion energy        40.8413507429 Hartrees.
 NAtoms=    5 NActive=    5 NUniq=    5 SFac= 1.00D+00 NAtFMM=   60 NAOKFM=F Big=F
 Integral buffers will be    131072 words long.
 Raffenetti 2 integral format.
 Two-electron integral symmetry is turned on.
 Nuclear repulsion after empirical dispersion term =       40.8396224084 Hartrees.
 One-electron integrals computed using PRISM.
   1 Symmetry operations used in ECPInt.
 ECPInt:  NShTT=     231 NPrTT=     815 LenC2=     232 LenP2D=     747.
 LDataN:  DoStor=T MaxTD1= 4 Len=   56
 NBasis=    43 RedAO= T EigKep=  3.15D-02  NBF=    43
 NBsUse=    43 1.00D-06 EigRej= -1.00D+00 NBFU=    43
 Initial guess from the checkpoint file:  "/public/home/LLG_HG/tmp/Gau-30710.chk"
 B after Tr=    -0.000000   -0.000000    0.000000
         Rot=    0.999970   -0.007714    0.000016   -0.001027 Ang=  -0.89 deg.
 ExpMin= 1.22D-01 ExpMax= 2.89D+03 ExpMxC= 4.35D+02 IAcc=3 IRadAn=         5 AccDes= 0.00D+00
 Harris functional with IExCor=  402 and IRadAn=       5 diagonalized for initial guess.
 HarFok:  IExCor=  402 AccDes= 0.00D+00 IRadAn=         5 IDoV= 1 UseB2=F ITyADJ=14
 ICtDFT=  3500011 ScaDFX=  1.000000  1.000000  1.000000  1.000000
 FoFCou: FMM=F IPFlag=           0 FMFlag=      100000 FMFlg1=           0
         NFxFlg=           0 DoJE=T BraDBF=F KetDBF=T FulRan=T
         wScrn=  0.000000 ICntrl=       500 IOpCl=  0 I1Cent=   200000004 NGrid=           0
         NMat0=    1 NMatS0=      1 NMatT0=    0 NMatD0=    1 NMtDS0=    0 NMtDT0=    0
 Petite list used in FoFCou.
 Keep R1 ints in memory in canonical form, NReq=28241327.
 Requested convergence on RMS density matrix=1.00D-08 within 128 cycles.
 Requested convergence on MAX density matrix=1.00D-06.
 Requested convergence on             energy=1.00D-06.
 No special actions if energy rises.
 Integral accuracy reduced to 1.0D-05 until final iterations.
 Initial convergence to 1.0D-05 achieved.  Increase integral accuracy.
 SCF Done:  E(RB3LYP) =  -176.659540079     A.U. after   10 cycles
            NFock= 10  Conv=0.28D-08     -V/T= 2.0035
   1 Symmetry operations used in ECPInt.
 ECPInt:  NShTT=     231 NPrTT=     815 LenC2=     232 LenP2D=     747.
 LDataN:  DoStor=T MaxTD1= 5 Len=  102
 Calling FoFJK, ICntrl=      2127 FMM=F ISym2X=0 I1Cent= 0 IOpClX= 0 NMat=1 NMatS=1 NMatT=0.
 ***** Axes restored to original set *****
 -------------------------------------------------------------------
 Center     Atomic                   Forces (Hartrees/Bohr)
 Number     Number              X              Y              Z
 -------------------------------------------------------------------
      1        8          -0.027708969   -0.034226233   -0.005103194
      2        1          -0.082913225   -0.055522237   -0.007578515
      3        1           0.002386421   -0.000123773    0.000011542
      4        9           0.086132985    0.080159423    0.007205541
      5        1           0.022102789    0.009712820    0.005464626
 -------------------------------------------------------------------
 Cartesian Forces:  Max     0.086132985 RMS     0.042027617

 GradGradGradGradGradGradGradGradGradGradGradGradGradGradGradGradGradGrad
 Berny optimization.
 Using GDIIS optimizer.
 FormGI is forming the generalized inverse of G from B-inverse, IUseBI=4.
 Internal  Forces:  Max     0.139693109 RMS     0.051280194
 Search for a local minimum.
 Step number   7 out of a maximum of  100 on scan point     1 out of     3
 All quantities printed in internal units (Hartrees-Bohrs-Radians)
 Swapping is turned off.
 Update second derivatives using D2CorX and points    2    3    4    5    6
                                                      7
 The second derivative matrix:
                          R1        R2        R3        R4        A1
           R1           0.64676
           R2          -0.01763   0.55708
           R3           0.19279  -0.01761   0.39809
           R4           0.01674  -0.00975   0.14757   0.73178
           A1           0.01296  -0.00229  -0.00258   0.00878   0.16727
           A2           0.04152  -0.01262   0.08569   0.00242   0.00425
           A3           0.02951  -0.00117   0.02962   0.02230  -0.00353
           D1           0.00539  -0.00026   0.00481   0.00419  -0.00060
           D2           0.00458  -0.00037   0.00314   0.00366  -0.00065
                          A2        A3        D1        D2
           A2           0.17689
           A3           0.04613   0.15770
           D1           0.00576   0.00019   0.01569
           D2           0.00162   0.00131   0.00019   0.00243
 ITU=  0  0  0  0  0  0  0
     Eigenvalues ---    0.00236   0.01541   0.11912   0.16742   0.20806
     Eigenvalues ---    0.55361   0.65170   0.737921000.00000
 Cut down GDIIS temporarily because of the coefficient check. E 2
 DIIS coeff's:      6.54074     -5.54074
 Cosine:  1.000 >  0.970
 Length:  1.000
 GDIIS step was calculated using  2 of the last  7 vectors.
 Maximum step size (   0.060) exceeded in Quadratic search.
    -- Step size scaled by   0.178
 Iteration  1 RMS(Cart)=  0.03796871 RMS(Int)=  0.00096474
 Iteration  2 RMS(Cart)=  0.00088733 RMS(Int)=  0.00000120
 Iteration  3 RMS(Cart)=  0.00000065 RMS(Int)=  0.00000000
 Iteration  1 RMS(Cart)=  0.00000000 RMS(Int)=  0.00000000
 Variable       Old X    -DE/DX   Delta X   Delta X   Delta X     New X
                                 (Linear)    (Quad)   (Total)
    R1        1.89323   0.03238   0.00671  -0.00052   0.00619   1.89942
    R2        1.82056  -0.00120   0.00129  -0.00018   0.00111   1.82168
    R3        2.18520   0.13969   0.00000   0.00000   0.00000   2.18520
    R4        1.73341   0.02462   0.00683  -0.00056   0.00627   1.73968
    A1        1.82872  -0.00375  -0.00798   0.00147  -0.00650   1.82222
    A2        2.51751   0.04975   0.05351   0.00112   0.05463   2.57214
    A3        2.76770  -0.00252  -0.02117  -0.00027  -0.02144   2.74626
    D1        0.08325   0.00022  -0.01720  -0.00483  -0.02203   0.06122
    D2        2.58012   0.00137   0.06288  -0.00822   0.05467   2.63479
         Item               Value     Threshold  Converged?
 Maximum Force            0.049747     0.000450     NO 
 RMS     Force            0.022784     0.000300     NO 
 Maximum Displacement     0.054914     0.001800     NO 
 RMS     Displacement     0.038057     0.001200     NO 
 Predicted change in Energy=-2.932835D-03
 GradGradGradGradGradGradGradGradGradGradGradGradGradGradGradGradGradGrad

                          Input orientation:                          
 ---------------------------------------------------------------------
 Center     Atomic      Atomic             Coordinates (Angstroms)
 Number     Number       Type             X           Y           Z
 ---------------------------------------------------------------------
      1          8           0       -2.674975    4.335431    0.029550
      2          1           0       -1.704550    4.587695    0.099730
      3          1           0       -3.141394    5.178897    0.012397
      4          9           0       -0.923424    5.433757    0.205506
      5          1           0       -0.130508    5.832264    0.450424
 ---------------------------------------------------------------------
                    Distance matrix (angstroms):
                    1          2          3          4          5
     1  O    0.000000
     2  H    1.005130   0.000000
     3  H    0.963990   1.556171   0.000000
     4  F    2.074901   1.156360   2.240901   0.000000
     5  H    2.981938   2.037044   3.111943   0.920602   0.000000
 Stoichiometry    FH3O
 Framework group  C1[X(FH3O)]
 Deg. of freedom     9
 Full point group                 C1      NOp   1
 Largest Abelian subgroup         C1      NOp   1
 Largest concise Abelian subgroup C1      NOp   1
                         Standard orientation:                         
 ---------------------------------------------------------------------
 Center     Atomic      Atomic             Coordinates (Angstroms)
 Number     Number       Type             X           Y           Z
 ---------------------------------------------------------------------
      1          8           0       -1.129937   -0.088016    0.008186
      2          1           0       -0.157105   -0.338935   -0.022208
      3          1           0       -1.129178    0.875969    0.005212
      4          9           0        0.941918    0.020665   -0.020349
      5          1           0        1.848516   -0.018893    0.134647
 ---------------------------------------------------------------------
 Rotational constants (GHZ):         496.9588218          12.0105685          11.7410791
 Standard basis: def2SVP (5D, 7F)
 There are    45 symmetry adapted cartesian basis functions of A   symmetry.
 There are    43 symmetry adapted basis functions of A   symmetry.
    43 basis functions,    71 primitive gaussians,    45 cartesian basis functions
    10 alpha electrons       10 beta electrons
       nuclear repulsion energy        40.5728874099 Hartrees.
 NAtoms=    5 NActive=    5 NUniq=    5 SFac= 1.00D+00 NAtFMM=   60 NAOKFM=F Big=F
 Integral buffers will be    131072 words long.
 Raffenetti 2 integral format.
 Two-electron integral symmetry is turned on.
 Nuclear repulsion after empirical dispersion term =       40.5711685330 Hartrees.
 One-electron integrals computed using PRISM.
   1 Symmetry operations used in ECPInt.
 ECPInt:  NShTT=     231 NPrTT=     815 LenC2=     231 LenP2D=     744.
 LDataN:  DoStor=T MaxTD1= 4 Len=   56
 NBasis=    43 RedAO= T EigKep=  3.11D-02  NBF=    43
 NBsUse=    43 1.00D-06 EigRej= -1.00D+00 NBFU=    43
 Initial guess from the checkpoint file:  "/public/home/LLG_HG/tmp/Gau-30710.chk"
 B after Tr=    -0.000000    0.000000    0.000000
         Rot=    0.999973   -0.007255    0.000035   -0.001030 Ang=  -0.84 deg.
 ExpMin= 1.22D-01 ExpMax= 2.89D+03 ExpMxC= 4.35D+02 IAcc=3 IRadAn=         5 AccDes= 0.00D+00
 Harris functional with IExCor=  402 and IRadAn=       5 diagonalized for initial guess.
 HarFok:  IExCor=  402 AccDes= 0.00D+00 IRadAn=         5 IDoV= 1 UseB2=F ITyADJ=14
 ICtDFT=  3500011 ScaDFX=  1.000000  1.000000  1.000000  1.000000
 FoFCou: FMM=F IPFlag=           0 FMFlag=      100000 FMFlg1=           0
         NFxFlg=           0 DoJE=T BraDBF=F KetDBF=T FulRan=T
         wScrn=  0.000000 ICntrl=       500 IOpCl=  0 I1Cent=   200000004 NGrid=           0
         NMat0=    1 NMatS0=      1 NMatT0=    0 NMatD0=    1 NMtDS0=    0 NMtDT0=    0
 Petite list used in FoFCou.
 Keep R1 ints in memory in canonical form, NReq=28241327.
 Requested convergence on RMS density matrix=1.00D-08 within 128 cycles.
 Requested convergence on MAX density matrix=1.00D-06.
 Requested convergence on             energy=1.00D-06.
 No special actions if energy rises.
 Integral accuracy reduced to 1.0D-05 until final iterations.
 Initial convergence to 1.0D-05 achieved.  Increase integral accuracy.
 SCF Done:  E(RB3LYP) =  -176.662502014     A.U. after   10 cycles
            NFock= 10  Conv=0.33D-08     -V/T= 2.0036
   1 Symmetry operations used in ECPInt.
 ECPInt:  NShTT=     231 NPrTT=     815 LenC2=     231 LenP2D=     744.
 LDataN:  DoStor=T MaxTD1= 5 Len=  102
 Calling FoFJK, ICntrl=      2127 FMM=F ISym2X=0 I1Cent= 0 IOpClX= 0 NMat=1 NMatS=1 NMatT=0.
 ***** Axes restored to original set *****
 -------------------------------------------------------------------
 Center     Atomic                   Forces (Hartrees/Bohr)
 Number     Number              X              Y              Z
 -------------------------------------------------------------------
      1        8          -0.021928763   -0.029356831   -0.004265186
      2        1          -0.083714250   -0.056552980   -0.007739470
      3        1           0.001909892   -0.000192937    0.000055348
      4        9           0.085240643    0.078822628    0.007560004
      5        1           0.018492477    0.007280119    0.004389303
 -------------------------------------------------------------------
 Cartesian Forces:  Max     0.085240643 RMS     0.041296613

 GradGradGradGradGradGradGradGradGradGradGradGradGradGradGradGradGradGrad
 Berny optimization.
 Using GDIIS optimizer.
 FormGI is forming the generalized inverse of G from B-inverse, IUseBI=4.
 Internal  Forces:  Max     0.134163111 RMS     0.048219704
 Search for a local minimum.
 Step number   8 out of a maximum of  100 on scan point     1 out of     3
 All quantities printed in internal units (Hartrees-Bohrs-Radians)
 Swapping is turned off.
 Update second derivatives using D2CorX and points    3    4    5    6    7
                                                      8
 The second derivative matrix:
                          R1        R2        R3        R4        A1
           R1           0.64401
           R2          -0.01680   0.55699
           R3           0.18793  -0.01657   0.39066
           R4           0.01737  -0.00927   0.14694   0.73425
           A1           0.01125  -0.00221  -0.00445   0.00737   0.16734
           A2           0.03357  -0.01091   0.07352   0.00116   0.00107
           A3           0.02898  -0.00136   0.02955   0.02132  -0.00284
           D1           0.00582  -0.00029   0.00530   0.00450  -0.00060
           D2           0.00460  -0.00034   0.00309   0.00379  -0.00073
                          A2        A3        D1        D2
           A2           0.15635
           A3           0.04681   0.15741
           D1           0.00658   0.00006   0.01568
           D2           0.00151   0.00126   0.00021   0.00244
 ITU=  0  0  0  0  0  0  0  0
     Eigenvalues ---    0.00237   0.01527   0.10971   0.16693   0.19910
     Eigenvalues ---    0.55376   0.64735   0.739981000.00000
 Cut down GDIIS temporarily because of the coefficient check. E 2
 DIIS coeff's:      6.37350     -5.37350
[...]
      2        1          -0.080243226   -0.049497681    0.000842460
      3        1          -0.000026854   -0.000002247    0.000011666
      4        9           0.080274610    0.049428465   -0.000663490
      5        1          -0.000041913    0.000030458   -0.000173128
 -------------------------------------------------------------------
 Cartesian Forces:  Max     0.080274610 RMS     0.034426123

 GradGradGradGradGradGradGradGradGradGradGradGradGradGradGradGradGradGrad
 Berny optimization.
 Using GDIIS optimizer.
 FormGI is forming the generalized inverse of G from B-inverse, IUseBI=4.
 Internal  Forces:  Max     0.094255877 RMS     0.031418689
 Search for a local minimum.
 Step number   2 out of a maximum of  100 on scan point     3 out of     3
 All quantities printed in internal units (Hartrees-Bohrs-Radians)
 Swapping is turned off.
 Update second derivatives using D2CorX and points    1    2
 The second derivative matrix:
                          R1        R2        R3        R4        A1
           R1           0.36336
           R2          -0.00014   0.52360
           R3           0.11958   0.00228   0.06430
           R4          -0.00864  -0.01943   0.02414   0.54529
           A1           0.02136   0.01848   0.02244  -0.00794   0.11020
           A2           0.02600   0.00338   0.01202  -0.00213   0.00777
           A3           0.00029  -0.00346   0.00278   0.02867   0.00122
           D1           0.00203   0.00194  -0.00214   0.00100  -0.00344
           D2           0.00097   0.00139  -0.00241   0.00075   0.00134
                          A2        A3        D1        D2
           A2           0.05872
           A3          -0.03114   0.04751
           D1           0.00179  -0.00296   0.00677
           D2           0.00098  -0.00165   0.00542   0.00948
 ITU=  0  0
     Eigenvalues ---    0.00238   0.01325   0.01975   0.08235   0.10824
     Eigenvalues ---    0.36695   0.51294   0.559081000.00000
 DIIS coeff's:      1.00481     -0.00481
 Cosine:  1.000 >  0.500
 Length:  1.000
 GDIIS step was calculated using  2 of the last  2 vectors.
 Iteration  1 RMS(Cart)=  0.00085337 RMS(Int)=  0.00000121
 Iteration  2 RMS(Cart)=  0.00000056 RMS(Int)=  0.00000000
 Iteration  1 RMS(Cart)=  0.00000000 RMS(Int)=  0.00000000
 Variable       Old X    -DE/DX   Delta X   Delta X   Delta X     New X
                                 (Linear)    (Quad)   (Total)
    R1        1.95902  -0.00003  -0.00006  -0.00000  -0.00006   1.95895
    R2        1.82304   0.00002   0.00000   0.00002   0.00002   1.82306
    R3        2.26079   0.09426  -0.00000   0.00000   0.00000   2.26079
    R4        1.77052  -0.00018  -0.00000  -0.00028  -0.00028   1.77024
    A1        1.85482   0.00004  -0.00002   0.00032   0.00030   1.85512
    A2        2.82003  -0.00001  -0.00002  -0.00055  -0.00057   2.81945
    A3        1.59075  -0.00003  -0.00001  -0.00083  -0.00084   1.58991
    D1        2.00771  -0.00001   0.00000  -0.00173  -0.00173   2.00598
    D2       -0.08394  -0.00000   0.00004   0.00049   0.00052  -0.08342
         Item               Value     Threshold  Converged?
 Maximum Force            0.000180     0.000450     YES
 RMS     Force            0.000067     0.000300     YES
 Maximum Displacement     0.001946     0.001800     NO 
 RMS     Displacement     0.000853     0.001200     YES
 Predicted change in Energy=-5.212411D-08
 GradGradGradGradGradGradGradGradGradGradGradGradGradGradGradGradGradGrad

                          Input orientation:                          
 ---------------------------------------------------------------------
 Center     Atomic      Atomic             Coordinates (Angstroms)
 Number     Number       Type             X           Y           Z
 ---------------------------------------------------------------------
      1          8           0       -2.460321    4.384640    0.169413
      2          1           0       -1.683497    4.993275   -0.147950
      3          1           0       -3.249061    4.939843    0.187478
      4          9           0       -0.665076    5.620963   -0.158119
      5          1           0       -0.516897    5.429322    0.746785
 ---------------------------------------------------------------------
                    Distance matrix (angstroms):
                    1          2          3          4          5
     1  O    0.000000
     2  H    1.036634   0.000000
     3  H    0.964721   1.601985   0.000000
     4  F    2.204240   1.196360   2.694501   0.000000
     5  H    2.280706   1.533508   2.831455   0.936768   0.000000
 Stoichiometry    FH3O
 Framework group  C1[X(FH3O)]
 Deg. of freedom     9
 Full point group                 C1      NOp   1
 Largest Abelian subgroup         C1      NOp   1
 Largest concise Abelian subgroup C1      NOp   1
                         Standard orientation:                         
 ---------------------------------------------------------------------
 Center     Atomic      Atomic             Coordinates (Angstroms)
 Number     Number       Type             X           Y           Z
 ---------------------------------------------------------------------
      1          8           0       -1.125804   -0.085953   -0.074729
      2          1           0       -0.118778    0.155102   -0.123737
      3          1           0       -1.521508    0.530924    0.552620
      4          9           0        1.071459    0.082658   -0.026961
      5          1           0        1.003582   -0.742325    0.411594
 ---------------------------------------------------------------------
 Rotational constants (GHZ):         311.1767022          10.9849213          10.8719900
 Standard basis: def2SVP (5D, 7F)
 There are    45 symmetry adapted cartesian basis functions of A   symmetry.
 There are    43 symmetry adapted basis functions of A   symmetry.
    43 basis functions,    71 primitive gaussians,    45 cartesian basis functions
    10 alpha electrons       10 beta electrons
       nuclear repulsion energy        39.3082325540 Hartrees.
 NAtoms=    5 NActive=    5 NUniq=    5 SFac= 1.00D+00 NAtFMM=   60 NAOKFM=F Big=F
 Integral buffers will be    131072 words long.
 Raffenetti 2 integral format.
 Two-electron integral symmetry is turned on.
 Nuclear repulsion after empirical dispersion term =       39.3064561798 Hartrees.
 One-electron integrals computed using PRISM.
   1 Symmetry operations used in ECPInt.
 ECPInt:  NShTT=     231 NPrTT=     815 LenC2=     231 LenP2D=     748.
 LDataN:  DoStor=T MaxTD1= 4 Len=   56
 NBasis=    43 RedAO= T EigKep=  2.87D-02  NBF=    43
 NBsUse=    43 1.00D-06 EigRej= -1.00D+00 NBFU=    43
 Initial guess from the checkpoint file:  "/public/home/LLG_HG/tmp/Gau-30710.chk"
 B after Tr=     0.000000    0.000000    0.000000
         Rot=    1.000000   -0.000245    0.000021    0.000032 Ang=  -0.03 deg.
 Keep R1 ints in memory in canonical form, NReq=28241327.
 Requested convergence on RMS density matrix=1.00D-08 within 128 cycles.
 Requested convergence on MAX density matrix=1.00D-06.
 Requested convergence on             energy=1.00D-06.
 No special actions if energy rises.
 SCF Done:  E(RB3LYP) =  -176.683537336     A.U. after    7 cycles
            NFock=  7  Conv=0.25D-08     -V/T= 2.0046
   1 Symmetry operations used in ECPInt.
 ECPInt:  NShTT=     231 NPrTT=     815 LenC2=     231 LenP2D=     748.
 LDataN:  DoStor=T MaxTD1= 5 Len=  102
 Calling FoFJK, ICntrl=      2127 FMM=F ISym2X=0 I1Cent= 0 IOpClX= 0 NMat=1 NMatS=1 NMatT=0.
 ***** Axes restored to original set *****
 -------------------------------------------------------------------
 Center     Atomic                   Forces (Hartrees/Bohr)
 Number     Number              X              Y              Z
 -------------------------------------------------------------------
      1        8           0.000002493   -0.000001022   -0.000001442
      2        1          -0.080249336   -0.049461715    0.000802413
      3        1          -0.000003215    0.000001393    0.000000961
      4        9           0.080250758    0.049461185   -0.000800171
      5        1          -0.000000699    0.000000160   -0.000001761
 -------------------------------------------------------------------
 Cartesian Forces:  Max     0.080250758 RMS     0.034423146

 GradGradGradGradGradGradGradGradGradGradGradGradGradGradGradGradGradGrad
 Berny optimization.
 Using GDIIS optimizer.
 FormGI is forming the generalized inverse of G from B-inverse, IUseBI=4.
 Internal  Forces:  Max     0.094271628 RMS     0.031423876
 Search for a local minimum.
 Step number   3 out of a maximum of  100 on scan point     3 out of     3
 All quantities printed in internal units (Hartrees-Bohrs-Radians)
 Swapping is turned off.
 Update second derivatives using D2CorX and points    1    2    3
 The second derivative matrix:
                          R1        R2        R3        R4        A1
           R1           0.36367
           R2           0.00107   0.52236
           R3           0.12024   0.00257   0.06482
           R4          -0.00789  -0.01360   0.02679   0.54467
           A1           0.02161   0.01718   0.02211  -0.00600   0.10948
           A2           0.02644   0.00350   0.01234  -0.00033   0.00752
           A3           0.00021  -0.00254   0.00308   0.02776   0.00165
           D1           0.00184   0.00232  -0.00212  -0.00002  -0.00315
           D2           0.00077   0.00159  -0.00247  -0.00024   0.00156
                          A2        A3        D1        D2
           A2           0.05892
           A3          -0.03093   0.04727
           D1           0.00182  -0.00314   0.00668
           D2           0.00095  -0.00180   0.00535   0.00945
 ITU=  0  0  0
     Eigenvalues ---    0.00237   0.01309   0.01988   0.08234   0.10756
     Eigenvalues ---    0.36744   0.51658   0.553231000.00000
 DIIS coeff's:      1.01696     -0.01971      0.00274
 Cosine:  1.000 >  0.500
 Length:  1.000
 GDIIS step was calculated using  3 of the last  3 vectors.
 Iteration  1 RMS(Cart)=  0.00003658 RMS(Int)=  0.00000000
 Iteration  2 RMS(Cart)=  0.00000000 RMS(Int)=  0.00000000
 Iteration  1 RMS(Cart)=  0.00000000 RMS(Int)=  0.00000000
 Variable       Old X    -DE/DX   Delta X   Delta X   Delta X     New X
                                 (Linear)    (Quad)   (Total)
    R1        1.95895   0.00000   0.00003  -0.00003  -0.00000   1.95895
    R2        1.82306   0.00000   0.00000   0.00001   0.00001   1.82307
    R3        2.26079   0.09427  -0.00000   0.00000   0.00000   2.26079
    R4        1.77024  -0.00000  -0.00000   0.00000  -0.00000   1.77023
    A1        1.85512   0.00000   0.00002  -0.00001   0.00001   1.85513
    A2        2.81945   0.00000  -0.00000   0.00001   0.00001   2.81947
    A3        1.58991  -0.00000  -0.00001  -0.00001  -0.00001   1.58989
    D1        2.00598  -0.00000  -0.00003  -0.00006  -0.00009   2.00588
    D2       -0.08342  -0.00000  -0.00001  -0.00000  -0.00002  -0.08343
         Item               Value     Threshold  Converged?
 Maximum Force            0.000004     0.000450     YES
 RMS     Force            0.000002     0.000300     YES
 Maximum Displacement     0.000057     0.001800     YES
 RMS     Displacement     0.000037     0.001200     YES
 Predicted change in Energy=-6.650174D-11
 Optimization completed.
    -- Stationary point found.
                           ----------------------------
                           !   Optimized Parameters   !
                           ! (Angstroms and Degrees)  !
 --------------------------                            --------------------------
 ! Name  Definition              Value          Derivative Info.                !
 --------------------------------------------------------------------------------
 ! R1    R(1,2)                  1.0366         -DE/DX =    0.0                 !
 ! R2    R(1,3)                  0.9647         -DE/DX =    0.0                 !
 ! R3    R(2,4)                  1.1964         -DE/DX =    0.0943              !
 ! R4    R(4,5)                  0.9368         -DE/DX =    0.0                 !
 ! A1    A(2,1,3)              106.2907         -DE/DX =    0.0                 !
 ! A2    A(1,2,4)              161.5429         -DE/DX =    0.0                 !
 ! A3    A(2,4,5)               91.095          -DE/DX =    0.0                 !
 ! D1    D(3,1,2,4)            114.9341         -DE/DX =    0.0                 !
 ! D2    D(1,2,4,5)             -4.7794         -DE/DX =    0.0                 !
 --------------------------------------------------------------------------------
 Summary of Optimized Potential Surface Scan (add -176.0 to energies):
                           1         2         3
     Eigenvalues --    -0.67589  -0.67985  -0.68354
           R1           1.05084   1.04333   1.03663
           R2           0.96468   0.96469   0.96472
           R3           1.15636   1.17636   1.19636
           R4           0.93805   0.93736   0.93677
           A1         106.74408 106.50832 106.29072
           A2         161.81724 161.72908 161.54287
           A3          91.30977  91.24332  91.09501
           D1         115.20729 114.95546 114.93410
           D2          -5.75409  -5.21796  -4.77937
 GradGradGradGradGradGradGradGradGradGradGradGradGradGradGradGradGradGrad

                          Input orientation:                          
 ---------------------------------------------------------------------
 Center     Atomic      Atomic             Coordinates (Angstroms)
 Number     Number       Type             X           Y           Z
 ---------------------------------------------------------------------
      1          8           0       -2.460321    4.384640    0.169413
      2          1           0       -1.683497    4.993275   -0.147950
      3          1           0       -3.249061    4.939843    0.187478
      4          9           0       -0.665076    5.620963   -0.158119
      5          1           0       -0.516897    5.429322    0.746785
 ---------------------------------------------------------------------
                    Distance matrix (angstroms):
                    1          2          3          4          5
     1  O    0.000000
     2  H    1.036634   0.000000
     3  H    0.964721   1.601985   0.000000
     4  F    2.204240   1.196360   2.694501   0.000000
     5  H    2.280706   1.533508   2.831455   0.936768   0.000000
 Stoichiometry    FH3O
 Framework group  C1[X(FH3O)]
 Deg. of freedom     9
 Full point group                 C1      NOp   1
 Largest Abelian subgroup         C1      NOp   1
 Largest concise Abelian subgroup C1      NOp   1
                         Standard orientation:                         
 ---------------------------------------------------------------------
 Center     Atomic      Atomic             Coordinates (Angstroms)
 Number     Number       Type             X           Y           Z
 ---------------------------------------------------------------------
      1          8           0       -1.125804   -0.085953   -0.074729
      2          1           0       -0.118778    0.155102   -0.123737
      3          1           0       -1.521508    0.530924    0.552620
      4          9           0        1.071459    0.082658   -0.026961
      5          1           0        1.003582   -0.742325    0.411594
 ---------------------------------------------------------------------
 Rotational constants (GHZ):         311.1767022          10.9849213          10.8719900

 **********************************************************************

            Population analysis using the SCF Density.

 **********************************************************************

 Orbital symmetries:
       Occupied  (A) (A) (A) (A) (A) (A) (A) (A) (A) (A)
       Virtual   (A) (A) (A) (A) (A) (A) (A) (A) (A) (A) (A) (A)
                 (A) (A) (A) (A) (A) (A) (A) (A) (A) (A) (A) (A)
                 (A) (A) (A) (A) (A) (A) (A) (A) (A)
 The electronic state is 1-A.
 Alpha  occ. eigenvalues --  -24.73892 -19.05623  -1.25756  -0.91819  -0.61556
 Alpha  occ. eigenvalues --   -0.55990  -0.47700  -0.40159  -0.29423  -0.24523
 Alpha virt. eigenvalues --    0.00956   0.10315   0.25449   0.51154   0.58732
 Alpha virt. eigenvalues --    0.63844   0.90933   0.92166   1.01542   1.06066
 Alpha virt. eigenvalues --    1.13411   1.17380   1.21709   1.29717   1.38289
 Alpha virt. eigenvalues --    1.46892   1.53054   1.71575   1.74151   1.80807
 Alpha virt. eigenvalues --    2.16101   2.26239   2.30578   2.91559   3.00990
 Alpha virt. eigenvalues --    3.04800   3.29116   3.31868   3.34647   3.54075
 Alpha virt. eigenvalues --    3.74515   4.00574   4.33898
          Condensed to atoms (all electrons):
               1          2          3          4          5
     1  O    7.855350   0.333825   0.310633  -0.082049   0.034198
     2  H    0.333825   0.494530  -0.034207   0.074636  -0.031081
     3  H    0.310633  -0.034207   0.590434   0.006116  -0.000431
     4  F   -0.082049   0.074636   0.006116   8.787865   0.290809
     5  H    0.034198  -0.031081  -0.000431   0.290809   0.466923
 Mulliken charges:
               1
     1  O   -0.451957
     2  H    0.162298
     3  H    0.127454
     4  F   -0.077377
     5  H    0.239583
 Sum of Mulliken charges =   0.00000
 Mulliken charges with hydrogens summed into heavy atoms:
               1
     1  O   -0.162205
     4  F    0.162205
 Electronic spatial extent (au):  <R**2>=            116.2693
 Charge=              0.0000 electrons
 Dipole moment (field-independent basis, Debye):
    X=              2.2928    Y=             -0.1983    Z=              1.8282  Tot=              2.9391
 Quadrupole moment (field-independent basis, Debye-Ang):
   XX=            -13.0812   YY=            -10.3081   ZZ=            -11.3468
   XY=             -3.5117   XZ=             -0.9044   YZ=             -0.2274
 Traceless Quadrupole moment (field-independent basis, Debye-Ang):
   XX=             -1.5025   YY=              1.2706   ZZ=              0.2319
   XY=             -3.5117   XZ=             -0.9044   YZ=             -0.2274
 Octapole moment (field-independent basis, Debye-Ang**2):
  XXX=              5.4425  YYY=             -0.4270  ZZZ=              0.9944  XYY=              2.9865
  XXY=              0.9687  XXZ=              3.8203  XZZ=              1.8768  YZZ=              0.0111
  YYZ=              0.9118  XYZ=             -1.7069
 Hexadecapole moment (field-independent basis, Debye-Ang**3):
 XXXX=            -92.3579 YYYY=             -9.3857 ZZZZ=             -9.2334 XXXY=             -6.1446
 XXXZ=             -3.6604 YYYX=             -2.2420 YYYZ=             -0.4118 ZZZX=             -0.6960
 ZZZY=             -0.0324 XXYY=            -15.4143 XXZZ=            -16.3352 YYZZ=             -2.8512
 XXYZ=              0.3335 YYXZ=              0.0257 ZZXY=             -0.9790
 N-N= 3.930645617983D+01 E-N=-4.989934117177D+02  KE= 1.758724211869D+02
 Unable to Open any file for archive entry.
 1\1\GINC-NODE8\Scan\RB3LYP\def2SVP\F1H3O1\LLG_HG\29-Oct-2025\0\\# opt=
 (modredundant,maxstep=6,notrust,gdiis,maxcyc=300) b3lyp def2svp em=gd3
 bj\\Title: 6_2-TSC2-from2_1_003-YeCHH-TSA1_CuL8-CONFIG003-Opt-MN15L-1\
 \0,1\O,-2.4603208645,4.3846399153,0.1694130117\H,-1.6834974842,4.99327
 4646,-0.1479500625\H,-3.2490605514,4.9398427085,0.1874779157\F,-0.6650
 764877,5.6209632394,-0.1581185947\H,-0.5168966122,5.4293223709,0.74678
 54498\\Version=ES64L-G16RevC.01\State=1-A\HF=-176.6758919,-176.6798467
 ,-176.6835373\RMSD=8.722e-10,8.532e-09,2.530e-09\PG=C01 [X(F1H3O1)]\\@
 The archive entry for this job was punched.


 I LOVE THOSE WHO LONG FOR THE IMPOSSIBLE.

                                 -- GOETHE
 Job cpu time:       0 days  1 hours 12 minutes 53.1 seconds.
 Elapsed time:       0 days  0 hours  3 minutes  5.2 seconds.
 File lengths (MBytes):  RWF=     17 Int=      0 D2E=      0 Chk=      2 Scr=      2
 Normal termination of Gaussian 16 at Wed Oct 29 19:14:32 2025.
