 Entering Gaussian System, Link 0=/home/gridsan/groups/RMG/Software/gaussian//g16/g16
 Input=TS_4cGKps_ll_ad_4-18_6-13_optts_g16.com
 Output=TS_4cGKps_ll_ad_4-18_6-13_optts_g16.log
 Initial command:
 /home/gridsan/groups/RMG/Software/gaussian//g16/l1.exe "/state/partition1/slurm_tmp/18070680.4294967291.0/tmpgr7va3dz/Gau-5702.inp" -scrdir="/state/partition1/slurm_tmp/18070680.4294967291.0/tmpgr7va3dz/"
 Entering Link 1 = /home/gridsan/groups/RMG/Software/gaussian//g16/l1.exe PID=      5704.
  
 Copyright (c) 1988-2017, Gaussian, Inc.  All Rights Reserved.
  
 This is part of the Gaussian(R) 16 program.  It is based on
 the Gaussian(R) 09 system (copyright 2009, Gaussian, Inc.),
 the Gaussian(R) 03 system (copyright 2003, Gaussian, Inc.),
 the Gaussian(R) 98 system (copyright 1998, Gaussian, Inc.),
 the Gaussian(R) 94 system (copyright 1995, Gaussian, Inc.),
 the Gaussian 92(TM) system (copyright 1992, Gaussian, Inc.),
 the Gaussian 90(TM) system (copyright 1990, Gaussian, Inc.),
 the Gaussian 88(TM) system (copyright 1988, Gaussian, Inc.),
 the Gaussian 86(TM) system (copyright 1986, Carnegie Mellon
 University), and the Gaussian 82(TM) system (copyright 1983,
 Carnegie Mellon University). Gaussian is a federally registered
 trademark of Gaussian, Inc.
  
 This software contains proprietary and confidential information,
 including trade secrets, belonging to Gaussian, Inc.
  
 This software is provided under written license and may be
 used, copied, transmitted, or stored only in accord with that
 written license.
  
 The following legend is applicable only to US Government
 contracts under FAR:
  
                    RESTRICTED RIGHTS LEGEND
  
 Use, reproduction and disclosure by the US Government is
 subject to restrictions as set forth in subparagraphs (a)
 and (c) of the Commercial Computer Software - Restricted
 Rights clause in FAR 52.227-19.
  
 Gaussian, Inc.
 340 Quinnipiac St., Bldg. 40, Wallingford CT 06492
  
  
 ---------------------------------------------------------------
 Warning -- This program may not be used in any manner that
 competes with the business of Gaussian, Inc. or will provide
 assistance to any competitor of Gaussian, Inc.  The licensee
 of this program is prohibited from giving any competitor of
 Gaussian, Inc. access to this program.  By using this program,
 the user acknowledges that Gaussian, Inc. is engaged in the
 business of creating and licensing software in the field of
 computational chemistry and represents and warrants to the
 licensee that it is not a competitor of Gaussian, Inc. and that
 it will not use this program in any manner prohibited above.
 ---------------------------------------------------------------
  

 Cite this work as:
 Gaussian 16, Revision B.01,
 M. J. Frisch, G. W. Trucks, H. B. Schlegel, G. E. Scuseria, 
 M. A. Robb, J. R. Cheeseman, G. Scalmani, V. Barone, 
 G. A. Petersson, H. Nakatsuji, X. Li, M. Caricato, A. V. Marenich, 
 J. Bloino, B. G. Janesko, R. Gomperts, B. Mennucci, H. P. Hratchian, 
 J. V. Ortiz, A. F. Izmaylov, J. L. Sonnenberg, D. Williams-Young, 
 F. Ding, F. Lipparini, F. Egidi, J. Goings, B. Peng, A. Petrone, 
 T. Henderson, D. Ranasinghe, V. G. Zakrzewski, J. Gao, N. Rega, 
 G. Zheng, W. Liang, M. Hada, M. Ehara, K. Toyota, R. Fukuda, 
 J. Hasegawa, M. Ishida, T. Nakajima, Y. Honda, O. Kitao, H. Nakai, 
 T. Vreven, K. Throssell, J. A. Montgomery, Jr., J. E. Peralta, 
 F. Ogliaro, M. J. Bearpark, J. J. Heyd, E. N. Brothers, K. N. Kudin, 
 V. N. Staroverov, T. A. Keith, R. Kobayashi, J. Normand, 
 K. Raghavachari, A. P. Rendell, J. C. Burant, S. S. Iyengar, 
 J. Tomasi, M. Cossi, J. M. Millam, M. Klene, C. Adamo, R. Cammi, 
 J. W. Ochterski, R. L. Martin, K. Morokuma, O. Farkas, 
 J. B. Foresman, and D. J. Fox, Gaussian, Inc., Wallingford CT, 2016.
 
 ******************************************
 Gaussian 16:  ES64L-G16RevB.01 20-Dec-2017
                30-May-2022 
 ******************************************
 %mem=15199MB
 %nprocshared=4
 Will use up to    4 processors via shared memory.
 ----------------------------------------------------------------------
 # B3LYP def2svp Freq EmpiricalDispersion=GD3BJ Opt=(TS, CalcFC, NoEige
 nTest, MaxCycles=100, MaxStep=10, NoTrustUpdate, RecalcFC=30) IOp(2/9=
 2000) Geom=ModRedun NoSymm scrf=(smd,solvent=Water)
 ----------------------------------------------------------------------
 1/5=1,6=100,8=10,9=1,10=4,11=1,18=120,26=3,38=1,71=30/1,3;
 2/9=2000,12=2,15=1,17=6,18=5,40=1/2;
 3/5=43,7=101,11=2,25=1,30=1,70=32201,71=2,72=1,74=-5,124=41,140=1/1,2,3;
 4//1;
 5/5=2,38=5,53=1/2;
 8/6=4,10=90,11=11/1;
 11/6=1,8=1,9=11,15=111,16=1,31=1/1,2,10;
 10/6=1,13=1,31=1/2;
 6/7=2,8=2,9=2,10=2,28=1/1;
 7/10=1,18=20,25=1,30=1/1,2,3,16;
 1/5=1,6=100,8=10,9=1,10=4,11=1,18=20,26=3,71=30/3(2);
 2/9=2000,15=1/2;
 99//99;
 2/9=2000,15=1/2;
 3/5=43,7=101,11=2,25=1,30=1,70=32205,71=1,72=1,74=-5,124=41/1,2,3;
 4/5=5,16=3,69=1/1;
 5/5=2,38=5,53=1/2;
 7/30=1/1,2,3,16;
 1/5=1,6=100,8=10,9=1,11=1,18=20,26=3,71=30/3(-5);
 2/9=2000,15=1/2;
 6/7=2,8=2,9=2,10=2,19=2,28=1/1;
 99/9=1/99;
 -----------------------------------
 TS_4cGKps_ll_ad_4-18_6-13_optts_g16
 -----------------------------------
 Symbolic Z-matrix:
 Charge =  0 Multiplicity = 1
 C                    -3.25614   3.021     1.30458 
 N                    -2.02448   2.34022   0.97687 
 C                    -1.99086   1.06176   0.58296 
 O                    -2.96343   0.33523   0.46037 
 C                    -0.62286   0.58209   0.30601 
 N                     0.50468   1.02693   0.31541 
 C                     1.66212   0.53585  -0.12283 
 C                     2.77029   0.32659   0.84787 
 C                     2.42034   0.64846   2.26854 
 O                     3.84757  -0.11411   0.50988 
 C                     1.87197   0.81681  -1.60491 
 C                     3.27247   1.02826  -2.05786 
 O                     0.90279   0.89302  -2.32488 
 C                     0.88066  -1.49668  -0.38505 
 C                     1.95913  -2.43283  -0.69006 
 F                     2.70357  -2.72773   0.39108 
 F                     1.48424  -3.6185   -1.1392 
 F                     2.80863  -2.0056   -1.63425 
 C                    -0.35784  -1.39212  -0.18964 
 C                    -1.68045  -1.99149  -0.01143 
 O                    -2.0231   -2.47079   1.04428 
 O                    -2.36536  -1.98612  -1.13505 
 C                    -3.70519  -2.48417  -1.07046 
 H                    -3.20201   3.41574   2.31833 
 H                    -4.07217   2.30481   1.23396 
 H                    -3.42933   3.839     0.60542 
 H                    -1.16948   2.87562   1.02367 
 H                     2.20732   1.71138   2.36031 
 H                     3.25352   0.38492   2.91412 
 H                     1.5323    0.09461   2.56582 
 H                     3.28534   1.13928  -3.13835 
 H                     3.91006   0.20233  -1.75392 
 H                     3.66542   1.92772  -1.58571 
 H                    -4.30469  -1.80586  -0.46146 
 H                    -4.05814  -2.5051   -2.09701 
 H                    -3.71703  -3.4808   -0.62722 
 
 Add virtual bond connecting atoms C14        and C7         Dist= 4.14D+00.
 Add virtual bond connecting atoms C19        and C5         Dist= 3.88D+00.
 The following ModRedundant input section has been read:
 B       5      19 B                                                           
 B       7      14 B                                                           
 

 GradGradGradGradGradGradGradGradGradGradGradGradGradGradGradGradGradGrad
 Berny optimization.
 Initialization pass.
                           ----------------------------
                           !    Initial Parameters    !
                           ! (Angstroms and Degrees)  !
 --------------------------                            --------------------------
 ! Name  Definition              Value          Derivative Info.                !
 --------------------------------------------------------------------------------
 ! R1    R(1,2)                  1.4449         calculate D2E/DX2 analytically  !
 ! R2    R(1,24)                 1.0892         calculate D2E/DX2 analytically  !
 ! R3    R(1,25)                 1.088          calculate D2E/DX2 analytically  !
 ! R4    R(1,26)                 1.0899         calculate D2E/DX2 analytically  !
 ! R5    R(2,3)                  1.3382         calculate D2E/DX2 analytically  !
 ! R6    R(2,27)                 1.0099         calculate D2E/DX2 analytically  !
 ! R7    R(3,4)                  1.2201         calculate D2E/DX2 analytically  !
 ! R8    R(3,5)                  1.4759         calculate D2E/DX2 analytically  !
 ! R9    R(5,6)                  1.2121         calculate D2E/DX2 analytically  !
 ! R10   R(5,19)                 2.0527         calculate D2E/DX2 analytically  !
 ! R11   R(6,7)                  1.3315         calculate D2E/DX2 analytically  !
 ! R12   R(7,8)                  1.488          calculate D2E/DX2 analytically  !
 ! R13   R(7,11)                 1.523          calculate D2E/DX2 analytically  !
 ! R14   R(7,14)                 2.1933         calculate D2E/DX2 analytically  !
 ! R15   R(8,9)                  1.4981         calculate D2E/DX2 analytically  !
 ! R16   R(8,10)                 1.212          calculate D2E/DX2 analytically  !
 ! R17   R(9,28)                 1.0879         calculate D2E/DX2 analytically  !
 ! R18   R(9,29)                 1.0865         calculate D2E/DX2 analytically  !
 ! R19   R(9,30)                 1.088          calculate D2E/DX2 analytically  !
 ! R20   R(11,12)                1.487          calculate D2E/DX2 analytically  !
 ! R21   R(11,13)                1.2097         calculate D2E/DX2 analytically  !
 ! R22   R(12,31)                1.0863         calculate D2E/DX2 analytically  !
 ! R23   R(12,32)                1.0868         calculate D2E/DX2 analytically  !
 ! R24   R(12,33)                1.0892         calculate D2E/DX2 analytically  !
 ! R25   R(14,15)                1.4603         calculate D2E/DX2 analytically  !
 ! R26   R(14,19)                1.2582         calculate D2E/DX2 analytically  !
 ! R27   R(15,16)                1.3454         calculate D2E/DX2 analytically  !
 ! R28   R(15,17)                1.3539         calculate D2E/DX2 analytically  !
 ! R29   R(15,18)                1.34           calculate D2E/DX2 analytically  !
 ! R30   R(19,20)                1.463          calculate D2E/DX2 analytically  !
 ! R31   R(20,21)                1.209          calculate D2E/DX2 analytically  !
 ! R32   R(20,22)                1.3159         calculate D2E/DX2 analytically  !
 ! R33   R(22,23)                1.4309         calculate D2E/DX2 analytically  !
 ! R34   R(23,34)                1.091          calculate D2E/DX2 analytically  !
 ! R35   R(23,35)                1.0857         calculate D2E/DX2 analytically  !
 ! R36   R(23,36)                1.0908         calculate D2E/DX2 analytically  !
 ! A1    A(2,1,24)             109.8446         calculate D2E/DX2 analytically  !
 ! A2    A(2,1,25)             108.3276         calculate D2E/DX2 analytically  !
 ! A3    A(2,1,26)             110.0938         calculate D2E/DX2 analytically  !
 ! A4    A(24,1,25)            109.6478         calculate D2E/DX2 analytically  !
 ! A5    A(24,1,26)            109.4463         calculate D2E/DX2 analytically  !
 ! A6    A(25,1,26)            109.4631         calculate D2E/DX2 analytically  !
 ! A7    A(1,2,3)              122.5675         calculate D2E/DX2 analytically  !
 ! A8    A(1,2,27)             117.4758         calculate D2E/DX2 analytically  !
 ! A9    A(3,2,27)             119.925          calculate D2E/DX2 analytically  !
 ! A10   A(2,3,4)              125.3391         calculate D2E/DX2 analytically  !
 ! A11   A(2,3,5)              112.8938         calculate D2E/DX2 analytically  !
 ! A12   A(4,3,5)              121.7661         calculate D2E/DX2 analytically  !
 ! A13   A(3,5,6)              137.8573         calculate D2E/DX2 analytically  !
 ! A14   A(3,5,19)             118.5267         calculate D2E/DX2 analytically  !
 ! A15   A(6,5,19)             103.5761         calculate D2E/DX2 analytically  !
 ! A16   A(5,6,7)              132.1206         calculate D2E/DX2 analytically  !
 ! A17   A(6,7,8)              118.983          calculate D2E/DX2 analytically  !
 ! A18   A(6,7,11)             111.8408         calculate D2E/DX2 analytically  !
 ! A19   A(6,7,14)              94.0953         calculate D2E/DX2 analytically  !
 ! A20   A(8,7,11)             123.9283         calculate D2E/DX2 analytically  !
 ! A21   A(8,7,14)             102.299          calculate D2E/DX2 analytically  !
 ! A22   A(11,7,14)             95.9525         calculate D2E/DX2 analytically  !
 ! A23   A(7,8,9)              114.4843         calculate D2E/DX2 analytically  !
 ! A24   A(7,8,10)             122.085          calculate D2E/DX2 analytically  !
 ! A25   A(9,8,10)             123.3803         calculate D2E/DX2 analytically  !
 ! A26   A(8,9,28)             109.6114         calculate D2E/DX2 analytically  !
 ! A27   A(8,9,29)             109.4043         calculate D2E/DX2 analytically  !
 ! A28   A(8,9,30)             109.9017         calculate D2E/DX2 analytically  !
 ! A29   A(28,9,29)            109.6946         calculate D2E/DX2 analytically  !
 ! A30   A(28,9,30)            108.33           calculate D2E/DX2 analytically  !
 ! A31   A(29,9,30)            109.8828         calculate D2E/DX2 analytically  !
 ! A32   A(7,11,12)            116.8987         calculate D2E/DX2 analytically  !
 ! A33   A(7,11,13)            118.7104         calculate D2E/DX2 analytically  !
 ! A34   A(12,11,13)           124.3531         calculate D2E/DX2 analytically  !
 ! A35   A(11,12,31)           109.1882         calculate D2E/DX2 analytically  !
 ! A36   A(11,12,32)           111.0565         calculate D2E/DX2 analytically  !
 ! A37   A(11,12,33)           108.9749         calculate D2E/DX2 analytically  !
 ! A38   A(31,12,32)           110.421          calculate D2E/DX2 analytically  !
 ! A39   A(31,12,33)           110.0298         calculate D2E/DX2 analytically  !
 ! A40   A(32,12,33)           107.1401         calculate D2E/DX2 analytically  !
 ! A41   A(7,14,15)            110.8492         calculate D2E/DX2 analytically  !
 ! A42   A(7,14,19)            104.7817         calculate D2E/DX2 analytically  !
 ! A43   A(15,14,19)           144.3597         calculate D2E/DX2 analytically  !
 ! A44   A(14,15,16)           112.4153         calculate D2E/DX2 analytically  !
 ! A45   A(14,15,17)           111.8173         calculate D2E/DX2 analytically  !
 ! A46   A(14,15,18)           114.2654         calculate D2E/DX2 analytically  !
 ! A47   A(16,15,17)           105.5875         calculate D2E/DX2 analytically  !
 ! A48   A(16,15,18)           106.5785         calculate D2E/DX2 analytically  !
 ! A49   A(17,15,18)           105.5349         calculate D2E/DX2 analytically  !
 ! A50   A(5,19,14)            104.1536         calculate D2E/DX2 analytically  !
 ! A51   A(5,19,20)            104.3531         calculate D2E/DX2 analytically  !
 ! A52   A(14,19,20)           151.0201         calculate D2E/DX2 analytically  !
 ! A53   A(19,20,21)           121.6693         calculate D2E/DX2 analytically  !
 ! A54   A(19,20,22)           111.3991         calculate D2E/DX2 analytically  !
 ! A55   A(21,20,22)           126.849          calculate D2E/DX2 analytically  !
 ! A56   A(20,22,23)           116.5774         calculate D2E/DX2 analytically  !
 ! A57   A(22,23,34)           108.8634         calculate D2E/DX2 analytically  !
 ! A58   A(22,23,35)           105.5703         calculate D2E/DX2 analytically  !
 ! A59   A(22,23,36)           110.275          calculate D2E/DX2 analytically  !
 ! A60   A(34,23,35)           111.1689         calculate D2E/DX2 analytically  !
 ! A61   A(34,23,36)           109.5882         calculate D2E/DX2 analytically  !
 ! A62   A(35,23,36)           111.2873         calculate D2E/DX2 analytically  !
 ! D1    D(24,1,2,3)           123.385          calculate D2E/DX2 analytically  !
 ! D2    D(24,1,2,27)          -58.6666         calculate D2E/DX2 analytically  !
 ! D3    D(25,1,2,3)             3.6416         calculate D2E/DX2 analytically  !
 ! D4    D(25,1,2,27)         -178.4099         calculate D2E/DX2 analytically  !
 ! D5    D(26,1,2,3)          -116.0238         calculate D2E/DX2 analytically  !
 ! D6    D(26,1,2,27)           61.9246         calculate D2E/DX2 analytically  !
 ! D7    D(1,2,3,4)             -0.267          calculate D2E/DX2 analytically  !
 ! D8    D(1,2,3,5)           -179.8971         calculate D2E/DX2 analytically  !
 ! D9    D(27,2,3,4)          -178.1668         calculate D2E/DX2 analytically  !
 ! D10   D(27,2,3,5)             2.2031         calculate D2E/DX2 analytically  !
 ! D11   D(2,3,5,6)             -1.2803         calculate D2E/DX2 analytically  !
 ! D12   D(2,3,5,19)           175.9747         calculate D2E/DX2 analytically  !
 ! D13   D(4,3,5,6)            179.0746         calculate D2E/DX2 analytically  !
 ! D14   D(4,3,5,19)            -3.6704         calculate D2E/DX2 analytically  !
 ! D15   D(3,5,6,7)           -169.9608         calculate D2E/DX2 analytically  !
 ! D16   D(19,5,6,7)            12.52           calculate D2E/DX2 analytically  !
 ! D17   D(3,5,19,14)          178.9952         calculate D2E/DX2 analytically  !
 ! D18   D(3,5,19,20)           -6.2752         calculate D2E/DX2 analytically  !
 ! D19   D(6,5,19,14)           -2.8992         calculate D2E/DX2 analytically  !
 ! D20   D(6,5,19,20)          171.8304         calculate D2E/DX2 analytically  !
 ! D21   D(5,6,7,8)           -119.6752         calculate D2E/DX2 analytically  !
 ! D22   D(5,6,7,11)            84.9002         calculate D2E/DX2 analytically  !
 ! D23   D(5,6,7,14)           -13.1884         calculate D2E/DX2 analytically  !
 ! D24   D(6,7,8,9)              2.6684         calculate D2E/DX2 analytically  !
 ! D25   D(6,7,8,10)          -179.8319         calculate D2E/DX2 analytically  !
 ! D26   D(11,7,8,9)           154.9418         calculate D2E/DX2 analytically  !
 ! D27   D(11,7,8,10)          -27.5585         calculate D2E/DX2 analytically  !
 ! D28   D(14,7,8,9)           -99.1214         calculate D2E/DX2 analytically  !
 ! D29   D(14,7,8,10)           78.3783         calculate D2E/DX2 analytically  !
 ! D30   D(6,7,11,12)          147.5047         calculate D2E/DX2 analytically  !
 ! D31   D(6,7,11,13)          -30.3566         calculate D2E/DX2 analytically  !
 ! D32   D(8,7,11,12)           -6.4897         calculate D2E/DX2 analytically  !
 ! D33   D(8,7,11,13)          175.649          calculate D2E/DX2 analytically  !
 ! D34   D(14,7,11,12)        -115.6526         calculate D2E/DX2 analytically  !
 ! D35   D(14,7,11,13)          66.4861         calculate D2E/DX2 analytically  !
 ! D36   D(6,7,14,15)         -171.4373         calculate D2E/DX2 analytically  !
 ! D37   D(6,7,14,19)            7.7286         calculate D2E/DX2 analytically  !
 ! D38   D(8,7,14,15)          -50.586          calculate D2E/DX2 analytically  !
 ! D39   D(8,7,14,19)          128.5799         calculate D2E/DX2 analytically  !
 ! D40   D(11,7,14,15)          76.076          calculate D2E/DX2 analytically  !
 ! D41   D(11,7,14,19)        -104.7581         calculate D2E/DX2 analytically  !
 ! D42   D(7,8,9,28)           -64.6316         calculate D2E/DX2 analytically  !
 ! D43   D(7,8,9,29)           175.0496         calculate D2E/DX2 analytically  !
 ! D44   D(7,8,9,30)            54.319          calculate D2E/DX2 analytically  !
 ! D45   D(10,8,9,28)          117.9054         calculate D2E/DX2 analytically  !
 ! D46   D(10,8,9,29)           -2.4134         calculate D2E/DX2 analytically  !
 ! D47   D(10,8,9,30)         -123.1441         calculate D2E/DX2 analytically  !
 ! D48   D(7,11,12,31)         175.5793         calculate D2E/DX2 analytically  !
 ! D49   D(7,11,12,32)          53.5837         calculate D2E/DX2 analytically  !
 ! D50   D(7,11,12,33)         -64.2119         calculate D2E/DX2 analytically  !
 ! D51   D(13,11,12,31)         -6.6929         calculate D2E/DX2 analytically  !
 ! D52   D(13,11,12,32)       -128.6885         calculate D2E/DX2 analytically  !
 ! D53   D(13,11,12,33)        113.516          calculate D2E/DX2 analytically  !
 ! D54   D(7,14,15,16)          74.8479         calculate D2E/DX2 analytically  !
 ! D55   D(7,14,15,17)        -166.5826         calculate D2E/DX2 analytically  !
 ! D56   D(7,14,15,18)         -46.7869         calculate D2E/DX2 analytically  !
 ! D57   D(19,14,15,16)       -103.7679         calculate D2E/DX2 analytically  !
 ! D58   D(19,14,15,17)         14.8016         calculate D2E/DX2 analytically  !
 ! D59   D(19,14,15,18)        134.5972         calculate D2E/DX2 analytically  !
 ! D60   D(7,14,19,5)           -2.6722         calculate D2E/DX2 analytically  !
 ! D61   D(7,14,19,20)        -172.0886         calculate D2E/DX2 analytically  !
 ! D62   D(15,14,19,5)         175.99           calculate D2E/DX2 analytically  !
 ! D63   D(15,14,19,20)          6.5736         calculate D2E/DX2 analytically  !
 ! D64   D(5,19,20,21)         -90.2572         calculate D2E/DX2 analytically  !
 ! D65   D(5,19,20,22)          92.835          calculate D2E/DX2 analytically  !
 ! D66   D(14,19,20,21)         79.1497         calculate D2E/DX2 analytically  !
 ! D67   D(14,19,20,22)        -97.7581         calculate D2E/DX2 analytically  !
 ! D68   D(19,20,22,23)       -176.8242         calculate D2E/DX2 analytically  !
 ! D69   D(21,20,22,23)          6.4649         calculate D2E/DX2 analytically  !
 ! D70   D(20,22,23,34)         66.8487         calculate D2E/DX2 analytically  !
 ! D71   D(20,22,23,35)       -173.7216         calculate D2E/DX2 analytically  !
 ! D72   D(20,22,23,36)        -53.4098         calculate D2E/DX2 analytically  !
 --------------------------------------------------------------------------------
 Trust Radius=1.00D-01 FncErr=1.00D-07 GrdErr=1.00D-06 EigMax=2.50D+02 EigMin=1.00D-04
 Number of steps in this run=    100 maximum allowed number of steps=    216.
 Search for a saddle point of order  1.
 GradGradGradGradGradGradGradGradGradGradGradGradGradGradGradGradGradGrad

                          Input orientation:                          
 ---------------------------------------------------------------------
 Center     Atomic      Atomic             Coordinates (Angstroms)
 Number     Number       Type             X           Y           Z
 ---------------------------------------------------------------------
      1          6           0       -3.256141    3.020999    1.304585
      2          7           0       -2.024484    2.340225    0.976867
      3          6           0       -1.990864    1.061762    0.582965
      4          8           0       -2.963434    0.335235    0.460371
      5          6           0       -0.622859    0.582092    0.306007
      6          7           0        0.504676    1.026931    0.315414
      7          6           0        1.662116    0.535853   -0.122828
      8          6           0        2.770292    0.326591    0.847869
      9          6           0        2.420335    0.648457    2.268539
     10          8           0        3.847571   -0.114113    0.509885
     11          6           0        1.871969    0.816812   -1.604914
     12          6           0        3.272474    1.028260   -2.057862
     13          8           0        0.902785    0.893019   -2.324883
     14          6           0        0.880659   -1.496684   -0.385049
     15          6           0        1.959135   -2.432834   -0.690064
     16          9           0        2.703575   -2.727731    0.391083
     17          9           0        1.484242   -3.618505   -1.139198
     18          9           0        2.808626   -2.005603   -1.634252
     19          6           0       -0.357843   -1.392121   -0.189644
     20          6           0       -1.680449   -1.991488   -0.011431
     21          8           0       -2.023096   -2.470791    1.044283
     22          8           0       -2.365364   -1.986124   -1.135046
     23          6           0       -3.705191   -2.484169   -1.070455
     24          1           0       -3.202009    3.415741    2.318327
     25          1           0       -4.072165    2.304813    1.233957
     26          1           0       -3.429334    3.839005    0.605424
     27          1           0       -1.169479    2.875624    1.023674
     28          1           0        2.207325    1.711383    2.360315
     29          1           0        3.253516    0.384922    2.914124
     30          1           0        1.532297    0.094612    2.565817
     31          1           0        3.285343    1.139283   -3.138351
     32          1           0        3.910057    0.202331   -1.753923
     33          1           0        3.665421    1.927724   -1.585706
     34          1           0       -4.304695   -1.805856   -0.461458
     35          1           0       -4.058136   -2.505102   -2.097015
     36          1           0       -3.717029   -3.480803   -0.627217
 ---------------------------------------------------------------------
                    Distance matrix (angstroms):
                    1          2          3          4          5
     1  C    0.000000
     2  N    1.444933   0.000000
     3  C    2.441366   1.338191   0.000000
     4  O    2.830495   2.273407   1.220149   0.000000
     5  C    3.725533   2.346409   1.475882   2.358614   0.000000
     6  N    4.370184   2.925562   2.510084   3.539385   1.212150
     7  C    5.692337   4.249248   3.757524   4.666485   2.325328
     8  C    6.617123   5.202042   4.824859   5.746812   3.445630
     9  C    6.227402   4.928176   4.740323   5.687931   3.621736
    10  O    7.805331   6.381447   5.956118   6.825991   4.528908
    11  C    6.294532   4.916169   4.446155   5.280004   3.151329
    12  C    7.609196   6.244085   5.888788   6.760794   4.578270
    13  O    5.915911   4.643798   4.105759   4.797543   3.057098
    14  C    6.354324   5.001653   3.965897   4.341395   2.656959
    15  C    7.805255   6.436611   5.425430   5.763453   4.092509
    16  F    8.330702   6.955707   6.036128   6.442170   4.693328
    17  F    8.516238   7.231552   6.078413   6.162183   4.916656
    18  F    8.407430   7.004506   6.112273   6.571427   4.715491
    19  C    5.487119   4.250746   3.047167   3.193021   2.052662
    20  C    5.416615   4.456324   3.126019   2.698571   2.800460
    21  O    5.634528   4.811488   3.562693   3.016449   3.438867
    22  O    5.640617   4.826352   3.518725   2.879540   3.421797
    23  C    6.012431   5.503733   4.271573   3.292821   4.560414
    24  H    1.089231   2.083942   3.165370   3.605334   4.327934
    25  H    1.088028   2.064061   2.510135   2.388924   3.965674
    26  H    1.089934   2.087562   3.127743   3.537585   4.309691
    27  H    2.110498   1.009890   2.039361   3.160564   2.464575
    28  H    5.716565   4.496396   4.604973   5.678056   3.674972
    29  H    7.205217   5.952601   5.778922   6.683849   4.676263
    30  H    5.751833   4.496469   4.156892   4.970151   3.160550
    31  H    8.128441   6.824335   6.456978   7.255654   5.239094
    32  H    8.285756   6.873615   6.404728   7.222579   4.993481
    33  H    7.580042   6.253955   6.119361   7.117877   4.876335
    34  H    5.245656   4.945516   3.829865   2.689427   4.455021
    35  H    6.538491   6.087830   4.917155   3.975689   5.206381
    36  H    6.798360   6.270738   5.007902   4.038923   5.191523
                    6          7          8          9         10
     6  N    0.000000
     7  C    1.331496   0.000000
     8  C    2.430432   1.487984   0.000000
     9  C    2.761827   2.511217   1.498123   0.000000
    10  O    3.537618   2.366219   1.212016   2.389849   0.000000
    11  C    2.366706   1.523009   2.657715   3.915698   3.040066
    12  C    3.645976   2.565166   3.031138   4.425849   2.868637
    13  O    2.673498   2.356522   3.724886   4.843789   4.209748
    14  C    2.645873   2.193318   2.900885   3.743496   3.393372
    15  C    3.885410   3.036953   3.261539   4.296556   3.222194
    16  F    4.351824   3.464062   3.089011   3.873463   2.855493
    17  F    4.965433   4.280577   4.600667   5.540389   4.537131
    18  F    4.278510   3.171417   3.406100   4.735671   3.042115
    19  C    2.617411   2.793168   3.716938   4.233780   4.450635
    20  C    3.740649   4.191969   5.091265   5.383679   5.861340
    21  O    4.376636   4.897228   5.553422   5.565302   6.348562
    22  O    4.406753   4.858555   5.971228   6.436484   6.694086
    23  C    5.654330   6.231093   7.315205   7.647503   8.072103
    24  H    4.843303   6.157329   6.882839   6.266665   8.088690
    25  H    4.839853   6.152403   7.133137   6.779855   8.312502
    26  H    4.844409   6.112612   7.129600   6.867618   8.281884
    27  H    2.592700   3.847976   4.695772   4.404172   5.862874
    28  H    2.747563   2.800914   2.126516   1.087937   3.073586
    29  H    3.836873   3.431969   2.122810   1.086472   2.526322
    30  H    2.643773   2.727702   2.130209   1.087993   3.103372
    31  H    4.435451   3.477409   4.100694   5.497601   3.898298
    32  H    4.069243   2.797311   2.843207   4.312598   2.286672
    33  H    3.796839   2.844388   3.047486   4.247584   2.931515
    34  H    5.635447   6.418809   7.504472   7.661760   8.382418
    35  H    6.254144   6.772452   7.957276   8.424582   8.661001
    36  H    6.247481   6.732247   7.665342   7.943767   8.357678
                   11         12         13         14         15
    11  C    0.000000
    12  C    1.487040   0.000000
    13  O    1.209743   2.388517   0.000000
    14  C    2.796968   3.859329   3.078006   0.000000
    15  C    3.377092   3.946505   3.853544   1.460315   0.000000
    16  F    4.152031   4.519784   4.871257   2.332570   1.345375
    17  F    4.476523   5.063016   4.700828   2.331346   1.353906
    18  F    2.973922   3.098213   3.537118   2.352990   1.340020
    19  C    3.443027   4.746333   3.371986   1.258174   2.588800
    20  C    4.800563   6.151276   4.510602   2.635089   3.728525
    21  O    5.744398   7.064681   5.588137   3.379891   4.343680
    22  O    5.102178   6.459359   4.515083   3.367300   4.370223
    23  C    6.502833   7.874004   5.849139   4.740773   5.677316
    24  H    6.920369   8.171293   6.691253   6.936017   8.360242
    25  H    6.753226   8.149195   6.277630   6.450041   7.907195
    26  H    6.490227   7.740001   6.002732   6.930126   8.369578
    27  H    4.516479   5.713104   4.408836   5.030372   6.395689
    28  H    4.078696   4.595812   4.931797   4.425919   5.151790
    29  H    4.745199   5.013471   5.764659   4.478330   4.754508
    30  H    4.246404   5.027755   4.995266   3.415329   4.143783
    31  H    2.110224   1.086254   2.529616   4.506828   4.529123
    32  H    2.133915   1.086761   3.137949   3.733326   3.447026
    33  H    2.109731   1.089209   3.041242   4.574172   4.767395
    34  H    6.807132   8.245860   6.154196   5.195124   6.299279
    35  H    6.814940   8.137813   6.017465   5.323478   6.179990
    36  H    7.117744   8.439878   6.584457   5.013393   5.772437
                   16         17         18         19         20
    16  F    0.000000
    17  F    2.149887   0.000000
    18  F    2.152786   2.144883   0.000000
    19  C    3.390188   3.041662   3.534088   0.000000
    20  C    4.463601   3.732869   4.773420   1.462972   0.000000
    21  O    4.778505   4.287919   5.544050   2.336487   1.208995
    22  O    5.345390   4.181405   5.198054   2.297122   1.315922
    23  C    6.577819   5.312406   6.555662   3.629482   2.337488
    24  H    8.736844   9.132143   9.007862   6.123295   6.081204
    25  H    8.482193   8.461159   8.611132   5.430484   5.072425
    26  H    8.987799   9.099526   8.836726   6.118077   6.118313
    27  H    6.840929   7.341250   6.834929   4.510492   5.002130
    28  H    4.881585   6.416941   5.489454   4.765932   5.869515
    29  H    4.044352   5.965499   5.157544   5.082634   6.208881
    30  H    3.750598   5.245635   4.866261   3.657263   4.616899
    31  H    5.267747   5.465996   3.518505   5.326883   6.651199
    32  H    3.826476   4.567412   2.470312   4.817075   6.253229
    33  H    5.148408   5.976417   4.025856   5.399723   6.812994
    34  H    7.119868   6.103835   7.212120   3.977776   2.669017
    35  H    7.208392   5.733674   6.900439   4.309171   3.204193
    36  H    6.544327   5.228222   6.765686   3.979723   2.597097
                   21         22         23         24         25
    21  O    0.000000
    22  O    2.258655   0.000000
    23  C    2.702173   1.430859   0.000000
    24  H    6.137123   6.465749   6.822461   0.000000
    25  H    5.200101   5.190134   5.327226   1.779660   0.000000
    26  H    6.479477   6.171985   6.547304   1.779007   1.778209
    27  H    5.414170   5.452230   6.288290   2.469622   2.965743
    28  H    6.092534   6.840950   8.020641   5.671639   6.407249
    29  H    6.284428   7.320482   8.516582   7.156441   7.757225
    30  H    4.640817   5.763473   6.877781   5.788333   6.169995
    31  H    7.662022   6.761057   8.140833   8.777434   8.637620
    32  H    7.083632   6.674823   8.104099   8.802880   8.778595
    33  H    7.656566   7.203587   8.605591   8.038486   8.243963
    34  H    2.813376   2.060878   1.091050   6.017325   4.452652
    35  H    3.743035   2.014993   1.085740   7.435359   5.850714
    36  H    2.585236   2.078209   1.090816   7.516900   6.087975
                   26         27         28         29         30
    26  H    0.000000
    27  H    2.491983   0.000000
    28  H    6.275216   3.813774   0.000000
    29  H    7.869007   5.416667   1.777841   0.000000
    30  H    6.517775   4.172748   1.764041   1.779942   0.000000
    31  H    8.148082   6.338988   5.632473   6.099388   6.058221
    32  H    8.524000   6.376772   4.701434   4.717526   4.932089
    33  H    7.667437   5.575269   4.212354   4.774765   5.014545
    34  H    5.811106   5.826788   7.920844   8.562746   6.844461
    35  H    6.924323   6.858224   8.769408   9.323304   7.730035
    36  H    7.428442   7.044119   8.425088   8.722008   7.108761
                   31         32         33         34         35
    31  H    0.000000
    32  H    1.784597   0.000000
    33  H    1.782360   1.750750   0.000000
    34  H    8.570197   8.554848   8.872784   0.000000
    35  H    8.263934   8.422588   8.919905   1.795767   0.000000
    36  H    8.756952   8.544436   9.201708   1.782771   1.796845
                   36
    36  H    0.000000
 Symmetry turned off by external request.
 Stoichiometry    C13H13F3N2O5
 Framework group  C1[X(C13H13F3N2O5)]
 Deg. of freedom   102
 Full point group                 C1      NOp   1
 Rotational constants (GHZ):           0.3360455           0.2183869           0.1661558
 Standard basis: def2SVP (5D, 7F)
   387 basis functions,   666 primitive gaussians,   410 cartesian basis functions
    86 alpha electrons       86 beta electrons
       nuclear repulsion energy      2129.9424286245 Hartrees.
 NAtoms=   36 NActive=   36 NUniq=   36 SFac= 1.00D+00 NAtFMM=   60 NAOKFM=F Big=F
 Integral buffers will be    131072 words long.
 Raffenetti 2 integral format.
 Two-electron integral symmetry is turned off.
 Nuclear repulsion after empirical dispersion term =     2129.8677452248 Hartrees.
 Force inversion solution in PCM.
 ------------------------------------------------------------------------------
 Polarizable Continuum Model (PCM)
 =================================
 Model                : PCM.
 Atomic radii         : SMD-Coulomb.
 Polarization charges : Total charges.
 Charge compensation  : None.
 Solution method      : Matrix inversion.
 Cavity type          : VdW (van der Waals Surface) (Alpha=1.000).
 Cavity algorithm     : GePol (No added spheres)
                        Default sphere list used, NSphG=   36.
                        Lebedev-Laikov grids with approx.  5.0 points / Ang**2.
                        Smoothing algorithm: York/Karplus (Gamma=1.0000).
                        Polarization charges: spherical gaussians, with
                                              point-specific exponents (IZeta= 3).
                        Self-potential: point-specific (ISelfS= 7).
                        Self-field    : sphere-specific E.n sum rule (ISelfD= 2).
 1st derivatives      : Analytical E(r).r(x)/FMM algorithm (CHGder, D1EAlg=3).
                        Cavity 1st derivative terms included.
 2nd derivatives      : Analytical E(r).r(xy)/FMM algorithm (CHGder, D2EAlg=3).
                        Cavity 2nd derivative terms included.
 Solvent              : Water, Eps=  78.355300 Eps(inf)=   1.777849
 ------------------------------------------------------------------------------
 ------------------------------------------------------------------------------
 Atomic radii for non-electrostatic terms: SMD-CDS.
 ------------------------------------------------------------------------------
 Nuclear repulsion after PCM non-electrostatic terms =     2129.8869932886 Hartrees.
 One-electron integrals computed using PRISM.
   1 Symmetry operations used in ECPInt.
 ECPInt:  NShTT=   15753 NPrTT=   58649 LenC2=   14062 LenP2D=   35213.
 LDataN:  DoStor=T MaxTD1= 4 Len=   56
 NBasis=   387 RedAO= T EigKep=  5.27D-04  NBF=   387
 NBsUse=   387 1.00D-06 EigRej= -1.00D+00 NBFU=   387
 ExpMin= 1.22D-01 ExpMax= 2.89D+03 ExpMxC= 4.35D+02 IAcc=3 IRadAn=         5 AccDes= 0.00D+00
 Harris functional with IExCor=  402 and IRadAn=       5 diagonalized for initial guess.
 HarFok:  IExCor=  402 AccDes= 0.00D+00 IRadAn=         5 IDoV= 1 UseB2=F ITyADJ=14
 ICtDFT=  3500011 ScaDFX=  1.000000  1.000000  1.000000  1.000000
 FoFCou: FMM=F IPFlag=           0 FMFlag=      100000 FMFlg1=           0
         NFxFlg=           0 DoJE=T BraDBF=F KetDBF=T FulRan=T
         wScrn=  0.000000 ICntrl=       500 IOpCl=  0 I1Cent=   200000004 NGrid=           0
         NMat0=    1 NMatS0=      1 NMatT0=    0 NMatD0=    1 NMtDS0=    0 NMtDT0=    0
 Symmetry not used in FoFCou.
 Requested convergence on RMS density matrix=1.00D-08 within 128 cycles.
 Requested convergence on MAX density matrix=1.00D-06.
 Requested convergence on             energy=1.00D-06.
 No special actions if energy rises.
 Inv3:  Mode=1 IEnd=    21515052.
 Iteration    1 A*A^-1 deviation from unit magnitude is 3.55D-15 for   1127.
 Iteration    1 A*A^-1 deviation from orthogonality  is 3.77D-15 for   2467    228.
 Iteration    1 A^-1*A deviation from unit magnitude is 4.44D-15 for   1127.
 Iteration    1 A^-1*A deviation from orthogonality  is 1.90D-15 for   1697    379.
 Error on total polarization charges =  0.04048
 SCF Done:  E(RB3LYP) =  -1287.36554878     A.U. after   14 cycles
            NFock= 14  Conv=0.70D-08     -V/T= 2.0082
 SMD-CDS (non-electrostatic) energy       (kcal/mol) =      12.08
 (included in total energy above)
 DoSCS=F DFT=T ScalE2(SS,OS)=  1.000000  1.000000
 Range of M.O.s used for correlation:     1   387
 NBasis=   387 NAE=    86 NBE=    86 NFC=     0 NFV=     0
 NROrb=    387 NOA=    86 NOB=    86 NVA=   301 NVB=   301
   1 Symmetry operations used in ECPInt.
 ECPInt:  NShTT=   15753 NPrTT=   58649 LenC2=   14062 LenP2D=   35213.
 LDataN:  DoStor=T MaxTD1= 5 Len=  102
 Symmetrizing basis deriv contribution to polar:
 IMax=3 JMax=2 DiffMx= 0.00D+00
 G2DrvN: will do    37 centers at a time, making    1 passes.
 Calling FoFCou, ICntrl=  3107 FMM=F I1Cent=   0 AccDes= 0.00D+00.
 NEqPCM:  Using equilibrium solvation (IEInf=0, Eps=  78.3553, EpsInf=   1.7778)
 G2PCM: DoFxE=T DoFxN=T DoGrad=T DoDP/DQ/DG/TGxP=FFFF NFrqRd=   0 IEInf=0 SqF1=F DoCFld=F IF1Alg=4.
 End of G2Drv F.D. properties file   721 does not exist.
 End of G2Drv F.D. properties file   722 does not exist.
 End of G2Drv F.D. properties file   788 does not exist.
          IDoAtm=111111111111111111111111111111111111
 NEqPCM:  Using equilibrium solvation (IEInf=0, Eps=  78.3553, EpsInf=   1.7778)
          Differentiating once with respect to nuclear coordinates.
 CalDSu exits because no D1Ps are significant.
          There are   111 degrees of freedom in the 1st order CPHF.  IDoFFX=6 NUNeed=     0.
    105 vectors produced by pass  0 Test12= 2.59D-14 1.00D-09 XBig12= 2.20D-01 1.01D-01.
 AX will form   105 AO Fock derivatives at one time.
    105 vectors produced by pass  1 Test12= 2.59D-14 1.00D-09 XBig12= 7.61D-02 4.26D-02.
    105 vectors produced by pass  2 Test12= 2.59D-14 1.00D-09 XBig12= 8.44D-04 5.16D-03.
    105 vectors produced by pass  3 Test12= 2.59D-14 1.00D-09 XBig12= 3.49D-06 2.06D-04.
    105 vectors produced by pass  4 Test12= 2.59D-14 1.00D-09 XBig12= 7.67D-09 7.41D-06.
     87 vectors produced by pass  5 Test12= 2.59D-14 1.00D-09 XBig12= 8.89D-12 2.33D-07.
     38 vectors produced by pass  6 Test12= 2.59D-14 1.00D-09 XBig12= 8.21D-15 8.26D-09.
 InvSVY:  IOpt=1 It=  1 EMax= 7.22D-16
 Solved reduced A of dimension   650 with   111 vectors.
 End of Minotr F.D. properties file   721 does not exist.
 End of Minotr F.D. properties file   722 does not exist.
 End of Minotr F.D. properties file   788 does not exist.

 **********************************************************************

            Population analysis using the SCF Density.

 **********************************************************************

 Alpha  occ. eigenvalues --  -24.73062 -24.72531 -24.71958 -19.19054 -19.14621
 Alpha  occ. eigenvalues --  -19.14246 -19.13662 -19.13103 -14.39691 -14.37466
 Alpha  occ. eigenvalues --  -10.45310 -10.34199 -10.32415 -10.30120 -10.29687
 Alpha  occ. eigenvalues --  -10.29582 -10.27065 -10.23771 -10.23594 -10.23282
 Alpha  occ. eigenvalues --  -10.21636 -10.18535 -10.18308  -1.30790  -1.21575
 Alpha  occ. eigenvalues --   -1.20712  -1.11583  -1.06359  -1.05992  -1.05294
 Alpha  occ. eigenvalues --   -1.02513  -0.99997  -0.93781  -0.81890  -0.81268
 Alpha  occ. eigenvalues --   -0.75546  -0.75383  -0.74439  -0.71504  -0.71038
 Alpha  occ. eigenvalues --   -0.64817  -0.64238  -0.60478  -0.60381  -0.60061
 Alpha  occ. eigenvalues --   -0.59873  -0.59747  -0.58495  -0.55450  -0.51329
 Alpha  occ. eigenvalues --   -0.50367  -0.49805  -0.49676  -0.49012  -0.47925
 Alpha  occ. eigenvalues --   -0.47795  -0.47770  -0.47192  -0.45126  -0.45016
 Alpha  occ. eigenvalues --   -0.44808  -0.44424  -0.44239  -0.43666  -0.43438
 Alpha  occ. eigenvalues --   -0.43157  -0.42944  -0.42124  -0.41513  -0.40665
 Alpha  occ. eigenvalues --   -0.40141  -0.39725  -0.39686  -0.38025  -0.37320
 Alpha  occ. eigenvalues --   -0.36772  -0.36742  -0.33202  -0.31819  -0.31212
 Alpha  occ. eigenvalues --   -0.29964  -0.29242  -0.28892  -0.27811  -0.27212
 Alpha  occ. eigenvalues --   -0.26912
 Alpha virt. eigenvalues --   -0.09619  -0.07879  -0.04374  -0.02930  -0.01291
 Alpha virt. eigenvalues --    0.04789   0.06441   0.07253   0.07677   0.08569
 Alpha virt. eigenvalues --    0.09347   0.10376   0.11269   0.13141   0.13517
 Alpha virt. eigenvalues --    0.13641   0.13684   0.14114   0.14409   0.14527
 Alpha virt. eigenvalues --    0.15176   0.16033   0.16734   0.18619   0.20075
 Alpha virt. eigenvalues --    0.20693   0.21291   0.22065   0.22810   0.23299
 Alpha virt. eigenvalues --    0.24090   0.25026   0.26966   0.28542   0.30342
 Alpha virt. eigenvalues --    0.31586   0.32095   0.33688   0.34844   0.35849
 Alpha virt. eigenvalues --    0.37109   0.38340   0.40669   0.41878   0.42334
 Alpha virt. eigenvalues --    0.42921   0.43606   0.44198   0.44505   0.45533
 Alpha virt. eigenvalues --    0.45840   0.46961   0.47161   0.48057   0.48355
 Alpha virt. eigenvalues --    0.48972   0.50917   0.51105   0.53750   0.55532
 Alpha virt. eigenvalues --    0.55550   0.56678   0.57899   0.58179   0.59005
 Alpha virt. eigenvalues --    0.59534   0.60865   0.61373   0.61549   0.62247
 Alpha virt. eigenvalues --    0.63256   0.63471   0.64230   0.64533   0.64967
 Alpha virt. eigenvalues --    0.65198   0.65315   0.66099   0.66124   0.66763
 Alpha virt. eigenvalues --    0.67221   0.67987   0.68112   0.68710   0.69288
 Alpha virt. eigenvalues --    0.69401   0.69678   0.70492   0.71283   0.72592
 Alpha virt. eigenvalues --    0.74176   0.75090   0.75760   0.78055   0.78157
 Alpha virt. eigenvalues --    0.79713   0.80314   0.81176   0.82489   0.82821
 Alpha virt. eigenvalues --    0.83382   0.85131   0.86695   0.87207   0.89739
 Alpha virt. eigenvalues --    0.92366   0.93561   0.95008   0.98181   0.99953
 Alpha virt. eigenvalues --    1.01574   1.02624   1.03893   1.05232   1.07046
 Alpha virt. eigenvalues --    1.08182   1.09521   1.09875   1.11036   1.11924
 Alpha virt. eigenvalues --    1.12214   1.12696   1.14832   1.15791   1.16723
 Alpha virt. eigenvalues --    1.18243   1.18670   1.19952   1.21304   1.21468
 Alpha virt. eigenvalues --    1.22993   1.25973   1.27003   1.27764   1.29985
 Alpha virt. eigenvalues --    1.30584   1.31984   1.34546   1.35369   1.35623
 Alpha virt. eigenvalues --    1.37553   1.38130   1.40131   1.41484   1.42685
 Alpha virt. eigenvalues --    1.43077   1.44825   1.46956   1.49103   1.51052
 Alpha virt. eigenvalues --    1.51251   1.51710   1.52659   1.53368   1.54503
 Alpha virt. eigenvalues --    1.56950   1.57294   1.57648   1.59015   1.59931
 Alpha virt. eigenvalues --    1.60695   1.61226   1.62146   1.62384   1.64167
 Alpha virt. eigenvalues --    1.67029   1.68251   1.68892   1.70271   1.71964
 Alpha virt. eigenvalues --    1.72464   1.73654   1.74644   1.75380   1.76077
 Alpha virt. eigenvalues --    1.77278   1.77682   1.78430   1.78625   1.79782
 Alpha virt. eigenvalues --    1.80472   1.80688   1.81412   1.83463   1.84045
 Alpha virt. eigenvalues --    1.85803   1.86510   1.87134   1.88000   1.90024
 Alpha virt. eigenvalues --    1.90271   1.92116   1.92380   1.93042   1.93312
 Alpha virt. eigenvalues --    1.94513   1.94825   1.95650   1.97625   1.98466
 Alpha virt. eigenvalues --    1.99356   2.01099   2.02964   2.04390   2.04937
 Alpha virt. eigenvalues --    2.05759   2.07120   2.08375   2.09761   2.12215
 Alpha virt. eigenvalues --    2.14113   2.14760   2.15804   2.18899   2.19531
 Alpha virt. eigenvalues --    2.23992   2.25378   2.26356   2.28542   2.29850
 Alpha virt. eigenvalues --    2.30181   2.32757   2.33406   2.35235   2.36502
 Alpha virt. eigenvalues --    2.40936   2.41089   2.42579   2.45228   2.46146
 Alpha virt. eigenvalues --    2.47485   2.48446   2.49698   2.52839   2.55546
 Alpha virt. eigenvalues --    2.55869   2.57466   2.60708   2.63561   2.65261
 Alpha virt. eigenvalues --    2.66152   2.67593   2.68033   2.68394   2.68656
 Alpha virt. eigenvalues --    2.70158   2.70639   2.72303   2.73494   2.75455
 Alpha virt. eigenvalues --    2.77002   2.79293   2.81683   2.82061   2.84855
 Alpha virt. eigenvalues --    2.87329   2.88980   2.92628   2.92904   2.93622
 Alpha virt. eigenvalues --    2.94707   2.95364   2.97533   2.98850   2.99734
 Alpha virt. eigenvalues --    3.01686   3.02728   3.03060   3.03642   3.03955
 Alpha virt. eigenvalues --    3.04782   3.04931   3.06516   3.07363   3.09552
 Alpha virt. eigenvalues --    3.13396   3.14293   3.15290   3.15760   3.16957
 Alpha virt. eigenvalues --    3.19805   3.20258   3.24104   3.27275   3.28826
 Alpha virt. eigenvalues --    3.37440   3.41430   3.42742   3.45541   3.45978
 Alpha virt. eigenvalues --    3.53463   3.55897   3.56845   3.60789   3.62887
 Alpha virt. eigenvalues --    3.63463   3.64941   3.67122   3.70669   3.83043
 Alpha virt. eigenvalues --    3.86500
          Condensed to atoms (all electrons):
               1          2          3          4          5          6
     1  C    4.415924   0.322175  -0.031502  -0.009565   0.010608  -0.000043
     2  N    0.322175   6.312146   0.447906  -0.090323  -0.124664  -0.004022
     3  C   -0.031502   0.447906   4.674766   0.696392   0.125552  -0.043369
     4  O   -0.009565  -0.090323   0.696392   7.737494  -0.098390   0.001100
     5  C    0.010608  -0.124664   0.125552  -0.098390   5.462317   0.641803
     6  N   -0.000043  -0.004022  -0.043369   0.001100   0.641803   6.127333
     7  C    0.000016  -0.000181   0.009503  -0.000013  -0.162002   0.333714
     8  C   -0.000001   0.000036  -0.000196  -0.000002   0.010532  -0.031808
     9  C    0.000001  -0.000033  -0.000084   0.000000   0.000736   0.002203
    10  O    0.000000  -0.000000   0.000001  -0.000000   0.000055   0.002651
    11  C   -0.000001   0.000060  -0.000816  -0.000001   0.005813  -0.019681
    12  C    0.000000  -0.000000  -0.000007  -0.000000   0.001978   0.005093
    13  O   -0.000000   0.000006  -0.000781  -0.000003   0.031326  -0.013985
    14  C    0.000002  -0.000161   0.003488  -0.000063   0.013336  -0.053528
    15  C   -0.000000  -0.000001  -0.000209  -0.000005   0.004692   0.004191
    16  F    0.000000  -0.000000   0.000000   0.000000   0.000003   0.000031
    17  F    0.000000  -0.000000   0.000000   0.000000   0.000005  -0.000010
    18  F    0.000000   0.000000   0.000000   0.000000  -0.000004   0.000082
    19  C   -0.000081   0.000569  -0.035551  -0.009313   0.169820  -0.060061
    20  C   -0.000003   0.000866  -0.003025   0.041560  -0.031655   0.002926
    21  O    0.000001  -0.000011   0.000840  -0.005030  -0.001923   0.000003
    22  O    0.000000  -0.000008  -0.000209  -0.005003  -0.000671   0.000013
    23  C    0.000002  -0.000006  -0.000313  -0.003831  -0.000012   0.000006
    24  H    0.401036  -0.023770   0.004122   0.000356  -0.000501   0.000004
    25  H    0.389212  -0.025968  -0.010970   0.025093   0.003445  -0.000066
    26  H    0.403459  -0.024176   0.002628   0.000261  -0.000366   0.000005
    27  H   -0.019170   0.350651   0.003263   0.003145  -0.022579   0.009302
    28  H   -0.000002   0.000031  -0.000032   0.000000  -0.000051   0.004728
    29  H   -0.000000   0.000000  -0.000004   0.000000  -0.000058   0.000258
    30  H   -0.000002   0.000044  -0.000171  -0.000003   0.001592   0.001897
    31  H   -0.000000   0.000000  -0.000000   0.000000  -0.000099  -0.000141
    32  H    0.000000   0.000000   0.000000   0.000000  -0.000099   0.000115
    33  H    0.000000  -0.000000   0.000002   0.000000  -0.000159  -0.000445
    34  H   -0.000014   0.000025  -0.000004   0.011981  -0.000026  -0.000006
    35  H    0.000000  -0.000000  -0.000050  -0.000056   0.000022   0.000000
    36  H    0.000000   0.000000   0.000056   0.000104  -0.000058   0.000000
               7          8          9         10         11         12
     1  C    0.000016  -0.000001   0.000001   0.000000  -0.000001   0.000000
     2  N   -0.000181   0.000036  -0.000033  -0.000000   0.000060  -0.000000
     3  C    0.009503  -0.000196  -0.000084   0.000001  -0.000816  -0.000007
     4  O   -0.000013  -0.000002   0.000000  -0.000000  -0.000001  -0.000000
     5  C   -0.162002   0.010532   0.000736   0.000055   0.005813   0.001978
     6  N    0.333714  -0.031808   0.002203   0.002651  -0.019681   0.005093
     7  C    6.234121   0.033021  -0.145178  -0.092874   0.037116  -0.167065
     8  C    0.033021   4.809530   0.460702   0.671468  -0.004701   0.004932
     9  C   -0.145178   0.460702   4.572862  -0.063300   0.003889  -0.000022
    10  O   -0.092874   0.671468  -0.063300   7.725151  -0.007237  -0.009382
    11  C    0.037116  -0.004701   0.003889  -0.007237   4.716253   0.471944
    12  C   -0.167065   0.004932  -0.000022  -0.009382   0.471944   4.649626
    13  O   -0.135246   0.004198  -0.000056  -0.000021   0.745655  -0.076461
    14  C    0.201009  -0.034759   0.000415  -0.009638  -0.022532  -0.000202
    15  C   -0.027357   0.004727   0.000527   0.014648  -0.002563  -0.000592
    16  F   -0.006515   0.013796  -0.000923  -0.002581   0.000076   0.000003
    17  F    0.000754   0.000013  -0.000000  -0.000002  -0.000029  -0.000007
    18  F   -0.004602  -0.002788  -0.000018  -0.000619   0.013747  -0.003539
    19  C    0.007385  -0.006253   0.000369  -0.000162  -0.007100  -0.000023
    20  C    0.005600  -0.000172  -0.000063  -0.000001  -0.000421   0.000001
    21  O   -0.000022   0.000006  -0.000003   0.000000  -0.000001  -0.000000
    22  O   -0.000039   0.000001  -0.000000   0.000000   0.000020   0.000000
    23  C    0.000005  -0.000000   0.000000  -0.000000  -0.000000   0.000000
    24  H   -0.000001  -0.000000   0.000000   0.000000   0.000000  -0.000000
    25  H    0.000004   0.000000  -0.000000   0.000000  -0.000000  -0.000000
    26  H    0.000001   0.000000  -0.000000  -0.000000  -0.000001   0.000000
    27  H    0.000450  -0.000127   0.000014  -0.000000  -0.000012  -0.000004
    28  H   -0.002250   0.004918   0.356319   0.001536  -0.000233   0.000005
    29  H    0.015868  -0.002304   0.344504   0.007179  -0.000174   0.000019
    30  H   -0.005471   0.000960   0.368128   0.001241   0.000533  -0.000002
    31  H    0.017014  -0.000116   0.000032   0.000889  -0.007454   0.337735
    32  H   -0.002366  -0.002143   0.001138   0.023742   0.006841   0.343985
    33  H   -0.004358   0.005882   0.000121  -0.000544   0.012615   0.347306
    34  H   -0.000000  -0.000000   0.000000   0.000000   0.000000  -0.000000
    35  H   -0.000000  -0.000000  -0.000000  -0.000000   0.000000   0.000000
    36  H    0.000000  -0.000000   0.000000  -0.000000   0.000000  -0.000000
              13         14         15         16         17         18
     1  C   -0.000000   0.000002  -0.000000   0.000000   0.000000   0.000000
     2  N    0.000006  -0.000161  -0.000001  -0.000000  -0.000000   0.000000
     3  C   -0.000781   0.003488  -0.000209   0.000000   0.000000   0.000000
     4  O   -0.000003  -0.000063  -0.000005   0.000000   0.000000   0.000000
     5  C    0.031326   0.013336   0.004692   0.000003   0.000005  -0.000004
     6  N   -0.013985  -0.053528   0.004191   0.000031  -0.000010   0.000082
     7  C   -0.135246   0.201009  -0.027357  -0.006515   0.000754  -0.004602
     8  C    0.004198  -0.034759   0.004727   0.013796   0.000013  -0.002788
     9  C   -0.000056   0.000415   0.000527  -0.000923  -0.000000  -0.000018
    10  O   -0.000021  -0.009638   0.014648  -0.002581  -0.000002  -0.000619
    11  C    0.745655  -0.022532  -0.002563   0.000076  -0.000029   0.013747
    12  C   -0.076461  -0.000202  -0.000592   0.000003  -0.000007  -0.003539
    13  O    7.681124  -0.000577  -0.001267  -0.000000  -0.000001  -0.000313
    14  C   -0.000577   5.721671   0.218983  -0.064210  -0.058028  -0.075062
    15  C   -0.001267   0.218983   4.177978   0.378408   0.384972   0.382152
    16  F   -0.000000  -0.064210   0.378408   8.956926  -0.047402  -0.046191
    17  F   -0.000001  -0.058028   0.384972  -0.047402   8.963885  -0.048148
    18  F   -0.000313  -0.075062   0.382152  -0.046191  -0.048148   8.936996
    19  C   -0.000375   0.591494  -0.097456  -0.009048  -0.015805  -0.000057
    20  C   -0.000490  -0.157845  -0.009550  -0.000230   0.000066  -0.000104
    21  O   -0.000000  -0.018803  -0.000412   0.000001   0.000000  -0.000000
    22  O    0.000008  -0.018903  -0.000458   0.000000  -0.000006   0.000000
    23  C   -0.000000   0.000361  -0.000008   0.000000  -0.000003  -0.000000
    24  H   -0.000000   0.000000   0.000000  -0.000000  -0.000000  -0.000000
    25  H   -0.000000  -0.000001   0.000000   0.000000  -0.000000   0.000000
    26  H    0.000000  -0.000000  -0.000000  -0.000000  -0.000000  -0.000000
    27  H   -0.000011   0.000099   0.000000  -0.000000   0.000000  -0.000000
    28  H    0.000004   0.000298   0.000038  -0.000003   0.000000  -0.000000
    29  H    0.000002  -0.000000  -0.000087   0.000069  -0.000000   0.000001
    30  H   -0.000008   0.000124  -0.000537   0.000292   0.000000   0.000008
    31  H    0.007180  -0.000237   0.000142   0.000000  -0.000000  -0.000210
    32  H    0.001842  -0.001552   0.002045  -0.000139   0.000036   0.008970
    33  H    0.001464   0.000435  -0.000057   0.000000   0.000000   0.000192
    34  H    0.000000  -0.000145   0.000001  -0.000000   0.000000   0.000000
    35  H   -0.000000   0.000053   0.000000  -0.000000  -0.000000   0.000000
    36  H   -0.000000   0.000087  -0.000002  -0.000000   0.000000   0.000000
              19         20         21         22         23         24
     1  C   -0.000081  -0.000003   0.000001   0.000000   0.000002   0.401036
     2  N    0.000569   0.000866  -0.000011  -0.000008  -0.000006  -0.023770
     3  C   -0.035551  -0.003025   0.000840  -0.000209  -0.000313   0.004122
     4  O   -0.009313   0.041560  -0.005030  -0.005003  -0.003831   0.000356
     5  C    0.169820  -0.031655  -0.001923  -0.000671  -0.000012  -0.000501
     6  N   -0.060061   0.002926   0.000003   0.000013   0.000006   0.000004
     7  C    0.007385   0.005600  -0.000022  -0.000039   0.000005  -0.000001
     8  C   -0.006253  -0.000172   0.000006   0.000001  -0.000000  -0.000000
     9  C    0.000369  -0.000063  -0.000003  -0.000000   0.000000   0.000000
    10  O   -0.000162  -0.000001   0.000000   0.000000  -0.000000   0.000000
    11  C   -0.007100  -0.000421  -0.000001   0.000020  -0.000000   0.000000
    12  C   -0.000023   0.000001  -0.000000   0.000000   0.000000  -0.000000
    13  O   -0.000375  -0.000490  -0.000000   0.000008  -0.000000  -0.000000
    14  C    0.591494  -0.157845  -0.018803  -0.018903   0.000361   0.000000
    15  C   -0.097456  -0.009550  -0.000412  -0.000458  -0.000008   0.000000
    16  F   -0.009048  -0.000230   0.000001   0.000000   0.000000  -0.000000
    17  F   -0.015805   0.000066   0.000000  -0.000006  -0.000003  -0.000000
    18  F   -0.000057  -0.000104  -0.000000   0.000000  -0.000000  -0.000000
    19  C    5.337625   0.212562  -0.070930  -0.092955   0.010639   0.000002
    20  C    0.212562   4.631985   0.694785   0.411847  -0.025288   0.000001
    21  O   -0.070930   0.694785   7.760634  -0.073021  -0.000151  -0.000000
    22  O   -0.092955   0.411847  -0.073021   7.890367   0.265284  -0.000000
    23  C    0.010639  -0.025288  -0.000151   0.265284   4.368593  -0.000000
    24  H    0.000002   0.000001  -0.000000  -0.000000  -0.000000   0.608330
    25  H    0.000003  -0.000048   0.000004   0.000005  -0.000016  -0.017465
    26  H    0.000003  -0.000000   0.000000  -0.000000   0.000000  -0.021212
    27  H    0.000610  -0.000055  -0.000002  -0.000001   0.000000  -0.003529
    28  H    0.000129   0.000003  -0.000000  -0.000000   0.000000  -0.000001
    29  H   -0.000021   0.000000   0.000000  -0.000000   0.000000   0.000000
    30  H    0.001110   0.000044   0.000043   0.000001  -0.000000   0.000000
    31  H   -0.000008   0.000000   0.000000   0.000000  -0.000000   0.000000
    32  H    0.000010   0.000003   0.000000   0.000000   0.000000   0.000000
    33  H   -0.000030  -0.000000  -0.000000  -0.000000  -0.000000  -0.000000
    34  H    0.000335   0.000520   0.003032  -0.029339   0.395615   0.000000
    35  H   -0.000595   0.005178   0.000820  -0.021947   0.398118   0.000000
    36  H    0.002073  -0.003813   0.010870  -0.026498   0.396882  -0.000000
              25         26         27         28         29         30
     1  C    0.389212   0.403459  -0.019170  -0.000002  -0.000000  -0.000002
     2  N   -0.025968  -0.024176   0.350651   0.000031   0.000000   0.000044
     3  C   -0.010970   0.002628   0.003263  -0.000032  -0.000004  -0.000171
     4  O    0.025093   0.000261   0.003145   0.000000   0.000000  -0.000003
     5  C    0.003445  -0.000366  -0.022579  -0.000051  -0.000058   0.001592
     6  N   -0.000066   0.000005   0.009302   0.004728   0.000258   0.001897
     7  C    0.000004   0.000001   0.000450  -0.002250   0.015868  -0.005471
     8  C    0.000000   0.000000  -0.000127   0.004918  -0.002304   0.000960
     9  C   -0.000000  -0.000000   0.000014   0.356319   0.344504   0.368128
    10  O    0.000000  -0.000000  -0.000000   0.001536   0.007179   0.001241
    11  C   -0.000000  -0.000001  -0.000012  -0.000233  -0.000174   0.000533
    12  C   -0.000000   0.000000  -0.000004   0.000005   0.000019  -0.000002
    13  O   -0.000000   0.000000  -0.000011   0.000004   0.000002  -0.000008
    14  C   -0.000001  -0.000000   0.000099   0.000298  -0.000000   0.000124
    15  C    0.000000  -0.000000   0.000000   0.000038  -0.000087  -0.000537
    16  F    0.000000  -0.000000  -0.000000  -0.000003   0.000069   0.000292
    17  F   -0.000000  -0.000000   0.000000   0.000000  -0.000000   0.000000
    18  F    0.000000  -0.000000  -0.000000  -0.000000   0.000001   0.000008
    19  C    0.000003   0.000003   0.000610   0.000129  -0.000021   0.001110
    20  C   -0.000048  -0.000000  -0.000055   0.000003   0.000000   0.000044
    21  O    0.000004   0.000000  -0.000002  -0.000000   0.000000   0.000043
    22  O    0.000005  -0.000000  -0.000001  -0.000000  -0.000000   0.000001
    23  C   -0.000016   0.000000   0.000000   0.000000   0.000000  -0.000000
    24  H   -0.017465  -0.021212  -0.003529  -0.000001   0.000000   0.000000
    25  H    0.609317  -0.018922   0.005898  -0.000000  -0.000000  -0.000000
    26  H   -0.018922   0.607778  -0.003242   0.000000   0.000000   0.000000
    27  H    0.005898  -0.003242   0.502615   0.000180   0.000001   0.000005
    28  H   -0.000000   0.000000   0.000180   0.598460  -0.010785  -0.011444
    29  H   -0.000000   0.000000   0.000001  -0.010785   0.629497  -0.012473
    30  H   -0.000000   0.000000   0.000005  -0.011444  -0.012473   0.594807
    31  H   -0.000000  -0.000000  -0.000000  -0.000008  -0.000002   0.000001
    32  H    0.000000  -0.000000   0.000000  -0.000055  -0.000040  -0.000048
    33  H   -0.000000  -0.000000   0.000001   0.000011  -0.000012  -0.000000
    34  H    0.000066   0.000000  -0.000002   0.000000  -0.000000  -0.000000
    35  H    0.000000  -0.000000   0.000000   0.000000  -0.000000  -0.000000
    36  H    0.000000   0.000000  -0.000000   0.000000  -0.000000  -0.000000
              31         32         33         34         35         36
     1  C   -0.000000   0.000000   0.000000  -0.000014   0.000000   0.000000
     2  N    0.000000   0.000000  -0.000000   0.000025  -0.000000   0.000000
     3  C   -0.000000   0.000000   0.000002  -0.000004  -0.000050   0.000056
     4  O    0.000000   0.000000   0.000000   0.011981  -0.000056   0.000104
     5  C   -0.000099  -0.000099  -0.000159  -0.000026   0.000022  -0.000058
     6  N   -0.000141   0.000115  -0.000445  -0.000006   0.000000   0.000000
     7  C    0.017014  -0.002366  -0.004358  -0.000000  -0.000000   0.000000
     8  C   -0.000116  -0.002143   0.005882  -0.000000  -0.000000  -0.000000
     9  C    0.000032   0.001138   0.000121   0.000000  -0.000000   0.000000
    10  O    0.000889   0.023742  -0.000544   0.000000  -0.000000  -0.000000
    11  C   -0.007454   0.006841   0.012615   0.000000   0.000000   0.000000
    12  C    0.337735   0.343985   0.347306  -0.000000   0.000000  -0.000000
    13  O    0.007180   0.001842   0.001464   0.000000  -0.000000  -0.000000
    14  C   -0.000237  -0.001552   0.000435  -0.000145   0.000053   0.000087
    15  C    0.000142   0.002045  -0.000057   0.000001   0.000000  -0.000002
    16  F    0.000000  -0.000139   0.000000  -0.000000  -0.000000  -0.000000
    17  F   -0.000000   0.000036   0.000000   0.000000  -0.000000   0.000000
    18  F   -0.000210   0.008970   0.000192   0.000000   0.000000   0.000000
    19  C   -0.000008   0.000010  -0.000030   0.000335  -0.000595   0.002073
    20  C    0.000000   0.000003  -0.000000   0.000520   0.005178  -0.003813
    21  O    0.000000   0.000000  -0.000000   0.003032   0.000820   0.010870
    22  O    0.000000   0.000000  -0.000000  -0.029339  -0.021947  -0.026498
    23  C   -0.000000   0.000000  -0.000000   0.395615   0.398118   0.396882
    24  H    0.000000   0.000000  -0.000000   0.000000   0.000000  -0.000000
    25  H   -0.000000   0.000000  -0.000000   0.000066   0.000000   0.000000
    26  H   -0.000000  -0.000000  -0.000000   0.000000  -0.000000   0.000000
    27  H   -0.000000   0.000000   0.000001  -0.000002   0.000000  -0.000000
    28  H   -0.000008  -0.000055   0.000011   0.000000   0.000000   0.000000
    29  H   -0.000002  -0.000040  -0.000012  -0.000000  -0.000000  -0.000000
    30  H    0.000001  -0.000048  -0.000000  -0.000000  -0.000000  -0.000000
    31  H    0.639660  -0.009558  -0.012487   0.000000   0.000000   0.000000
    32  H   -0.009558   0.586369  -0.007617   0.000000  -0.000000  -0.000000
    33  H   -0.012487  -0.007617   0.595566   0.000000  -0.000000   0.000000
    34  H    0.000000   0.000000   0.000000   0.629150  -0.021474  -0.027847
    35  H    0.000000  -0.000000  -0.000000  -0.021474   0.609216  -0.021880
    36  H    0.000000  -0.000000   0.000000  -0.027847  -0.021880   0.628613
 Mulliken charges:
               1
     1  C    0.117948
     2  N   -0.141190
     3  C    0.158774
     4  O   -0.295885
     5  C   -0.040317
     6  N    0.089710
     7  C   -0.140040
     8  C    0.060647
     9  C    0.097720
    10  O   -0.262200
    11  C    0.058398
    12  C    0.094679
    13  O   -0.243217
    14  C   -0.235609
    15  C    0.567055
    16  F   -0.172364
    17  F   -0.180292
    18  F   -0.160495
    19  C    0.071090
    20  C    0.224819
    21  O   -0.300726
    22  O   -0.298486
    23  C    0.194122
    24  H    0.052628
    25  H    0.040410
    26  H    0.053782
    27  H    0.172501
    28  H    0.058203
    29  H    0.028564
    30  H    0.059328
    31  H    0.027667
    32  H    0.048520
    33  H    0.062116
    34  H    0.038130
    35  H    0.052596
    36  H    0.041412
 Sum of Mulliken charges =  -0.00000
 Mulliken charges with hydrogens summed into heavy atoms:
               1
     1  C    0.264768
     2  N    0.031311
     3  C    0.158774
     4  O   -0.295885
     5  C   -0.040317
     6  N    0.089710
     7  C   -0.140040
     8  C    0.060647
     9  C    0.243816
    10  O   -0.262200
    11  C    0.058398
    12  C    0.232982
    13  O   -0.243217
    14  C   -0.235609
    15  C    0.567055
    16  F   -0.172364
    17  F   -0.180292
    18  F   -0.160495
    19  C    0.071090
    20  C    0.224819
    21  O   -0.300726
    22  O   -0.298486
    23  C    0.326260
 APT charges:
               1
     1  C   -0.838388
     2  N   -0.158078
     3  C   -0.819636
     4  O    0.209356
     5  C   -0.107286
     6  N    0.011193
     7  C    0.180323
     8  C   -1.294113
     9  C   -0.432265
    10  O    0.764320
    11  C   -0.872280
    12  C   -0.404433
    13  O   -0.141641
    14  C   -0.133544
    15  C   -0.698340
    16  F    0.274221
    17  F    0.371361
    18  F    0.264447
    19  C   -0.309617
    20  C   -0.751266
    21  O    0.379012
    22  O   -0.207198
    23  C   -0.820411
    24  H    0.610836
    25  H    0.315517
    26  H    0.574857
    27  H    0.309606
    28  H    0.294319
    29  H    0.733689
    30  H   -0.083671
    31  H    0.584375
    32  H    0.305156
    33  H    0.429567
    34  H    0.212917
    35  H    0.666614
    36  H    0.580483
 Sum of APT charges =  -0.00000
 APT charges with hydrogens summed into heavy atoms:
               1
     1  C    0.662822
     2  N    0.151528
     3  C   -0.819636
     4  O    0.209356
     5  C   -0.107286
     6  N    0.011193
     7  C    0.180323
     8  C   -1.294113
     9  C    0.512072
    10  O    0.764320
    11  C   -0.872280
    12  C    0.914665
    13  O   -0.141641
    14  C   -0.133544
    15  C   -0.698340
    16  F    0.274221
    17  F    0.371361
    18  F    0.264447
    19  C   -0.309617
    20  C   -0.751266
    21  O    0.379012
    22  O   -0.207198
    23  C    0.639603
 Electronic spatial extent (au):  <R**2>=           7034.1763
 Charge=              0.0000 electrons
 Dipole moment (field-independent basis, Debye):
    X=             -2.1180    Y=              9.5335    Z=              2.8196  Tot=             10.1649
 Quadrupole moment (field-independent basis, Debye-Ang):
   XX=           -132.5216   YY=           -117.1087   ZZ=           -130.5336
   XY=              2.7947   XZ=              3.4102   YZ=             14.3659
 Traceless Quadrupole moment (field-independent basis, Debye-Ang):
   XX=             -5.8003   YY=              9.6126   ZZ=             -3.8123
   XY=              2.7947   XZ=              3.4102   YZ=             14.3659
 Octapole moment (field-independent basis, Debye-Ang**2):
  XXX=           -175.7088  YYY=            219.4809  ZZZ=             71.6828  XYY=            -77.4346
  XXY=             88.0110  XXZ=            -16.0974  XZZ=            -19.3237  YZZ=             61.8563
  YYZ=             22.6674  XYZ=            -37.6070
 Hexadecapole moment (field-independent basis, Debye-Ang**3):
 XXXX=          -4608.8145 YYYY=          -2585.1361 ZZZZ=          -1252.3686 XXXY=            266.0000
 XXXZ=            217.7354 YYYX=             97.8303 YYYZ=           -169.9052 ZZZX=            244.5126
 ZZZY=           -223.5758 XXYY=          -1031.4936 XXZZ=           -879.6975 YYZZ=           -649.9125
 XXYZ=              6.6026 YYXZ=             88.0450 ZZXY=             39.2998
 N-N= 2.129886993289D+03 E-N=-7.279110000636D+03  KE= 1.276855463156D+03
  Exact polarizability:   0.000   0.000   0.000   0.000   0.000   0.000
 Approx polarizability: 343.968  21.828 266.380 -11.865  15.666 207.510
   1 Symmetry operations used in ECPInt.
 ECPInt:  NShTT=   15753 NPrTT=   58649 LenC2=   14062 LenP2D=   35213.
 LDataN:  DoStor=T MaxTD1= 6 Len=  172
 D2PCM: PCM CHGder 2nd derivatives, FixD1E=F FixD2E=F DoIter=F DoCFld=F I1PDM=0
 Calling FoFJK, ICntrl=    100147 FMM=F ISym2X=0 I1Cent= 0 IOpClX= 0 NMat=1 NMatS=1 NMatT=0.
 -------------------------------------------------------------------
 Center     Atomic                   Forces (Hartrees/Bohr)
 Number     Number              X              Y              Z
 -------------------------------------------------------------------
      1        6           0.002734613   -0.004459749   -0.001157229
      2        7          -0.004337664    0.002598851    0.001076408
      3        6           0.001451824    0.017493821    0.003758856
      4        8          -0.008148787   -0.010215557   -0.002270481
      5        6           0.000937948   -0.050547357   -0.010468174
      6        7           0.000155958    0.019278497    0.006375376
      7        6          -0.002016323   -0.028591476   -0.011248811
      8        6          -0.007612837    0.005841458    0.010362328
      9        6           0.007597071   -0.003421754   -0.002754606
     10        8           0.009981676   -0.003010760   -0.002340177
     11        6           0.006844246    0.001210504    0.002880097
     12        6          -0.002067022   -0.004529632   -0.007046278
     13        8          -0.005816148    0.003235701   -0.006429040
     14        6           0.026427449    0.020678529    0.000883788
     15        6           0.002971549   -0.022176984   -0.001764663
     16        9          -0.000676983    0.003619539    0.004267521
     17        9          -0.003961181   -0.000050477   -0.000472286
     18        9           0.000129067    0.007227981   -0.003944173
     19        6          -0.022394561    0.043370361    0.013336396
     20        6           0.015299634   -0.009795572   -0.001666862
     21        8          -0.007525159   -0.002904448    0.006439039
     22        8          -0.003053315    0.000003851   -0.007234920
     23        6           0.002959889    0.001477588    0.002429456
     24        1          -0.000962527    0.003619329    0.006559635
     25        1          -0.005072187   -0.002090939    0.000225629
     26        1          -0.002214999    0.006052571   -0.003749129
     27        1           0.006537529    0.000741875   -0.000415668
     28        1          -0.003117302    0.008591429    0.001064229
     29        1           0.005616523   -0.001872731    0.004748684
     30        1          -0.007784179   -0.003650449    0.002646830
     31        1           0.000012530    0.001832539   -0.007892098
     32        1           0.003547763   -0.003748937    0.001887447
     33        1           0.002958110    0.007314931    0.004529132
     34        1          -0.004670933    0.002892811    0.002189895
     35        1          -0.003749601   -0.000642342   -0.005747079
     36        1          -0.000981672   -0.005373003    0.000940928
 -------------------------------------------------------------------
 Cartesian Forces:  Max     0.050547357 RMS     0.009959355
 FormGI is forming the generalized inverse of G from B-inverse, IUseBI=4.

 GradGradGradGradGradGradGradGradGradGradGradGradGradGradGradGradGradGrad
 Berny optimization.
 Internal  Forces:  Max     0.025281724 RMS     0.005729540
 Search for a saddle point.
 Step number   1 out of a maximum of  100
 All quantities printed in internal units (Hartrees-Bohrs-Radians)
 Swapping is turned off.
 Second derivative matrix not updated -- analytic derivatives used.
 ITU=  0
     Eigenvalues ---   -0.05474  -0.00256  -0.00003   0.00091   0.00099
     Eigenvalues ---    0.00232   0.00264   0.00275   0.00360   0.00521
     Eigenvalues ---    0.00550   0.00646   0.00729   0.00898   0.01479
     Eigenvalues ---    0.01588   0.01856   0.02345   0.02956   0.03133
     Eigenvalues ---    0.03291   0.03475   0.04937   0.05051   0.05144
     Eigenvalues ---    0.05183   0.05340   0.05828   0.05969   0.06704
     Eigenvalues ---    0.07538   0.08036   0.08075   0.08118   0.10289
     Eigenvalues ---    0.11012   0.11700   0.12070   0.12146   0.12237
     Eigenvalues ---    0.12526   0.12570   0.13052   0.13148   0.13188
     Eigenvalues ---    0.13302   0.13809   0.14761   0.16222   0.17730
     Eigenvalues ---    0.17837   0.18023   0.18912   0.19215   0.19289
     Eigenvalues ---    0.20094   0.20461   0.21648   0.22254   0.23326
     Eigenvalues ---    0.24048   0.24143   0.24327   0.24451   0.25646
     Eigenvalues ---    0.26368   0.29688   0.31762   0.34067   0.35109
     Eigenvalues ---    0.35416   0.35766   0.35892   0.36110   0.36123
     Eigenvalues ---    0.36211   0.36580   0.36788   0.36802   0.36841
     Eigenvalues ---    0.37068   0.37132   0.37233   0.37296   0.37450
     Eigenvalues ---    0.37759   0.38321   0.38997   0.40261   0.44052
     Eigenvalues ---    0.46302   0.47691   0.49837   0.50969   0.53870
     Eigenvalues ---    0.55192   0.79020   0.85265   0.86163   0.86823
     Eigenvalues ---    0.87628   0.90327
 Eigenvectors required to have negative eigenvalues:
                          R10       R14       A16       A52       A51
   1                   -0.73613  -0.42578  -0.23871  -0.23202   0.18129
                          A15       A13       A41       A43       D22
   1                    0.16375  -0.15351   0.13969  -0.10920   0.07289
 RFO step:  Lambda0=2.202161133D-02 Lambda=-1.13046415D-02.
 Linear search not attempted -- option 19 set.
 Maximum step size (   0.100) exceeded in Quadratic search.
    -- Step size scaled by   0.184
 Iteration  1 RMS(Cart)=  0.01853820 RMS(Int)=  0.00011684
 Iteration  2 RMS(Cart)=  0.00016166 RMS(Int)=  0.00003152
 Iteration  3 RMS(Cart)=  0.00000005 RMS(Int)=  0.00003152
 Variable       Old X    -DE/DX   Delta X   Delta X   Delta X     New X
                                 (Linear)    (Quad)   (Total)
    R1        2.73053   0.00660   0.00000   0.00228   0.00228   2.73281
    R2        2.05835   0.00736   0.00000   0.00350   0.00350   2.06185
    R3        2.05608   0.00517   0.00000   0.00248   0.00248   2.05856
    R4        2.05968   0.00730   0.00000   0.00353   0.00353   2.06320
    R5        2.52881   0.00699   0.00000   0.00091   0.00091   2.52973
    R6        1.90842   0.00591   0.00000   0.00236   0.00236   1.91077
    R7        2.30575   0.01281   0.00000   0.00204   0.00204   2.30778
    R8        2.78901   0.01451   0.00000   0.00652   0.00652   2.79553
    R9        2.29063   0.01724   0.00000  -0.00406  -0.00402   2.28661
   R10        3.87897  -0.02528   0.00000   0.07298   0.07296   3.95193
   R11        2.51616   0.01597   0.00000  -0.00010  -0.00006   2.51610
   R12        2.81188   0.01209   0.00000   0.00205   0.00205   2.81393
   R13        2.87807   0.01348   0.00000   0.00004   0.00004   2.87811
   R14        4.14477  -0.01538   0.00000   0.04292   0.04291   4.18768
   R15        2.83104   0.00480   0.00000   0.00186   0.00186   2.83290
   R16        2.29038   0.01062   0.00000   0.00283   0.00283   2.29321
   R17        2.05590   0.00910   0.00000   0.00448   0.00448   2.06038
   R18        2.05313   0.00758   0.00000   0.00345   0.00345   2.05659
   R19        2.05601   0.00893   0.00000   0.00447   0.00447   2.06048
   R20        2.81010   0.00691   0.00000   0.00377   0.00377   2.81387
   R21        2.28608   0.00869   0.00000   0.00275   0.00275   2.28883
   R22        2.05272   0.00804   0.00000   0.00365   0.00365   2.05638
   R23        2.05368   0.00546   0.00000   0.00276   0.00276   2.05644
   R24        2.05831   0.00907   0.00000   0.00441   0.00441   2.06271
   R25        2.75960   0.00656   0.00000   0.00356   0.00356   2.76315
   R26        2.37760   0.02049   0.00000  -0.00307  -0.00311   2.37449
   R27        2.54239   0.00226   0.00000  -0.00017  -0.00017   2.54222
   R28        2.55851   0.00159   0.00000  -0.00235  -0.00235   2.55616
   R29        2.53227   0.00516   0.00000   0.00235   0.00235   2.53463
   R30        2.76462   0.00710   0.00000  -0.00259  -0.00259   2.76203
   R31        2.28467   0.00891   0.00000   0.00182   0.00182   2.28649
   R32        2.48673   0.01127   0.00000   0.00522   0.00522   2.49195
   R33        2.70393   0.00659   0.00000   0.00204   0.00204   2.70598
   R34        2.06179   0.00558   0.00000   0.00269   0.00269   2.06448
   R35        2.05175   0.00666   0.00000   0.00329   0.00329   2.05504
   R36        2.06134   0.00531   0.00000   0.00263   0.00263   2.06398
    A1        1.91715   0.00155   0.00000   0.00093   0.00093   1.91808
    A2        1.89067   0.00224   0.00000   0.00202   0.00202   1.89269
    A3        1.92150   0.00131   0.00000   0.00119   0.00119   1.92269
    A4        1.91372  -0.00164   0.00000  -0.00101  -0.00101   1.91270
    A5        1.91020  -0.00190   0.00000  -0.00203  -0.00203   1.90817
    A6        1.91049  -0.00154   0.00000  -0.00107  -0.00107   1.90942
    A7        2.13921   0.00286   0.00000   0.00112   0.00112   2.14033
    A8        2.05034   0.00136   0.00000   0.00299   0.00299   2.05332
    A9        2.09309  -0.00421   0.00000  -0.00407  -0.00407   2.08901
   A10        2.18758   0.00232   0.00000   0.00401   0.00401   2.19159
   A11        1.97037   0.00332   0.00000   0.00154   0.00154   1.97190
   A12        2.12522  -0.00564   0.00000  -0.00555  -0.00555   2.11966
   A13        2.40606  -0.00963   0.00000   0.01372   0.01370   2.41976
   A14        2.06868   0.00849   0.00000   0.00557   0.00554   2.07423
   A15        1.80774   0.00114   0.00000  -0.01917  -0.01912   1.78862
   A16        2.30594  -0.00350   0.00000   0.02856   0.02859   2.33453
   A17        2.07664  -0.00263   0.00000  -0.00355  -0.00352   2.07313
   A18        1.95199  -0.00021   0.00000   0.00193   0.00185   1.95384
   A19        1.64227  -0.00182   0.00000  -0.01011  -0.01009   1.63218
   A20        2.16296   0.00223   0.00000   0.00553   0.00553   2.16848
   A21        1.78545   0.00090   0.00000  -0.00096  -0.00103   1.78442
   A22        1.67469   0.00198   0.00000   0.00170   0.00173   1.67642
   A23        1.99813   0.00612   0.00000   0.00520   0.00520   2.00333
   A24        2.13079  -0.00212   0.00000  -0.00297  -0.00297   2.12782
   A25        2.15339  -0.00399   0.00000  -0.00219  -0.00219   2.15120
   A26        1.91308   0.00053   0.00000   0.00123   0.00123   1.91431
   A27        1.90947   0.00054   0.00000   0.00010   0.00010   1.90956
   A28        1.91815   0.00036   0.00000   0.00060   0.00060   1.91874
[...]
 00002608,0.00001361,0.00009948,0.00000884,-0.00006439,0.00009536,0.000
 02619,0.00005606,-0.00002765,-0.00001378,-0.00000109,0.00001178,-0.000
 00366,-0.00000440,0.00000879,-0.00000449,-0.00000570,0.00001024,-0.000
 00539,-0.00000246,0.00001517,0.00000742,0.00002229,0.00000964,0.000000
 96,-0.00002140,-0.00000713,0.00000058,-0.00001293,0.00000979,-0.000003
 69,-0.00001817,-0.00491746,0.03335359,0.34378150,-0.00000551,-0.000003
 76,-0.00000448,0.00001788,-0.00000909,0.00000849,0.00005937,0.00007698
 ,-0.00010649,-0.00003824,-0.00003881,-0.00000690,-0.00028962,-0.000074
 86,0.00007148,0.00083179,-0.00047101,-0.00026672,-0.00048293,-0.001927
 40,0.00126893,-0.00070721,0.00054422,0.00038766,0.00007131,0.00009198,
 -0.00002748,0.00038510,-0.00082592,-0.00095646,-0.00909618,0.02491997,
 -0.01886894,-0.08843664,0.09771264,-0.04909854,-0.00669678,-0.00203787
 ,0.00265159,0.00031415,0.00006791,-0.00019418,-0.00157930,-0.00083341,
 0.00234387,0.00008669,-0.00002464,-0.00037834,0.00029374,0.00030503,-0
 .00032710,0.00059066,0.00002010,-0.00123136,-0.00005737,0.00012405,0.0
 0007244,-0.00011930,-0.00006683,0.00000132,0.00004993,0.00000790,-0.00
 002094,0.00004465,0.00001260,0.00002356,-0.00001522,0.00000334,-0.0000
 0214,0.00000038,-0.00000091,0.00000003,-0.00000052,0.00000259,0.000002
 93,-0.00000044,0.00000061,0.00000009,-0.00000208,-0.00000010,0.0000033
 2,-0.00001206,-0.00000069,0.00001164,-0.00000158,0.00000481,0.00000636
 ,0.00000711,-0.00000071,-0.00002630,0.00018098,-0.00272231,0.00142999,
 0.09702514,0.00000451,-0.00000118,0.00000311,-0.00002204,0.00000714,0.
 00000622,0.00005542,0.00000559,0.00003226,-0.00001397,0.00000181,-0.00
 000869,-0.00010675,-0.00007152,0.00005642,0.00003371,0.00006161,-0.000
 10355,0.00036586,0.00031412,-0.00057062,0.00178759,-0.00022408,0.00000
 284,-0.00032176,-0.00019400,0.00008745,-0.00120862,0.00101271,0.002215
 84,-0.00149575,-0.00117026,0.00060351,0.09774333,-0.21880409,0.1033250
 4,-0.00060631,-0.00064172,-0.00043862,0.00009337,0.00004330,-0.0001583
 2,-0.00070145,-0.00028259,0.00107741,-0.00004248,-0.00018341,-0.000043
 80,0.00011084,0.00000821,-0.00004919,-0.00129065,-0.00255409,-0.000178
 52,-0.00005081,0.00002114,0.00002084,-0.00002349,-0.00001724,-0.000025
 38,0.00001507,-0.00000006,-0.00000059,0.00000194,0.00000093,0.00000235
 ,-0.00000275,0.00000241,-0.00000146,-0.00000206,0.00000065,0.00000064,
 -0.00000115,0.00000035,0.00000040,-0.00000105,0.00000057,0.00000031,-0
 .00000057,-0.00000058,-0.00000291,-0.00000841,0.00001405,0.00001162,-0
 .00000065,0.00000109,-0.00001308,-0.00003956,0.00001230,0.00009462,-0.
 00377438,0.00559272,-0.00295794,-0.10097835,0.23475217,-0.00001206,0.0
 0001518,-0.00000645,0.00005785,-0.00002180,-0.00004091,-0.00026116,-0.
 00008651,0.00001955,0.00007886,0.00001683,0.00003200,0.00050398,0.0001
 6834,-0.00006412,-0.00105386,0.00013609,0.00021739,0.00022057,0.000930
 67,-0.00159655,0.00119255,-0.00023115,-0.00006922,0.00001794,0.0001226
 1,-0.00005958,-0.00094578,-0.00092473,-0.00313893,-0.00186347,-0.01149
 359,0.00621064,-0.04912511,0.10527408,-0.10459116,0.00261253,0.0018919
 1,0.00115419,-0.00009661,-0.00012372,-0.00008450,0.00030771,0.00007913
 ,0.00080749,-0.00022911,0.00007189,-0.00022190,-0.00000146,0.00020455,
 -0.00016044,0.00072279,0.00082081,-0.00050890,0.00017118,-0.00006073,-
 0.00004728,-0.00017055,-0.00001655,0.00002334,0.00006461,0.00000581,-0
 .00004187,0.00006843,0.00001801,0.00003006,-0.00001904,-0.00000789,0.0
 0000163,0.00000762,-0.00000103,-0.00000252,0.00000618,-0.00000395,-0.0
 0000502,0.00000363,-0.00000228,-0.00000068,0.00000738,-0.00000152,0.00
 001102,-0.00002277,0.00000135,0.00001557,0.00000081,-0.00001224,-0.000
 00195,0.00001042,-0.00000531,-0.00003384,-0.01127236,0.02253773,-0.008
 18372,0.05582191,-0.11307224,0.10776915,0.00001576,-0.00001284,0.00001
 336,-0.00007723,0.00003119,0.00001047,0.00015151,-0.00000617,0.0001467
 3,0.00000145,0.00003387,-0.00001276,0.00015197,-0.00020180,-0.00034374
 ,-0.00035912,0.00052801,0.00018274,0.00071969,0.00223155,0.00079827,-0
 .00064999,-0.00029690,0.00024916,0.00006957,-0.00010263,0.00003412,0.0
 0042293,0.00055206,-0.00036970,-0.01660443,-0.02661417,-0.01118796,-0.
 12055054,-0.12353905,-0.03619762,-0.00288398,0.00470811,0.00207455,0.0
 0025779,0.00018698,-0.00009666,-0.00021792,0.00009500,0.00018337,0.000
 02012,-0.00000081,-0.00001942,0.00005715,-0.00002107,-0.00004708,0.000
 23604,0.00023393,-0.00019767,-0.00013759,0.00001805,0.00000100,0.00016
 420,0.00001634,-0.00002015,-0.00005503,-0.00000023,0.00003828,-0.00005
 190,-0.00001484,-0.00002333,0.00001659,0.00000741,-0.00000006,-0.00000
 801,0.00000154,0.00000223,-0.00000531,0.00000129,0.00000173,-0.0000013
 9,0.00000096,0.00000024,-0.00000368,0.00000282,-0.00001645,0.00001415,
 -0.00000922,-0.00003151,-0.00000526,-0.00000068,0.00002025,-0.00000603
 ,0.00000493,-0.00000049,0.00088755,0.00274533,0.00082921,0.00757211,0.
 01048030,0.00318436,0.13086993,-0.00001016,0.00001036,-0.00000482,0.00
 004718,-0.00002312,-0.00003096,-0.00020333,-0.00003454,-0.00000714,0.0
 0005247,0.00000363,0.00002434,0.00031360,0.00029429,-0.00003030,-0.000
 36578,-0.00015759,0.00027288,-0.00045703,0.00011542,-0.00017258,-0.001
 00733,0.00011498,-0.00018331,0.00017899,-0.00021794,-0.00007395,0.0009
 2805,0.00041524,-0.00179697,0.00283896,0.00555038,0.00264086,-0.119103
 80,-0.21485923,-0.05963054,0.00147263,-0.00227840,0.00060747,-0.000309
 15,-0.00012732,0.00005173,0.00042425,0.00008503,-0.00063754,-0.0000026
 7,0.00003434,0.00008271,-0.00009453,-0.00004565,0.00011119,-0.00047092
 ,-0.00046783,0.00047801,0.00020300,-0.00009770,-0.00003855,-0.00011198
 ,0.00001294,0.00000685,0.00003865,0.00000007,-0.00002576,0.00003729,0.
 00000989,0.00002061,-0.00000948,-0.00000795,0.00000052,0.00000575,-0.0
 0000093,-0.00000164,0.00000444,-0.00000258,-0.00000319,0.00000285,-0.0
 0000160,-0.00000085,0.00000563,-0.00000020,0.00000947,0.00002888,0.000
 00930,-0.00006930,0.00000492,0.00000821,0.00000348,-0.00000172,0.00000
 613,-0.00000632,0.00048871,-0.00079948,0.00050622,-0.01387901,-0.01770
 828,-0.00623296,0.12894338,0.23015783,-0.00001468,0.00001727,-0.000009
 59,0.00007384,-0.00003396,-0.00003545,-0.00024197,-0.00002293,-0.00006
 125,0.00004316,-0.00001372,0.00002383,0.00018918,0.00028802,0.00007611
 ,-0.00022479,-0.00035521,-0.00001491,-0.00040105,-0.00077354,-0.001338
 96,0.00140563,0.00016564,-0.00021056,-0.00007226,-0.00004537,-0.000042
 26,-0.00065827,0.00035358,-0.00036254,0.00070938,0.01080921,0.00260975
 ,-0.03417176,-0.06085830,-0.06167726,0.00097582,-0.00106438,0.00108372
 ,-0.00022857,-0.00020616,-0.00002164,-0.00005214,-0.00023726,0.0004016
 3,-0.00004962,0.00000196,-0.00007706,0.00000581,0.00016278,-0.00008123
 ,0.00025148,0.00039202,-0.00023757,0.00022384,-0.00006378,-0.00003294,
 -0.00021341,-0.00001950,0.00004350,0.00007128,0.00000560,-0.00004737,0
 .00008098,0.00002250,0.00003616,-0.00002217,-0.00000972,0.00000067,0.0
 0000835,-0.00000133,-0.00000246,0.00000699,-0.00000324,-0.00000402,0.0
 0000262,-0.00000169,-0.00000076,0.00000729,-0.00000372,0.00001733,-0.0
 0001429,0.00000991,-0.00001414,0.00000814,0.00000616,-0.00001341,-0.00
 001500,-0.00000598,0.00001063,-0.01590554,-0.02273176,-0.00380632,0.00
 741047,0.01008382,0.00256635,0.04079562,0.06412938,0.06122041,-0.00000
 807,-0.00000547,-0.00002207,0.00008100,0.00007829,0.00024152,-0.000657
 61,-0.00002767,-0.00061413,0.00050555,0.00013368,0.00026256,-0.0000254
 0,0.00003176,0.00000923,-0.00010048,-0.00014226,0.00000462,-0.00022317
 ,-0.00031454,0.00001767,0.00024201,-0.00003719,0.00022255,0.00000124,0
 .00000467,-0.00001821,-0.00016282,0.00002889,-0.00003561,0.00003542,0.
 00005264,-0.00033123,-0.00001799,-0.00000391,0.00000714,0.00007592,-0.
 00001945,0.00014570,0.00035155,0.00019521,-0.00015892,0.00038887,-0.00
 033437,-0.00005247,-0.00014266,0.00004955,-0.00004544,-0.00005562,0.00
 011826,-0.00000607,-0.00009441,0.00003421,0.00007447,-0.00093664,-0.00
 081206,0.00020498,0.00351072,0.00286930,0.00916031,0.00082981,0.000099
 07,-0.00300812,-0.03626976,0.02333472,0.00723979,-0.09427813,0.0918872
 0,0.03979513,-0.00000056,0.00000243,0.00000358,0.00002143,-0.00000693,
 -0.00003763,-0.00001043,0.00001340,0.00000725,-0.00002733,-0.00001390,
 0.00001154,-0.00000037,0.00000245,-0.00000244,-0.00000075,-0.00000128,
 -0.00000921,0.00000092,0.00000065,-0.00000022,-0.00000612,0.00000094,0
 .00000677,0.00000278,0.00000009,0.00000414,-0.00000436,0.00000302,0.00
 000583,0.11626558,0.00003233,-0.00002258,-0.00000435,0.00005164,0.0001
 1671,0.00017310,-0.00013505,-0.00013163,-0.00021542,-0.00032807,-0.000
 56998,-0.00002113,-0.00007124,-0.00003391,0.00002880,0.00003951,0.0000
 4018,-0.00003515,-0.00016114,-0.00017707,0.00001299,0.00010605,-0.0000
 1050,0.00009351,0.00000052,-0.00000157,-0.00000724,-0.00006879,0.00001
 084,-0.00001207,0.00000940,-0.00000234,-0.00013655,-0.00000731,0.00000
 021,0.00000013,0.00003664,0.,0.00005655,0.00017683,0.00011429,-0.00005
 315,0.00006970,-0.00007087,-0.00001980,-0.00002363,0.00000687,-0.00000
 759,-0.00001305,0.00002899,0.00000249,-0.00001601,0.00000584,0.0000155
 7,-0.00014047,-0.00061105,0.00028020,-0.00032957,0.00125961,-0.0007926
 6,-0.00096795,0.00004215,0.00003939,-0.00423790,0.01090664,0.00377742,
 0.10137076,-0.24136694,-0.08454465,-0.00000620,0.00000325,0.00000418,-
 0.00000821,0.00001179,-0.00003533,-0.00001633,0.00001313,0.00000976,-0
 .00002920,-0.00000787,-0.00000407,-0.00000031,0.00000134,-0.00000263,0
 .00000020,-0.00000024,-0.00000345,0.00000125,0.00000135,-0.00000136,-0
 .00000146,0.00000056,0.00000233,-0.00000032,-0.00000010,0.00000155,-0.
 00000135,0.00000166,0.00000204,-0.10530201,0.24700936,-0.00007187,-0.0
 0000838,0.00002789,-0.00003100,-0.00002497,-0.00011589,0.00002731,-0.0
 0008816,0.00019246,-0.00019790,-0.00001739,-0.00018229,-0.00009449,-0.
 00012470,-0.00005879,0.00002038,0.00006988,-0.00000183,-0.00010019,-0.
 00012198,0.00000870,0.00006613,-0.00001182,0.00006029,0.00000158,-0.00
 000075,-0.00000504,-0.00004444,0.00000803,-0.00000865,0.00000447,0.000
 00610,-0.00008288,-0.00000386,0.00000012,0.00000238,0.00001835,-0.0000
 0091,0.00003078,0.00010634,0.00001245,-0.00000269,0.00004512,-0.000015
 90,-0.00001352,0.00000776,-0.00000270,-0.00000311,-0.00001760,0.000029
 74,0.00000506,0.00000551,0.00000379,0.00000410,0.00028027,-0.00027199,
 0.00009847,-0.00238137,0.00070253,0.00048286,0.00042450,0.00022301,0.0
 0021558,0.00189015,0.00239436,0.00114469,0.04387108,-0.08536893,-0.086
 97524,0.00000156,0.00000119,-0.00000271,0.00004570,-0.00002961,-0.0000
 4361,0.00001237,0.00000558,0.00000517,0.00001506,0.00001198,-0.0000032
 2,-0.00000028,0.00000124,-0.00000132,0.00000012,-0.00000009,-0.0000022
 2,0.00000088,0.00000174,0.00000019,-0.00000166,0.00000025,0.00000163,-
 0.00000008,0.00000013,0.00000088,-0.00000093,0.00000089,0.00000130,-0.
 04812635,0.09085006,0.08389532,-0.00001850,0.00000424,0.00000214,0.000
 03145,-0.00002853,-0.00002394,-0.00015634,0.00011125,0.00000651,0.0001
 1072,-0.00000009,0.00002972,-0.00001495,0.00000295,0.00001819,0.000073
 55,-0.00012923,-0.00003288,-0.00025230,-0.00011671,0.00004521,0.000220
 69,-0.00001249,0.00020414,0.00000347,0.00000140,-0.00001763,-0.0001514
 9,0.00002107,-0.00003389,0.00002399,0.00003355,-0.00030220,-0.00001627
 ,-0.00000252,0.00000767,0.00006809,-0.00002084,0.00013604,-0.00006958,
 0.00015716,0.00006157,0.00038626,-0.00036529,-0.00002270,-0.00013487,0
 .00003974,-0.00003837,-0.00003326,0.00010826,-0.00000022,-0.00013961,0
 .00005991,0.00009856,-0.00122775,-0.00009908,-0.00108194,-0.00435878,-
 0.00016712,0.00507029,0.00217151,0.00011011,-0.00115609,-0.02589869,-0
 .00905754,-0.03866773,-0.05997129,-0.00856861,-0.05761624,0.00000489,-
 0.00000125,-0.00000171,0.00000464,0.00000256,-0.00000219,0.00000555,-0
 .00000158,-0.00000135,0.00000669,0.00000253,0.00000868,-0.00000053,0.0
 0000188,-0.00000291,-0.00000071,-0.00000096,-0.00000840,-0.00000066,-0
 .00000167,-0.00000058,-0.00000633,0.00000132,0.00000663,0.00000271,0.0
 0000002,0.00000445,-0.00000361,0.00000261,0.00000541,0.00572329,0.0004
 1321,0.01265932,0.08049756,0.00000301,0.00000549,0.00000290,0.00000304
 ,-0.00000840,-0.00002074,-0.00000244,0.00005515,0.00004336,-0.00000945
 ,-0.00004872,0.00003353,0.00001579,0.00004918,-0.00000030,0.00000552,-
 0.00004201,-0.00000270,-0.00002217,0.00000816,-0.00000134,0.00002569,-
 0.00000033,0.00002458,0.00000096,0.00000060,-0.00000274,-0.00001901,0.
 00000137,-0.00000440,0.00000042,0.00000811,-0.00003905,-0.00000088,-0.
 00000050,0.00000138,0.00001121,-0.00000328,0.00001785,-0.00005606,0.00
 001402,0.00004274,0.00006981,-0.00007304,-0.00000452,-0.00002307,0.000
 00420,-0.00000604,-0.00000410,0.00001750,0.00000407,-0.00003463,0.0000
 1742,0.00002428,-0.00021347,0.00013148,-0.00024359,-0.00049982,0.00046
 357,0.00097097,0.00017994,0.00027271,-0.00019741,-0.00397889,-0.001152
 51,-0.00542297,-0.01041005,-0.05766237,-0.04212774,0.00000078,-0.00000
 103,-0.00000047,-0.00000410,-0.00000110,0.00000086,0.00000103,-0.00000
 306,-0.00000055,0.00000372,0.00000100,0.00000317,-0.00000015,0.0000002
 0,-0.00000029,-0.00000023,-0.00000013,-0.00000100,-0.00000005,-0.00000
 133,-0.00000070,-0.00000102,0.00000019,0.00000097,0.00000083,0.0000001
 6,0.00000052,-0.00000048,0.00000020,0.00000059,-0.00728731,-0.00104019
 ,-0.02276044,0.01519121,0.05233924,-0.00000455,0.00000432,0.00000274,0
 .00000250,-0.00000623,-0.00002054,0.00000330,0.00004171,0.00003003,-0.
 00002878,-0.00005243,-0.00000233,0.00000074,0.00001822,0.00000123,-0.0
 0000829,-0.00002520,0.00000168,-0.00003405,-0.00002900,-0.00000070,0.0
 0003864,-0.00000210,0.00003523,0.00000064,0.00000041,-0.00000284,-0.00
 002723,0.00000325,-0.00000577,0.00000224,0.00000547,-0.00005310,-0.000
 00185,-0.00000009,0.00000160,0.00001200,-0.00000202,0.00002263,0.00005
 141,0.00001748,-0.00003348,0.00006789,-0.00006683,-0.00001950,-0.00002
 832,0.00000906,-0.00000794,-0.00000804,0.00002146,0.00000157,-0.000021
 24,0.00000926,0.00001596,-0.00006397,0.00004106,0.00013388,0.00234089,
 0.00057095,0.00138342,-0.00113882,-0.00022882,-0.00008472,0.00112483,0
 .00071233,0.00539212,-0.07213630,-0.04439600,-0.31475510,0.00000119,-0
 .00000057,-0.00000078,0.00000002,-0.00000007,-0.00000080,0.00000180,-0
 .00000220,0.00000014,0.00000405,0.00000256,0.00000196,0.00000003,0.000
 00043,-0.00000061,-0.00000029,-0.00000013,-0.00000149,0.00000024,-0.00
 000128,-0.00000152,-0.00000129,0.00000021,0.00000169,0.00000039,0.0000
 0011,0.00000065,-0.00000069,0.00000030,0.00000078,-0.00209782,0.000633
 10,-0.00616917,0.07526450,0.04703215,0.32563713,-0.00002252,0.00000920
 ,0.00000419,0.00002899,-0.00003375,-0.00004119,-0.00013750,0.00014928,
 0.00004626,0.00015000,0.00000673,0.00004281,0.00004961,0.00028599,0.00
 001062,-0.00003507,-0.00024981,-0.00000871,-0.00013037,-0.00004531,-0.
 00001232,0.00017591,-0.00000818,0.00016690,0.00000560,0.00000297,-0.00
 001882,-0.00012401,0.00001485,-0.00002968,0.00002297,0.00004554,-0.000
 23855,-0.00001172,-0.00000258,0.00000753,0.00004718,-0.00001680,0.0001
 0112,-0.00016195,0.00013489,0.00009774,0.00043690,-0.00045402,-0.00004
 070,-0.00013851,0.00003611,-0.00004597,-0.00003732,0.00012894,0.000016
 05,-0.00016726,0.00008718,0.00012219,-0.00120177,0.00088892,-0.0004688
 2,0.00353209,0.00051838,0.00843215,0.00059691,-0.00061571,-0.00284932,
 -0.02597845,-0.03255372,0.01571700,-0.05516512,-0.03295674,0.02374189,
 0.00000583,-0.00000151,-0.00000203,0.00000461,0.00000273,-0.00000413,0
 .00000639,-0.00000308,-0.00000099,0.00001036,0.00000537,0.00000920,-0.
 00000105,0.00000161,-0.00000201,-0.00000095,-0.00000089,-0.00000693,-0
 .00000155,-0.00000370,-0.00000015,-0.00000574,0.00000085,0.00000564,0.
 00000451,0.00000096,0.00000345,-0.00000311,0.00000161,0.00000441,0.004
 98660,0.00955753,-0.00843194,0.00312045,0.00705445,-0.00331577,0.07013
 909,-0.00000759,0.00000168,0.00000599,-0.00000062,-0.00000588,-0.00004
 097,0.00004880,0.00001932,0.00011476,-0.00013195,-0.00012067,-0.000070
 47,0.00000853,0.00004018,-0.00001917,0.00000369,-0.00000780,-0.0000038
 8,-0.00004978,-0.00003573,0.00000225,0.00005035,-0.00000105,0.00004714
 ,0.00000150,-0.00000097,-0.00000501,-0.00003400,0.00000410,-0.00000849
 ,0.00000748,0.00000616,-0.00006080,-0.00000383,-0.00000027,0.00000182,
 0.00001089,-0.00000373,0.00002548,0.00006022,0.00003268,-0.00000094,0.
 00007218,-0.00006496,0.00000158,-0.00002072,0.00000416,-0.00000707,-0.
 00000701,0.00002020,0.00000298,-0.00002728,0.00001459,0.00001871,-0.00
 009268,-0.00018245,-0.00017010,0.00053399,0.00122579,0.00349463,0.0012
 8828,0.00005506,-0.00093521,-0.00673648,0.00054711,-0.00179226,-0.0406
 6761,-0.22774559,0.12655494,0.00000106,-0.00000149,-0.00000145,-0.0000
 0149,0.00000471,0.00000274,0.00000352,-0.00000062,-0.00000013,0.000004
 96,0.00000097,0.00000195,-0.00000030,0.00000063,-0.00000092,-0.0000002
 7,-0.00000009,-0.00000202,-0.00000027,0.00000040,0.00000039,-0.0000013
 4,0.00000040,0.00000153,0.00000044,0.00000019,0.00000115,-0.00000081,0
 .00000045,0.00000110,-0.00463208,-0.01552794,0.01452563,0.00230851,0.0
 0664801,-0.00431085,0.04801172,0.23507243,0.00000295,-0.00000269,0.000
 00024,0.00000013,0.00001023,-0.00001668,0.00003499,-0.00004577,0.00004
 767,-0.00009279,-0.00005070,-0.00005083,-0.00002706,0.00006384,0.00001
 057,-0.00004747,-0.00002441,0.00000410,0.00003746,-0.00000676,-0.00000
 116,-0.00001594,0.00000866,-0.00001647,-0.00000043,-0.00000120,0.00000
 034,0.00001376,-0.00000321,0.00000274,-0.00000374,-0.00000498,0.000021
 22,0.00000199,0.00000071,-0.00000031,-0.00000300,0.00000160,-0.0000089
 2,-0.00009743,-0.00010584,0.00005198,-0.00000763,-0.00000070,0.0000098
 4,0.00001470,-0.00000075,-0.00000568,-0.00000482,0.00000428,-0.0000002
 9,0.00001266,0.00000088,0.00000164,0.00001457,0.00072866,-0.00014637,-
 0.00200966,-0.00168594,0.00008223,0.00004647,-0.00025349,0.00021962,0.
 00332741,-0.00314323,0.00289663,0.02929325,0.12933812,-0.14107533,-0.0
 0000034,-0.00000017,0.00000030,-0.00000234,0.00000039,0.00000139,-0.00
 000029,0.00000015,0.,-0.00000063,-0.00000025,-0.00000171,-0.00000017,0
 .00000019,0.00000005,0.00000018,0.00000013,0.00000069,0.00000042,0.000
 00101,0.00000254,0.00000031,0.00000003,-0.00000048,-0.00000003,-0.0000
 0003,-0.00000034,0.00000053,-0.00000024,-0.00000048,-0.00285882,-0.010
 08657,0.00749442,0.00538194,0.02263307,-0.01150403,-0.03301112,-0.1373
 7501,0.14198087\\0.00000085,-0.00000132,0.00000337,0.00000043,-0.00000
 105,0.00000156,-0.00000139,-0.00000284,0.00000467,0.00000135,0.0000001
 0,-0.00000069,-0.00000196,0.00000122,0.00000343,0.00000074,0.,-0.00000
 294,0.00000117,-0.00000243,0.00000172,-0.00000069,-0.00000012,-0.00000
 073,0.00000010,-0.00000257,0.00000019,0.00000150,-0.00000235,0.0000000
 4,-0.00000042,0.00000283,0.00000116,-0.00000052,0.00000091,-0.00000087
 ,-0.00000032,0.00000517,0.00000024,-0.00000024,-0.00000085,-0.00000070
 ,0.00000007,0.00000064,-0.00000174,-0.00000100,-0.00000116,-0.00000305
 ,-0.00000096,0.00000020,-0.00000437,-0.00000004,0.00000051,-0.00000392
 ,0.00000005,0.00000194,-0.00000003,0.00000036,-0.00000169,-0.00000067,
 -0.00000002,-0.00000064,-0.00000232,-0.00000038,0.00000498,-0.00000241
 ,-0.00000062,0.00000071,0.00000003,0.00000098,-0.00000258,0.00000391,0
 .00000074,-0.00000091,0.00000251,0.00000100,-0.00000074,0.00000458,0.0
 0000145,-0.00000191,0.00000230,0.00000030,-0.00000271,0.00000138,0.000
 00086,-0.00000330,-0.00000005,0.00000056,-0.00000286,-0.00000076,-0.00
 000100,0.00000250,-0.00000054,-0.00000037,0.00000252,-0.00000137,-0.00
 000041,0.00000217,-0.00000039,-0.00000084,0.00000164,-0.00000027,-0.00
 000055,0.00000282,-0.00000119,-0.00000079,0.00000115,-0.00000207\\\@


 A people that values its privileges above its principles soon loses both.
 -- Dwight D. Eisenhower
 Job cpu time:       0 days  2 hours 25 minutes 57.4 seconds.
 Elapsed time:       0 days  0 hours 36 minutes 31.5 seconds.
 File lengths (MBytes):  RWF=    775 Int=      0 D2E=      0 Chk=     29 Scr=      1
 Normal termination of Gaussian 16 at Mon May 30 09:59:52 2022.
