 Entering Gaussian System, Link 0=g16
 Initial command:
 /public/software/apps/Gaussian/g16/l1.exe "/public/home/QGL_HG/tmp/Gau-10964.inp" -scrdir="/public/home/QGL_HG/tmp/"
 Entering Link 1 = /public/software/apps/Gaussian/g16/l1.exe PID=     10965.
  
 Copyright (c) 1988-2019, Gaussian, Inc.  All Rights Reserved.
  
 This is part of the Gaussian(R) 16 program.  It is based on
 the Gaussian(R) 09 system (copyright 2009, Gaussian, Inc.),
 the Gaussian(R) 03 system (copyright 2003, Gaussian, Inc.),
 the Gaussian(R) 98 system (copyright 1998, Gaussian, Inc.),
 the Gaussian(R) 94 system (copyright 1995, Gaussian, Inc.),
 the Gaussian 92(TM) system (copyright 1992, Gaussian, Inc.),
 the Gaussian 90(TM) system (copyright 1990, Gaussian, Inc.),
 the Gaussian 88(TM) system (copyright 1988, Gaussian, Inc.),
 the Gaussian 86(TM) system (copyright 1986, Carnegie Mellon
 University), and the Gaussian 82(TM) system (copyright 1983,
 Carnegie Mellon University). Gaussian is a federally registered
 trademark of Gaussian, Inc.
  
 This software contains proprietary and confidential information,
 including trade secrets, belonging to Gaussian, Inc.
  
 This software is provided under written license and may be
 used, copied, transmitted, or stored only in accord with that
 written license.
  
 The following legend is applicable only to US Government
 contracts under FAR:
  
                    RESTRICTED RIGHTS LEGEND
  
 Use, reproduction and disclosure by the US Government is
 subject to restrictions as set forth in subparagraphs (a)
 and (c) of the Commercial Computer Software - Restricted
 Rights clause in FAR 52.227-19.
  
 Gaussian, Inc.
 340 Quinnipiac St., Bldg. 40, Wallingford CT 06492
  
  
 ---------------------------------------------------------------
 Warning -- This program may not be used in any manner that
 competes with the business of Gaussian, Inc. or will provide
 assistance to any competitor of Gaussian, Inc.  The licensee
 of this program is prohibited from giving any competitor of
 Gaussian, Inc. access to this program.  By using this program,
 the user acknowledges that Gaussian, Inc. is engaged in the
 business of creating and licensing software in the field of
 computational chemistry and represents and warrants to the
 licensee that it is not a competitor of Gaussian, Inc. and that
 it will not use this program in any manner prohibited above.
 ---------------------------------------------------------------
  

 Cite this work as:
 Gaussian 16, Revision C.01,
 M. J. Frisch, G. W. Trucks, H. B. Schlegel, G. E. Scuseria, 
 M. A. Robb, J. R. Cheeseman, G. Scalmani, V. Barone, 
 G. A. Petersson, H. Nakatsuji, X. Li, M. Caricato, A. V. Marenich, 
 J. Bloino, B. G. Janesko, R. Gomperts, B. Mennucci, H. P. Hratchian, 
 J. V. Ortiz, A. F. Izmaylov, J. L. Sonnenberg, D. Williams-Young, 
 F. Ding, F. Lipparini, F. Egidi, J. Goings, B. Peng, A. Petrone, 
 T. Henderson, D. Ranasinghe, V. G. Zakrzewski, J. Gao, N. Rega, 
 G. Zheng, W. Liang, M. Hada, M. Ehara, K. Toyota, R. Fukuda, 
 J. Hasegawa, M. Ishida, T. Nakajima, Y. Honda, O. Kitao, H. Nakai, 
 T. Vreven, K. Throssell, J. A. Montgomery, Jr., J. E. Peralta, 
 F. Ogliaro, M. J. Bearpark, J. J. Heyd, E. N. Brothers, K. N. Kudin, 
 V. N. Staroverov, T. A. Keith, R. Kobayashi, J. Normand, 
 K. Raghavachari, A. P. Rendell, J. C. Burant, S. S. Iyengar, 
 J. Tomasi, M. Cossi, J. M. Millam, M. Klene, C. Adamo, R. Cammi, 
 J. W. Ochterski, R. L. Martin, K. Morokuma, O. Farkas, 
 J. B. Foresman, and D. J. Fox, Gaussian, Inc., Wallingford CT, 2019.
 
 ******************************************
 Gaussian 16:  ES64L-G16RevC.01  3-Jul-2019
                23-May-2024 
 ******************************************
 %nprocshared=32
 Will use up to   32 processors via shared memory.
 %mem=120GB
 ----------------------------------------------------------------------
 #p opt=(calcfc,ts,noeigen,maxcycle=200) freq b3lyp/6-31g(d) scrf=(smd,
 solvent=toluene,read) em=gd3bj
 ----------------------------------------------------------------------
 1/5=1,6=200,10=4,11=1,18=20,26=3,38=1,40=2/1,3;
 2/9=110,12=2,17=6,18=5,40=1/2;
 3/5=1,6=6,7=1,11=2,25=1,30=1,70=32203,71=2,72=13,74=-5,124=41,140=1/1,2,3;
 4//1;
 5/5=2,38=5,53=13/2;
 8/6=4,10=90,11=11/1;
 11/6=1,8=1,9=11,15=111,16=1/1,2,10;
 10/6=1,13=1/2;
 6/7=2,8=2,9=2,10=2,28=1/1;
 7/10=1,25=1/1,2,3,16;
 1/5=1,6=200,10=4,11=1,18=20,26=3/3(2);
 2/9=110/2;
 99//99;
 2/9=110/2;
 3/5=1,6=6,7=1,11=2,25=1,30=1,70=32205,71=1,72=13,74=-5,124=41/1,2,3;
 4/5=5,16=3,69=1/1;
 5/5=2,38=5,53=13/2;
 7//1,2,3,16;
 1/5=1,6=200,11=1,18=20,26=3/3(-5);
 2/9=110/2;
 6/7=2,8=2,9=2,10=2,19=2,28=1/1;
 99/9=1/99;
 Leave Link    1 at Thu May 23 05:39:40 2024, MaxMem= 16106127360 cpu:               2.9 elap:               0.1
 (Enter /public/software/apps/Gaussian/g16/l101.exe)
 -------------------
 Title Card Required
 -------------------
 Symbolic Z-matrix:
 Charge =  0 Multiplicity = 1
 S                     2.97335   0.45055   1.95974 
 C                     3.7049    1.31745  -0.15527 
 H                     1.96485  -0.08369   1.33723 
 C                    -1.93333  -2.04411  -0.62672 
 C                    -1.55209  -3.41471  -0.6624 
 C                    -2.32796  -4.31208   0.04238 
 C                    -4.19951  -4.83409   1.56503 
 C                    -5.24607  -4.42389   2.35602 
 C                    -5.56927  -3.04996   2.43385 
 C                    -4.86369  -2.11942   1.70512 
 C                    -4.63204   0.37756  -0.31466 
 C                    -4.91068   1.77152  -0.1474 
 C                    -3.90816   2.62378   0.37214 
 C                    -2.63407   2.17608   0.66957 
 C                    -2.37474   0.78545   0.47772 
 C                    -3.3466   -0.12011   0.07683 
 C                    -5.6387   -0.44722  -0.88344 
 C                    -6.86354   0.0717   -1.23697 
 C                    -7.14989   1.44233  -1.03826 
 C                    -6.19043   2.27141  -0.50741 
 C                    -1.60419   4.45187   0.74861 
 C                    -1.60626   3.11637   1.1849 
 C                    -0.64737   2.73519   2.14077 
 C                     0.27581   3.6562    2.63181 
 C                     0.25663   4.98057   2.19419 
 C                    -0.69456   5.3755    1.25506 
 C                     0.54653  -4.7601   -0.80842 
 C                    -0.35868  -3.8758   -1.41379 
 C                    -0.13228  -3.4913   -2.74413 
 C                     0.95094  -4.00376  -3.4548 
 C                     1.83936  -4.89261  -2.84537 
 C                     1.63747  -5.26221  -1.51574 
 O                    -1.15104  -1.13344  -1.31601 
 O                    -1.1122    0.31453   0.76713 
 P                    -0.10327  -0.22842  -0.42543 
 O                     0.91355  -1.06308   0.29947 
 O                     0.35163   0.87843  -1.34281 
 H                    -2.07818  -5.36905   0.01213 
 H                    -3.92508  -5.88465   1.51116 
 H                    -5.81558  -5.14832   2.93114 
 H                    -6.37954  -2.72351   3.07963 
 H                    -5.11745  -1.07008   1.78508 
 H                    -4.16038   3.66528   0.54713 
 H                    -5.42768  -1.49739  -1.04629 
 H                    -7.61603  -0.57691  -1.6765 
 H                    -8.12294   1.83768  -1.31538 
 H                    -6.39215   3.33002  -0.36369 
 H                     1.84155   1.6792   -0.99239 
 H                     2.68326  -5.29083  -3.4024 
 H                     0.98534   5.69234   2.57063 
 H                    -0.63129   1.71715   2.50639 
 H                     1.00975   3.33615   3.36623 
 H                    -0.70692   6.39583   0.8863 
 H                    -2.30472   4.7628   -0.01932 
 H                     0.39701  -5.03863   0.23044 
 H                    -0.81668  -2.80037  -3.22281 
 H                     1.09808  -3.7119   -4.49141 
 H                     2.32715  -5.94662  -1.02878 
 O                     3.55387   3.8867    0.57597 
 C                     2.71036   3.48053  -0.20896 
 N                     2.68672   2.10591  -0.55995 
 C                    -3.79559  -2.51097   0.85396 
 C                     4.08957   0.08562  -0.82819 
 C                     3.249    -0.60416  -1.71951 
 C                     3.68413  -1.78949  -2.29869 
 C                     4.95019  -2.29951  -2.00254 
 C                     5.79746  -1.61505  -1.12979 
 C                     5.36813  -0.43135  -0.5431 
 C                     1.76465   4.37791  -0.91986 
 C                     2.00113   5.75553  -0.78406 
 C                     1.19779   6.67508  -1.44569 
 C                     0.13831   6.22864  -2.24066 
 C                    -0.10875   4.86267  -2.3665 
 C                     0.69967   3.93229  -1.71496 
 H                     4.49326   1.88017   0.33234 
 H                     2.26467  -0.21848  -1.95287 
 H                     3.02165  -2.32803  -2.96587 
 H                     5.27418  -3.23404  -2.45193 
 H                     6.78113  -2.0088   -0.89487 
 H                     6.0164    0.09814   0.14794 
 H                     2.82511   6.07877  -0.1582 
 H                     1.394     7.73851  -1.34311 
 H                    -0.49274   6.94611  -2.75817 
 H                    -0.93859   4.51091  -2.9722 
 H                     0.46812   2.87836  -1.81376 
 C                     3.48301  -2.23641   1.50413 
 C                     4.28802  -3.36962   1.59233 
 C                     5.50091  -3.33147   2.2811 
 C                     5.91351  -2.14914   2.89908 
 C                     5.11994  -1.00719   2.82407 
 C                     3.90818  -1.05356   2.12307 
 H                     2.54949  -2.25528   0.95368 
 H                     3.96405  -4.28459   1.10526 
 H                     6.1234   -4.21965   2.3398 
 H                     6.85376  -2.11508   3.44177 
 H                     5.43726  -0.08569   3.30431 
 C                    -3.44168  -3.89856   0.81221 
 C                    -3.03305  -1.57752   0.07274 
 
 Add virtual bond connecting atoms H48        and O37        Dist= 3.26D+00.
 Add virtual bond connecting atoms O36        and H3         Dist= 3.35D+00.
 ITRead=  0  0  0  0  0  0  0  0  0  0  0  0  0  0  0  0  0  0  0  0
 ITRead=  0  0  0  0  0  0  0  0  0  0  0  0  0  0  0  0  0  0  0  0
 ITRead=  0  0  0  0  0  0  0  0  0  0  0  0  0  0  0  0  0  0  0  0
 ITRead=  0  0  0  0  0  0  0  0  0  0  0  0  0  0  0  0  0  0  0  0
 ITRead=  0  0  0  0  0  0  0  0  0  0  0  0  0  0  0  0  0  0
 MicOpt= -1 -1 -1 -1 -1 -1 -1 -1 -1 -1 -1 -1 -1 -1 -1 -1 -1 -1 -1 -1
 MicOpt= -1 -1 -1 -1 -1 -1 -1 -1 -1 -1 -1 -1 -1 -1 -1 -1 -1 -1 -1 -1
 MicOpt= -1 -1 -1 -1 -1 -1 -1 -1 -1 -1 -1 -1 -1 -1 -1 -1 -1 -1 -1 -1
 MicOpt= -1 -1 -1 -1 -1 -1 -1 -1 -1 -1 -1 -1 -1 -1 -1 -1 -1 -1 -1 -1
 MicOpt= -1 -1 -1 -1 -1 -1 -1 -1 -1 -1 -1 -1 -1 -1 -1 -1 -1 -1
 NAtoms=     98 NQM=       98 NQMF=       0 NMMI=      0 NMMIF=      0
                NMic=       0 NMicF=      0.
                    Isotopes and Nuclear Properties:
 (Nuclear quadrupole moments (NQMom) in fm**2, nuclear magnetic moments (NMagM)
  in nuclear magnetons)

  Atom         1           2           3           4           5           6           7           8           9          10
 IAtWgt=          32          12           1          12          12          12          12          12          12          12
 AtmWgt=  31.9720718  12.0000000   1.0078250  12.0000000  12.0000000  12.0000000  12.0000000  12.0000000  12.0000000  12.0000000
 NucSpn=           0           0           1           0           0           0           0           0           0           0
 AtZEff=  -0.0000000  -0.0000000  -0.0000000  -0.0000000  -0.0000000  -0.0000000  -0.0000000  -0.0000000  -0.0000000  -0.0000000
 NQMom=    0.0000000   0.0000000   0.0000000   0.0000000   0.0000000   0.0000000   0.0000000   0.0000000   0.0000000   0.0000000
 NMagM=    0.0000000   0.0000000   2.7928460   0.0000000   0.0000000   0.0000000   0.0000000   0.0000000   0.0000000   0.0000000
 AtZNuc=  16.0000000   6.0000000   1.0000000   6.0000000   6.0000000   6.0000000   6.0000000   6.0000000   6.0000000   6.0000000

  Atom        11          12          13          14          15          16          17          18          19          20
 IAtWgt=          12          12          12          12          12          12          12          12          12          12
 AtmWgt=  12.0000000  12.0000000  12.0000000  12.0000000  12.0000000  12.0000000  12.0000000  12.0000000  12.0000000  12.0000000
 NucSpn=           0           0           0           0           0           0           0           0           0           0
 AtZEff=  -0.0000000  -0.0000000  -0.0000000  -0.0000000  -0.0000000  -0.0000000  -0.0000000  -0.0000000  -0.0000000  -0.0000000
 NQMom=    0.0000000   0.0000000   0.0000000   0.0000000   0.0000000   0.0000000   0.0000000   0.0000000   0.0000000   0.0000000
 NMagM=    0.0000000   0.0000000   0.0000000   0.0000000   0.0000000   0.0000000   0.0000000   0.0000000   0.0000000   0.0000000
 AtZNuc=   6.0000000   6.0000000   6.0000000   6.0000000   6.0000000   6.0000000   6.0000000   6.0000000   6.0000000   6.0000000

  Atom        21          22          23          24          25          26          27          28          29          30
 IAtWgt=          12          12          12          12          12          12          12          12          12          12
 AtmWgt=  12.0000000  12.0000000  12.0000000  12.0000000  12.0000000  12.0000000  12.0000000  12.0000000  12.0000000  12.0000000
 NucSpn=           0           0           0           0           0           0           0           0           0           0
 AtZEff=  -0.0000000  -0.0000000  -0.0000000  -0.0000000  -0.0000000  -0.0000000  -0.0000000  -0.0000000  -0.0000000  -0.0000000
 NQMom=    0.0000000   0.0000000   0.0000000   0.0000000   0.0000000   0.0000000   0.0000000   0.0000000   0.0000000   0.0000000
 NMagM=    0.0000000   0.0000000   0.0000000   0.0000000   0.0000000   0.0000000   0.0000000   0.0000000   0.0000000   0.0000000
 AtZNuc=   6.0000000   6.0000000   6.0000000   6.0000000   6.0000000   6.0000000   6.0000000   6.0000000   6.0000000   6.0000000

  Atom        31          32          33          34          35          36          37          38          39          40
 IAtWgt=          12          12          16          16          31          16          16           1           1           1
 AtmWgt=  12.0000000  12.0000000  15.9949146  15.9949146  30.9737634  15.9949146  15.9949146   1.0078250   1.0078250   1.0078250
 NucSpn=           0           0           0           0           1           0           0           1           1           1
 AtZEff=  -0.0000000  -0.0000000  -0.0000000  -0.0000000  -0.0000000  -0.0000000  -0.0000000  -0.0000000  -0.0000000  -0.0000000
 NQMom=    0.0000000   0.0000000   0.0000000   0.0000000   0.0000000   0.0000000   0.0000000   0.0000000   0.0000000   0.0000000
 NMagM=    0.0000000   0.0000000   0.0000000   0.0000000   1.1316000   0.0000000   0.0000000   2.7928460   2.7928460   2.7928460
 AtZNuc=   6.0000000   6.0000000   8.0000000   8.0000000  15.0000000   8.0000000   8.0000000   1.0000000   1.0000000   1.0000000

  Atom        41          42          43          44          45          46          47          48          49          50
 IAtWgt=           1           1           1           1           1           1           1           1           1           1
 AtmWgt=   1.0078250   1.0078250   1.0078250   1.0078250   1.0078250   1.0078250   1.0078250   1.0078250   1.0078250   1.0078250
 NucSpn=           1           1           1           1           1           1           1           1           1           1
 AtZEff=  -0.0000000  -0.0000000  -0.0000000  -0.0000000  -0.0000000  -0.0000000  -0.0000000  -0.0000000  -0.0000000  -0.0000000
 NQMom=    0.0000000   0.0000000   0.0000000   0.0000000   0.0000000   0.0000000   0.0000000   0.0000000   0.0000000   0.0000000
 NMagM=    2.7928460   2.7928460   2.7928460   2.7928460   2.7928460   2.7928460   2.7928460   2.7928460   2.7928460   2.7928460
 AtZNuc=   1.0000000   1.0000000   1.0000000   1.0000000   1.0000000   1.0000000   1.0000000   1.0000000   1.0000000   1.0000000

  Atom        51          52          53          54          55          56          57          58          59          60
 IAtWgt=           1           1           1           1           1           1           1           1          16          12
 AtmWgt=   1.0078250   1.0078250   1.0078250   1.0078250   1.0078250   1.0078250   1.0078250   1.0078250  15.9949146  12.0000000
 NucSpn=           1           1           1           1           1           1           1           1           0           0
 AtZEff=  -0.0000000  -0.0000000  -0.0000000  -0.0000000  -0.0000000  -0.0000000  -0.0000000  -0.0000000  -0.0000000  -0.0000000
 NQMom=    0.0000000   0.0000000   0.0000000   0.0000000   0.0000000   0.0000000   0.0000000   0.0000000   0.0000000   0.0000000
 NMagM=    2.7928460   2.7928460   2.7928460   2.7928460   2.7928460   2.7928460   2.7928460   2.7928460   0.0000000   0.0000000
 AtZNuc=   1.0000000   1.0000000   1.0000000   1.0000000   1.0000000   1.0000000   1.0000000   1.0000000   8.0000000   6.0000000

  Atom        61          62          63          64          65          66          67          68          69          70
 IAtWgt=          14          12          12          12          12          12          12          12          12          12
 AtmWgt=  14.0030740  12.0000000  12.0000000  12.0000000  12.0000000  12.0000000  12.0000000  12.0000000  12.0000000  12.0000000
 NucSpn=           2           0           0           0           0           0           0           0           0           0
 AtZEff=  -0.0000000  -0.0000000  -0.0000000  -0.0000000  -0.0000000  -0.0000000  -0.0000000  -0.0000000  -0.0000000  -0.0000000
 NQMom=    2.0440000   0.0000000   0.0000000   0.0000000   0.0000000   0.0000000   0.0000000   0.0000000   0.0000000   0.0000000
 NMagM=    0.4037610   0.0000000   0.0000000   0.0000000   0.0000000   0.0000000   0.0000000   0.0000000   0.0000000   0.0000000
 AtZNuc=   7.0000000   6.0000000   6.0000000   6.0000000   6.0000000   6.0000000   6.0000000   6.0000000   6.0000000   6.0000000

  Atom        71          72          73          74          75          76          77          78          79          80
 IAtWgt=          12          12          12          12           1           1           1           1           1           1
 AtmWgt=  12.0000000  12.0000000  12.0000000  12.0000000   1.0078250   1.0078250   1.0078250   1.0078250   1.0078250   1.0078250
 NucSpn=           0           0           0           0           1           1           1           1           1           1
 AtZEff=  -0.0000000  -0.0000000  -0.0000000  -0.0000000  -0.0000000  -0.0000000  -0.0000000  -0.0000000  -0.0000000  -0.0000000
 NQMom=    0.0000000   0.0000000   0.0000000   0.0000000   0.0000000   0.0000000   0.0000000   0.0000000   0.0000000   0.0000000
 NMagM=    0.0000000   0.0000000   0.0000000   0.0000000   2.7928460   2.7928460   2.7928460   2.7928460   2.7928460   2.7928460
 AtZNuc=   6.0000000   6.0000000   6.0000000   6.0000000   1.0000000   1.0000000   1.0000000   1.0000000   1.0000000   1.0000000

  Atom        81          82          83          84          85          86          87          88          89          90
 IAtWgt=           1           1           1           1           1          12          12          12          12          12
 AtmWgt=   1.0078250   1.0078250   1.0078250   1.0078250   1.0078250  12.0000000  12.0000000  12.0000000  12.0000000  12.0000000
 NucSpn=           1           1           1           1           1           0           0           0           0           0
 AtZEff=  -0.0000000  -0.0000000  -0.0000000  -0.0000000  -0.0000000  -0.0000000  -0.0000000  -0.0000000  -0.0000000  -0.0000000
 NQMom=    0.0000000   0.0000000   0.0000000   0.0000000   0.0000000   0.0000000   0.0000000   0.0000000   0.0000000   0.0000000
 NMagM=    2.7928460   2.7928460   2.7928460   2.7928460   2.7928460   0.0000000   0.0000000   0.0000000   0.0000000   0.0000000
 AtZNuc=   1.0000000   1.0000000   1.0000000   1.0000000   1.0000000   6.0000000   6.0000000   6.0000000   6.0000000   6.0000000

  Atom        91          92          93          94          95          96          97          98
 IAtWgt=          12           1           1           1           1           1          12          12
 AtmWgt=  12.0000000   1.0078250   1.0078250   1.0078250   1.0078250   1.0078250  12.0000000  12.0000000
 NucSpn=           0           1           1           1           1           1           0           0
 AtZEff=  -0.0000000  -0.0000000  -0.0000000  -0.0000000  -0.0000000  -0.0000000  -0.0000000  -0.0000000
 NQMom=    0.0000000   0.0000000   0.0000000   0.0000000   0.0000000   0.0000000   0.0000000   0.0000000
 NMagM=    0.0000000   2.7928460   2.7928460   2.7928460   2.7928460   2.7928460   0.0000000   0.0000000
 AtZNuc=   6.0000000   1.0000000   1.0000000   1.0000000   1.0000000   1.0000000   6.0000000   6.0000000
 Leave Link  101 at Thu May 23 05:39:40 2024, MaxMem= 16106127360 cpu:               4.6 elap:               0.2
 (Enter /public/software/apps/Gaussian/g16/l103.exe)

 GradGradGradGradGradGradGradGradGradGradGradGradGradGradGradGradGradGrad
 Berny optimization.
 Initialization pass.
                           ----------------------------
                           !    Initial Parameters    !
                           ! (Angstroms and Degrees)  !
 --------------------------                            --------------------------
 ! Name  Definition              Value          Derivative Info.                !
 --------------------------------------------------------------------------------
 ! R1    R(1,3)                  1.3            calculate D2E/DX2 analytically  !
 ! R2    R(1,91)                 1.7785         calculate D2E/DX2 analytically  !
 ! R3    R(2,61)                 1.3499         calculate D2E/DX2 analytically  !
 ! R4    R(2,63)                 1.4554         calculate D2E/DX2 analytically  !
 ! R5    R(2,75)                 1.0844         calculate D2E/DX2 analytically  !
 ! R6    R(3,36)                 1.7724         calculate D2E/DX2 analytically  !
 ! R7    R(4,5)                  1.4231         calculate D2E/DX2 analytically  !
 ! R8    R(4,33)                 1.3843         calculate D2E/DX2 analytically  !
 ! R9    R(4,98)                 1.3843         calculate D2E/DX2 analytically  !
 ! R10   R(5,6)                  1.3798         calculate D2E/DX2 analytically  !
 ! R11   R(5,28)                 1.4837         calculate D2E/DX2 analytically  !
 ! R12   R(6,38)                 1.0865         calculate D2E/DX2 analytically  !
 ! R13   R(6,97)                 1.4156         calculate D2E/DX2 analytically  !
 ! R14   R(7,8)                  1.3745         calculate D2E/DX2 analytically  !
 ! R15   R(7,39)                 1.0871         calculate D2E/DX2 analytically  !
 ! R16   R(7,97)                 1.4199         calculate D2E/DX2 analytically  !
 ! R17   R(8,9)                  1.4136         calculate D2E/DX2 analytically  !
 ! R18   R(8,40)                 1.0862         calculate D2E/DX2 analytically  !
 ! R19   R(9,10)                 1.3765         calculate D2E/DX2 analytically  !
 ! R20   R(9,41)                 1.0863         calculate D2E/DX2 analytically  !
 ! R21   R(10,42)                1.0825         calculate D2E/DX2 analytically  !
 ! R22   R(10,62)                1.4208         calculate D2E/DX2 analytically  !
 ! R23   R(11,12)                1.4313         calculate D2E/DX2 analytically  !
 ! R24   R(11,16)                1.4329         calculate D2E/DX2 analytically  !
 ! R25   R(11,17)                1.4203         calculate D2E/DX2 analytically  !
 ! R26   R(12,13)                1.4147         calculate D2E/DX2 analytically  !
 ! R27   R(12,20)                1.4203         calculate D2E/DX2 analytically  !
 ! R28   R(13,14)                1.3828         calculate D2E/DX2 analytically  !
 ! R29   R(13,43)                1.0858         calculate D2E/DX2 analytically  !
 ! R30   R(14,15)                1.4276         calculate D2E/DX2 analytically  !
 ! R31   R(14,22)                1.4853         calculate D2E/DX2 analytically  !
 ! R32   R(15,16)                1.3875         calculate D2E/DX2 analytically  !
 ! R33   R(15,34)                1.3782         calculate D2E/DX2 analytically  !
 ! R34   R(16,98)                1.4908         calculate D2E/DX2 analytically  !
 ! R35   R(17,18)                1.3764         calculate D2E/DX2 analytically  !
 ! R36   R(17,44)                1.0835         calculate D2E/DX2 analytically  !
 ! R37   R(18,19)                1.4142         calculate D2E/DX2 analytically  !
 ! R38   R(18,45)                1.0863         calculate D2E/DX2 analytically  !
 ! R39   R(19,20)                1.3747         calculate D2E/DX2 analytically  !
 ! R40   R(19,46)                1.0862         calculate D2E/DX2 analytically  !
 ! R41   R(20,47)                1.0872         calculate D2E/DX2 analytically  !
 ! R42   R(21,22)                1.405          calculate D2E/DX2 analytically  !
 ! R43   R(21,26)                1.3918         calculate D2E/DX2 analytically  !
 ! R44   R(21,54)                1.085          calculate D2E/DX2 analytically  !
 ! R45   R(22,23)                1.4066         calculate D2E/DX2 analytically  !
 ! R46   R(23,24)                1.3934         calculate D2E/DX2 analytically  !
 ! R47   R(23,51)                1.0818         calculate D2E/DX2 analytically  !
 ! R48   R(24,25)                1.3949         calculate D2E/DX2 analytically  !
 ! R49   R(24,52)                1.0865         calculate D2E/DX2 analytically  !
 ! R50   R(25,26)                1.3938         calculate D2E/DX2 analytically  !
 ! R51   R(25,50)                1.086          calculate D2E/DX2 analytically  !
 ! R52   R(26,53)                1.085          calculate D2E/DX2 analytically  !
 ! R53   R(27,28)                1.4028         calculate D2E/DX2 analytically  !
 ! R54   R(27,32)                1.3938         calculate D2E/DX2 analytically  !
 ! R55   R(27,55)                1.0859         calculate D2E/DX2 analytically  !
 ! R56   R(28,29)                1.4032         calculate D2E/DX2 analytically  !
 ! R57   R(29,30)                1.3932         calculate D2E/DX2 analytically  !
 ! R58   R(29,56)                1.0839         calculate D2E/DX2 analytically  !
 ! R59   R(30,31)                1.3967         calculate D2E/DX2 analytically  !
 ! R60   R(30,57)                1.0869         calculate D2E/DX2 analytically  !
 ! R61   R(31,32)                1.3947         calculate D2E/DX2 analytically  !
 ! R62   R(31,49)                1.0868         calculate D2E/DX2 analytically  !
 ! R63   R(32,58)                1.0868         calculate D2E/DX2 analytically  !
 ! R64   R(33,35)                1.6462         calculate D2E/DX2 analytically  !
 ! R65   R(34,35)                1.6538         calculate D2E/DX2 analytically  !
 ! R66   R(35,36)                1.502          calculate D2E/DX2 analytically  !
 ! R67   R(35,37)                1.5079         calculate D2E/DX2 analytically  !
 ! R68   R(37,48)                1.7274         calculate D2E/DX2 analytically  !
 ! R69   R(48,61)                1.0409         calculate D2E/DX2 analytically  !
 ! R70   R(59,60)                1.2217         calculate D2E/DX2 analytically  !
 ! R71   R(60,61)                1.4189         calculate D2E/DX2 analytically  !
 ! R72   R(60,69)                1.4849         calculate D2E/DX2 analytically  !
 ! R73   R(62,97)                1.4326         calculate D2E/DX2 analytically  !
 ! R74   R(62,98)                1.4364         calculate D2E/DX2 analytically  !
 ! R75   R(63,64)                1.406          calculate D2E/DX2 analytically  !
 ! R76   R(63,68)                1.4083         calculate D2E/DX2 analytically  !
 ! R77   R(64,65)                1.3892         calculate D2E/DX2 analytically  !
 ! R78   R(64,76)                1.0826         calculate D2E/DX2 analytically  !
 ! R79   R(65,66)                1.3967         calculate D2E/DX2 analytically  !
 ! R80   R(65,77)                1.0835         calculate D2E/DX2 analytically  !
 ! R81   R(66,67)                1.3957         calculate D2E/DX2 analytically  !
 ! R82   R(66,78)                1.0864         calculate D2E/DX2 analytically  !
 ! R83   R(67,68)                1.3891         calculate D2E/DX2 analytically  !
 ! R84   R(67,79)                1.0853         calculate D2E/DX2 analytically  !
 ! R85   R(68,80)                1.0854         calculate D2E/DX2 analytically  !
 ! R86   R(69,70)                1.4043         calculate D2E/DX2 analytically  !
 ! R87   R(69,74)                1.4018         calculate D2E/DX2 analytically  !
 ! R88   R(70,71)                1.3888         calculate D2E/DX2 analytically  !
 ! R89   R(70,81)                1.084          calculate D2E/DX2 analytically  !
 ! R90   R(71,72)                1.3978         calculate D2E/DX2 analytically  !
 ! R91   R(71,82)                1.0862         calculate D2E/DX2 analytically  !
 ! R92   R(72,73)                1.3938         calculate D2E/DX2 analytically  !
 ! R93   R(72,83)                1.0866         calculate D2E/DX2 analytically  !
 ! R94   R(73,74)                1.3941         calculate D2E/DX2 analytically  !
 ! R95   R(73,84)                1.0859         calculate D2E/DX2 analytically  !
 ! R96   R(74,85)                1.0836         calculate D2E/DX2 analytically  !
 ! R97   R(86,87)                1.3928         calculate D2E/DX2 analytically  !
 ! R98   R(86,91)                1.4011         calculate D2E/DX2 analytically  !
 ! R99   R(86,92)                1.0839         calculate D2E/DX2 analytically  !
 ! R100  R(87,88)                1.3953         calculate D2E/DX2 analytically  !
 ! R101  R(87,93)                1.086          calculate D2E/DX2 analytically  !
 ! R102  R(88,89)                1.3964         calculate D2E/DX2 analytically  !
 ! R103  R(88,94)                1.0862         calculate D2E/DX2 analytically  !
 ! R104  R(89,90)                1.3926         calculate D2E/DX2 analytically  !
 ! R105  R(89,95)                1.0862         calculate D2E/DX2 analytically  !
 ! R106  R(90,91)                1.4007         calculate D2E/DX2 analytically  !
 ! R107  R(90,96)                1.0865         calculate D2E/DX2 analytically  !
 ! A1    A(3,1,91)              95.9807         calculate D2E/DX2 analytically  !
 ! A2    A(61,2,63)            123.7194         calculate D2E/DX2 analytically  !
 ! A3    A(61,2,75)            112.3383         calculate D2E/DX2 analytically  !
 ! A4    A(63,2,75)            117.0624         calculate D2E/DX2 analytically  !
 ! A5    A(5,4,33)             118.0146         calculate D2E/DX2 analytically  !
 ! A6    A(5,4,98)             123.375          calculate D2E/DX2 analytically  !
 ! A7    A(33,4,98)            118.6058         calculate D2E/DX2 analytically  !
 ! A8    A(4,5,6)              117.5757         calculate D2E/DX2 analytically  !
 ! A9    A(4,5,28)             121.836          calculate D2E/DX2 analytically  !
 ! A10   A(6,5,28)             120.5854         calculate D2E/DX2 analytically  !
 ! A11   A(5,6,38)             119.2869         calculate D2E/DX2 analytically  !
 ! A12   A(5,6,97)             122.0158         calculate D2E/DX2 analytically  !
 ! A13   A(38,6,97)            118.6968         calculate D2E/DX2 analytically  !
 ! A14   A(8,7,39)             120.6049         calculate D2E/DX2 analytically  !
 ! A15   A(8,7,97)             120.9876         calculate D2E/DX2 analytically  !
 ! A16   A(39,7,97)            118.4034         calculate D2E/DX2 analytically  !
 ! A17   A(7,8,9)              119.7253         calculate D2E/DX2 analytically  !
 ! A18   A(7,8,40)             120.3234         calculate D2E/DX2 analytically  !
 ! A19   A(9,8,40)             119.9457         calculate D2E/DX2 analytically  !
 ! A20   A(8,9,10)             120.7111         calculate D2E/DX2 analytically  !
 ! A21   A(8,9,41)             119.6926         calculate D2E/DX2 analytically  !
 ! A22   A(10,9,41)            119.5955         calculate D2E/DX2 analytically  !
 ! A23   A(9,10,42)            119.7371         calculate D2E/DX2 analytically  !
 ! A24   A(9,10,62)            121.0773         calculate D2E/DX2 analytically  !
 ! A25   A(42,10,62)           119.1835         calculate D2E/DX2 analytically  !
 ! A26   A(12,11,16)           118.7467         calculate D2E/DX2 analytically  !
 ! A27   A(12,11,17)           118.3187         calculate D2E/DX2 analytically  !
 ! A28   A(16,11,17)           122.9263         calculate D2E/DX2 analytically  !
 ! A29   A(11,12,13)           119.4505         calculate D2E/DX2 analytically  !
 ! A30   A(11,12,20)           119.2457         calculate D2E/DX2 analytically  !
 ! A31   A(13,12,20)           121.3038         calculate D2E/DX2 analytically  !
 ! A32   A(12,13,14)           122.4712         calculate D2E/DX2 analytically  !
 ! A33   A(12,13,43)           118.1928         calculate D2E/DX2 analytically  !
 ! A34   A(14,13,43)           119.3345         calculate D2E/DX2 analytically  !
 ! A35   A(13,14,15)           116.9911         calculate D2E/DX2 analytically  !
 ! A36   A(13,14,22)           120.4804         calculate D2E/DX2 analytically  !
 ! A37   A(15,14,22)           122.5212         calculate D2E/DX2 analytically  !
 ! A38   A(14,15,16)           123.1853         calculate D2E/DX2 analytically  !
 ! A39   A(14,15,34)           118.1016         calculate D2E/DX2 analytically  !
 ! A40   A(16,15,34)           118.6395         calculate D2E/DX2 analytically  !
 ! A41   A(11,16,15)           118.7246         calculate D2E/DX2 analytically  !
 ! A42   A(11,16,98)           121.8341         calculate D2E/DX2 analytically  !
 ! A43   A(15,16,98)           119.44           calculate D2E/DX2 analytically  !
 ! A44   A(11,17,18)           120.9746         calculate D2E/DX2 analytically  !
 ! A45   A(11,17,44)           119.0139         calculate D2E/DX2 analytically  !
 ! A46   A(18,17,44)           120.0092         calculate D2E/DX2 analytically  !
 ! A47   A(17,18,19)           120.6288         calculate D2E/DX2 analytically  !
 ! A48   A(17,18,45)           119.6847         calculate D2E/DX2 analytically  !
 ! A49   A(19,18,45)           119.686          calculate D2E/DX2 analytically  !
 ! A50   A(18,19,20)           119.8314         calculate D2E/DX2 analytically  !
 ! A51   A(18,19,46)           119.8852         calculate D2E/DX2 analytically  !
 ! A52   A(20,19,46)           120.2802         calculate D2E/DX2 analytically  !
 ! A53   A(12,20,19)           120.9635         calculate D2E/DX2 analytically  !
 ! A54   A(12,20,47)           118.4496         calculate D2E/DX2 analytically  !
 ! A55   A(19,20,47)           120.5835         calculate D2E/DX2 analytically  !
 ! A56   A(22,21,26)           121.2516         calculate D2E/DX2 analytically  !
 ! A57   A(22,21,54)           119.4235         calculate D2E/DX2 analytically  !
 ! A58   A(26,21,54)           119.2988         calculate D2E/DX2 analytically  !
 ! A59   A(14,22,21)           119.6728         calculate D2E/DX2 analytically  !
 ! A60   A(14,22,23)           122.4093         calculate D2E/DX2 analytically  !
 ! A61   A(21,22,23)           117.8803         calculate D2E/DX2 analytically  !
 ! A62   A(22,23,24)           120.798          calculate D2E/DX2 analytically  !
 ! A63   A(22,23,51)           119.6584         calculate D2E/DX2 analytically  !
 ! A64   A(24,23,51)           119.5413         calculate D2E/DX2 analytically  !
 ! A65   A(23,24,25)           120.522          calculate D2E/DX2 analytically  !
 ! A66   A(23,24,52)           119.4093         calculate D2E/DX2 analytically  !
 ! A67   A(25,24,52)           120.0674         calculate D2E/DX2 analytically  !
 ! A68   A(24,25,26)           119.3262         calculate D2E/DX2 analytically  !
 ! A69   A(24,25,50)           120.2842         calculate D2E/DX2 analytically  !
 ! A70   A(26,25,50)           120.3831         calculate D2E/DX2 analytically  !
 ! A71   A(21,26,25)           120.2098         calculate D2E/DX2 analytically  !
 ! A72   A(21,26,53)           119.5359         calculate D2E/DX2 analytically  !
 ! A73   A(25,26,53)           120.2145         calculate D2E/DX2 analytically  !
 ! A74   A(28,27,32)           120.8761         calculate D2E/DX2 analytically  !
 ! A75   A(28,27,55)           119.0576         calculate D2E/DX2 analytically  !
 ! A76   A(32,27,55)           120.0582         calculate D2E/DX2 analytically  !
 ! A77   A(5,28,27)            119.7612         calculate D2E/DX2 analytically  !
 ! A78   A(5,28,29)            121.6518         calculate D2E/DX2 analytically  !
 ! A79   A(27,28,29)           118.5396         calculate D2E/DX2 analytically  !
 ! A80   A(28,29,30)           120.5485         calculate D2E/DX2 analytically  !
 ! A81   A(28,29,56)           119.4385         calculate D2E/DX2 analytically  !
 ! A82   A(30,29,56)           120.0073         calculate D2E/DX2 analytically  !
 ! A83   A(29,30,31)           120.4025         calculate D2E/DX2 analytically  !
 ! A84   A(29,30,57)           119.5355         calculate D2E/DX2 analytically  !
 ! A85   A(31,30,57)           120.061          calculate D2E/DX2 analytically  !
 ! A86   A(30,31,32)           119.5079         calculate D2E/DX2 analytically  !
 ! A87   A(30,31,49)           120.2308         calculate D2E/DX2 analytically  !
 ! A88   A(32,31,49)           120.261          calculate D2E/DX2 analytically  !
 ! A89   A(27,32,31)           120.1079         calculate D2E/DX2 analytically  !
 ! A90   A(27,32,58)           119.7481         calculate D2E/DX2 analytically  !
 ! A91   A(31,32,58)           120.1432         calculate D2E/DX2 analytically  !
 ! A92   A(4,33,35)            116.8691         calculate D2E/DX2 analytically  !
 ! A93   A(15,34,35)           121.3067         calculate D2E/DX2 analytically  !
 ! A94   A(33,35,34)           100.504          calculate D2E/DX2 analytically  !
 ! A95   A(33,35,36)           112.7346         calculate D2E/DX2 analytically  !
 ! A96   A(33,35,37)           105.4519         calculate D2E/DX2 analytically  !
 ! A97   A(34,35,36)           104.325          calculate D2E/DX2 analytically  !
 ! A98   A(34,35,37)           112.4443         calculate D2E/DX2 analytically  !
 ! A99   A(36,35,37)           119.8218         calculate D2E/DX2 analytically  !
 ! A100  A(3,36,35)            112.1515         calculate D2E/DX2 analytically  !
 ! A101  A(35,37,48)           118.4945         calculate D2E/DX2 analytically  !
 ! A102  A(59,60,61)           119.5058         calculate D2E/DX2 analytically  !
 ! A103  A(59,60,69)           123.1192         calculate D2E/DX2 analytically  !
 ! A104  A(61,60,69)           117.1562         calculate D2E/DX2 analytically  !
 ! A105  A(2,61,48)            119.8395         calculate D2E/DX2 analytically  !
 ! A106  A(2,61,60)            118.629          calculate D2E/DX2 analytically  !
 ! A107  A(48,61,60)           120.8946         calculate D2E/DX2 analytically  !
 ! A108  A(10,62,97)           118.0406         calculate D2E/DX2 analytically  !
 ! A109  A(10,62,98)           123.082          calculate D2E/DX2 analytically  !
 ! A110  A(97,62,98)           118.8458         calculate D2E/DX2 analytically  !
 ! A111  A(2,63,64)            123.3902         calculate D2E/DX2 analytically  !
 ! A112  A(2,63,68)            117.1975         calculate D2E/DX2 analytically  !
 ! A113  A(64,63,68)           119.4075         calculate D2E/DX2 analytically  !
 ! A114  A(63,64,65)           119.7136         calculate D2E/DX2 analytically  !
 ! A115  A(63,64,76)           120.3603         calculate D2E/DX2 analytically  !
 ! A116  A(65,64,76)           119.9256         calculate D2E/DX2 analytically  !
 ! A117  A(64,65,66)           120.4714         calculate D2E/DX2 analytically  !
 ! A118  A(64,65,77)           119.2949         calculate D2E/DX2 analytically  !
 ! A119  A(66,65,77)           120.2183         calculate D2E/DX2 analytically  !
 ! A120  A(65,66,67)           120.2507         calculate D2E/DX2 analytically  !
 ! A121  A(65,66,78)           119.7843         calculate D2E/DX2 analytically  !
 ! A122  A(67,66,78)           119.9648         calculate D2E/DX2 analytically  !
 ! A123  A(66,67,68)           119.6274         calculate D2E/DX2 analytically  !
 ! A124  A(66,67,79)           120.5075         calculate D2E/DX2 analytically  !
 ! A125  A(68,67,79)           119.8581         calculate D2E/DX2 analytically  !
 ! A126  A(63,68,67)           120.524          calculate D2E/DX2 analytically  !
 ! A127  A(63,68,80)           119.4752         calculate D2E/DX2 analytically  !
 ! A128  A(67,68,80)           119.9986         calculate D2E/DX2 analytically  !
 ! A129  A(60,69,70)           116.0583         calculate D2E/DX2 analytically  !
 ! A130  A(60,69,74)           124.2838         calculate D2E/DX2 analytically  !
 ! A131  A(70,69,74)           119.6452         calculate D2E/DX2 analytically  !
 ! A132  A(69,70,71)           120.4018         calculate D2E/DX2 analytically  !
 ! A133  A(69,70,81)           118.4458         calculate D2E/DX2 analytically  !
 ! A134  A(71,70,81)           121.1514         calculate D2E/DX2 analytically  !
 ! A135  A(70,71,72)           119.8629         calculate D2E/DX2 analytically  !
 ! A136  A(70,71,82)           119.9182         calculate D2E/DX2 analytically  !
 ! A137  A(72,71,82)           120.2189         calculate D2E/DX2 analytically  !
 ! A138  A(71,72,73)           119.9144         calculate D2E/DX2 analytically  !
 ! A139  A(71,72,83)           120.0105         calculate D2E/DX2 analytically  !
 ! A140  A(73,72,83)           120.075          calculate D2E/DX2 analytically  !
 ! A141  A(72,73,74)           120.5995         calculate D2E/DX2 analytically  !
 ! A142  A(72,73,84)           120.2159         calculate D2E/DX2 analytically  !
 ! A143  A(74,73,84)           119.1842         calculate D2E/DX2 analytically  !
 ! A144  A(69,74,73)           119.5699         calculate D2E/DX2 analytically  !
 ! A145  A(69,74,85)           121.5518         calculate D2E/DX2 analytically  !
 ! A146  A(73,74,85)           118.8526         calculate D2E/DX2 analytically  !
 ! A147  A(87,86,91)           118.9154         calculate D2E/DX2 analytically  !
 ! A148  A(87,86,92)           121.0493         calculate D2E/DX2 analytically  !
 ! A149  A(91,86,92)           120.0273         calculate D2E/DX2 analytically  !
 ! A150  A(86,87,88)           120.7575         calculate D2E/DX2 analytically  !
 ! A151  A(86,87,93)           118.9903         calculate D2E/DX2 analytically  !
 ! A152  A(88,87,93)           120.2477         calculate D2E/DX2 analytically  !
 ! A153  A(87,88,89)           119.8959         calculate D2E/DX2 analytically  !
 ! A154  A(87,88,94)           120.1643         calculate D2E/DX2 analytically  !
 ! A155  A(89,88,94)           119.9397         calculate D2E/DX2 analytically  !
 ! A156  A(88,89,90)           120.1373         calculate D2E/DX2 analytically  !
 ! A157  A(88,89,95)           120.2273         calculate D2E/DX2 analytically  !
 ! A158  A(90,89,95)           119.6354         calculate D2E/DX2 analytically  !
 ! A159  A(89,90,91)           119.5234         calculate D2E/DX2 analytically  !
 ! A160  A(89,90,96)           120.3471         calculate D2E/DX2 analytically  !
 ! A161  A(91,90,96)           120.1295         calculate D2E/DX2 analytically  !
 ! A162  A(1,91,86)            120.9258         calculate D2E/DX2 analytically  !
 ! A163  A(1,91,90)            118.21           calculate D2E/DX2 analytically  !
 ! A164  A(86,91,90)           120.7686         calculate D2E/DX2 analytically  !
 ! A165  A(6,97,7)             121.0467         calculate D2E/DX2 analytically  !
 ! A166  A(6,97,62)            119.5463         calculate D2E/DX2 analytically  !
 ! A167  A(7,97,62)            119.396          calculate D2E/DX2 analytically  !
 ! A168  A(4,98,16)            119.8669         calculate D2E/DX2 analytically  !
 ! A169  A(4,98,62)            118.523          calculate D2E/DX2 analytically  !
 ! A170  A(16,98,62)           121.4791         calculate D2E/DX2 analytically  !
 ! A171  L(1,3,36,21,-1)       192.2443         calculate D2E/DX2 analytically  !
 ! A172  L(37,48,61,3,-1)      168.5442         calculate D2E/DX2 analytically  !
 ! A173  L(1,3,36,21,-2)       171.951          calculate D2E/DX2 analytically  !
 ! A174  L(37,48,61,3,-2)      185.9836         calculate D2E/DX2 analytically  !
 ! D1    D(91,1,36,35)        -168.166          calculate D2E/DX2 analytically  !
 ! D2    D(3,1,91,86)            6.634          calculate D2E/DX2 analytically  !
 ! D3    D(3,1,91,90)         -176.8951         calculate D2E/DX2 analytically  !
 ! D4    D(63,2,61,48)          33.6384         calculate D2E/DX2 analytically  !
 ! D5    D(63,2,61,60)        -155.4257         calculate D2E/DX2 analytically  !
 ! D6    D(75,2,61,48)        -176.4099         calculate D2E/DX2 analytically  !
 ! D7    D(75,2,61,60)          -5.474          calculate D2E/DX2 analytically  !
 ! D8    D(61,2,63,64)         -18.1439         calculate D2E/DX2 analytically  !
 ! D9    D(61,2,63,68)         162.6631         calculate D2E/DX2 analytically  !
 ! D10   D(75,2,63,64)        -166.8051         calculate D2E/DX2 analytically  !
 ! D11   D(75,2,63,68)          14.0019         calculate D2E/DX2 analytically  !
 ! D12   D(33,4,5,6)           179.1548         calculate D2E/DX2 analytically  !
 ! D13   D(33,4,5,28)           -0.2246         calculate D2E/DX2 analytically  !
 ! D14   D(98,4,5,6)            -0.0552         calculate D2E/DX2 analytically  !
 ! D15   D(98,4,5,28)         -179.4345         calculate D2E/DX2 analytically  !
 ! D16   D(5,4,33,35)         -101.7412         calculate D2E/DX2 analytically  !
 ! D17   D(98,4,33,35)          77.5073         calculate D2E/DX2 analytically  !
 ! D18   D(5,4,98,16)          178.8814         calculate D2E/DX2 analytically  !
 ! D19   D(5,4,98,62)            2.9794         calculate D2E/DX2 analytically  !
 ! D20   D(33,4,98,16)          -0.3242         calculate D2E/DX2 analytically  !
 ! D21   D(33,4,98,62)        -176.2261         calculate D2E/DX2 analytically  !
 ! D22   D(4,5,6,38)           178.3329         calculate D2E/DX2 analytically  !
 ! D23   D(4,5,6,97)            -1.9255         calculate D2E/DX2 analytically  !
 ! D24   D(28,5,6,38)           -2.2796         calculate D2E/DX2 analytically  !
 ! D25   D(28,5,6,97)          177.462          calculate D2E/DX2 analytically  !
 ! D26   D(4,5,28,27)          133.4654         calculate D2E/DX2 analytically  !
 ! D27   D(4,5,28,29)          -49.0764         calculate D2E/DX2 analytically  !
 ! D28   D(6,5,28,27)          -45.8955         calculate D2E/DX2 analytically  !
 ! D29   D(6,5,28,29)          131.5626         calculate D2E/DX2 analytically  !
 ! D30   D(5,6,97,7)          -177.8953         calculate D2E/DX2 analytically  !
 ! D31   D(5,6,97,62)            0.892          calculate D2E/DX2 analytically  !
 ! D32   D(38,6,97,7)            1.8477         calculate D2E/DX2 analytically  !
 ! D33   D(38,6,97,62)        -179.3649         calculate D2E/DX2 analytically  !
 ! D34   D(39,7,8,9)           178.6871         calculate D2E/DX2 analytically  !
 ! D35   D(39,7,8,40)           -0.451          calculate D2E/DX2 analytically  !
 ! D36   D(97,7,8,9)            -0.5671         calculate D2E/DX2 analytically  !
 ! D37   D(97,7,8,40)         -179.7052         calculate D2E/DX2 analytically  !
 ! D38   D(8,7,97,6)           177.2568         calculate D2E/DX2 analytically  !
 ! D39   D(8,7,97,62)           -1.5323         calculate D2E/DX2 analytically  !
 ! D40   D(39,7,97,6)           -2.0134         calculate D2E/DX2 analytically  !
 ! D41   D(39,7,97,62)         179.1975         calculate D2E/DX2 analytically  !
 ! D42   D(7,8,9,10)             1.2875         calculate D2E/DX2 analytically  !
 ! D43   D(7,8,9,41)          -178.3769         calculate D2E/DX2 analytically  !
 ! D44   D(40,8,9,10)         -179.5711         calculate D2E/DX2 analytically  !
 ! D45   D(40,8,9,41)            0.7645         calculate D2E/DX2 analytically  !
 ! D46   D(8,9,10,42)         -179.3211         calculate D2E/DX2 analytically  !
 ! D47   D(8,9,10,62)            0.1424         calculate D2E/DX2 analytically  !
 ! D48   D(41,9,10,42)           0.3437         calculate D2E/DX2 analytically  !
 ! D49   D(41,9,10,62)         179.8071         calculate D2E/DX2 analytically  !
 ! D50   D(9,10,62,97)          -2.2064         calculate D2E/DX2 analytically  !
 ! D51   D(9,10,62,98)         179.8641         calculate D2E/DX2 analytically  !
 ! D52   D(42,10,62,97)        177.26           calculate D2E/DX2 analytically  !
 ! D53   D(42,10,62,98)         -0.6695         calculate D2E/DX2 analytically  !
 ! D54   D(16,11,12,13)          1.2382         calculate D2E/DX2 analytically  !
 ! D55   D(16,11,12,20)       -178.7726         calculate D2E/DX2 analytically  !
 ! D56   D(17,11,12,13)       -177.7467         calculate D2E/DX2 analytically  !
 ! D57   D(17,11,12,20)          2.2426         calculate D2E/DX2 analytically  !
 ! D58   D(12,11,16,15)         -6.35           calculate D2E/DX2 analytically  !
 ! D59   D(12,11,16,98)        173.2329         calculate D2E/DX2 analytically  !
 ! D60   D(17,11,16,15)        172.5854         calculate D2E/DX2 analytically  !
 ! D61   D(17,11,16,98)         -7.8317         calculate D2E/DX2 analytically  !
 ! D62   D(12,11,17,18)         -1.4969         calculate D2E/DX2 analytically  !
 ! D63   D(12,11,17,44)        177.9423         calculate D2E/DX2 analytically  !
 ! D64   D(16,11,17,18)        179.5634         calculate D2E/DX2 analytically  !
 ! D65   D(16,11,17,44)         -0.9973         calculate D2E/DX2 analytically  !
 ! D66   D(11,12,13,14)          3.2025         calculate D2E/DX2 analytically  !
 ! D67   D(11,12,13,43)       -176.3512         calculate D2E/DX2 analytically  !
 ! D68   D(20,12,13,14)       -176.7865         calculate D2E/DX2 analytically  !
 ! D69   D(20,12,13,43)          3.6598         calculate D2E/DX2 analytically  !
 ! D70   D(11,12,20,19)         -1.3894         calculate D2E/DX2 analytically  !
 ! D71   D(11,12,20,47)        179.268          calculate D2E/DX2 analytically  !
 ! D72   D(13,12,20,19)        178.5996         calculate D2E/DX2 analytically  !
 ! D73   D(13,12,20,47)         -0.743          calculate D2E/DX2 analytically  !
 ! D74   D(12,13,14,15)         -2.33           calculate D2E/DX2 analytically  !
 ! D75   D(12,13,14,22)        178.6228         calculate D2E/DX2 analytically  !
 ! D76   D(43,13,14,15)        177.2188         calculate D2E/DX2 analytically  !
 ! D77   D(43,13,14,22)         -1.8284         calculate D2E/DX2 analytically  !
 ! D78   D(13,14,15,16)         -3.1689         calculate D2E/DX2 analytically  !
 ! D79   D(13,14,15,34)        179.9991         calculate D2E/DX2 analytically  !
 ! D80   D(22,14,15,16)        175.8573         calculate D2E/DX2 analytically  !
 ! D81   D(22,14,15,34)         -0.9747         calculate D2E/DX2 analytically  !
 ! D82   D(13,14,22,21)        -33.5154         calculate D2E/DX2 analytically  !
 ! D83   D(13,14,22,23)        144.2072         calculate D2E/DX2 analytically  !
 ! D84   D(15,14,22,21)        147.4914         calculate D2E/DX2 analytically  !
 ! D85   D(15,14,22,23)        -34.786          calculate D2E/DX2 analytically  !
 ! D86   D(14,15,16,11)          7.5105         calculate D2E/DX2 analytically  !
 ! D87   D(14,15,16,98)       -172.0826         calculate D2E/DX2 analytically  !
 ! D88   D(34,15,16,11)       -175.6736         calculate D2E/DX2 analytically  !
 ! D89   D(34,15,16,98)          4.7333         calculate D2E/DX2 analytically  !
 ! D90   D(14,15,34,35)       -112.0385         calculate D2E/DX2 analytically  !
 ! D91   D(16,15,34,35)         70.9823         calculate D2E/DX2 analytically  !
 ! D92   D(11,16,98,4)         125.6112         calculate D2E/DX2 analytically  !
 ! D93   D(11,16,98,62)        -58.6111         calculate D2E/DX2 analytically  !
 ! D94   D(15,16,98,4)         -54.8089         calculate D2E/DX2 analytically  !
 ! D95   D(15,16,98,62)        120.9689         calculate D2E/DX2 analytically  !
 ! D96   D(11,17,18,19)         -0.1545         calculate D2E/DX2 analytically  !
 ! D97   D(11,17,18,45)        179.5985         calculate D2E/DX2 analytically  !
 ! D98   D(44,17,18,19)       -179.5882         calculate D2E/DX2 analytically  !
 ! D99   D(44,17,18,45)          0.1648         calculate D2E/DX2 analytically  !
 ! D100  D(17,18,19,20)          1.069          calculate D2E/DX2 analytically  !
 ! D101  D(17,18,19,46)       -179.5802         calculate D2E/DX2 analytically  !
 ! D102  D(45,18,19,20)       -178.684          calculate D2E/DX2 analytically  !
 ! D103  D(45,18,19,46)          0.6668         calculate D2E/DX2 analytically  !
 ! D104  D(18,19,20,12)         -0.2758         calculate D2E/DX2 analytically  !
 ! D105  D(18,19,20,47)        179.0528         calculate D2E/DX2 analytically  !
 ! D106  D(46,19,20,12)       -179.624          calculate D2E/DX2 analytically  !
 ! D107  D(46,19,20,47)         -0.2954         calculate D2E/DX2 analytically  !
 ! D108  D(26,21,22,14)        177.0726         calculate D2E/DX2 analytically  !
 ! D109  D(26,21,22,23)         -0.7523         calculate D2E/DX2 analytically  !
 ! D110  D(54,21,22,14)         -4.7983         calculate D2E/DX2 analytically  !
 ! D111  D(54,21,22,23)        177.3768         calculate D2E/DX2 analytically  !
 ! D112  D(22,21,26,25)          1.2734         calculate D2E/DX2 analytically  !
 ! D113  D(22,21,26,53)        178.9859         calculate D2E/DX2 analytically  !
 ! D114  D(54,21,26,25)       -176.858          calculate D2E/DX2 analytically  !
 ! D115  D(54,21,26,53)          0.8545         calculate D2E/DX2 analytically  !
 ! D116  D(14,22,23,24)       -177.9972         calculate D2E/DX2 analytically  !
 ! D117  D(14,22,23,51)          1.4452         calculate D2E/DX2 analytically  !
 ! D118  D(21,22,23,24)         -0.2358         calculate D2E/DX2 analytically  !
 ! D119  D(21,22,23,51)        179.2066         calculate D2E/DX2 analytically  !
 ! D120  D(22,23,24,25)          0.7103         calculate D2E/DX2 analytically  !
 ! D121  D(22,23,24,52)       -179.7056         calculate D2E/DX2 analytically  !
 ! D122  D(51,23,24,25)       -178.7329         calculate D2E/DX2 analytically  !
 ! D123  D(51,23,24,52)          0.8512         calculate D2E/DX2 analytically  !
 ! D124  D(23,24,25,26)         -0.1973         calculate D2E/DX2 analytically  !
 ! D125  D(23,24,25,50)       -179.275          calculate D2E/DX2 analytically  !
 ! D126  D(52,24,25,26)       -179.7787         calculate D2E/DX2 analytically  !
 ! D127  D(52,24,25,50)          1.1437         calculate D2E/DX2 analytically  !
 ! D128  D(24,25,26,21)         -0.7826         calculate D2E/DX2 analytically  !
 ! D129  D(24,25,26,53)       -178.4795         calculate D2E/DX2 analytically  !
 ! D130  D(50,25,26,21)        178.2941         calculate D2E/DX2 analytically  !
 ! D131  D(50,25,26,53)          0.5972         calculate D2E/DX2 analytically  !
 ! D132  D(32,27,28,5)         176.6554         calculate D2E/DX2 analytically  !
 ! D133  D(32,27,28,29)         -0.8816         calculate D2E/DX2 analytically  !
 ! D134  D(55,27,28,5)          -4.3789         calculate D2E/DX2 analytically  !
 ! D135  D(55,27,28,29)        178.0841         calculate D2E/DX2 analytically  !
 ! D136  D(28,27,32,31)         -0.2825         calculate D2E/DX2 analytically  !
 ! D137  D(28,27,32,58)       -179.9727         calculate D2E/DX2 analytically  !
 ! D138  D(55,27,32,31)       -179.2379         calculate D2E/DX2 analytically  !
 ! D139  D(55,27,32,58)          1.0719         calculate D2E/DX2 analytically  !
 ! D140  D(5,28,29,30)        -175.9738         calculate D2E/DX2 analytically  !
 ! D141  D(5,28,29,56)           3.1599         calculate D2E/DX2 analytically  !
 ! D142  D(27,28,29,30)          1.5144         calculate D2E/DX2 analytically  !
 ! D143  D(27,28,29,56)       -179.3519         calculate D2E/DX2 analytically  !
 ! D144  D(28,29,30,31)         -0.9923         calculate D2E/DX2 analytically  !
 ! D145  D(28,29,30,57)        178.6369         calculate D2E/DX2 analytically  !
 ! D146  D(56,29,30,31)        179.8788         calculate D2E/DX2 analytically  !
 ! D147  D(56,29,30,57)         -0.4919         calculate D2E/DX2 analytically  !
 ! D148  D(29,30,31,32)         -0.1943         calculate D2E/DX2 analytically  !
 ! D149  D(29,30,31,49)        179.9858         calculate D2E/DX2 analytically  !
 ! D150  D(57,30,31,32)       -179.8216         calculate D2E/DX2 analytically  !
 ! D151  D(57,30,31,49)          0.3585         calculate D2E/DX2 analytically  !
 ! D152  D(30,31,32,27)          0.8267         calculate D2E/DX2 analytically  !
 ! D153  D(30,31,32,58)       -179.4843         calculate D2E/DX2 analytically  !
 ! D154  D(49,31,32,27)       -179.3534         calculate D2E/DX2 analytically  !
 ! D155  D(49,31,32,58)          0.3356         calculate D2E/DX2 analytically  !
 ! D156  D(4,33,35,34)         -49.4477         calculate D2E/DX2 analytically  !
 ! D157  D(4,33,35,36)          61.0719         calculate D2E/DX2 analytically  !
 ! D158  D(4,33,35,37)        -166.455          calculate D2E/DX2 analytically  !
 ! D159  D(15,34,35,33)        -44.0757         calculate D2E/DX2 analytically  !
 ! D160  D(15,34,35,36)       -161.0126         calculate D2E/DX2 analytically  !
 ! D161  D(15,34,35,37)         67.6256         calculate D2E/DX2 analytically  !
 ! D162  D(33,35,36,3)        -176.1962         calculate D2E/DX2 analytically  !
 ! D163  D(34,35,36,3)         -68.0764         calculate D2E/DX2 analytically  !
 ! D164  D(37,35,36,3)          58.8334         calculate D2E/DX2 analytically  !
 ! D165  D(33,35,37,48)       -158.1909         calculate D2E/DX2 analytically  !
 ! D166  D(34,35,37,48)         93.2172         calculate D2E/DX2 analytically  !
 ! D167  D(36,35,37,48)        -29.8306         calculate D2E/DX2 analytically  !
 ! D168  D(35,37,61,2)          44.6582         calculate D2E/DX2 analytically  !
 ! D169  D(35,37,61,60)       -116.9331         calculate D2E/DX2 analytically  !
 ! D170  D(59,60,61,2)          -8.6653         calculate D2E/DX2 analytically  !
 ! D171  D(59,60,61,48)        162.1714         calculate D2E/DX2 analytically  !
 ! D172  D(69,60,61,2)         166.1278         calculate D2E/DX2 analytically  !
 ! D173  D(69,60,61,48)        -23.0355         calculate D2E/DX2 analytically  !
 ! D174  D(59,60,69,70)          8.2917         calculate D2E/DX2 analytically  !
 ! D175  D(59,60,69,74)       -173.0167         calculate D2E/DX2 analytically  !
 ! D176  D(61,60,69,70)       -166.2971         calculate D2E/DX2 analytically  !
 ! D177  D(61,60,69,74)         12.3945         calculate D2E/DX2 analytically  !
 ! D178  D(10,62,97,6)        -175.9367         calculate D2E/DX2 analytically  !
 ! D179  D(10,62,97,7)           2.8709         calculate D2E/DX2 analytically  !
 ! D180  D(98,62,97,6)           2.0827         calculate D2E/DX2 analytically  !
 ! D181  D(98,62,97,7)        -179.1098         calculate D2E/DX2 analytically  !
 ! D182  D(10,62,98,4)         173.9992         calculate D2E/DX2 analytically  !
 ! D183  D(10,62,98,16)         -1.8337         calculate D2E/DX2 analytically  !
 ! D184  D(97,62,98,4)          -3.9145         calculate D2E/DX2 analytically  !
 ! D185  D(97,62,98,16)       -179.7473         calculate D2E/DX2 analytically  !
 ! D186  D(2,63,64,65)        -178.6741         calculate D2E/DX2 analytically  !
 ! D187  D(2,63,64,76)           1.0793         calculate D2E/DX2 analytically  !
 ! D188  D(68,63,64,65)          0.502          calculate D2E/DX2 analytically  !
 ! D189  D(68,63,64,76)       -179.7446         calculate D2E/DX2 analytically  !
 ! D190  D(2,63,68,67)         178.9301         calculate D2E/DX2 analytically  !
 ! D191  D(2,63,68,80)          -0.5269         calculate D2E/DX2 analytically  !
 ! D192  D(64,63,68,67)         -0.2965         calculate D2E/DX2 analytically  !
 ! D193  D(64,63,68,80)       -179.7534         calculate D2E/DX2 analytically  !
 ! D194  D(63,64,65,66)         -0.0494         calculate D2E/DX2 analytically  !
 ! D195  D(63,64,65,77)        178.5234         calculate D2E/DX2 analytically  !
 ! D196  D(76,64,65,66)       -179.8039         calculate D2E/DX2 analytically  !
 ! D197  D(76,64,65,77)         -1.2311         calculate D2E/DX2 analytically  !
 ! D198  D(64,65,66,67)         -0.6179         calculate D2E/DX2 analytically  !
 ! D199  D(64,65,66,78)        179.2158         calculate D2E/DX2 analytically  !
 ! D200  D(77,65,66,67)       -179.1775         calculate D2E/DX2 analytically  !
 ! D201  D(77,65,66,78)          0.6561         calculate D2E/DX2 analytically  !
 ! D202  D(65,66,67,68)          0.8211         calculate D2E/DX2 analytically  !
 ! D203  D(65,66,67,79)        179.8498         calculate D2E/DX2 analytically  !
 ! D204  D(78,66,67,68)       -179.0122         calculate D2E/DX2 analytically  !
 ! D205  D(78,66,67,79)          0.0165         calculate D2E/DX2 analytically  !
 ! D206  D(66,67,68,63)         -0.3633         calculate D2E/DX2 analytically  !
 ! D207  D(66,67,68,80)        179.0908         calculate D2E/DX2 analytically  !
 ! D208  D(79,67,68,63)       -179.3984         calculate D2E/DX2 analytically  !
 ! D209  D(79,67,68,80)          0.0557         calculate D2E/DX2 analytically  !
 ! D210  D(60,69,70,71)        177.9248         calculate D2E/DX2 analytically  !
 ! D211  D(60,69,70,81)         -1.7223         calculate D2E/DX2 analytically  !
 ! D212  D(74,69,70,71)         -0.8313         calculate D2E/DX2 analytically  !
 ! D213  D(74,69,70,81)        179.5216         calculate D2E/DX2 analytically  !
 ! D214  D(60,69,74,73)       -178.3635         calculate D2E/DX2 analytically  !
 ! D215  D(60,69,74,85)          3.5043         calculate D2E/DX2 analytically  !
 ! D216  D(70,69,74,73)          0.284          calculate D2E/DX2 analytically  !
 ! D217  D(70,69,74,85)       -177.8481         calculate D2E/DX2 analytically  !
 ! D218  D(69,70,71,72)          0.6791         calculate D2E/DX2 analytically  !
 ! D219  D(69,70,71,82)       -179.3798         calculate D2E/DX2 analytically  !
 ! D220  D(81,70,71,72)       -179.6835         calculate D2E/DX2 analytically  !
 ! D221  D(81,70,71,82)          0.2576         calculate D2E/DX2 analytically  !
 ! D222  D(70,71,72,73)          0.0191         calculate D2E/DX2 analytically  !
 ! D223  D(70,71,72,83)        179.9039         calculate D2E/DX2 analytically  !
 ! D224  D(82,71,72,73)       -179.9218         calculate D2E/DX2 analytically  !
 ! D225  D(82,71,72,83)         -0.037          calculate D2E/DX2 analytically  !
 ! D226  D(71,72,73,74)         -0.5673         calculate D2E/DX2 analytically  !
 ! D227  D(71,72,73,84)        179.1842         calculate D2E/DX2 analytically  !
 ! D228  D(83,72,73,74)        179.548          calculate D2E/DX2 analytically  !
 ! D229  D(83,72,73,84)         -0.7006         calculate D2E/DX2 analytically  !
 ! D230  D(72,73,74,69)          0.4116         calculate D2E/DX2 analytically  !
 ! D231  D(72,73,74,85)        178.5943         calculate D2E/DX2 analytically  !
 ! D232  D(84,73,74,69)       -179.3424         calculate D2E/DX2 analytically  !
 ! D233  D(84,73,74,85)         -1.1597         calculate D2E/DX2 analytically  !
 ! D234  D(91,86,87,88)         -0.1993         calculate D2E/DX2 analytically  !
 ! D235  D(91,86,87,93)       -179.4403         calculate D2E/DX2 analytically  !
 ! D236  D(92,86,87,88)        178.7711         calculate D2E/DX2 analytically  !
 ! D237  D(92,86,87,93)         -0.4699         calculate D2E/DX2 analytically  !
 ! D238  D(87,86,91,1)         176.1709         calculate D2E/DX2 analytically  !
 ! D239  D(87,86,91,90)         -0.2097         calculate D2E/DX2 analytically  !
 ! D240  D(92,86,91,1)          -2.8103         calculate D2E/DX2 analytically  !
 ! D241  D(92,86,91,90)       -179.1909         calculate D2E/DX2 analytically  !
 ! D242  D(86,87,88,89)          0.4492         calculate D2E/DX2 analytically  !
 ! D243  D(86,87,88,94)       -179.7068         calculate D2E/DX2 analytically  !
 ! D244  D(93,87,88,89)        179.6806         calculate D2E/DX2 analytically  !
 ! D245  D(93,87,88,94)         -0.4753         calculate D2E/DX2 analytically  !
 ! D246  D(87,88,89,90)         -0.2889         calculate D2E/DX2 analytically  !
 ! D247  D(87,88,89,95)        179.627          calculate D2E/DX2 analytically  !
 ! D248  D(94,88,89,90)        179.8667         calculate D2E/DX2 analytically  !
 ! D249  D(94,88,89,95)         -0.2174         calculate D2E/DX2 analytically  !
 ! D250  D(88,89,90,91)         -0.1143         calculate D2E/DX2 analytically  !
 ! D251  D(88,89,90,96)        179.9492         calculate D2E/DX2 analytically  !
 ! D252  D(95,89,90,91)        179.9693         calculate D2E/DX2 analytically  !
 ! D253  D(95,89,90,96)          0.0328         calculate D2E/DX2 analytically  !
 ! D254  D(89,90,91,1)        -176.1106         calculate D2E/DX2 analytically  !
 ! D255  D(89,90,91,86)          0.3662         calculate D2E/DX2 analytically  !
 ! D256  D(96,90,91,1)           3.8261         calculate D2E/DX2 analytically  !
 ! D257  D(96,90,91,86)       -179.6971         calculate D2E/DX2 analytically  !
 --------------------------------------------------------------------------------
 Trust Radius=3.00D-01 FncErr=1.00D-07 GrdErr=1.00D-06 EigMax=2.50D+02 EigMin=1.00D-04
 Number of steps in this run=    200 maximum allowed number of steps=    588.
 Search for a saddle point of order  1.
 GradGradGradGradGradGradGradGradGradGradGradGradGradGradGradGradGradGrad

 Leave Link  103 at Thu May 23 05:39:40 2024, MaxMem= 16106127360 cpu:               0.4 elap:               0.0
 (Enter /public/software/apps/Gaussian/g16/l202.exe)
 Stoichiometry    C52H38NO5PS
 Framework group  C1[X(C52H38NO5PS)]
 Deg. of freedom   288
 Full point group                 C1      NOp   1
 Largest Abelian subgroup         C1      NOp   1
 Largest concise Abelian subgroup C1      NOp   1
                         Standard orientation:                         
 ---------------------------------------------------------------------
 Center     Atomic      Atomic             Coordinates (Angstroms)
 Number     Number       Type             X           Y           Z
 ---------------------------------------------------------------------
      1         16           0        2.973346    0.450549    1.959744
      2          6           0        3.704901    1.317454   -0.155274
      3          1           0        1.964850   -0.083690    1.337229
      4          6           0       -1.933332   -2.044106   -0.626718
      5          6           0       -1.552087   -3.414706   -0.662397
      6          6           0       -2.327957   -4.312084    0.042378
      7          6           0       -4.199512   -4.834089    1.565026
      8          6           0       -5.246068   -4.423894    2.356016
      9          6           0       -5.569266   -3.049965    2.433850
     10          6           0       -4.863691   -2.119420    1.705120
     11          6           0       -4.632040    0.377555   -0.314661
     12          6           0       -4.910680    1.771518   -0.147396
     13          6           0       -3.908162    2.623782    0.372141
     14          6           0       -2.634074    2.176081    0.669573
     15          6           0       -2.374744    0.785451    0.477716
     16          6           0       -3.346598   -0.120105    0.076829
     17          6           0       -5.638703   -0.447223   -0.883435
     18          6           0       -6.863540    0.071704   -1.236972
     19          6           0       -7.149887    1.442326   -1.038261
     20          6           0       -6.190425    2.271411   -0.507405
     21          6           0       -1.604188    4.451865    0.748611
     22          6           0       -1.606262    3.116369    1.184900
     23          6           0       -0.647368    2.735186    2.140769
     24          6           0        0.275808    3.656198    2.631812
     25          6           0        0.256626    4.980569    2.194194
     26          6           0       -0.694562    5.375504    1.255064
     27          6           0        0.546530   -4.760095   -0.808420
     28          6           0       -0.358681   -3.875804   -1.413789
     29          6           0       -0.132281   -3.491296   -2.744128
     30          6           0        0.950940   -4.003761   -3.454795
     31          6           0        1.839358   -4.892608   -2.845365
     32          6           0        1.637474   -5.262211   -1.515739
     33          8           0       -1.151038   -1.133439   -1.316007
     34          8           0       -1.112202    0.314527    0.767134
     35         15           0       -0.103267   -0.228421   -0.425429
     36          8           0        0.913546   -1.063083    0.299469
     37          8           0        0.351632    0.878432   -1.342814
     38          1           0       -2.078180   -5.369049    0.012127
     39          1           0       -3.925077   -5.884650    1.511159
     40          1           0       -5.815578   -5.148316    2.931143
     41          1           0       -6.379539   -2.723511    3.079625
     42          1           0       -5.117452   -1.070077    1.785083
     43          1           0       -4.160378    3.665276    0.547129
     44          1           0       -5.427682   -1.497387   -1.046285
     45          1           0       -7.616033   -0.576912   -1.676503
     46          1           0       -8.122943    1.837677   -1.315377
     47          1           0       -6.392150    3.330019   -0.363691
     48          1           0        1.841549    1.679202   -0.992388
     49          1           0        2.683259   -5.290827   -3.402400
     50          1           0        0.985344    5.692338    2.570632
     51          1           0       -0.631290    1.717153    2.506392
     52          1           0        1.009746    3.336150    3.366234
     53          1           0       -0.706920    6.395835    0.886301
     54          1           0       -2.304719    4.762802   -0.019318
     55          1           0        0.397005   -5.038629    0.230436
     56          1           0       -0.816680   -2.800369   -3.222814
     57          1           0        1.098080   -3.711895   -4.491410
     58          1           0        2.327150   -5.946620   -1.028783
     59          8           0        3.553872    3.886695    0.575966
     60          6           0        2.710364    3.480527   -0.208958
     61          7           0        2.686715    2.105907   -0.559947
     62          6           0       -3.795588   -2.510971    0.853958
     63          6           0        4.089565    0.085621   -0.828187
     64          6           0        3.249005   -0.604157   -1.719506
     65          6           0        3.684128   -1.789493   -2.298689
     66          6           0        4.950193   -2.299512   -2.002541
     67          6           0        5.797462   -1.615052   -1.129794
     68          6           0        5.368134   -0.431348   -0.543096
     69          6           0        1.764647    4.377910   -0.919856
     70          6           0        2.001125    5.755528   -0.784062
     71          6           0        1.197789    6.675081   -1.445685
     72          6           0        0.138307    6.228644   -2.240661
     73          6           0       -0.108746    4.862669   -2.366504
     74          6           0        0.699671    3.932293   -1.714957
     75          1           0        4.493263    1.880167    0.332340
     76          1           0        2.264671   -0.218482   -1.952871
     77          1           0        3.021652   -2.328026   -2.965866
     78          1           0        5.274180   -3.234037   -2.451934
     79          1           0        6.781132   -2.008795   -0.894869
     80          1           0        6.016398    0.098136    0.147939
     81          1           0        2.825108    6.078769   -0.158198
     82          1           0        1.393998    7.738514   -1.343113
     83          1           0       -0.492744    6.946114   -2.758170
     84          1           0       -0.938591    4.510908   -2.972198
     85          1           0        0.468120    2.878356   -1.813763
     86          6           0        3.483008   -2.236407    1.504128
     87          6           0        4.288016   -3.369619    1.592326
     88          6           0        5.500912   -3.331470    2.281101
     89          6           0        5.913506   -2.149143    2.899075
     90          6           0        5.119940   -1.007186    2.824069
     91          6           0        3.908178   -1.053560    2.123074
     92          1           0        2.549491   -2.255278    0.953677
     93          1           0        3.964046   -4.284588    1.105259
     94          1           0        6.123404   -4.219654    2.339800
     95          1           0        6.853761   -2.115084    3.441771
     96          1           0        5.437259   -0.085693    3.304306
     97          6           0       -3.441683   -3.898563    0.812205
     98          6           0       -3.033049   -1.577516    0.072740
 ---------------------------------------------------------------------
 Rotational constants (GHZ):           0.0498658           0.0426524           0.0282346
 Leave Link  202 at Thu May 23 05:39:40 2024, MaxMem= 16106127360 cpu:               0.1 elap:               0.0
 (Enter /public/software/apps/Gaussian/g16/l301.exe)
 Standard basis: 6-31G(d) (6D, 7F)
 Ernie: Thresh=  0.10000D-02 Tol=  0.10000D-05 Strict=F.
 There are   984 symmetry adapted cartesian basis functions of A   symmetry.
 There are   984 symmetry adapted basis functions of A   symmetry.
   984 basis functions,  1880 primitive gaussians,   984 cartesian basis functions
   214 alpha electrons      214 beta electrons
       nuclear repulsion energy      9314.2808289138 Hartrees.
 IExCor=  402 DFT=T Ex+Corr=B3LYP ExCW=0 ScaHFX=  0.200000
 ScaDFX=  0.800000  0.720000  1.000000  0.810000 ScalE2=  1.000000  1.000000
 IRadAn=      5 IRanWt=     -1 IRanGd=            0 ICorTp=0 IEmpDi=141
 NAtoms=   98 NActive=   98 NUniq=   98 SFac= 1.00D+00 NAtFMM=   60 NAOKFM=T Big=T
 Integral buffers will be    131072 words long.
 Raffenetti 2 integral format.
 Two-electron integral symmetry is turned on.
 R6Disp:  Grimme-D3(BJ) Dispersion energy=       -0.3036157877 Hartrees.
 Nuclear repulsion after empirical dispersion term =     9313.9772131261 Hartrees.
 Force inversion solution in PCM.
 Using the following non-standard input for PCM:
 surface=sas
 --- end of non-standard input.
 Force inversion solution in PCM.
 ------------------------------------------------------------------------------
 Polarizable Continuum Model (PCM)
 =================================
 Model                : PCM.
 Atomic radii         : SMD-Coulomb.
 Polarization charges : Total charges.
 Charge compensation  : None.
 Solution method      : Matrix inversion.
 Cavity type          : SAS (Solvent Accessible Surface) (Alpha=1.000).
 Cavity algorithm     : GePol (No added spheres)
                        Default sphere list used, NSphG=   98.
                        Lebedev-Laikov grids with approx.  5.0 points / Ang**2.
                        Smoothing algorithm: York/Karplus (Gamma=1.0000).
                        Polarization charges: spherical gaussians, with
                                              point-specific exponents (IZeta= 3).
                        Self-potential: point-specific (ISelfS= 7).
                        Self-field    : sphere-specific E.n sum rule (ISelfD= 2).
 1st derivatives      : Analytical E(r).r(x)/FMM algorithm (CHGder, D1EAlg=3).
                        Cavity 1st derivative terms included.
 2nd derivatives      : Analytical E(r).r(xy)/FMM algorithm (CHGder, D2EAlg=3).
                        Cavity 2nd derivative terms included.
 Solvent              : Toluene, Eps=   2.374100 Eps(inf)=   2.238315
                        RSolv=   2.820000 Ang.
 ------------------------------------------------------------------------------
 GePol: Number of generator spheres                  =      98
 GePol: Total number of spheres                      =      98
 GePol: Number of exposed spheres                    =      87 ( 88.78%)
 GePol: Number of points                             =   11048
 GePol: Average weight of points                     =       0.12
 GePol: Minimum weight of points                     =   0.20D-11
 GePol: Maximum weight of points                     =    0.21028
 GePol: Number of points with low weight             =    1014
 GePol: Fraction of low-weight points (<1% of avg)   =       9.18%
 GePol: Cavity surface area                          =   1293.880 Ang**2
 GePol: Cavity volume                                =   3600.320 Ang**3
 ------------------------------------------------------------------------------
 Atomic radii for non-electrostatic terms: SMD-CDS.
 ------------------------------------------------------------------------------
 PCM non-electrostatic energy =        -0.0351208573 Hartrees.
 Nuclear repulsion after PCM non-electrostatic terms =     9313.9420922688 Hartrees.
 Leave Link  301 at Thu May 23 05:39:41 2024, MaxMem= 16106127360 cpu:              23.8 elap:               0.8
 (Enter /public/software/apps/Gaussian/g16/l302.exe)
 NPDir=0 NMtPBC=     1 NCelOv=     1 NCel=       1 NClECP=     1 NCelD=      1
         NCelK=      1 NCelE2=     1 NClLst=     1 CellRange=     0.0.
 One-electron integrals computed using PRISM.
 One-electron integral symmetry used in STVInt
 NBasis=   984 RedAO= T EigKep=  1.90D-04  NBF=   984
 NBsUse=   984 1.00D-06 EigRej= -1.00D+00 NBFU=   984
 Precomputing XC quadrature grid using
 IXCGrd= 4 IRadAn=           5 IRanWt=          -1 IRanGd=           0 AccXCQ= 0.00D+00.
 Generated NRdTot=       0 NPtTot=           0 NUsed=           0 NTot=          32
 NSgBfM=   965   965   965   965   965 MxSgAt=    98 MxSgA2=    98.
 Leave Link  302 at Thu May 23 05:39:43 2024, MaxMem= 16106127360 cpu:              52.7 elap:               1.7
 (Enter /public/software/apps/Gaussian/g16/l303.exe)
 DipDrv:  MaxL=1.
 Leave Link  303 at Thu May 23 05:39:43 2024, MaxMem= 16106127360 cpu:               4.5 elap:               0.2
 (Enter /public/software/apps/Gaussian/g16/l401.exe)
 ExpMin= 9.98D-02 ExpMax= 2.19D+04 ExpMxC= 3.30D+03 IAcc=3 IRadAn=         5 AccDes= 0.00D+00
 Harris functional with IExCor=  402 and IRadAn=       5 diagonalized for initial guess.
 HarFok:  IExCor=  402 AccDes= 0.00D+00 IRadAn=         5 IDoV= 1 UseB2=F ITyADJ=14
 ICtDFT=  3500011 ScaDFX=  1.000000  1.000000  1.000000  1.000000
 FoFCou: FMM=F IPFlag=           0 FMFlag=      100000 FMFlg1=        2001
         NFxFlg=           0 DoJE=T BraDBF=F KetDBF=T FulRan=T
         wScrn=  0.000000 ICntrl=       500 IOpCl=  0 I1Cent=   200000004 NGrid=           0
         NMat0=    1 NMatS0=      1 NMatT0=    0 NMatD0=    1 NMtDS0=    0 NMtDT0=    0
 Petite list used in FoFCou.
[...]
 3,0.00053078,-0.00037983,-0.00000651,-0.00030942,-0.00020655,-0.000185
 72,-0.00000497,0.02466138,-0.00659723,-0.01640003,-0.01565261,-0.01752
 358,0.01736953,0.00390955,0.00016514,-0.00130984,-0.00038108,-0.000835
 64,0.00029223,-0.00002925,0.00138520,0.00043801,0.00000459,-0.00000287
 ,0.00001527,-0.00010013,0.00040728,0.00040021,0.00003191,-0.00000134,-
 0.00007293,-0.00001616,0.00003905,0.00002887,0.00001479,-0.00000243,0.
 00000171,0.00007943,0.00004537,0.00001631,-0.00005029,-0.00004421,-0.0
 0003203,-0.00000274,-0.00000145,0.00000024,-0.00000082,-0.00000413,0.0
 0001411,-0.00000257,0.00000014,-0.00000049,-0.00000188,-0.00000311,0.0
 0000036,0.00000005,0.00000580,0.00000043,-0.00020253,-0.00026616,-0.00
 031093,-0.00007018,-0.00014283,-0.00003265,-0.00010783,0.00002209,0.00
 006109,-0.00002813,0.00003341,0.00001374,-0.00001456,-0.00001843,-0.00
 001277,0.00000544,0.00004255,0.00000899,-0.00004517,-0.00002777,-0.000
 01240,0.03728181,-0.24846821,0.00974909,-0.00000112,0.00001076,0.00000
 427,0.00000948,-0.00000918,0.00000098,-0.00001017,0.00000788,0.0000027
 0,0.00000644,-0.00000470,0.00000200,-0.00000131,-0.00000378,-0.0000017
 9,-0.00000211,0.00000078,0.00000296,0.00000309,-0.00000818,0.00000306,
 0.00000075,-0.00000056,0.00000174,-0.00000184,0.00000075,-0.00000030,0
 .00000058,0.00000373,0.00000076,-0.00000356,-0.00001032,-0.00000048,-0
 .00000099,0.00000707,0.00000137,-0.00000086,0.00000246,-0.00000150,0.0
 0001622,0.00000106,-0.00000898,0.00000411,-0.00000228,-0.00000473,0.00
 000002,0.00000291,0.00000072,-0.00000278,0.00000077,-0.00000147,-0.000
 00071,-0.00000048,-0.00000207,-0.00000009,0.00000013,-0.00000135,-0.00
 000014,-0.00000243,-0.00000065,0.00000140,-0.00000249,0.00000047,0.000
 00006,0.00000262,-0.00000182,0.00000574,0.00002296,-0.00000658,0.00000
 386,0.00000924,0.00000130,-0.00000413,-0.00000433,-0.00000999,-0.00000
 065,0.00000330,-0.00000068,-0.00000040,0.00000096,-0.00000136,-0.00000
 303,0.00001268,0.00000119,0.00000801,-0.00002106,0.00000027,0.00001134
 ,-0.00001401,0.00000785,-0.00000082,0.00000016,0.00000654,-0.00000441,
 0.00000195,0.00000013,-0.00000324,0.00000076,-0.00000068,0.00000152,-0
 .00000086,0.00000225,-0.04053560,0.63352819,0.00006331,0.00003517,0.00
 004500,0.00000574,-0.00001568,0.00000967,-0.00014096,-0.00007777,-0.00
 012761,0.01274398,-0.01863055,-0.00752475,0.02571120,0.02486464,-0.020
 84944,0.09916043,-0.03897997,-0.12607172,0.06140765,0.08099952,-0.1284
 3706,0.03709409,-0.00877643,-0.02209620,-0.00064218,0.02199811,-0.0105
 1224,-0.00587908,-0.02304583,0.01521340,0.00015302,-0.00059927,-0.0001
 1230,0.00005656,0.00006196,-0.00001071,-0.00002904,-0.00003675,-0.0000
 0394,0.00030397,0.00005743,0.00027301,-0.00077721,0.00090476,-0.000211
 55,0.00468513,0.00248216,0.00080471,-0.00012429,-0.00017876,0.00008404
 ,-0.00002119,0.00010065,0.00001012,-0.00005573,-0.00002819,-0.00002040
 ,0.00002034,-0.00003091,0.00000890,0.00001633,0.00000276,0.00001917,-0
 .00006124,0.00006839,0.00000821,-0.00000035,0.00000346,-0.00000049,-0.
 00000274,-0.00000189,0.00000206,-0.00000227,0.00000076,0.00000022,0.00
 000084,0.00000601,-0.00000914,0.00042053,-0.00060666,-0.00075327,0.002
 63933,0.00333404,0.00519303,-0.00042840,0.00021604,0.00004210,0.000010
 69,-0.00044915,0.00031692,0.00020697,0.00006819,-0.00032271,-0.0002694
 9,-0.00018182,0.00036967,-0.00001417,0.00143844,-0.00120090,-0.0000745
 8,0.00006113,0.00023880,-0.00046602,-0.00088881,-0.00035151,0.00027495
 ,0.00019179,0.00015266,0.00004046,0.00012160,-0.00000864,-0.00056547,0
 .00089894,0.00315787,-0.00058333,-0.00156337,0.00295699,0.00587458,-0.
 00054790,0.00420325,-0.00023758,0.00062768,-0.00003060,0.00520477,-0.0
 0053512,0.00047740,-0.00000715,0.00000499,-0.00000006,-0.00003501,0.00
 007373,0.00004461,-0.00000437,-0.00000036,-0.00000426,-0.00000190,0.00
 000604,0.00000588,0.00001428,0.00000169,-0.00001370,-0.00003595,-0.000
 02744,-0.00000465,-0.00001709,-0.00001635,0.00002127,0.00000082,0.0000
 0014,-0.00000083,0.00000353,-0.00000153,-0.00000668,0.00000114,-0.0000
 0065,-0.00000144,0.00000254,0.00000179,-0.00000017,-0.00000283,0.00000
 110,-0.00000350,0.00032869,-0.00023990,0.00029315,0.00002228,0.0001076
 3,0.00011351,-0.00005043,0.00002923,0.00001372,0.00005254,0.00000731,0
 .00000036,0.00000690,0.00002040,0.00000975,0.00000279,-0.00005486,-0.0
 0000930,0.00000817,0.00004395,0.00000349,0.03135760,0.00735446,-0.0963
 6341,-0.00000062,0.00000280,-0.00000103,-0.00000441,0.00000493,-0.0000
 0126,-0.00000051,0.00000142,-0.00000921,-0.00000412,0.00000224,-0.0000
 0168,0.00000002,0.00000491,0.00000106,0.00000465,-0.00000139,-0.000000
 05,-0.00000448,0.00000963,-0.00000311,-0.00000131,-0.00000221,-0.00000
 139,-0.00000090,0.00000036,-0.00000068,-0.00000113,-0.00000039,-0.0000
 0015,0.00000267,0.00000615,0.00000168,0.00000042,-0.00000318,0.0000006
 5,0.00000006,-0.00000252,0.00000002,-0.00000945,-0.00000447,0.00000618
 ,0.00000042,-0.00000933,0.00001149,-0.00000438,-0.00000195,0.00000072,
 0.00000213,-0.00000058,0.00000137,0.00000065,0.00000065,0.00000199,0.0
 0000053,-0.00000081,0.00000070,0.00000016,0.00000165,-0.00000003,-0.00
 000064,0.00000180,-0.00000071,-0.00000018,-0.00000130,-0.00000043,-0.0
 0000032,-0.00001305,0.00000210,-0.00000084,-0.00000451,-0.00000024,0.0
 0000166,0.00000255,0.00000625,0.00000098,-0.00000188,0.00000050,-0.000
 00049,-0.00000023,0.00000044,0.00000250,-0.00000819,-0.00000097,-0.000
 00218,0.00001418,0.00000202,-0.00000735,0.00001081,-0.00000945,0.00000
 126,-0.00000055,-0.00000434,0.00000184,-0.00000117,-0.00000019,0.00000
 210,-0.00000067,0.00000067,-0.00000097,0.00000083,-0.00000139,-0.25919
 551,-0.06611066,0.36772389,-0.00023354,-0.00015013,-0.00017742,0.00008
 272,-0.00011540,0.00000886,0.00046048,0.00032020,0.00034086,-0.2409555
 1,0.05200384,0.11820195,-0.00410887,0.05748583,-0.00836136,-0.03010787
 ,-0.00822170,0.02367100,-0.00740245,0.00069675,0.00931784,0.00665251,-
 0.01158617,-0.00400891,0.00332124,0.01963195,-0.00234500,-0.03199343,-
 0.02131055,0.03178329,-0.00510372,0.03096780,0.00251075,-0.00446215,-0
 .00010757,-0.00368397,-0.00112514,0.00015564,0.00017032,-0.00271534,-0
 .00222241,-0.00397610,0.01292080,-0.01803760,-0.00167132,-0.09875792,0
 .02400043,0.00286641,-0.00052126,0.00094146,0.00111375,0.00003921,0.00
 056427,0.00030919,-0.00006912,-0.00009964,0.00013344,0.00018679,0.0016
 8769,0.00035614,-0.00027939,-0.00011056,-0.00023760,0.00082579,-0.0008
 8394,0.00015051,-0.00001846,0.00000554,0.00003827,0.00001358,0.0000179
 2,0.00000276,-0.00000695,-0.00002352,-0.00002116,0.00002464,-0.0000617
 2,0.00010281,-0.00043877,0.00070395,-0.00052395,0.00421054,-0.00073565
 ,0.00053966,-0.00072383,-0.00067719,0.00075118,0.00015025,-0.00004663,
 0.00006027,-0.00007110,0.00004678,0.00009445,0.00034162,-0.00000834,0.
 00009100,-0.02964685,-0.00869629,0.02089906,-0.00067425,-0.00261630,0.
 00164513,0.00210868,0.00341610,0.00607643,-0.00089162,0.00036656,-0.00
 157903,-0.00052932,-0.00076390,-0.00021036,-0.00073250,-0.00035563,-0.
 00014729,0.00051569,0.00077102,-0.00032410,-0.00011419,-0.00025713,-0.
 00047622,-0.00021503,-0.00046655,0.00078363,-0.00003496,-0.00072808,-0
 .00134869,0.00008478,-0.00000445,0.00023248,-0.00073353,0.00064809,-0.
 00082178,0.00007098,-0.00000714,-0.00006829,0.00000110,0.00002401,-0.0
 0004439,-0.00041038,0.00020067,-0.00016922,0.00030025,0.00015982,0.000
 04525,-0.00002762,-0.00006196,-0.00001537,-0.00001597,-0.00000941,-0.0
 0000145,0.00002812,0.00002650,0.00002270,-0.00002189,-0.00000383,-0.00
 001146,-0.00003058,-0.00004157,-0.00001064,0.00002653,0.00000384,0.000
 02738,-0.00001703,-0.00028000,0.00013659,-0.00020658,-0.00005035,0.000
 07852,0.00001123,0.00000340,-0.00001109,0.00003359,-0.00004918,-0.0000
 4663,-0.00005311,-0.00004418,-0.00003301,0.00003172,0.00008857,0.00001
 538,-0.00018753,-0.00004693,-0.00003838,-0.12239454,-0.03553029,0.0586
 0091,-0.00001303,0.00005411,0.00001738,0.00004278,-0.00004063,0.000005
 34,-0.00004532,0.00001948,-0.00001519,0.00001855,-0.00000199,0.0000093
 9,-0.00000537,-0.00000734,-0.00000377,0.00000210,0.00000017,0.00001180
 ,0.00000805,-0.00002313,0.00000952,0.00000330,-0.00000475,0.00000899,-
 0.00001070,0.00000787,0.00000003,-0.00000042,0.00001996,0.00000355,-0.
 00002067,-0.00004021,-0.00000309,-0.00000772,0.00002622,0.00001258,-0.
 00000370,0.00000699,-0.00000566,0.00007450,0.00000043,-0.00003980,0.00
 000711,-0.00001332,0.00000145,-0.00000761,0.00000957,0.00000260,-0.000
 00611,0.00000364,-0.00000288,-0.00000183,0.,-0.00000553,0.00000200,0.0
 0000011,-0.00000540,-0.00000010,-0.00000828,-0.00000342,0.00000556,-0.
 00000959,0.00000144,0.00000103,0.00000881,-0.00000777,0.00002855,0.000
 07972,-0.00003586,-0.00000948,0.00003319,-0.00000945,-0.00000341,-0.00
 000865,-0.00001190,-0.00000633,0.00000864,-0.00000174,0.00000354,0.000
 00445,-0.00000003,-0.00000718,0.00003845,0.00000503,0.00004221,-0.0000
 6713,0.00000811,0.00001354,-0.00003473,0.00001597,-0.00000345,0.000006
 27,0.00000487,-0.00000655,0.00000521,0.00000078,-0.00000895,0.00000281
 ,-0.00000207,0.00000643,-0.00000321,0.00000733,0.03127556,-0.01840626,
 -0.01814835,0.52222259,-0.00037260,-0.00023552,-0.00021923,-0.00005451
 ,0.00010252,-0.00011881,0.00061983,0.00052266,0.00057861,0.09691093,-0
 .14747630,-0.05695858,0.02685141,-0.00888916,-0.01638938,-0.00454988,-
 0.00071065,0.00358631,0.00089409,-0.00461043,0.00085876,0.00284515,-0.
 00447438,-0.00162279,0.00519543,0.00575417,-0.00467365,-0.00944755,0.0
 1320136,0.00470851,0.01850957,-0.01236416,-0.00053175,0.00069214,0.003
 30256,0.00047611,0.00002407,-0.00008399,-0.00024364,-0.00320681,0.0018
 6830,-0.00082049,-0.01149083,-0.03496629,0.00026497,0.02491734,-0.2008
 1387,0.00032917,-0.00357511,-0.00007584,-0.00034361,0.00067260,-0.0016
 2006,-0.00002421,0.00020980,0.00091516,0.00011883,-0.00068558,-0.00041
 904,-0.00008486,0.00009339,0.00012121,-0.00006694,0.00002898,-0.000518
 17,-0.00024434,0.00008840,0.00011676,0.00004436,-0.00000027,0.00002894
 ,-0.00003007,0.00007285,0.00006014,0.00003904,-0.00002317,-0.00006275,
 0.00007229,0.00098171,-0.00041776,-0.00100944,-0.00023457,-0.00454503,
 0.00269222,0.00006396,0.00018310,0.00040886,0.00003706,0.00005380,-0.0
 0013796,-0.00004405,-0.00000757,-0.00005237,0.00027851,0.00012038,0.00
 043569,-0.03326150,-0.00053412,0.01619341,0.00843191,-0.00366292,-0.00
 114744,-0.00151981,0.00784785,0.01008625,-0.00128305,-0.00108801,-0.00
 176759,-0.00046459,-0.00209907,-0.00139567,-0.00038974,0.00035095,0.00
 015833,-0.00079844,-0.00070446,0.00082904,-0.00008894,0.00008228,-0.00
 006851,0.00075213,0.00085002,-0.00069695,0.00037240,-0.00061405,-0.000
 31696,-0.00004555,-0.00001102,0.00005620,-0.00015650,0.00008039,-0.000
 18756,-0.00017320,0.00000975,-0.00001982,-0.00004122,-0.00000139,-0.00
 004209,-0.00004459,0.00005330,0.00001632,0.00029968,0.00017400,0.00007
 836,-0.00001399,-0.00001040,-0.00002570,0.00002309,0.00001922,0.000010
 34,-0.00004734,-0.00001790,-0.00006221,0.00002753,0.00001135,0.0000356
 5,-0.00000412,0.00003621,0.00000592,0.00000575,-0.00008614,0.00003674,
 -0.00009567,-0.00012917,-0.00001480,-0.00015533,-0.00001212,-0.0002203
 9,0.00002129,-0.00001308,-0.00002963,0.00010708,-0.00004676,-0.0000538
 5,0.00000028,-0.00013695,-0.00007525,-0.00008320,0.00038927,0.00008047
 ,-0.00003569,-0.00031318,-0.00002746,-0.04678949,-0.17794870,0.0689241
 6,-0.00000962,-0.00000832,0.00002741,0.00007563,-0.00004031,-0.0000007
 6,-0.00003252,0.00000919,-0.00000785,0.00001956,-0.00000564,0.00000642
 ,-0.00001002,-0.00001110,-0.00001173,-0.00001459,0.00000752,-0.0000016
 5,0.00003411,-0.00006577,0.00001546,-0.00000019,0.00002335,-0.00000810
 ,0.00002227,-0.00002389,0.00000056,0.00002735,-0.00003226,0.00000012,-
 0.00001295,-0.00002775,-0.00004057,0.00001280,0.00000985,0.00001473,-0
 .00001005,0.00001928,0.00000659,0.00007037,0.00003085,-0.00004778,0.00
 000727,-0.00001658,-0.00000324,-0.00000767,0.00000609,0.00000157,-0.00
 000333,0.00000144,-0.00000265,-0.00000411,0.00000168,-0.00000405,-0.00
 001120,0.00000109,0.00000242,-0.00000203,-0.00000276,0.00000714,-0.000
 00559,-0.00000963,0.00000661,-0.00000376,0.00000153,0.00003012,-0.0000
 2240,0.00011343,-0.00001750,0.00002074,0.00001279,0.00002369,-0.000013
 03,-0.00002074,-0.00001527,0.00000026,0.00000694,0.00000246,-0.0000011
 3,-0.00000176,-0.00000212,-0.00001053,0.00001863,-0.00000063,0.0000153
 7,-0.00002897,-0.00000899,0.00003785,-0.00004043,-0.00000217,-0.000003
 45,0.00000381,-0.00000050,-0.00000456,0.00000282,-0.00000137,-0.000004
 25,0.00000203,-0.00000163,0.00000358,-0.00000037,0.00000414,-0.0088180
 6,-0.03248495,0.01542397,-0.06219360,0.60601368,0.00027890,0.00017140,
 0.00018553,-0.00004885,0.00004925,0.00004640,-0.00049018,-0.00033464,-
 0.00045418,0.10942580,-0.01852764,-0.12832120,-0.00011156,-0.03953286,
 0.01298805,0.02414512,0.00686951,-0.01861633,0.00956333,0.00148787,-0.
 00268855,-0.00677551,0.00975192,0.00343256,0.00094022,-0.01682046,0.00
 782928,0.03038199,0.01591699,-0.02508095,-0.00065150,0.00614905,0.0026
 4326,-0.00264390,-0.00129598,0.00373131,0.00048257,-0.00011170,-0.0008
 7907,-0.00295449,-0.00081815,0.00566585,0.00067541,-0.01106803,0.00516
 611,0.00556015,0.00353919,-0.06607018,-0.00002907,0.00060362,-0.002394
 06,0.00015275,0.00019809,0.00023257,0.00000956,0.00012872,-0.00027330,
 -0.00008008,0.00030555,0.00031472,0.00004290,-0.00008202,-0.00014513,-
 0.00008956,-0.00029758,0.00010945,0.00007003,-0.00006550,0.00005437,-0
 .00002318,-0.00000304,0.00000111,0.00001895,-0.00000448,0.00002319,-0.
 00008724,-0.00002130,-0.00000176,0.00069728,-0.00052649,-0.00019651,0.
 00035185,0.00183576,0.00374814,-0.00006228,0.00044807,-0.00043694,-0.0
 0046709,-0.00006038,-0.00002409,0.00005618,-0.00006806,0.00011184,-0.0
 0023765,-0.00039387,-0.00003371,0.03019886,0.00669965,-0.01322464,-0.0
 0019560,-0.00016836,-0.00347198,-0.00205099,-0.00461621,-0.00477245,0.
 00114849,-0.00007571,0.00130357,0.00055844,0.00080143,0.00012989,0.000
 08869,-0.00001598,-0.00085399,0.00003581,-0.00039039,0.00037360,-0.000
 57681,0.00003431,-0.00050433,0.00037812,0.00027633,-0.00008355,-0.0019
 6431,0.00021003,-0.00141621,0.00023390,0.00015052,-0.00055120,-0.00043
 261,0.00056193,-0.00020934,-0.00008431,-0.00006450,0.00022197,0.000000
 35,0.00004577,-0.00003593,-0.00015264,0.00000738,0.00017911,-0.0002078
 7,-0.00011426,-0.00005694,0.00004911,0.00010031,0.00002847,0.00000983,
 -0.00000192,-0.00001390,-0.00002768,0.00003586,-0.00003578,-0.00000134
 ,-0.00000291,-0.00000290,-0.00001062,-0.00000378,0.00000440,-0.0000001
 5,-0.00001301,-0.00003755,0.00005654,0.00034528,-0.00005384,0.00017040
 ,0.00030044,0.00006525,-0.00005033,-0.00001024,0.00002465,0.00000550,0
 .00000247,-0.00001902,0.00002868,0.00004848,0.00003624,0.00000015,-0.0
 0012110,-0.00002948,0.00011626,0.00008919,0.00002601,0.05832816,0.0540
 3852,-0.11757360,0.00001012,-0.00004053,-0.00001784,-0.00003698,0.0000
 3534,-0.00001010,0.00004265,-0.00001316,0.00002609,-0.00001401,-0.0000
 0181,-0.00000909,0.00000343,0.00000205,0.00000290,-0.00000494,0.000000
 76,-0.00001146,-0.00000855,0.00002256,-0.00000667,-0.00000063,-0.00000
 182,0.00000006,0.00000049,0.00000162,0.00000162,-0.00000566,-0.0000025
 6,-0.00000312,0.00000957,0.00002345,0.00000255,-0.00000527,-0.00001563
 ,-0.00000296,0.00000544,-0.00000782,-0.00000057,-0.00006312,-0.0000008
 1,0.00004184,0.00000016,0.00001804,-0.00001051,0.00001070,-0.00000640,
 -0.00000292,0.00000304,-0.00000262,0.00000104,0.00000094,-0.00000061,0
 .00000251,0.00000192,0.00000003,0.00000206,0.00000069,0.00000495,0.000
 00012,-0.00000218,0.00000512,-0.00000116,-0.00000097,-0.00000370,0.000
 00129,-0.00000252,-0.00006420,0.00001245,0.00000758,-0.00003343,0.0000
 0388,0.00000332,0.00001384,0.00001224,0.00000722,-0.00001088,0.0000005
 1,-0.00000097,-0.00000323,0.00000137,0.00000986,-0.00003526,-0.0000051
 4,-0.00003188,0.00006782,0.00000024,-0.00001312,0.00003952,-0.00001122
 ,0.00000716,-0.00000921,-0.00000209,0.00000490,-0.00000333,-0.00000009
 ,0.00000598,-0.00000327,0.00000091,-0.00000644,0.00000113,-0.00000703,
 -0.02105259,0.02124749,0.01324482,-0.23263824,-0.03679579,0.32662914\\
 -0.00000935,0.00000158,-0.00000118,0.00001642,0.00001036,-0.00002768,0
 .00000757,0.00000080,0.00000534,-0.00000142,-0.00000069,-0.00000046,0.
 00000100,-0.00000113,0.00000172,0.00000032,-0.00000003,0.00000060,0.00
 000006,-0.00000002,0.00000002,-0.00000017,-0.00000002,-0.00000053,-0.0
 0000016,-0.00000017,-0.00000032,-0.00000028,0.00000002,-0.00000039,0.0
 0000002,-0.00000002,-0.00000092,-0.00000007,0.00000016,-0.00000059,-0.
 00000025,-0.00000034,-0.00000024,-0.00000009,0.00000009,-0.00000025,-0
 .00000089,0.00000118,-0.00000073,-0.00000018,-0.00000031,-0.00000117,0
 .00000001,-0.00000036,-0.00000057,0.00000005,-0.00000027,-0.00000074,0
 .00000014,-0.00000024,-0.00000084,-0.00000010,-0.00000023,-0.00000068,
 0.00000004,-0.00000062,-0.00000109,0.00000007,0.00000048,-0.00000130,0
 .00000022,-0.00000053,-0.00000010,-0.00000046,-0.00000037,0.00000051,-
 0.00000048,0.00000022,-0.00000034,-0.00000051,0.00000025,0.00000004,-0
 .00000054,-0.00000161,0.00000006,0.00000030,0.00000275,-0.00000122,0.0
 0000063,0.00000021,0.00000034,0.00000021,-0.00000078,0.00000002,0.0000
 0058,0.00000016,0.00000032,-0.00000002,0.00000010,0.00000030,0.0000044
 3,-0.00000090,0.00000215,0.00000221,-0.00000229,0.00000079,-0.00000811
 ,0.00000634,-0.00000382,-0.00000259,0.00000148,0.00000162,0.00000154,-
 0.00000427,-0.00000104,0.00000009,0.00000001,-0.00000002,0.00000010,0.
 00000006,0.00000006,-0.00000013,0.00000004,-0.00000032,-0.00000024,0.,
 -0.00000056,-0.00000022,0.00000005,-0.00000055,-0.00000012,-0.00000012
 ,-0.00000074,0.00000019,-0.00000037,-0.00000054,0.00000022,-0.00000036
 ,-0.00000078,0.00000009,-0.00000034,-0.00000098,-0.00000006,-0.0000002
 6,-0.00000088,-0.00000055,0.00000124,-0.00000331,0.00000037,-0.0000001
 6,0.00000057,-0.00000084,0.00000033,0.00000012,0.00000037,0.00000014,-
 0.00000034,0.00000007,-0.00000021,-0.00000085,-0.00000035,-0.00000001,
 -0.00000034,-0.00000023,-0.00000001,-0.00000041,0.00000024,0.00000007,
 0.00000036,0.00000060,0.00000015,0.00000017,0.00000051,-0.00000036,0.0
 0000038,0.00000002,-0.00000026,0.00000024,-0.00000194,-0.00000057,0.00
 000021,-0.00000014,0.00000404,0.00000222,-0.00000452,-0.00001220,0.000
 01647,-0.00000029,-0.00000031,-0.00000041,-0.00000831,-0.00000443,0.00
 001148,0.00000079,0.00000043,-0.00000283,0.00000031,0.00000059,0.00000
 033,0.00000029,0.00000011,-0.00000015,0.00000029,0.00000122,0.00000063
 ,0.00000071,-0.00000231,0.00000207,0.00000018,-0.00000012,0.00000031,0
 .00000008,0.00000027,-0.00000028,0.00000026,-0.00000010,-0.00000039,0.
 00000036,-0.00000020,-0.00000070,0.00000024,-0.00000022,-0.00000051,0.
 00000097,-0.00000018,-0.00000129,-0.00000339,-0.00000317,0.00000874,-0
 .00000024,-0.00000077,0.00000089,0.00000017,-0.00000031,0.00000016,0.0
 0000020,-0.00000021,0.00000113,-0.00000007,-0.00000010,0.00000119,-0.0
 0000035,0.00000013,0.00000157,-0.00000022,0.00000014,-0.00000002,-0.00
 000019,-0.00000005,-0.00000019,0.00000014,-0.00000019,-0.00000050,0.00
 000016,-0.00000021,-0.00000034,-0.00000031,0.00000025,0.00000041,0.000
 00186,0.,0.00000083,-0.00000022,0.00000056,0.00000027,0.00000057,0.000
 00010,0.00000097,-0.00000046,0.00000047,0.00000149,0.00000150,-0.00000
 109,0.00000003,0.00000195,0.00000625,-0.00000442,-0.00000009,0.0000003
 5,-0.00000107,0.00000019,0.00000030,0.00000136,-0.00000014,0.00000022,
 0.00000093,-0.00000014,0.00000038,0.00000083,-0.00000070,0.00000037,0.
 00000034,0.00000020,-0.00000011,0.00000003,0.,0.00000005,-0.00000070\\
 \@
 The archive entry for this job was punched.


 A MATHEMATICIAN IS A MACHINE FOR TURNING COFFEE INTO THEOREMS.
     -- QUOTED BY PAUL ERDOS
 Job cpu time:       1 days  7 hours 23 minutes 41.0 seconds.
 Elapsed time:       0 days  0 hours 59 minutes 22.9 seconds.
 File lengths (MBytes):  RWF=  12296 Int=      0 D2E=      0 Chk=    169 Scr=      2
 Normal termination of Gaussian 16 at Thu May 23 08:50:16 2024.
