 Entering Gaussian System, Link 0=/home/gridsan/groups/RMG/Software/gaussian//g16/g16
 Input=TS_ts_guess_FaFxyx_template_4-18_6-13_optts_conf_g16.com
 Output=TS_ts_guess_FaFxyx_template_4-18_6-13_optts_conf_g16.log
 Initial command:
 /home/gridsan/groups/RMG/Software/gaussian//g16/l1.exe "/state/partition1/slurm_tmp/18070681.4294967291.0/tmpjhxt7p5j/Gau-70975.inp" -scrdir="/state/partition1/slurm_tmp/18070681.4294967291.0/tmpjhxt7p5j/"
 Entering Link 1 = /home/gridsan/groups/RMG/Software/gaussian//g16/l1.exe PID=     70977.
  
 Copyright (c) 1988-2017, Gaussian, Inc.  All Rights Reserved.
  
 This is part of the Gaussian(R) 16 program.  It is based on
 the Gaussian(R) 09 system (copyright 2009, Gaussian, Inc.),
 the Gaussian(R) 03 system (copyright 2003, Gaussian, Inc.),
 the Gaussian(R) 98 system (copyright 1998, Gaussian, Inc.),
 the Gaussian(R) 94 system (copyright 1995, Gaussian, Inc.),
 the Gaussian 92(TM) system (copyright 1992, Gaussian, Inc.),
 the Gaussian 90(TM) system (copyright 1990, Gaussian, Inc.),
 the Gaussian 88(TM) system (copyright 1988, Gaussian, Inc.),
 the Gaussian 86(TM) system (copyright 1986, Carnegie Mellon
 University), and the Gaussian 82(TM) system (copyright 1983,
 Carnegie Mellon University). Gaussian is a federally registered
 trademark of Gaussian, Inc.
  
 This software contains proprietary and confidential information,
 including trade secrets, belonging to Gaussian, Inc.
  
 This software is provided under written license and may be
 used, copied, transmitted, or stored only in accord with that
 written license.
  
 The following legend is applicable only to US Government
 contracts under FAR:
  
                    RESTRICTED RIGHTS LEGEND
  
 Use, reproduction and disclosure by the US Government is
 subject to restrictions as set forth in subparagraphs (a)
 and (c) of the Commercial Computer Software - Restricted
 Rights clause in FAR 52.227-19.
  
 Gaussian, Inc.
 340 Quinnipiac St., Bldg. 40, Wallingford CT 06492
  
  
 ---------------------------------------------------------------
 Warning -- This program may not be used in any manner that
 competes with the business of Gaussian, Inc. or will provide
 assistance to any competitor of Gaussian, Inc.  The licensee
 of this program is prohibited from giving any competitor of
 Gaussian, Inc. access to this program.  By using this program,
 the user acknowledges that Gaussian, Inc. is engaged in the
 business of creating and licensing software in the field of
 computational chemistry and represents and warrants to the
 licensee that it is not a competitor of Gaussian, Inc. and that
 it will not use this program in any manner prohibited above.
 ---------------------------------------------------------------
  

 Cite this work as:
 Gaussian 16, Revision B.01,
 M. J. Frisch, G. W. Trucks, H. B. Schlegel, G. E. Scuseria, 
 M. A. Robb, J. R. Cheeseman, G. Scalmani, V. Barone, 
 G. A. Petersson, H. Nakatsuji, X. Li, M. Caricato, A. V. Marenich, 
 J. Bloino, B. G. Janesko, R. Gomperts, B. Mennucci, H. P. Hratchian, 
 J. V. Ortiz, A. F. Izmaylov, J. L. Sonnenberg, D. Williams-Young, 
 F. Ding, F. Lipparini, F. Egidi, J. Goings, B. Peng, A. Petrone, 
 T. Henderson, D. Ranasinghe, V. G. Zakrzewski, J. Gao, N. Rega, 
 G. Zheng, W. Liang, M. Hada, M. Ehara, K. Toyota, R. Fukuda, 
 J. Hasegawa, M. Ishida, T. Nakajima, Y. Honda, O. Kitao, H. Nakai, 
 T. Vreven, K. Throssell, J. A. Montgomery, Jr., J. E. Peralta, 
 F. Ogliaro, M. J. Bearpark, J. J. Heyd, E. N. Brothers, K. N. Kudin, 
 V. N. Staroverov, T. A. Keith, R. Kobayashi, J. Normand, 
 K. Raghavachari, A. P. Rendell, J. C. Burant, S. S. Iyengar, 
 J. Tomasi, M. Cossi, J. M. Millam, M. Klene, C. Adamo, R. Cammi, 
 J. W. Ochterski, R. L. Martin, K. Morokuma, O. Farkas, 
 J. B. Foresman, and D. J. Fox, Gaussian, Inc., Wallingford CT, 2016.
 
 ******************************************
 Gaussian 16:  ES64L-G16RevB.01 20-Dec-2017
                30-May-2022 
 ******************************************
 %mem=15199MB
 %nprocshared=4
 Will use up to    4 processors via shared memory.
 ----------------------------------------------------------------------
 # B3LYP def2svp Freq EmpiricalDispersion=GD3BJ Opt=(TS, CalcFC, NoEige
 nTest, MaxCycles=100, MaxStep=10, NoTrustUpdate, RecalcFC=30) IOp(2/9=
 2000) Geom=ModRedun NoSymm scrf=(smd,solvent=Water)
 ----------------------------------------------------------------------
 1/5=1,6=100,8=10,9=1,10=4,11=1,18=120,26=3,38=1,71=30/1,3;
 2/9=2000,12=2,15=1,17=6,18=5,40=1/2;
 3/5=43,7=101,11=2,25=1,30=1,70=32201,71=2,72=1,74=-5,124=41,140=1/1,2,3;
 4//1;
 5/5=2,38=5,53=1/2;
 8/6=4,10=90,11=11/1;
 11/6=1,8=1,9=11,15=111,16=1,31=1/1,2,10;
 10/6=1,13=1,31=1/2;
 6/7=2,8=2,9=2,10=2,28=1/1;
 7/10=1,18=20,25=1,30=1/1,2,3,16;
 1/5=1,6=100,8=10,9=1,10=4,11=1,18=20,26=3,71=30/3(2);
 2/9=2000,15=1/2;
 99//99;
 2/9=2000,15=1/2;
 3/5=43,7=101,11=2,25=1,30=1,70=32205,71=1,72=1,74=-5,124=41/1,2,3;
 4/5=5,16=3,69=1/1;
 5/5=2,38=5,53=1/2;
 7/30=1/1,2,3,16;
 1/5=1,6=100,8=10,9=1,11=1,18=20,26=3,71=30/3(-5);
 2/9=2000,15=1/2;
 6/7=2,8=2,9=2,10=2,19=2,28=1/1;
 99/9=1/99;
 ----------------------------------------------------
 TS_ts_guess_FaFxyx_template_4-18_6-13_optts_conf_g16
 ----------------------------------------------------
 Symbolic Z-matrix:
 Charge =  0 Multiplicity = 1
 C                     3.45714  -1.04388   1.05375 
 N                     3.52771  -0.69025  -0.34369 
 C                     2.49955  -0.35103  -1.10575 
 O                     2.52887  -0.04232  -2.28711 
 C                     1.17413  -0.33357  -0.45408 
 N                     0.15547  -0.94972  -0.53126 
 C                    -1.11437  -1.09911  -0.34123 
 C                    -1.59614  -1.93435   0.78801 
 C                    -0.51865  -2.48554   1.67803 
 O                    -2.77714  -2.12742   0.97911 
 C                    -2.04763  -0.65111  -1.40698 
 C                    -1.39377  -0.0995   -2.64106 
 O                    -3.24859  -0.71896  -1.26436 
 C                    -0.76445   1.35149   0.81206 
 C                    -2.0336    0.99416   1.39749 
 O                    -2.09784   0.44759   2.47841 
 O                    -3.04746   1.4043    0.65901 
 C                    -4.36511   1.1094    1.12839 
 C                     0.40019   1.51193   0.47365 
 C                     1.54912   2.39084   0.24041 
 F                     1.77603   2.61164  -1.0632 
 F                     2.69109   1.91875   0.75582 
 F                     1.35616   3.59919   0.79925 
 H                     2.44192  -0.88683   1.41604 
 H                     3.73357  -2.08944   1.19249 
 H                     4.13694  -0.41299   1.62552 
 H                     4.43973  -0.70079  -0.78376 
 H                     0.28021  -2.93775   1.0974 
 H                    -0.11559  -1.66347   2.26829 
 H                    -0.95521  -3.21568   2.35349 
 H                    -0.80405   0.7798   -2.38713 
 H                    -0.72372  -0.83522  -3.08042 
 H                    -2.16054   0.17472  -3.35966 
 H                    -5.0174    1.84135   0.66099 
 H                    -4.40143   1.1788    2.21623 
 H                    -4.63306   0.09944   0.8143 
 
 Add virtual bond connecting atoms C19        and C5         Dist= 4.17D+00.
 The following ModRedundant input section has been read:
 B       5      19 B                                                           
 B       7      14 B                                                           
 

 GradGradGradGradGradGradGradGradGradGradGradGradGradGradGradGradGradGrad
 Berny optimization.
 Initialization pass.
                           ----------------------------
                           !    Initial Parameters    !
                           ! (Angstroms and Degrees)  !
 --------------------------                            --------------------------
 ! Name  Definition              Value          Derivative Info.                !
 --------------------------------------------------------------------------------
 ! R1    R(1,2)                  1.4432         calculate D2E/DX2 analytically  !
 ! R2    R(1,24)                 1.0893         calculate D2E/DX2 analytically  !
 ! R3    R(1,25)                 1.0903         calculate D2E/DX2 analytically  !
 ! R4    R(1,26)                 1.0895         calculate D2E/DX2 analytically  !
 ! R5    R(2,3)                  1.324          calculate D2E/DX2 analytically  !
 ! R6    R(2,27)                 1.0127         calculate D2E/DX2 analytically  !
 ! R7    R(3,4)                  1.2214         calculate D2E/DX2 analytically  !
 ! R8    R(3,5)                  1.4771         calculate D2E/DX2 analytically  !
 ! R9    R(5,6)                  1.193          calculate D2E/DX2 analytically  !
 ! R10   R(5,19)                 2.2058         calculate D2E/DX2 analytically  !
 ! R11   R(6,7)                  1.2926         calculate D2E/DX2 analytically  !
 ! R12   R(7,8)                  1.4849         calculate D2E/DX2 analytically  !
 ! R13   R(7,11)                 1.4858         calculate D2E/DX2 analytically  !
 ! R14   R(7,14)                 2.7309         calculate D2E/DX2 analytically  !
 ! R15   R(8,9)                  1.5023         calculate D2E/DX2 analytically  !
 ! R16   R(8,10)                 1.2118         calculate D2E/DX2 analytically  !
 ! R17   R(9,28)                 1.0862         calculate D2E/DX2 analytically  !
 ! R18   R(9,29)                 1.0893         calculate D2E/DX2 analytically  !
 ! R19   R(9,30)                 1.0862         calculate D2E/DX2 analytically  !
 ! R20   R(11,12)                1.5016         calculate D2E/DX2 analytically  !
 ! R21   R(11,13)                1.2113         calculate D2E/DX2 analytically  !
 ! R22   R(12,31)                1.0888         calculate D2E/DX2 analytically  !
 ! R23   R(12,32)                1.0878         calculate D2E/DX2 analytically  !
 ! R24   R(12,33)                1.0861         calculate D2E/DX2 analytically  !
 ! R25   R(14,15)                1.4426         calculate D2E/DX2 analytically  !
 ! R26   R(14,19)                1.2234         calculate D2E/DX2 analytically  !
 ! R27   R(15,16)                1.213          calculate D2E/DX2 analytically  !
 ! R28   R(15,17)                1.3197         calculate D2E/DX2 analytically  !
 ! R29   R(17,18)                1.4295         calculate D2E/DX2 analytically  !
 ! R30   R(18,34)                1.0861         calculate D2E/DX2 analytically  !
 ! R31   R(18,35)                1.0907         calculate D2E/DX2 analytically  !
 ! R32   R(18,36)                1.0911         calculate D2E/DX2 analytically  !
 ! R33   R(19,20)                1.4652         calculate D2E/DX2 analytically  !
 ! R34   R(20,21)                1.3415         calculate D2E/DX2 analytically  !
 ! R35   R(20,22)                1.3389         calculate D2E/DX2 analytically  !
 ! R36   R(20,23)                1.3452         calculate D2E/DX2 analytically  !
 ! A1    A(2,1,24)             109.4074         calculate D2E/DX2 analytically  !
 ! A2    A(2,1,25)             110.2288         calculate D2E/DX2 analytically  !
 ! A3    A(2,1,26)             109.6178         calculate D2E/DX2 analytically  !
 ! A4    A(24,1,25)            109.4034         calculate D2E/DX2 analytically  !
 ! A5    A(24,1,26)            108.8735         calculate D2E/DX2 analytically  !
 ! A6    A(25,1,26)            109.2877         calculate D2E/DX2 analytically  !
 ! A7    A(1,2,3)              125.6007         calculate D2E/DX2 analytically  !
 ! A8    A(1,2,27)             117.5324         calculate D2E/DX2 analytically  !
 ! A9    A(3,2,27)             116.8668         calculate D2E/DX2 analytically  !
 ! A10   A(2,3,4)              127.0738         calculate D2E/DX2 analytically  !
 ! A11   A(2,3,5)              116.4826         calculate D2E/DX2 analytically  !
 ! A12   A(4,3,5)              116.4417         calculate D2E/DX2 analytically  !
 ! A13   A(3,5,6)              137.0163         calculate D2E/DX2 analytically  !
 ! A14   A(3,5,19)             120.6833         calculate D2E/DX2 analytically  !
 ! A15   A(6,5,19)              99.1912         calculate D2E/DX2 analytically  !
 ! A16   A(5,6,7)              152.7445         calculate D2E/DX2 analytically  !
 ! A17   A(6,7,8)              119.7047         calculate D2E/DX2 analytically  !
 ! A18   A(6,7,11)             118.4738         calculate D2E/DX2 analytically  !
 ! A19   A(6,7,14)              80.3579         calculate D2E/DX2 analytically  !
 ! A20   A(8,7,11)             120.7511         calculate D2E/DX2 analytically  !
 ! A21   A(8,7,14)             103.0129         calculate D2E/DX2 analytically  !
 ! A22   A(11,7,14)             96.4785         calculate D2E/DX2 analytically  !
 ! A23   A(7,8,9)              115.1007         calculate D2E/DX2 analytically  !
 ! A24   A(7,8,10)             121.7174         calculate D2E/DX2 analytically  !
 ! A25   A(9,8,10)             123.168          calculate D2E/DX2 analytically  !
 ! A26   A(8,9,28)             111.3188         calculate D2E/DX2 analytically  !
 ! A27   A(8,9,29)             108.0294         calculate D2E/DX2 analytically  !
 ! A28   A(8,9,30)             109.0719         calculate D2E/DX2 analytically  !
 ! A29   A(28,9,29)            109.3723         calculate D2E/DX2 analytically  !
 ! A30   A(28,9,30)            110.3745         calculate D2E/DX2 analytically  !
 ! A31   A(29,9,30)            108.603          calculate D2E/DX2 analytically  !
 ! A32   A(7,11,12)            115.2624         calculate D2E/DX2 analytically  !
 ! A33   A(7,11,13)            121.4281         calculate D2E/DX2 analytically  !
 ! A34   A(12,11,13)           123.3033         calculate D2E/DX2 analytically  !
 ! A35   A(11,12,31)           109.9283         calculate D2E/DX2 analytically  !
 ! A36   A(11,12,32)           110.5926         calculate D2E/DX2 analytically  !
 ! A37   A(11,12,33)           109.2142         calculate D2E/DX2 analytically  !
 ! A38   A(31,12,32)           107.866          calculate D2E/DX2 analytically  !
 ! A39   A(31,12,33)           109.4392         calculate D2E/DX2 analytically  !
 ! A40   A(32,12,33)           109.7804         calculate D2E/DX2 analytically  !
 ! A41   A(7,14,15)             80.5832         calculate D2E/DX2 analytically  !
 ! A42   A(7,14,19)             97.0565         calculate D2E/DX2 analytically  !
 ! A43   A(14,15,16)           121.322          calculate D2E/DX2 analytically  !
 ! A44   A(14,15,17)           111.8279         calculate D2E/DX2 analytically  !
 ! A45   A(16,15,17)           126.7299         calculate D2E/DX2 analytically  !
 ! A46   A(15,17,18)           117.4066         calculate D2E/DX2 analytically  !
 ! A47   A(17,18,34)           105.8573         calculate D2E/DX2 analytically  !
 ! A48   A(17,18,35)           110.1862         calculate D2E/DX2 analytically  !
 ! A49   A(17,18,36)           108.8322         calculate D2E/DX2 analytically  !
 ! A50   A(34,18,35)           111.4905         calculate D2E/DX2 analytically  !
 ! A51   A(34,18,36)           110.6357         calculate D2E/DX2 analytically  !
 ! A52   A(35,18,36)           109.7458         calculate D2E/DX2 analytically  !
 ! A53   A(5,19,14)            109.9155         calculate D2E/DX2 analytically  !
 ! A54   A(5,19,20)             99.1948         calculate D2E/DX2 analytically  !
 ! A55   A(14,19,20)           150.3635         calculate D2E/DX2 analytically  !
 ! A56   A(19,20,21)           112.7087         calculate D2E/DX2 analytically  !
 ! A57   A(19,20,22)           113.3302         calculate D2E/DX2 analytically  !
 ! A58   A(19,20,23)           111.1128         calculate D2E/DX2 analytically  !
 ! A59   A(21,20,22)           106.7285         calculate D2E/DX2 analytically  !
 ! A60   A(21,20,23)           106.2665         calculate D2E/DX2 analytically  !
 ! A61   A(22,20,23)           106.2089         calculate D2E/DX2 analytically  !
 ! A62   L(15,14,19,7,-1)      177.6398         calculate D2E/DX2 analytically  !
 ! A63   L(15,14,19,7,-2)      190.6604         calculate D2E/DX2 analytically  !
 ! D1    D(24,1,2,3)            -5.9995         calculate D2E/DX2 analytically  !
 ! D2    D(24,1,2,27)          173.9881         calculate D2E/DX2 analytically  !
 ! D3    D(25,1,2,3)           114.3457         calculate D2E/DX2 analytically  !
 ! D4    D(25,1,2,27)          -65.6668         calculate D2E/DX2 analytically  !
 ! D5    D(26,1,2,3)          -125.3187         calculate D2E/DX2 analytically  !
 ! D6    D(26,1,2,27)           54.6689         calculate D2E/DX2 analytically  !
 ! D7    D(1,2,3,4)            179.6844         calculate D2E/DX2 analytically  !
 ! D8    D(1,2,3,5)              0.2082         calculate D2E/DX2 analytically  !
 ! D9    D(27,2,3,4)            -0.3033         calculate D2E/DX2 analytically  !
 ! D10   D(27,2,3,5)          -179.7795         calculate D2E/DX2 analytically  !
 ! D11   D(2,3,5,6)           -113.3408         calculate D2E/DX2 analytically  !
 ! D12   D(2,3,5,19)            91.2802         calculate D2E/DX2 analytically  !
 ! D13   D(4,3,5,6)             67.1259         calculate D2E/DX2 analytically  !
 ! D14   D(4,3,5,19)           -88.253          calculate D2E/DX2 analytically  !
 ! D15   D(3,5,6,7)           -160.6936         calculate D2E/DX2 analytically  !
 ! D16   D(19,5,6,7)            -1.975          calculate D2E/DX2 analytically  !
 ! D17   D(3,5,19,14)          172.113          calculate D2E/DX2 analytically  !
 ! D18   D(3,5,19,20)           -2.2395         calculate D2E/DX2 analytically  !
 ! D19   D(6,5,19,14)            8.8356         calculate D2E/DX2 analytically  !
 ! D20   D(6,5,19,20)         -165.5168         calculate D2E/DX2 analytically  !
 ! D21   D(5,6,7,8)           -101.2828         calculate D2E/DX2 analytically  !
 ! D22   D(5,6,7,11)            90.4548         calculate D2E/DX2 analytically  !
 ! D23   D(5,6,7,14)            -1.7259         calculate D2E/DX2 analytically  !
 ! D24   D(6,7,8,9)              3.267          calculate D2E/DX2 analytically  !
 ! D25   D(6,7,8,10)          -178.0504         calculate D2E/DX2 analytically  !
 ! D26   D(11,7,8,9)           171.2571         calculate D2E/DX2 analytically  !
 ! D27   D(11,7,8,10)          -10.0602         calculate D2E/DX2 analytically  !
 ! D28   D(14,7,8,9)           -82.9447         calculate D2E/DX2 analytically  !
 ! D29   D(14,7,8,10)           95.7379         calculate D2E/DX2 analytically  !
 ! D30   D(6,7,11,12)            1.9552         calculate D2E/DX2 analytically  !
 ! D31   D(6,7,11,13)         -177.1714         calculate D2E/DX2 analytically  !
 ! D32   D(8,7,11,12)         -166.1798         calculate D2E/DX2 analytically  !
 ! D33   D(8,7,11,13)           14.6936         calculate D2E/DX2 analytically  !
 ! D34   D(14,7,11,12)          84.4753         calculate D2E/DX2 analytically  !
 ! D35   D(14,7,11,13)         -94.6513         calculate D2E/DX2 analytically  !
 ! D36   D(6,7,14,15)         -162.0243         calculate D2E/DX2 analytically  !
 ! D37   D(6,7,14,19)            7.3153         calculate D2E/DX2 analytically  !
 ! D38   D(8,7,14,15)          -43.5597         calculate D2E/DX2 analytically  !
 ! D39   D(8,7,14,19)          125.7798         calculate D2E/DX2 analytically  !
 ! D40   D(11,7,14,15)          80.1098         calculate D2E/DX2 analytically  !
 ! D41   D(11,7,14,19)        -110.5506         calculate D2E/DX2 analytically  !
 ! D42   D(7,8,9,28)           -47.9348         calculate D2E/DX2 analytically  !
 ! D43   D(7,8,9,29)            72.1634         calculate D2E/DX2 analytically  !
 ! D44   D(7,8,9,30)          -169.9646         calculate D2E/DX2 analytically  !
 ! D45   D(10,8,9,28)          133.404          calculate D2E/DX2 analytically  !
 ! D46   D(10,8,9,29)         -106.4979         calculate D2E/DX2 analytically  !
 ! D47   D(10,8,9,30)           11.3741         calculate D2E/DX2 analytically  !
 ! D48   D(7,11,12,31)         -61.2101         calculate D2E/DX2 analytically  !
 ! D49   D(7,11,12,32)          57.7911         calculate D2E/DX2 analytically  !
 ! D50   D(7,11,12,33)         178.7076         calculate D2E/DX2 analytically  !
 ! D51   D(13,11,12,31)        117.8981         calculate D2E/DX2 analytically  !
 ! D52   D(13,11,12,32)       -123.1006         calculate D2E/DX2 analytically  !
 ! D53   D(13,11,12,33)         -2.1841         calculate D2E/DX2 analytically  !
 ! D54   D(7,14,15,16)          93.418          calculate D2E/DX2 analytically  !
 ! D55   D(7,14,15,17)         -90.3106         calculate D2E/DX2 analytically  !
 ! D56   D(16,15,19,5)          81.917          calculate D2E/DX2 analytically  !
 ! D57   D(16,15,19,20)        -97.8716         calculate D2E/DX2 analytically  !
 ! D58   D(17,15,19,5)        -100.6533         calculate D2E/DX2 analytically  !
 ! D59   D(17,15,19,20)         79.5581         calculate D2E/DX2 analytically  !
 ! D60   D(7,14,19,5)           -7.409          calculate D2E/DX2 analytically  !
 ! D61   D(7,14,19,20)         161.2615         calculate D2E/DX2 analytically  !
 ! D62   D(14,15,17,18)        179.8533         calculate D2E/DX2 analytically  !
 ! D63   D(16,15,17,18)         -4.1213         calculate D2E/DX2 analytically  !
 ! D64   D(15,17,18,34)        156.9643         calculate D2E/DX2 analytically  !
 ! D65   D(15,17,18,35)         36.2874         calculate D2E/DX2 analytically  !
 ! D66   D(15,17,18,36)        -84.0909         calculate D2E/DX2 analytically  !
 ! D67   D(5,19,20,21)          64.5003         calculate D2E/DX2 analytically  !
 ! D68   D(5,19,20,22)         -56.8521         calculate D2E/DX2 analytically  !
 ! D69   D(5,19,20,23)        -176.3508         calculate D2E/DX2 analytically  !
 ! D70   D(14,19,20,21)       -104.7157         calculate D2E/DX2 analytically  !
 ! D71   D(14,19,20,22)        133.9319         calculate D2E/DX2 analytically  !
 ! D72   D(14,19,20,23)         14.4332         calculate D2E/DX2 analytically  !
 --------------------------------------------------------------------------------
 Trust Radius=1.00D-01 FncErr=1.00D-07 GrdErr=1.00D-06 EigMax=2.50D+02 EigMin=1.00D-04
 Number of steps in this run=    100 maximum allowed number of steps=    216.
 Search for a saddle point of order  1.
 GradGradGradGradGradGradGradGradGradGradGradGradGradGradGradGradGradGrad

                          Input orientation:                          
 ---------------------------------------------------------------------
 Center     Atomic      Atomic             Coordinates (Angstroms)
 Number     Number       Type             X           Y           Z
 ---------------------------------------------------------------------
      1          6           0        3.457140   -1.043883    1.053754
      2          7           0        3.527710   -0.690249   -0.343694
      3          6           0        2.499552   -0.351034   -1.105752
      4          8           0        2.528867   -0.042324   -2.287109
      5          6           0        1.174127   -0.333573   -0.454077
      6          7           0        0.155470   -0.949720   -0.531262
      7          6           0       -1.114369   -1.099108   -0.341229
      8          6           0       -1.596140   -1.934354    0.788012
      9          6           0       -0.518648   -2.485545    1.678027
     10          8           0       -2.777139   -2.127424    0.979112
     11          6           0       -2.047631   -0.651109   -1.406977
     12          6           0       -1.393767   -0.099505   -2.641065
     13          8           0       -3.248594   -0.718965   -1.264361
     14          6           0       -0.764453    1.351489    0.812055
     15          6           0       -2.033597    0.994162    1.397489
     16          8           0       -2.097838    0.447585    2.478412
     17          8           0       -3.047462    1.404304    0.659011
     18          6           0       -4.365109    1.109402    1.128392
     19          6           0        0.400189    1.511935    0.473645
     20          6           0        1.549115    2.390837    0.240409
     21          9           0        1.776032    2.611637   -1.063203
     22          9           0        2.691093    1.918755    0.755816
     23          9           0        1.356161    3.599185    0.799246
     24          1           0        2.441918   -0.886832    1.416045
     25          1           0        3.733566   -2.089436    1.192485
     26          1           0        4.136939   -0.412989    1.625523
     27          1           0        4.439729   -0.700787   -0.783755
     28          1           0        0.280214   -2.937751    1.097396
     29          1           0       -0.115589   -1.663471    2.268290
     30          1           0       -0.955208   -3.215676    2.353488
     31          1           0       -0.804053    0.779801   -2.387129
     32          1           0       -0.723716   -0.835222   -3.080424
     33          1           0       -2.160544    0.174715   -3.359660
     34          1           0       -5.017400    1.841350    0.660989
     35          1           0       -4.401427    1.178797    2.216231
     36          1           0       -4.633059    0.099440    0.814297
 ---------------------------------------------------------------------
                    Distance matrix (angstroms):
                    1          2          3          4          5
     1  C    0.000000
     2  N    1.443225   0.000000
     3  C    2.461804   1.323974   0.000000
     4  O    3.609180   2.279113   1.221379   0.000000
     5  C    2.826701   2.383014   1.477070   2.297859   0.000000
     6  N    3.663628   3.387405   2.486601   3.088589   1.193004
     7  C    4.779929   4.660051   3.768891   4.263381   2.415780
     8  C    5.138014   5.392809   4.782043   5.481955   3.432151
     9  C    4.274926   4.866565   4.627644   5.565877   3.470207
    10  O    6.328180   6.600486   5.945224   6.570354   4.569950
    11  C    6.042514   5.675961   4.567019   4.699956   3.374697
    12  C    6.170481   5.463317   4.192659   3.938986   3.381093
    13  O    7.102542   6.838622   5.762093   5.906176   4.512821
    14  C    4.859843   4.891535   4.150940   4.732176   2.863673
    15  C    5.866853   6.066061   5.350253   5.955388   3.934549
    16  O    5.925530   6.395759   5.883878   6.660075   4.462674
    17  O    6.961270   6.973196   6.079882   6.470534   4.699043
    18  C    8.113556   8.228146   7.365314   7.779398   5.938815
    19  C    4.026621   3.911399   3.220633   3.816904   2.205799
    20  C    4.012405   3.707978   3.198959   3.642600   2.836431
    21  F    4.546478   3.806379   3.050035   3.017981   3.067179
    22  F    3.074543   2.952244   2.941779   3.623746   2.972879
    23  F    5.102644   4.941779   4.532173   4.915426   4.131651
    24  H    1.089309   2.077081   2.578732   3.799224   2.326100
    25  H    1.090339   2.088049   3.134760   4.213021   3.513538
    26  H    1.089530   2.079868   3.185081   4.246408   3.620676
    27  H    2.111786   1.012691   1.997572   2.518936   3.302679
    28  H    3.698850   4.204074   4.058377   4.989470   3.160362
    29  H    3.824052   4.587292   4.466051   5.511164   3.292913
    30  H    5.086728   5.809400   5.666382   6.613932   4.552253
    31  H    5.772631   5.010074   3.719479   3.434275   2.981525
    32  H    5.883411   5.058195   3.810936   3.440543   3.278897
    33  H    7.247177   6.496187   5.203173   4.815397   4.452056
    34  H    8.960840   8.968684   8.026985   8.317792   6.656476
    35  H    8.249165   8.539190   7.810215   8.354650   6.364323
    36  H    8.174096   8.280260   7.400248   7.805896   5.959840
                    6          7          8          9         10
     6  N    0.000000
     7  C    1.292641   0.000000
     8  C    2.403773   1.484899   0.000000
     9  C    2.773833   2.520811   1.502307   0.000000
    10  O    3.502629   2.359139   1.211840   2.391133   0.000000
    11  C    2.389498   1.485765   2.582351   3.901307   2.899157
    12  C    2.752139   2.523195   3.894380   5.011345   4.373998
    13  O    3.489747   2.356183   2.901726   4.385324   2.690576
    14  C    2.818922   2.730922   3.389550   3.941213   4.022643
    15  C    3.505820   2.872264   3.023084   3.805540   3.236077
    16  O    4.010984   3.363012   2.963577   3.426034   3.056145
    17  O    4.149332   3.317288   3.642749   4.750181   3.556493
    18  C    5.237372   4.195785   4.128862   5.293488   3.608459
    19  C    2.670107   3.126572   3.995130   4.274885   4.857556
    20  C    3.700952   4.428563   5.375851   5.488305   6.298956
    21  F    3.948727   4.758707   5.955214   6.225846   6.881941
    22  F    4.039072   4.979212   5.764360   5.527275   6.806100
    23  F    4.889217   5.429379   6.271862   6.427371   7.064742
    24  H    3.003965   3.972437   4.218725   3.374829   5.382243
    25  H    4.131953   5.180300   5.347281   4.298137   6.514312
    26  H    4.559814   5.649347   5.990340   5.096345   7.152735
    27  H    4.298906   5.585919   6.357975   5.816462   7.564799
    28  H    2.573005   2.719396   2.150169   1.086187   3.165128
    29  H    2.901793   2.850554   2.111073   1.089345   2.993507
    30  H    3.832747   3.430262   2.122097   1.086243   2.528366
    31  H    2.712226   2.795050   4.251536   5.222015   4.865862
    32  H    2.698945   2.779467   4.115096   5.040683   4.729288
    33  H    3.824671   3.439191   4.687207   5.928836   4.950251
    34  H    5.997509   4.988425   5.096774   6.324173   4.568494
    35  H    5.731021   4.747020   4.427319   5.365914   3.885855
    36  H    5.083432   3.892677   3.655118   4.935236   2.903537
                   11         12         13         14         15
    11  C    0.000000
    12  C    1.501592   0.000000
    13  O    1.211303   2.391532   0.000000
    14  C    3.252853   3.798086   3.843078   0.000000
    15  C    3.251483   4.232660   3.390645   1.442617   0.000000
    16  O    4.038056   5.196543   4.085759   2.317693   1.212958
    17  O    3.081021   3.985806   2.871948   2.288743   1.319655
    18  C    3.859818   4.949660   3.211666   3.622624   2.349818
    19  C    3.769260   3.939090   4.616405   1.223379   2.654221
    20  C    4.990381   4.813029   5.912125   2.599927   4.015640
    21  F    5.038263   4.459547   6.031603   3.399798   4.815029
    22  F    5.808389   5.683155   6.805775   3.502250   4.856883
    23  F    5.875221   5.751360   6.641435   3.090194   4.316769
    24  H    5.308585   5.638484   6.292431   3.956729   4.854763
    25  H    6.499864   6.704139   7.527606   5.675991   6.542994
    26  H    6.892146   6.992193   7.936697   5.272453   6.333056
    27  H    6.517416   6.151489   7.703351   5.817384   7.038084
    28  H    4.113330   4.983367   4.790971   4.423837   4.572058
    29  H    4.273786   5.308624   4.815333   3.410517   3.391174
    30  H    4.680971   5.903255   4.958026   4.824044   4.449673
    31  H    2.134172   1.088772   3.079398   3.250105   3.985106
    32  H    2.141746   1.087789   3.112332   4.464837   5.011402
    33  H    2.123136   1.086058   2.524440   4.553798   4.828880
    34  H    4.394128   5.272684   3.659353   4.283730   3.187984
    35  H    4.692179   5.854348   4.128564   3.902449   2.512180
    36  H    3.490247   4.740477   2.628184   4.066171   2.810311
                   16         17         18         19         20
    16  O    0.000000
    17  O    2.264358   0.000000
    18  C    2.720492   1.429503   0.000000
    19  C    3.375214   3.454308   4.826882   0.000000
    20  C    4.699484   4.719852   6.116261   1.465230   0.000000
    21  F    5.677414   5.262107   6.691294   2.337561   1.341510
    22  F    5.297692   5.762382   7.112233   2.343793   1.338888
    23  F    4.968127   4.922302   6.248223   2.318730   1.345227
    24  H    4.849606   5.996307   7.099530   3.287987   3.594764
    25  H    6.488094   7.646775   8.707768   4.959638   5.074556
    26  H    6.351414   7.473441   8.651569   4.358378   4.059164
    27  H    7.395963   7.910184   9.190118   4.774419   4.354618
    28  H    4.361518   5.488083   6.161123   4.494793   5.544221
    29  H    2.903449   4.538381   5.200636   3.683745   4.829177
    30  H    3.839361   5.347242   5.642215   5.265094   6.493823
    31  H    5.045566   3.834301   5.014843   3.189083   3.877731
    32  H    5.868089   4.939499   5.895375   4.404966   5.157631
    33  H    5.844782   4.295141   5.086881   4.799973   5.624346
    34  H    3.710721   2.017838   1.086138   5.430827   6.602874
    35  H    2.431035   2.075815   1.090655   5.118897   6.386068
    36  H    3.052512   2.059345   1.091089   5.238776   6.618091
                   21         22         23         24         25
    21  F    0.000000
    22  F    2.150873   0.000000
    23  F    2.149479   2.146574   0.000000
    24  H    4.339281   2.892975   4.656571   0.000000
    25  H    5.569574   4.164495   6.177953   1.778930   0.000000
    26  H    4.685242   2.878174   4.951061   1.772429   1.777838
    27  H    4.259756   3.505710   5.523047   2.977411   2.516453
    28  H    6.140144   5.432739   6.631597   2.996793   3.557291
    29  H    5.740525   4.795559   5.658594   2.805412   4.019304
    30  H    7.286359   6.496957   7.362094   4.224072   4.959935
    31  H    3.430049   4.836462   4.771628   5.270496   6.452608
    32  H    4.711556   5.827697   6.248336   5.499286   6.300649
    33  H    5.168068   6.596757   6.433561   6.716911   7.783890
    34  H    7.051021   7.709465   6.612970   7.978378   9.607964
    35  H    7.139238   7.279024   6.404369   7.192948   8.826524
    36  H    7.135306   7.546956   6.936800   7.168692   8.656479
                   26         27         28         29         30
    26  H    0.000000
    27  H    2.445227   0.000000
    28  H    4.639792   5.083729   0.000000
    29  H    4.478935   5.567105   1.775230   0.000000
    30  H    5.857897   6.728470   1.783614   1.766794   0.000000
    31  H    6.475919   5.679806   5.209390   5.302498   6.201624
    32  H    6.778658   5.652780   4.783585   5.446518   5.936965
    33  H    8.053306   7.139004   5.959035   6.263752   6.751863
    34  H    9.477041   9.898840   7.148075   6.236580   6.703691
    35  H    8.705540   9.523591   6.333681   5.142917   5.586292
    36  H    8.822332   9.247141   5.783159   5.062557   5.185141
                   31         32         33         34         35
    31  H    0.000000
    32  H    1.759378   0.000000
    33  H    1.775391   1.778319   0.000000
    34  H    5.307562   6.292689   5.206239   0.000000
    35  H    5.855871   6.755471   6.092643   1.799215   0.000000
    36  H    5.037193   5.596911   4.851899   1.790383   1.784400
                   36
    36  H    0.000000
 Symmetry turned off by external request.
 Stoichiometry    C13H13F3N2O5
 Framework group  C1[X(C13H13F3N2O5)]
 Deg. of freedom   102
 Full point group                 C1      NOp   1
 Rotational constants (GHZ):           0.3739406           0.2086821           0.1834620
 Standard basis: def2SVP (5D, 7F)
   387 basis functions,   666 primitive gaussians,   410 cartesian basis functions
    86 alpha electrons       86 beta electrons
       nuclear repulsion energy      2154.8879244729 Hartrees.
 NAtoms=   36 NActive=   36 NUniq=   36 SFac= 1.00D+00 NAtFMM=   60 NAOKFM=F Big=F
 Integral buffers will be    131072 words long.
 Raffenetti 2 integral format.
 Two-electron integral symmetry is turned off.
 Nuclear repulsion after empirical dispersion term =     2154.8087749704 Hartrees.
 Force inversion solution in PCM.
 ------------------------------------------------------------------------------
 Polarizable Continuum Model (PCM)
 =================================
 Model                : PCM.
 Atomic radii         : SMD-Coulomb.
 Polarization charges : Total charges.
 Charge compensation  : None.
 Solution method      : Matrix inversion.
 Cavity type          : VdW (van der Waals Surface) (Alpha=1.000).
 Cavity algorithm     : GePol (No added spheres)
                        Default sphere list used, NSphG=   36.
                        Lebedev-Laikov grids with approx.  5.0 points / Ang**2.
                        Smoothing algorithm: York/Karplus (Gamma=1.0000).
                        Polarization charges: spherical gaussians, with
                                              point-specific exponents (IZeta= 3).
                        Self-potential: point-specific (ISelfS= 7).
                        Self-field    : sphere-specific E.n sum rule (ISelfD= 2).
 1st derivatives      : Analytical E(r).r(x)/FMM algorithm (CHGder, D1EAlg=3).
                        Cavity 1st derivative terms included.
 2nd derivatives      : Analytical E(r).r(xy)/FMM algorithm (CHGder, D2EAlg=3).
                        Cavity 2nd derivative terms included.
 Solvent              : Water, Eps=  78.355300 Eps(inf)=   1.777849
 ------------------------------------------------------------------------------
 ------------------------------------------------------------------------------
 Atomic radii for non-electrostatic terms: SMD-CDS.
 ------------------------------------------------------------------------------
 Nuclear repulsion after PCM non-electrostatic terms =     2154.8273398348 Hartrees.
 One-electron integrals computed using PRISM.
   1 Symmetry operations used in ECPInt.
 ECPInt:  NShTT=   15753 NPrTT=   58649 LenC2=   14384 LenP2D=   36677.
 LDataN:  DoStor=T MaxTD1= 4 Len=   56
 NBasis=   387 RedAO= T EigKep=  4.24D-04  NBF=   387
 NBsUse=   387 1.00D-06 EigRej= -1.00D+00 NBFU=   387
 ExpMin= 1.22D-01 ExpMax= 2.89D+03 ExpMxC= 4.35D+02 IAcc=3 IRadAn=         5 AccDes= 0.00D+00
 Harris functional with IExCor=  402 and IRadAn=       5 diagonalized for initial guess.
 HarFok:  IExCor=  402 AccDes= 0.00D+00 IRadAn=         5 IDoV= 1 UseB2=F ITyADJ=14
 ICtDFT=  3500011 ScaDFX=  1.000000  1.000000  1.000000  1.000000
 FoFCou: FMM=F IPFlag=           0 FMFlag=      100000 FMFlg1=           0
         NFxFlg=           0 DoJE=T BraDBF=F KetDBF=T FulRan=T
         wScrn=  0.000000 ICntrl=       500 IOpCl=  0 I1Cent=   200000004 NGrid=           0
         NMat0=    1 NMatS0=      1 NMatT0=    0 NMatD0=    1 NMtDS0=    0 NMtDT0=    0
 Symmetry not used in FoFCou.
 Requested convergence on RMS density matrix=1.00D-08 within 128 cycles.
 Requested convergence on MAX density matrix=1.00D-06.
 Requested convergence on             energy=1.00D-06.
 No special actions if energy rises.
 Inv3:  Mode=1 IEnd=    21902412.
 Iteration    1 A*A^-1 deviation from unit magnitude is 3.33D-15 for   1637.
 Iteration    1 A*A^-1 deviation from orthogonality  is 3.77D-15 for   2633   1144.
 Iteration    1 A^-1*A deviation from unit magnitude is 3.22D-15 for    384.
 Iteration    1 A^-1*A deviation from orthogonality  is 1.02D-13 for   2629   2590.
 Error on total polarization charges =  0.03836
 SCF Done:  E(RB3LYP) =  -1287.35814632     A.U. after   15 cycles
            NFock= 15  Conv=0.47D-08     -V/T= 2.0081
 SMD-CDS (non-electrostatic) energy       (kcal/mol) =      11.65
 (included in total energy above)
 DoSCS=F DFT=T ScalE2(SS,OS)=  1.000000  1.000000
 Range of M.O.s used for correlation:     1   387
 NBasis=   387 NAE=    86 NBE=    86 NFC=     0 NFV=     0
 NROrb=    387 NOA=    86 NOB=    86 NVA=   301 NVB=   301
   1 Symmetry operations used in ECPInt.
 ECPInt:  NShTT=   15753 NPrTT=   58649 LenC2=   14384 LenP2D=   36677.
 LDataN:  DoStor=T MaxTD1= 5 Len=  102
 Symmetrizing basis deriv contribution to polar:
 IMax=3 JMax=2 DiffMx= 0.00D+00
 G2DrvN: will do    37 centers at a time, making    1 passes.
 Calling FoFCou, ICntrl=  3107 FMM=F I1Cent=   0 AccDes= 0.00D+00.
 NEqPCM:  Using equilibrium solvation (IEInf=0, Eps=  78.3553, EpsInf=   1.7778)
 G2PCM: DoFxE=T DoFxN=T DoGrad=T DoDP/DQ/DG/TGxP=FFFF NFrqRd=   0 IEInf=0 SqF1=F DoCFld=F IF1Alg=4.
 End of G2Drv F.D. properties file   721 does not exist.
 End of G2Drv F.D. properties file   722 does not exist.
 End of G2Drv F.D. properties file   788 does not exist.
          IDoAtm=111111111111111111111111111111111111
 NEqPCM:  Using equilibrium solvation (IEInf=0, Eps=  78.3553, EpsInf=   1.7778)
          Differentiating once with respect to nuclear coordinates.
 CalDSu exits because no D1Ps are significant.
          There are   111 degrees of freedom in the 1st order CPHF.  IDoFFX=6 NUNeed=     0.
    105 vectors produced by pass  0 Test12= 2.59D-14 1.00D-09 XBig12= 2.43D-01 1.23D-01.
 AX will form   105 AO Fock derivatives at one time.
    105 vectors produced by pass  1 Test12= 2.59D-14 1.00D-09 XBig12= 6.76D-02 6.15D-02.
    105 vectors produced by pass  2 Test12= 2.59D-14 1.00D-09 XBig12= 8.74D-04 5.02D-03.
    105 vectors produced by pass  3 Test12= 2.59D-14 1.00D-09 XBig12= 5.00D-06 2.21D-04.
    105 vectors produced by pass  4 Test12= 2.59D-14 1.00D-09 XBig12= 1.11D-08 1.03D-05.
     87 vectors produced by pass  5 Test12= 2.59D-14 1.00D-09 XBig12= 1.25D-11 3.45D-07.
     39 vectors produced by pass  6 Test12= 2.59D-14 1.00D-09 XBig12= 1.27D-14 1.15D-08.
 InvSVY:  IOpt=1 It=  1 EMax= 5.00D-16
 Solved reduced A of dimension   651 with   111 vectors.
 End of Minotr F.D. properties file   721 does not exist.
 End of Minotr F.D. properties file   722 does not exist.
 End of Minotr F.D. properties file   788 does not exist.

 **********************************************************************

            Population analysis using the SCF Density.

 **********************************************************************

 Alpha  occ. eigenvalues --  -24.73547 -24.73338 -24.72790 -19.19421 -19.14055
 Alpha  occ. eigenvalues --  -19.13822 -19.13712 -19.13297 -14.42731 -14.37573
 Alpha  occ. eigenvalues --  -10.46287 -10.34833 -10.33001 -10.29287 -10.29239
 Alpha  occ. eigenvalues --  -10.29169 -10.25780 -10.23570 -10.23549 -10.22918
 Alpha  occ. eigenvalues --  -10.22343 -10.18320 -10.18317  -1.31673  -1.22281
 Alpha  occ. eigenvalues --   -1.21728  -1.11856  -1.06439  -1.05726  -1.04147
 Alpha  occ. eigenvalues --   -1.02809  -1.01507  -0.94627  -0.83019  -0.81896
 Alpha  occ. eigenvalues --   -0.76144  -0.75233  -0.73116  -0.71973  -0.71611
 Alpha  occ. eigenvalues --   -0.68426  -0.65119  -0.62696  -0.61252  -0.60992
 Alpha  occ. eigenvalues --   -0.60649  -0.59627  -0.55755  -0.55720  -0.51876
 Alpha  occ. eigenvalues --   -0.50492  -0.50336  -0.49435  -0.49311  -0.48874
 Alpha  occ. eigenvalues --   -0.48569  -0.48424  -0.46622  -0.45101  -0.44811
 Alpha  occ. eigenvalues --   -0.44581  -0.44486  -0.44323  -0.44074  -0.43959
 Alpha  occ. eigenvalues --   -0.43559  -0.43180  -0.42259  -0.41463  -0.41238
 Alpha  occ. eigenvalues --   -0.40759  -0.40146  -0.39867  -0.38567  -0.37958
 Alpha  occ. eigenvalues --   -0.36936  -0.36485  -0.33861  -0.32358  -0.31766
 Alpha  occ. eigenvalues --   -0.30105  -0.29785  -0.29688  -0.27831  -0.25385
 Alpha  occ. eigenvalues --   -0.24903
 Alpha virt. eigenvalues --   -0.10611  -0.06057  -0.05049  -0.03328  -0.01131
 Alpha virt. eigenvalues --    0.02944   0.05583   0.07032   0.07789   0.09138
 Alpha virt. eigenvalues --    0.09717   0.10092   0.12020   0.12474   0.12972
 Alpha virt. eigenvalues --    0.13236   0.13857   0.13941   0.14524   0.14722
 Alpha virt. eigenvalues --    0.15653   0.16447   0.16606   0.19106   0.19519
 Alpha virt. eigenvalues --    0.19897   0.20761   0.22382   0.22923   0.23532
 Alpha virt. eigenvalues --    0.24336   0.24775   0.27582   0.27999   0.28729
 Alpha virt. eigenvalues --    0.29993   0.31506   0.33724   0.35006   0.36999
 Alpha virt. eigenvalues --    0.38357   0.39029   0.39699   0.40896   0.41879
 Alpha virt. eigenvalues --    0.42700   0.43180   0.43802   0.45110   0.45377
 Alpha virt. eigenvalues --    0.46232   0.46658   0.47737   0.48617   0.49192
 Alpha virt. eigenvalues --    0.50144   0.50899   0.52145   0.52803   0.54596
 Alpha virt. eigenvalues --    0.56519   0.57068   0.57519   0.58460   0.59218
 Alpha virt. eigenvalues --    0.59465   0.60701   0.61281   0.61706   0.61946
 Alpha virt. eigenvalues --    0.62144   0.62986   0.64263   0.64623   0.64860
 Alpha virt. eigenvalues --    0.65244   0.65923   0.66126   0.66636   0.67645
 Alpha virt. eigenvalues --    0.67974   0.68830   0.69275   0.69518   0.69736
 Alpha virt. eigenvalues --    0.70831   0.71302   0.72699   0.73455   0.74168
 Alpha virt. eigenvalues --    0.76005   0.76516   0.78274   0.78410   0.79456
 Alpha virt. eigenvalues --    0.80616   0.82342   0.83296   0.84209   0.85541
 Alpha virt. eigenvalues --    0.86510   0.86949   0.88565   0.88830   0.90475
 Alpha virt. eigenvalues --    0.92981   0.94661   0.95992   0.96673   0.98551
 Alpha virt. eigenvalues --    1.00112   1.01700   1.04164   1.04402   1.05991
 Alpha virt. eigenvalues --    1.07453   1.08040   1.09735   1.10445   1.10672
 Alpha virt. eigenvalues --    1.12270   1.13378   1.15230   1.16454   1.16885
 Alpha virt. eigenvalues --    1.18384   1.19997   1.21839   1.22980   1.24271
 Alpha virt. eigenvalues --    1.24551   1.26073   1.27872   1.29192   1.29913
 Alpha virt. eigenvalues --    1.30543   1.32204   1.33633   1.35399   1.36270
 Alpha virt. eigenvalues --    1.38195   1.38889   1.41210   1.42329   1.43138
 Alpha virt. eigenvalues --    1.44966   1.46175   1.47362   1.49316   1.49373
 Alpha virt. eigenvalues --    1.51280   1.51894   1.52419   1.53139   1.53361
 Alpha virt. eigenvalues --    1.54384   1.54888   1.56644   1.58931   1.60079
 Alpha virt. eigenvalues --    1.60633   1.61626   1.62538   1.63908   1.64668
 Alpha virt. eigenvalues --    1.67213   1.68093   1.69771   1.71789   1.72576
 Alpha virt. eigenvalues --    1.73190   1.74872   1.75079   1.75620   1.76032
 Alpha virt. eigenvalues --    1.77688   1.77898   1.78603   1.79627   1.80563
 Alpha virt. eigenvalues --    1.81154   1.81479   1.82707   1.83052   1.83343
 Alpha virt. eigenvalues --    1.84792   1.85849   1.86527   1.87133   1.87383
 Alpha virt. eigenvalues --    1.90561   1.91216   1.91626   1.92164   1.93609
 Alpha virt. eigenvalues --    1.94499   1.95422   1.96507   1.97758   1.98962
 Alpha virt. eigenvalues --    1.99691   2.01543   2.02376   2.03000   2.04397
 Alpha virt. eigenvalues --    2.06813   2.07004   2.08567   2.10716   2.12707
 Alpha virt. eigenvalues --    2.13522   2.15698   2.16417   2.18188   2.19202
 Alpha virt. eigenvalues --    2.20460   2.22878   2.26455   2.26913   2.29397
 Alpha virt. eigenvalues --    2.31150   2.32606   2.33861   2.34488   2.40000
 Alpha virt. eigenvalues --    2.40782   2.41211   2.43081   2.43749   2.47276
 Alpha virt. eigenvalues --    2.47858   2.48492   2.49120   2.51914   2.53342
 Alpha virt. eigenvalues --    2.55322   2.56768   2.60578   2.61521   2.63008
 Alpha virt. eigenvalues --    2.63882   2.66450   2.67527   2.68625   2.69244
 Alpha virt. eigenvalues --    2.69405   2.70136   2.70719   2.73553   2.75746
 Alpha virt. eigenvalues --    2.78845   2.79730   2.81223   2.82256   2.82695
 Alpha virt. eigenvalues --    2.86236   2.87300   2.93795   2.94237   2.94340
 Alpha virt. eigenvalues --    2.94365   2.96171   2.97592   2.98941   2.99976
 Alpha virt. eigenvalues --    3.01681   3.02777   3.02789   3.03896   3.03975
 Alpha virt. eigenvalues --    3.04506   3.05656   3.06493   3.09857   3.12346
 Alpha virt. eigenvalues --    3.13305   3.15873   3.16570   3.17753   3.19485
 Alpha virt. eigenvalues --    3.19675   3.22393   3.23369   3.33613   3.34613
 Alpha virt. eigenvalues --    3.38427   3.39261   3.43632   3.44775   3.51160
 Alpha virt. eigenvalues --    3.54342   3.57620   3.62415   3.63645   3.64446
 Alpha virt. eigenvalues --    3.65561   3.66353   3.67971   3.71313   3.82940
 Alpha virt. eigenvalues --    3.87792
          Condensed to atoms (all electrons):
               1          2          3          4          5          6
     1  C    4.408284   0.335443  -0.041145   0.002366   0.006523  -0.001446
     2  N    0.335443   6.327246   0.403491  -0.087324  -0.120735  -0.003530
     3  C   -0.041145   0.403491   4.687834   0.732210   0.072025  -0.032681
     4  O    0.002366  -0.087324   0.732210   7.749706  -0.088785  -0.008320
     5  C    0.006523  -0.120735   0.072025  -0.088785   5.639856   0.726340
     6  N   -0.001446  -0.003530  -0.032681  -0.008320   0.726340   5.922505
     7  C    0.000125  -0.000383   0.004048  -0.000377  -0.180287   0.378798
     8  C   -0.000055   0.000016  -0.000135  -0.000003   0.003221  -0.032084
     9  C   -0.000987  -0.000017   0.000028   0.000001   0.000490  -0.002982
    10  O   -0.000000   0.000000   0.000002   0.000000   0.000091   0.001581
    11  C   -0.000005  -0.000008  -0.000541  -0.000081   0.001554  -0.031433
    12  C    0.000001  -0.000016  -0.001209  -0.001027   0.001997  -0.001372
    13  O    0.000000  -0.000000  -0.000001  -0.000000   0.000088   0.001655
    14  C   -0.000593  -0.000082   0.004670   0.000118  -0.010251  -0.051844
    15  C   -0.000008  -0.000001  -0.000182   0.000000   0.002460  -0.002654
    16  O    0.000001  -0.000000   0.000001  -0.000000   0.000183   0.000238
    17  O    0.000000  -0.000000   0.000001   0.000000   0.000045   0.000189
    18  C   -0.000000   0.000000  -0.000000   0.000000   0.000009   0.000002
    19  C    0.000133  -0.000127  -0.010873  -0.000731   0.037396  -0.026137
    20  C    0.000098   0.000511   0.000563   0.001494   0.006231  -0.000121
    21  F    0.000007  -0.000202   0.008212  -0.001077  -0.003288  -0.000002
    22  F    0.005180  -0.004302   0.011976  -0.000110  -0.005520   0.000221
    23  F    0.000011  -0.000002   0.000170  -0.000000   0.000428  -0.000009
    24  H    0.391964  -0.007848  -0.034993   0.000089   0.029389  -0.000771
    25  H    0.397963  -0.025810   0.002662  -0.000015  -0.002041   0.000171
    26  H    0.393880  -0.026434   0.005140   0.000011  -0.001226  -0.000010
    27  H   -0.021558   0.343369  -0.010595   0.003398   0.016151   0.000040
    28  H    0.000127  -0.000000  -0.000035  -0.000001   0.000679   0.004713
    29  H   -0.000161   0.000026  -0.000044  -0.000000   0.001901  -0.000297
    30  H    0.000058  -0.000000  -0.000005  -0.000000  -0.000176   0.000375
    31  H   -0.000002   0.000054  -0.000375   0.002646   0.004475  -0.001560
    32  H   -0.000001   0.000035   0.001211   0.002416   0.000055   0.002126
    33  H    0.000000   0.000000   0.000042   0.000036  -0.000275   0.000425
    34  H   -0.000000   0.000000  -0.000000   0.000000   0.000000   0.000000
    35  H   -0.000000   0.000000   0.000000   0.000000   0.000001  -0.000000
    36  H    0.000000   0.000000   0.000000   0.000000  -0.000004  -0.000031
               7          8          9         10         11         12
     1  C    0.000125  -0.000055  -0.000987  -0.000000  -0.000005   0.000001
     2  N   -0.000383   0.000016  -0.000017   0.000000  -0.000008  -0.000016
     3  C    0.004048  -0.000135   0.000028   0.000002  -0.000541  -0.001209
     4  O   -0.000377  -0.000003   0.000001   0.000000  -0.000081  -0.001027
     5  C   -0.180287   0.003221   0.000490   0.000091   0.001554   0.001997
     6  N    0.378798  -0.032084  -0.002982   0.001581  -0.031433  -0.001372
     7  C    6.362901   0.037102  -0.185812  -0.122080   0.051753  -0.185665
     8  C    0.037102   4.733214   0.474927   0.729737  -0.003334   0.008272
     9  C   -0.185812   0.474927   4.654900  -0.071186   0.008992   0.000029
    10  O   -0.122080   0.729737  -0.071186   7.696659   0.009198   0.000238
    11  C    0.051753  -0.003334   0.008992   0.009198   4.739151   0.467621
    12  C   -0.185665   0.008272   0.000029   0.000238   0.467621   4.666647
    13  O   -0.121760   0.007222   0.000203  -0.010352   0.724991  -0.069953
    14  C    0.084288  -0.012247   0.000313  -0.001505  -0.012454  -0.002089
    15  C   -0.006051   0.006225  -0.001369   0.004750   0.002529   0.000045
    16  O   -0.013743   0.016845  -0.004716  -0.001888  -0.000200  -0.000006
    17  O   -0.005857  -0.002913   0.000008   0.000058   0.012600  -0.001090
    18  C    0.001031  -0.000505  -0.000064  -0.002020  -0.002022  -0.000119
    19  C    0.007352  -0.001696   0.000087  -0.000013  -0.005987   0.001068
    20  C    0.001074  -0.000062   0.000009   0.000000  -0.000054  -0.000257
    21  F    0.000001   0.000000  -0.000000  -0.000000   0.000012  -0.000273
    22  F    0.000024  -0.000001   0.000001   0.000000  -0.000000  -0.000001
    23  F    0.000001  -0.000000  -0.000000   0.000000  -0.000000  -0.000000
    24  H    0.000168  -0.000031   0.002539   0.000002   0.000014   0.000002
    25  H   -0.000009   0.000001   0.000012   0.000000   0.000000  -0.000000
    26  H   -0.000006   0.000002   0.000014   0.000000  -0.000000  -0.000000
    27  H    0.000022  -0.000000   0.000000  -0.000000   0.000000   0.000001
    28  H   -0.007517   0.003176   0.361287   0.002694  -0.000283  -0.000021
    29  H   -0.003306   0.006867   0.351624  -0.000025   0.000292   0.000002
    30  H    0.018469  -0.000348   0.334302   0.007363  -0.000364   0.000005
    31  H   -0.004200   0.000382  -0.000005  -0.000008   0.005871   0.350188
    32  H   -0.001533  -0.000483  -0.000017   0.000023   0.002415   0.352829
    33  H    0.017992  -0.000340   0.000004   0.000012  -0.000527   0.334037
    34  H   -0.000034   0.000012   0.000002   0.000067  -0.000069   0.000007
    35  H   -0.000012  -0.000264   0.000002   0.000039   0.000274  -0.000005
    36  H   -0.002664   0.002661   0.000174   0.007915  -0.000184   0.000385
              13         14         15         16         17         18
     1  C    0.000000  -0.000593  -0.000008   0.000001   0.000000  -0.000000
     2  N   -0.000000  -0.000082  -0.000001  -0.000000  -0.000000   0.000000
     3  C   -0.000001   0.004670  -0.000182   0.000001   0.000001  -0.000000
     4  O   -0.000000   0.000118   0.000000  -0.000000   0.000000   0.000000
     5  C    0.000088  -0.010251   0.002460   0.000183   0.000045   0.000009
     6  N    0.001655  -0.051844  -0.002654   0.000238   0.000189   0.000002
     7  C   -0.121760   0.084288  -0.006051  -0.013743  -0.005857   0.001031
     8  C    0.007222  -0.012247   0.006225   0.016845  -0.002913  -0.000505
     9  C    0.000203   0.000313  -0.001369  -0.004716   0.000008  -0.000064
    10  O   -0.010352  -0.001505   0.004750  -0.001888   0.000058  -0.002020
    11  C    0.724991  -0.012454   0.002529  -0.000200   0.012600  -0.002022
    12  C   -0.069953  -0.002089   0.000045  -0.000006  -0.001090  -0.000119
    13  O    7.694977  -0.003046   0.005615   0.000050  -0.002832  -0.001240
    14  C   -0.003046   5.470998   0.158793  -0.073185  -0.103432   0.008288
    15  C    0.005615   0.158793   4.836626   0.676836   0.419410  -0.024331
    16  O    0.000050  -0.073185   0.676836   7.770879  -0.070481  -0.005493
    17  O   -0.002832  -0.103432   0.419410  -0.070481   7.877750   0.261513
    18  C   -0.001240   0.008288  -0.024331  -0.005493   0.261513   4.394882
    19  C   -0.000129   0.607002  -0.292929  -0.023117  -0.017217   0.000003
    20  C    0.000000  -0.095661   0.000858  -0.000236  -0.000091   0.000005
    21  F    0.000000  -0.017580  -0.000217  -0.000000   0.000000  -0.000000
    22  F   -0.000000  -0.004886  -0.000028   0.000000   0.000000   0.000000
    23  F    0.000000  -0.017897  -0.000386   0.000000   0.000000  -0.000000
    24  H   -0.000000  -0.001011  -0.000043  -0.000037  -0.000000   0.000000
    25  H   -0.000000   0.000018   0.000000  -0.000000   0.000000  -0.000000
    26  H   -0.000000  -0.000001   0.000000  -0.000000  -0.000000   0.000000
    27  H    0.000000  -0.000005  -0.000000   0.000000  -0.000000  -0.000000
    28  H    0.000009   0.000092   0.000246   0.000092  -0.000001   0.000001
    29  H   -0.000005   0.002289  -0.001880   0.010684   0.000105   0.000004
    30  H    0.000013  -0.000010  -0.000047  -0.000020   0.000001   0.000001
    31  H    0.001154  -0.002208  -0.001255   0.000005   0.000659  -0.000007
    32  H    0.001874   0.000403   0.000124   0.000000  -0.000006   0.000004
    33  H    0.007808   0.000102  -0.000102   0.000000   0.000038   0.000011
    34  H   -0.000036  -0.000508   0.005020   0.000607  -0.022432   0.397566
    35  H    0.000108   0.002928  -0.004897   0.017869  -0.026307   0.391823
    36  H    0.011641  -0.000046  -0.000222   0.000550  -0.028146   0.394353
              19         20         21         22         23         24
     1  C    0.000133   0.000098   0.000007   0.005180   0.000011   0.391964
     2  N   -0.000127   0.000511  -0.000202  -0.004302  -0.000002  -0.007848
     3  C   -0.010873   0.000563   0.008212   0.011976   0.000170  -0.034993
     4  O   -0.000731   0.001494  -0.001077  -0.000110  -0.000000   0.000089
     5  C    0.037396   0.006231  -0.003288  -0.005520   0.000428   0.029389
     6  N   -0.026137  -0.000121  -0.000002   0.000221  -0.000009  -0.000771
     7  C    0.007352   0.001074   0.000001   0.000024   0.000001   0.000168
     8  C   -0.001696  -0.000062   0.000000  -0.000001  -0.000000  -0.000031
     9  C    0.000087   0.000009  -0.000000   0.000001  -0.000000   0.002539
    10  O   -0.000013   0.000000  -0.000000   0.000000   0.000000   0.000002
    11  C   -0.005987  -0.000054   0.000012  -0.000000  -0.000000   0.000014
    12  C    0.001068  -0.000257  -0.000273  -0.000001  -0.000000   0.000002
    13  O   -0.000129   0.000000   0.000000  -0.000000   0.000000  -0.000000
    14  C    0.607002  -0.095661  -0.017580  -0.004886  -0.017897  -0.001011
    15  C   -0.292929   0.000858  -0.000217  -0.000028  -0.000386  -0.000043
    16  O   -0.023117  -0.000236  -0.000000   0.000000   0.000000  -0.000037
    17  O   -0.017217  -0.000091   0.000000   0.000000   0.000000  -0.000000
    18  C    0.000003   0.000005  -0.000000   0.000000  -0.000000   0.000000
    19  C    5.891685   0.225233  -0.053262  -0.061819  -0.055419   0.000213
    20  C    0.225233   4.141133   0.377774   0.364570   0.394107   0.000549
    21  F   -0.053262   0.377774   8.947623  -0.045542  -0.047220   0.000015
    22  F   -0.061819   0.364570  -0.045542   8.949407  -0.046812   0.001567
    23  F   -0.055419   0.394107  -0.047220  -0.046812   8.937439  -0.000012
    24  H    0.000213   0.000549   0.000015   0.001567  -0.000012   0.570975
    25  H   -0.000020   0.000001   0.000000   0.000177   0.000000  -0.016143
    26  H    0.000080   0.000237   0.000009   0.001220   0.000002  -0.012535
    27  H   -0.000071  -0.000045   0.000003   0.000002  -0.000000   0.005247
    28  H    0.000001   0.000008  -0.000000  -0.000000   0.000000   0.000971
    29  H   -0.001621  -0.000135   0.000000  -0.000008   0.000000   0.002245
    30  H    0.000022   0.000000   0.000000  -0.000000  -0.000000  -0.000159
    31  H    0.003598   0.000831   0.002110   0.000017   0.000006   0.000004
    32  H   -0.000241   0.000002  -0.000003  -0.000000   0.000000  -0.000001
    33  H   -0.000038   0.000001   0.000001   0.000000  -0.000000  -0.000000
    34  H    0.000043   0.000000   0.000000  -0.000000  -0.000000   0.000000
    35  H    0.000030  -0.000000   0.000000  -0.000000   0.000000   0.000000
    36  H    0.000001   0.000000   0.000000  -0.000000   0.000000  -0.000000
              25         26         27         28         29         30
     1  C    0.397963   0.393880  -0.021558   0.000127  -0.000161   0.000058
     2  N   -0.025810  -0.026434   0.343369  -0.000000   0.000026  -0.000000
     3  C    0.002662   0.005140  -0.010595  -0.000035  -0.000044  -0.000005
     4  O   -0.000015   0.000011   0.003398  -0.000001  -0.000000  -0.000000
     5  C   -0.002041  -0.001226   0.016151   0.000679   0.001901  -0.000176
     6  N    0.000171  -0.000010   0.000040   0.004713  -0.000297   0.000375
     7  C   -0.000009  -0.000006   0.000022  -0.007517  -0.003306   0.018469
     8  C    0.000001   0.000002  -0.000000   0.003176   0.006867  -0.000348
     9  C    0.000012   0.000014   0.000000   0.361287   0.351624   0.334302
    10  O    0.000000   0.000000  -0.000000   0.002694  -0.000025   0.007363
    11  C    0.000000  -0.000000   0.000000  -0.000283   0.000292  -0.000364
    12  C   -0.000000  -0.000000   0.000001  -0.000021   0.000002   0.000005
    13  O   -0.000000  -0.000000   0.000000   0.000009  -0.000005   0.000013
    14  C    0.000018  -0.000001  -0.000005   0.000092   0.002289  -0.000010
    15  C    0.000000   0.000000  -0.000000   0.000246  -0.001880  -0.000047
    16  O   -0.000000  -0.000000   0.000000   0.000092   0.010684  -0.000020
    17  O    0.000000  -0.000000  -0.000000  -0.000001   0.000105   0.000001
    18  C   -0.000000   0.000000  -0.000000   0.000001   0.000004   0.000001
    19  C   -0.000020   0.000080  -0.000071   0.000001  -0.001621   0.000022
    20  C    0.000001   0.000237  -0.000045   0.000008  -0.000135   0.000000
    21  F    0.000000   0.000009   0.000003  -0.000000   0.000000   0.000000
    22  F    0.000177   0.001220   0.000002  -0.000000  -0.000008  -0.000000
    23  F    0.000000   0.000002  -0.000000   0.000000   0.000000  -0.000000
    24  H   -0.016143  -0.012535   0.005247   0.000971   0.002245  -0.000159
    25  H    0.616017  -0.024751  -0.002926   0.000269  -0.000053  -0.000001
    26  H   -0.024751   0.617287  -0.004768  -0.000009  -0.000014  -0.000001
    27  H   -0.002926  -0.004768   0.491795  -0.000003  -0.000000   0.000000
    28  H    0.000269  -0.000009  -0.000003   0.606527  -0.014423  -0.013084
    29  H   -0.000053  -0.000014  -0.000000  -0.014423   0.590884  -0.005990
    30  H   -0.000001  -0.000001   0.000000  -0.013084  -0.005990   0.633360
    31  H   -0.000000   0.000000  -0.000004   0.000004  -0.000001   0.000000
    32  H    0.000001  -0.000000  -0.000002  -0.000005   0.000001  -0.000000
    33  H    0.000000  -0.000000  -0.000000   0.000000  -0.000000  -0.000000
    34  H   -0.000000   0.000000  -0.000000  -0.000000  -0.000001  -0.000000
    35  H    0.000000   0.000000  -0.000000  -0.000000  -0.000019   0.000001
    36  H   -0.000000  -0.000000  -0.000000  -0.000002  -0.000014  -0.000001
              31         32         33         34         35         36
     1  C   -0.000002  -0.000001   0.000000  -0.000000  -0.000000   0.000000
     2  N    0.000054   0.000035   0.000000   0.000000   0.000000   0.000000
     3  C   -0.000375   0.001211   0.000042  -0.000000   0.000000   0.000000
     4  O    0.002646   0.002416   0.000036   0.000000   0.000000   0.000000
     5  C    0.004475   0.000055  -0.000275   0.000000   0.000001  -0.000004
     6  N   -0.001560   0.002126   0.000425   0.000000  -0.000000  -0.000031
     7  C   -0.004200  -0.001533   0.017992  -0.000034  -0.000012  -0.002664
     8  C    0.000382  -0.000483  -0.000340   0.000012  -0.000264   0.002661
     9  C   -0.000005  -0.000017   0.000004   0.000002   0.000002   0.000174
    10  O   -0.000008   0.000023   0.000012   0.000067   0.000039   0.007915
    11  C    0.005871   0.002415  -0.000527  -0.000069   0.000274  -0.000184
    12  C    0.350188   0.352829   0.334037   0.000007  -0.000005   0.000385
    13  O    0.001154   0.001874   0.007808  -0.000036   0.000108   0.011641
    14  C   -0.002208   0.000403   0.000102  -0.000508   0.002928  -0.000046
    15  C   -0.001255   0.000124  -0.000102   0.005020  -0.004897  -0.000222
    16  O    0.000005   0.000000   0.000000   0.000607   0.017869   0.000550
    17  O    0.000659  -0.000006   0.000038  -0.022432  -0.026307  -0.028146
    18  C   -0.000007   0.000004   0.000011   0.397566   0.391823   0.394353
    19  C    0.003598  -0.000241  -0.000038   0.000043   0.000030   0.000001
    20  C    0.000831   0.000002   0.000001   0.000000  -0.000000   0.000000
    21  F    0.002110  -0.000003   0.000001   0.000000   0.000000   0.000000
    22  F    0.000017  -0.000000   0.000000  -0.000000  -0.000000  -0.000000
    23  F    0.000006   0.000000  -0.000000  -0.000000   0.000000   0.000000
    24  H    0.000004  -0.000001  -0.000000   0.000000   0.000000  -0.000000
    25  H   -0.000000   0.000001   0.000000  -0.000000   0.000000  -0.000000
    26  H    0.000000  -0.000000  -0.000000   0.000000   0.000000  -0.000000
    27  H   -0.000004  -0.000002  -0.000000  -0.000000  -0.000000  -0.000000
    28  H    0.000004  -0.000005   0.000000  -0.000000  -0.000000  -0.000002
    29  H   -0.000001   0.000001  -0.000000  -0.000001  -0.000019  -0.000014
    30  H    0.000000  -0.000000  -0.000000  -0.000000   0.000001  -0.000001
    31  H    0.599897  -0.011199  -0.008632  -0.000001   0.000001  -0.000035
    32  H   -0.011199   0.607076  -0.010642  -0.000000   0.000000  -0.000005
    33  H   -0.008632  -0.010642   0.633952   0.000000   0.000000  -0.000009
    34  H   -0.000001  -0.000000   0.000000   0.606542  -0.019676  -0.020546
    35  H    0.000001   0.000000   0.000000  -0.019676   0.623047  -0.026504
    36  H   -0.000035  -0.000005  -0.000009  -0.020546  -0.026504   0.620847
 Mulliken charges:
               1
     1  C    0.123798
     2  N   -0.133370
     3  C    0.198530
     4  O   -0.306639
     5  C   -0.139000
     6  N    0.157905
     7  C   -0.123850
     8  C    0.024617
     9  C    0.077208
    10  O   -0.251352
    11  C    0.030279
    12  C    0.079726
    13  O   -0.248056
    14  C    0.070239
    15  C    0.217066
    16  O   -0.301719
    17  O   -0.291572
    18  C    0.186306
    19  C   -0.222501
    20  C    0.581373
    21  F   -0.167099
    22  F   -0.165335
    23  F   -0.164406
    24  H    0.067631
    25  H    0.054478
    26  H    0.051874
    27  H    0.179952
    28  H    0.054486
    29  H    0.061074
    30  H    0.026237
    31  H    0.057587
    32  H    0.053546
    33  H    0.026100
    34  H    0.053436
    35  H    0.041563
    36  H    0.039887
 Sum of Mulliken charges =  -0.00000
 Mulliken charges with hydrogens summed into heavy atoms:
               1
     1  C    0.297781
     2  N    0.046583
     3  C    0.198530
     4  O   -0.306639
     5  C   -0.139000
     6  N    0.157905
     7  C   -0.123850
     8  C    0.024617
     9  C    0.219005
    10  O   -0.251352
    11  C    0.030279
    12  C    0.216960
    13  O   -0.248056
    14  C    0.070239
    15  C    0.217066
    16  O   -0.301719
    17  O   -0.291572
    18  C    0.321192
    19  C   -0.222501
    20  C    0.581373
    21  F   -0.167099
    22  F   -0.165335
    23  F   -0.164406
 APT charges:
               1
     1  C   -0.588437
     2  N   -0.463273
     3  C   -0.837950
     4  O    0.292959
     5  C   -0.124220
     6  N   -0.145634
     7  C    0.345160
     8  C   -1.383528
     9  C   -0.431345
    10  O    0.763423
    11  C   -1.324981
    12  C   -0.441249
    13  O    0.711844
    14  C    0.066281
    15  C   -0.642520
    16  O    0.273544
    17  O   -0.158207
    18  C   -0.843799
    19  C   -0.486109
    20  C   -0.601058
    21  F    0.159355
    22  F    0.187887
    23  F    0.447532
    24  H   -0.340233
    25  H    0.604731
    26  H    0.617268
    27  H    1.116999
    28  H    0.177947
    29  H   -0.006835
    30  H    0.710665
    31  H   -0.054951
    32  H    0.269198
    33  H    0.669208
    34  H    0.782047
    35  H    0.494183
    36  H    0.184100
 Sum of APT charges =  -0.00000
 APT charges with hydrogens summed into heavy atoms:
               1
     1  C    0.293328
     2  N    0.653726
     3  C   -0.837950
     4  O    0.292959
     5  C   -0.124220
     6  N   -0.145634
     7  C    0.345160
     8  C   -1.383528
     9  C    0.450431
    10  O    0.763423
    11  C   -1.324981
    12  C    0.442206
    13  O    0.711844
    14  C    0.066281
    15  C   -0.642520
    16  O    0.273544
    17  O   -0.158207
    18  C    0.616532
    19  C   -0.486109
    20  C   -0.601058
    21  F    0.159355
    22  F    0.187887
    23  F    0.447532
 Electronic spatial extent (au):  <R**2>=           6496.9043
 Charge=             -0.0000 electrons
 Dipole moment (field-independent basis, Debye):
    X=              8.9220    Y=             -2.3682    Z=              1.1421  Tot=              9.3014
 Quadrupole moment (field-independent basis, Debye-Ang):
   XX=           -122.4140   YY=           -130.5483   ZZ=           -140.8999
   XY=            -24.9647   XZ=             12.0345   YZ=              0.6731
 Traceless Quadrupole moment (field-independent basis, Debye-Ang):
   XX=              8.8734   YY=              0.7390   ZZ=             -9.6125
   XY=            -24.9647   XZ=             12.0345   YZ=              0.6731
 Octapole moment (field-independent basis, Debye-Ang**2):
  XXX=            203.2900  YYY=            -77.7736  ZZZ=            -42.6346  XYY=             37.9661
  XXY=              9.0486  XXZ=             25.3685  XZZ=             21.0030  YZZ=            -24.8119
  YYZ=            -10.6938  XYZ=            -12.2432
 Hexadecapole moment (field-independent basis, Debye-Ang**3):
 XXXX=          -3698.1504 YYYY=          -2040.8624 ZZZZ=          -1561.8249 XXXY=           -533.8982
 XXXZ=            142.7786 YYYX=           -237.0989 YYYZ=            -37.4684 ZZZX=            362.1037
 ZZZY=            -29.5383 XXYY=          -1075.1871 XXZZ=          -1039.1909 YYZZ=           -565.9440
 XXYZ=             32.8474 YYXZ=             82.1591 ZZXY=            -81.5552
 N-N= 2.154827339835D+03 E-N=-7.327591223269D+03  KE= 1.277028707441D+03
  Exact polarizability:   0.000   0.000   0.000   0.000   0.000   0.000
 Approx polarizability: 424.852  52.842 232.432 -23.355  -8.119 245.207
   1 Symmetry operations used in ECPInt.
 ECPInt:  NShTT=   15753 NPrTT=   58649 LenC2=   14384 LenP2D=   36677.
 LDataN:  DoStor=T MaxTD1= 6 Len=  172
 D2PCM: PCM CHGder 2nd derivatives, FixD1E=F FixD2E=F DoIter=F DoCFld=F I1PDM=0
 Calling FoFJK, ICntrl=    100147 FMM=F ISym2X=0 I1Cent= 0 IOpClX= 0 NMat=1 NMatS=1 NMatT=0.
 -------------------------------------------------------------------
 Center     Atomic                   Forces (Hartrees/Bohr)
 Number     Number              X              Y              Z
 -------------------------------------------------------------------
      1        6           0.000389761    0.001879974   -0.003289220
      2        7           0.003646466   -0.002467513    0.004216710
      3        6           0.004014931   -0.004892147   -0.001241035
      4        8          -0.000093039    0.004564087   -0.012907532
      5        6           0.002008147    0.003642885   -0.002400189
      6        7           0.007973764   -0.001582365    0.001305592
      7        6          -0.023612774   -0.008418239    0.000362794
      8        6           0.016401979   -0.002525759    0.001729181
      9        6          -0.009407666   -0.000410434   -0.000856183
     10        8          -0.011036737   -0.002665744    0.004723938
     11        6           0.013100055    0.003161980   -0.007270975
     12        6          -0.007104448   -0.001090534    0.002061319
     13        8          -0.012648713   -0.000087401   -0.002489377
     14        6          -0.014551047   -0.008058085    0.007355954
     15        6           0.012820451    0.012821556   -0.001618178
     16        8          -0.005790373   -0.005601158    0.008404482
     17        8          -0.003368959    0.003277354   -0.003863631
     18        6           0.000960520   -0.003172554    0.000852409
     19        6           0.014061718    0.003372186   -0.007177471
     20        6           0.004326172    0.016489057    0.003743880
     21        9          -0.002343584   -0.003853423   -0.004595660
     22        9           0.002818593   -0.005667941    0.003006353
     23        9          -0.003144731    0.000745749    0.001816364
     24        1          -0.005319507   -0.000553825    0.004436778
     25        1           0.000597393   -0.006333909    0.002720919
     26        1           0.003393256    0.003173760    0.005023830
     27        1           0.003812918    0.000619527   -0.004622005
     28        1           0.007621580   -0.002963290   -0.003268385
     29        1           0.005372205    0.006624565    0.003868338
     30        1          -0.002763721   -0.005332380    0.004905863
     31        1           0.006005868    0.006978824    0.002123893
     32        1           0.006460470   -0.005296124   -0.003106742
     33        1          -0.005389018    0.002239847   -0.005117079
     34        1          -0.005141829    0.004032356   -0.002196512
     35        1          -0.001882001    0.001561523    0.004333955
     36        1          -0.002188101   -0.004212404   -0.000972375
 -------------------------------------------------------------------
 Cartesian Forces:  Max     0.023612774 RMS     0.006251758
 FormGI is forming the generalized inverse of G from B-inverse, IUseBI=4.

 GradGradGradGradGradGradGradGradGradGradGradGradGradGradGradGradGradGrad
 Berny optimization.
 Internal  Forces:  Max     0.021456839 RMS     0.005082536
 Search for a saddle point.
 Step number   1 out of a maximum of  100
 All quantities printed in internal units (Hartrees-Bohrs-Radians)
 Swapping is turned off.
 Second derivative matrix not updated -- analytic derivatives used.
 ITU=  0
     Eigenvalues ---   -0.01617  -0.00047   0.00008   0.00032   0.00064
     Eigenvalues ---    0.00127   0.00193   0.00218   0.00343   0.00407
     Eigenvalues ---    0.00587   0.00712   0.00832   0.00981   0.01114
     Eigenvalues ---    0.01891   0.02038   0.02055   0.02749   0.03111
     Eigenvalues ---    0.03229   0.03280   0.04786   0.05106   0.05140
     Eigenvalues ---    0.05290   0.05346   0.05410   0.05771   0.05817
     Eigenvalues ---    0.05902   0.06968   0.07846   0.08062   0.08145
     Eigenvalues ---    0.09020   0.10119   0.11164   0.12135   0.12279
     Eigenvalues ---    0.12505   0.12827   0.13029   0.13100   0.13285
     Eigenvalues ---    0.13371   0.13479   0.14017   0.15701   0.16854
     Eigenvalues ---    0.18118   0.18817   0.18837   0.18954   0.19342
     Eigenvalues ---    0.20068   0.20615   0.21031   0.22172   0.22868
     Eigenvalues ---    0.24194   0.24375   0.24525   0.25540   0.26304
     Eigenvalues ---    0.26909   0.28432   0.29426   0.31198   0.35065
     Eigenvalues ---    0.35438   0.35920   0.36123   0.36167   0.36240
     Eigenvalues ---    0.36318   0.36535   0.36590   0.36701   0.36780
     Eigenvalues ---    0.37126   0.37168   0.37253   0.37385   0.37803
     Eigenvalues ---    0.38077   0.38532   0.39484   0.40451   0.44521
     Eigenvalues ---    0.47320   0.48044   0.52718   0.55954   0.57194
     Eigenvalues ---    0.59953   0.83491   0.85503   0.85710   0.87061
     Eigenvalues ---    0.92926   1.00737
 Eigenvectors required to have negative eigenvalues:
                          R10       R14       A55       A16       A54
   1                   -0.74261  -0.33246  -0.28330  -0.25623   0.18958
                          A15       A13       A41       D61       A53
   1                    0.17004  -0.13869   0.10866   0.09622   0.09524
 RFO step:  Lambda0=3.071522141D-04 Lambda=-1.32998082D-02.
 Linear search not attempted -- option 19 set.
 Maximum step size (   0.100) exceeded in Quadratic search.
    -- Step size scaled by   0.358
 Iteration  1 RMS(Cart)=  0.07988147 RMS(Int)=  0.00398876
 Iteration  2 RMS(Cart)=  0.00461932 RMS(Int)=  0.00009310
 Iteration  3 RMS(Cart)=  0.00002599 RMS(Int)=  0.00009154
 Iteration  4 RMS(Cart)=  0.00000000 RMS(Int)=  0.00009154
 Variable       Old X    -DE/DX   Delta X   Delta X   Delta X     New X
                                 (Linear)    (Quad)   (Total)
    R1        2.72730   0.00906   0.00000   0.00625   0.00625   2.73355
    R2        2.05850   0.00635   0.00000   0.00575   0.00575   2.06424
    R3        2.06044   0.00657   0.00000   0.00638   0.00638   2.06682
    R4        2.05891   0.00659   0.00000   0.00585   0.00585   2.06476
    R5        2.50195   0.01086   0.00000   0.00571   0.00571   2.50765
    R6        1.91371   0.00544   0.00000   0.00423   0.00423   1.91794
    R7        2.30807   0.01364   0.00000   0.00371   0.00371   2.31178
    R8        2.79126   0.01196   0.00000   0.01253   0.01253   2.80379
    R9        2.25445   0.00983   0.00000   0.00422   0.00429   2.25874
   R10        4.16836   0.00809   0.00000  -0.00613  -0.00612   4.16223
   R11        2.44274   0.01699   0.00000   0.01079   0.01086   2.45359
   R12        2.80605   0.01051   0.00000   0.00509   0.00509   2.81114
   R13        2.80769   0.01143   0.00000   0.00591   0.00591   2.81359
   R14        5.16069   0.00739   0.00000   0.00170   0.00166   5.16235
   R15        2.83895   0.00412   0.00000   0.00206   0.00206   2.84101
   R16        2.29005   0.01192   0.00000   0.00570   0.00570   2.29574
   R17        2.05260   0.00860   0.00000   0.00842   0.00842   2.06102
   R18        2.05856   0.00908   0.00000   0.00874   0.00874   2.06730
   R19        2.05270   0.00774   0.00000   0.00682   0.00682   2.05952
   R20        2.83760   0.00434   0.00000   0.00210   0.00210   2.83970
   R21        2.28903   0.01226   0.00000   0.00584   0.00584   2.29487
   R22        2.05748   0.00939   0.00000   0.00893   0.00893   2.06641
   R23        2.05562   0.00881   0.00000   0.00833   0.00833   2.06395
   R24        2.05235   0.00776   0.00000   0.00687   0.00687   2.05923
   R25        2.72615   0.00396   0.00000  -0.00274  -0.00273   2.72342
   R26        2.31185   0.02146   0.00000   0.00798   0.00792   2.31977
   R27        2.29216   0.01033   0.00000   0.00366   0.00366   2.29581
   R28        2.49379   0.01037   0.00000   0.00885   0.00885   2.50263
   R29        2.70137   0.00866   0.00000   0.00606   0.00606   2.70743
   R30        2.05250   0.00674   0.00000   0.00548   0.00548   2.05798
   R31        2.06104   0.00450   0.00000   0.00539   0.00539   2.06643
   R32        2.06186   0.00472   0.00000   0.00522   0.00522   2.06708
   R33        2.76888   0.00529   0.00000   0.00762   0.00762   2.77650
   R34        2.53509   0.00343   0.00000   0.00166   0.00166   2.53675
   R35        2.53013   0.00556   0.00000   0.00462   0.00462   2.53475
   R36        2.54211   0.00188   0.00000  -0.00377  -0.00377   2.53834
    A1        1.90952   0.00303   0.00000   0.00544   0.00543   1.91495
    A2        1.92386   0.00180   0.00000   0.00402   0.00401   1.92786
    A3        1.91319   0.00181   0.00000   0.00247   0.00247   1.91566
    A4        1.90945  -0.00294   0.00000  -0.00618  -0.00619   1.90326
    A5        1.90020  -0.00217   0.00000  -0.00402  -0.00403   1.89618
    A6        1.90743  -0.00161   0.00000  -0.00186  -0.00186   1.90557
    A7        2.19215   0.00138   0.00000   0.00054   0.00051   2.19265
    A8        2.05133   0.00181   0.00000   0.00598   0.00595   2.05728
    A9        2.03971  -0.00318   0.00000  -0.00651  -0.00654   2.03317
   A10        2.21786   0.00139   0.00000   0.00342   0.00342   2.22128
   A11        2.03301  -0.00145   0.00000  -0.00502  -0.00502   2.02799
   A12        2.03229   0.00005   0.00000   0.00157   0.00157   2.03386
   A13        2.39138  -0.00200   0.00000  -0.00682  -0.00710   2.38428
   A14        2.10632   0.00648   0.00000   0.01591   0.01578   2.12210
   A15        1.73121  -0.00403   0.00000   0.00238   0.00218   1.73340
   A16        2.66590   0.00349   0.00000  -0.00196  -0.00197   2.66392
   A17        2.08924  -0.00394   0.00000  -0.00909  -0.00936   2.07988
   A18        2.06776  -0.00717   0.00000  -0.00928  -0.00923   2.05853
   A19        1.40251  -0.00041   0.00000   0.00035   0.00022   1.40273
   A20        2.10750   0.01119   0.00000   0.02151   0.02159   2.12910
   A21        1.79791  -0.00236   0.00000  -0.03337  -0.03335   1.76456
   A22        1.68387   0.00001   0.00000   0.01435   0.01454   1.69841
   A23        2.00889   0.00352   0.00000   0.00939   0.00938   2.01826
   A24        2.12437   0.00148   0.00000  -0.00501  -0.00503   2.11934
   A25        2.14969  -0.00502   0.00000  -0.00456  -0.00457   2.14511
[...]
 00001627,-0.00000300,0.00000641,-0.00000765,-0.00001285,0.00000832,-0.
 00000530,0.00001351,-0.00000179,-0.00000702,-0.00001240,0.00000226,-0.
 00003452,0.00001519,-0.00000748,0.00001530,0.00000617,0.00000721,0.000
 01490,0.03418203,0.07766769,0.07212380,0.00002186,-0.00002795,-0.00006
 734,0.00007841,-0.00005458,0.00025260,0.00010588,0.00012267,-0.0008001
 9,-0.00008728,0.00000053,0.00055230,-0.00007035,0.00021158,-0.00055880
 ,0.00011571,0.00015208,-0.00160736,-0.00085327,-0.00024912,-0.00115069
 ,-0.00010077,-0.00025866,0.00028303,-0.00002945,-0.00000814,-0.0000094
 0,0.00017907,0.00005316,-0.00006088,-0.00953986,0.00301120,0.00335185,
 -0.19679558,0.10768531,0.09196316,0.00047883,-0.00188939,0.00257338,0.
 00002522,0.00003865,-0.00007551,-0.00003457,0.00001004,0.00001703,0.00
 001275,0.00001857,-0.00002257,0.00003424,-0.00001731,-0.00002883,-0.00
 001320,-0.00000437,-0.00000936,-0.00014633,0.00003778,0.00007696,0.000
 07764,-0.00003031,0.00000217,-0.00000776,-0.00000157,0.00001871,-0.000
 00749,0.00000056,-0.00000465,-0.00001476,-0.00002340,-0.00001075,-0.00
 000268,-0.00000175,0.00001093,-0.00000923,-0.00000932,0.00002964,-0.00
 000091,-0.00000094,0.00001133,-0.00003603,0.00001778,0.00000785,-0.000
 00322,-0.00000073,-0.00000222,0.00000691,0.00001409,-0.00000498,0.0000
 0093,0.00000906,0.00000786,0.00886758,-0.00578318,-0.00586403,0.209955
 27,0.00001670,0.00000185,-0.00005501,0.00016411,-0.00008102,0.00016681
 ,-0.00007260,0.00021094,-0.00039416,0.00014707,-0.00013903,0.00045931,
 0.00001783,-0.00023064,0.00031776,0.00031872,0.00042425,0.00094208,0.0
 0100877,-0.00065517,-0.00057024,-0.00008321,0.00005839,-0.00039782,0.0
 0002712,0.00011076,0.00004590,-0.00007148,-0.00010303,0.00016656,-0.01
 521323,0.01131791,0.00636583,0.10570046,-0.10649773,-0.05873834,-0.001
 55907,-0.00440371,0.00197813,-0.00024332,-0.00008614,-0.00003247,0.000
 14177,0.00001284,-0.00001340,-0.00004170,-0.00001880,0.00003118,-0.000
 03750,0.00002931,-0.00004044,0.00000165,-0.00000535,-0.00001093,0.0003
 0134,-0.00011711,-0.00027136,-0.00004511,-0.00003864,-0.00000132,-0.00
 000239,0.00001677,0.00001995,0.00000892,-0.00000005,0.00000920,0.00001
 629,0.00005665,0.00002059,0.00000700,0.00000485,-0.00001180,0.00000425
 ,-0.00001099,0.00002142,0.00000569,-0.00000409,0.00001334,-0.00001630,
 0.00000800,0.00002092,-0.00001147,0.00000686,-0.00000829,0.00001116,-0
 .00002689,0.00001684,-0.00001198,0.00000540,-0.00000255,0.02048173,-0.
 01178302,-0.01196268,-0.11193737,0.11421340,0.00001650,0.00001094,0.00
 000134,0.00000179,-0.00003881,0.00014528,-0.00001259,0.00027308,-0.000
 60561,0.00013949,0.00003577,0.00024695,-0.00098170,-0.00099978,-0.0004
 4447,0.00072909,0.00056527,-0.00096861,-0.00134006,0.00178272,0.000239
 96,0.00023410,0.00020227,0.00010524,-0.00001595,-0.00013723,-0.0000176
 7,-0.00014988,0.00002886,-0.00006893,0.01681097,-0.01790273,-0.0061446
 8,0.09088913,-0.05865671,-0.10327199,0.00167541,0.00433400,-0.00239247
 ,0.00015058,0.00020742,-0.00000807,-0.00005056,-0.00001098,0.00008259,
 0.00002491,0.00004606,-0.00004379,0.00001036,-0.00005074,-0.00003546,-
 0.00003582,0.00000877,0.00000702,-0.00018820,0.00010795,0.00009620,0.0
 0006564,-0.00001985,0.00003163,-0.00001230,-0.00000633,0.00000850,-0.0
 0001205,0.00000038,-0.00000512,-0.00000538,-0.00001572,-0.00001057,0.0
 0001321,-0.00000494,-0.00000057,-0.00000381,-0.00000268,0.00000838,0.0
 0000686,-0.00000424,0.00000176,-0.00001977,-0.00002124,-0.00001540,0.0
 0001486,-0.00000612,0.00002095,-0.00001952,0.00000574,-0.00001700,0.00
 001325,-0.00002054,0.00000586,0.00610742,-0.00343551,-0.00385886,-0.10
 010650,0.06318082,0.10547862,-0.00000182,-0.00000407,-0.00000157,-0.00
 002689,0.00001094,-0.00001451,0.00008742,-0.00007347,0.00002809,-0.000
 07609,0.00001518,-0.00001210,0.00044050,0.00046750,0.00005141,-0.00041
 610,-0.00020892,-0.00044639,-0.00099853,-0.00133071,0.00166013,0.00038
 691,-0.00027655,0.00031168,-0.00004200,-0.00004927,0.00011003,0.000079
 89,0.00004451,-0.00004760,0.00849620,-0.00277979,0.01028339,-0.2093319
 1,0.03442648,-0.13958749,0.00153360,0.00031019,0.00001908,-0.00003592,
 -0.00005095,-0.00002113,-0.00004094,-0.00001407,0.00000777,0.00001344,
 0.00001048,-0.00001400,0.00001622,-0.00000265,-0.00000218,-0.00000265,
 -0.00000100,-0.00001197,0.00004339,-0.00000095,-0.00002823,0.00002524,
 0.00003085,0.00000986,-0.00000544,-0.00000741,0.00000153,-0.00000624,-
 0.00000132,-0.00000343,-0.00000331,-0.00001049,-0.00000259,-0.00000710
 ,0.00000029,0.00000671,-0.00000190,0.00000191,-0.00000200,-0.00000415,
 0.00000186,-0.00000070,0.00000384,0.00000460,-0.00000255,-0.00000548,-
 0.00000143,-0.00000746,0.00000369,0.00000559,0.00000524,0.00003184,-0.
 00000503,0.00003332,-0.00606698,0.00280503,-0.00447796,-0.01221614,0.0
 0097453,-0.01395359,0.21812678,-0.00000051,0.00000700,-0.00001325,0.00
 006719,-0.00000108,-0.00001196,-0.00013470,-0.00008125,0.00011783,0.00
 006743,0.00003034,-0.00007439,0.00020302,0.00022930,-0.00009600,-0.000
 72944,-0.00018325,0.00001311,-0.00158667,-0.00064841,0.00309295,0.0010
 0265,0.00039957,0.00016907,-0.00014068,-0.00022895,0.00019794,-0.00020
 595,-0.00002611,0.00001142,0.01365468,-0.00453193,0.01218513,0.0314920
 5,-0.05095971,0.02655760,0.00097780,0.00047004,-0.00290397,-0.00023934
 ,-0.00007577,-0.00003138,0.00010814,0.00003533,-0.00000678,-0.00002432
 ,-0.00001084,0.00003370,-0.00004820,0.00000331,0.00000636,0.00002080,-
 0.00000549,-0.00001137,0.00022588,-0.00003182,-0.00019896,-0.00003503,
 -0.00001705,0.00002854,0.00000337,0.00000671,0.00000216,0.00001177,-0.
 00000066,0.00000451,0.00001197,0.00003636,0.00001189,0.00000093,0.0000
 0167,-0.00000270,0.00000073,-0.00000267,0.00000411,0.00000093,-0.00000
 233,0.00000442,-0.00000040,0.00000328,0.00001031,0.00001008,-0.0000035
 1,-0.00000386,-0.00001539,0.00000604,-0.00001428,0.00007600,-0.0000429
 9,0.00005374,-0.01939109,0.00708671,-0.01677198,0.00891896,-0.00227243
 ,0.01053717,-0.03429174,0.05081235,0.00000449,-0.00000682,0.00002849,-
 0.00014550,-0.00000161,0.00002699,0.00033584,0.00022250,-0.00021613,-0
 .00009069,-0.00006641,0.00015928,-0.00035653,-0.00087952,0.00025978,0.
 00176518,0.00051037,-0.00008529,0.00152420,0.00312761,-0.00341814,-0.0
 0161348,-0.00006122,0.00015030,0.00023039,0.00022235,-0.00037053,0.000
 36848,0.00001108,-0.00003105,-0.02090195,0.00271597,-0.01687920,-0.133
 91759,0.02809346,-0.16191266,-0.00028315,-0.00205846,0.00374137,0.0003
 6381,0.00013109,-0.00008116,-0.00043272,0.00001658,0.00018010,0.000119
 48,0.00004717,-0.00013272,0.00016815,-0.00004017,0.00009967,-0.0000672
 4,0.00000864,0.00001034,-0.00030136,0.00011053,0.00013914,0.00021107,0
 .00013222,0.00001975,-0.00004517,-0.00003671,0.00002624,-0.00005750,-0
 .00000659,-0.00002102,-0.00003029,-0.00009922,-0.00003286,-0.00000507,
 -0.00000228,0.00000554,-0.00000067,0.00000586,-0.00001018,-0.00000196,
 0.00000397,-0.00000893,0.00000265,-0.00001289,-0.00002457,0.00001399,-
 0.00000992,0.00001586,-0.00000324,-0.00000726,0.00000143,-0.00010256,0
 .00002751,-0.00010260,-0.00412494,0.00207799,-0.00475691,0.01123054,-0
 .00126735,0.01142249,0.14610089,-0.03290251,0.17180917,0.00000354,-0.0
 0000534,0.00001083,-0.00006341,0.00000502,0.00000281,0.00017570,0.0000
 1477,-0.00009979,-0.00005085,-0.00001785,0.00007009,0.00003826,0.00020
 963,0.00014162,-0.00039787,0.00001159,0.00013706,0.00027899,0.00005626
 ,-0.00003096,-0.00007473,-0.00021314,0.00022207,-0.00001819,0.00000450
 ,-0.00001719,0.00012227,0.00008407,-0.00007019,-0.00034237,0.00001897,
 -0.00024175,0.00001009,-0.00002057,-0.00000339,0.00024723,-0.00007032,
 0.00001561,-0.00166507,0.00037499,-0.00070544,-0.00182147,-0.00315967,
 0.00535426,0.00146393,0.00066308,-0.00130774,-0.03466793,0.01027751,-0
 .02699482,-0.11373730,0.04150061,-0.10982132,-0.00004217,-0.00034867,-
 0.00005079,0.00043311,0.00036681,0.00008203,-0.00014460,-0.00009014,0.
 00008220,-0.00014756,-0.00002525,-0.00004851,-0.00004932,-0.00011874,-
 0.00003787,-0.00000333,-0.00000444,0.00000448,-0.00000166,0.00000332,-
 0.00000381,-0.00000117,0.00000154,-0.00000375,0.00000413,0.00000057,-0
 .00000833,-0.00000121,0.00000175,-0.00000402,0.00000536,0.00000856,-0.
 00000092,-0.00000376,0.00000491,-0.00000628,0.00001453,0.00000262,-0.0
 0001159,0.00000142,-0.00000572,0.00000155,0.00000127,0.00000188,0.0000
 1678,0.14015067,0.00000037,-0.00000037,0.00000172,-0.00001160,0.000000
 05,0.00000020,0.00003359,0.00001104,-0.00001308,-0.00000956,-0.0000048
 8,0.00001286,-0.00003410,-0.00001362,0.00003078,0.00002429,0.00001427,
 -0.00001822,-0.00007893,0.00001327,-0.00004319,-0.00004644,-0.00002617
 ,0.00005210,0.00000157,0.00000513,-0.00000078,0.00006278,-0.00001585,-
 0.00003690,0.00017359,0.00003888,-0.00003344,-0.00001186,-0.00000035,0
 .00002396,-0.00023800,0.00013118,0.00009841,-0.00017505,0.00019840,-0.
 00006790,-0.00130080,-0.00003083,0.00096440,0.00092149,0.00039976,-0.0
 0024521,-0.00568756,0.00226680,-0.00549470,0.04693393,-0.07762807,0.07
 191403,-0.00003412,-0.00001165,-0.00000374,0.00002727,0.00001571,0.000
 00899,-0.00000445,-0.00000223,0.00000202,-0.00001000,-0.00000400,-0.00
 000405,-0.00000542,-0.00000932,-0.00000797,-0.00000072,-0.00000071,0.0
 0000093,-0.00000019,0.00000052,-0.00000078,-0.00000025,0.00000036,-0.0
 0000063,0.00000056,-0.00000053,-0.00000162,-0.00000023,-0.00000044,-0.
 00000135,0.00000005,0.00000034,0.00000097,-0.00000081,0.00000088,-0.00
 000128,-0.00000369,0.00000094,0.00000352,-0.00000146,-0.00000004,0.000
 00294,0.00000112,-0.00000254,-0.00000881,-0.04578649,0.07239689,0.0000
 0002,0.00000009,-0.00000003,-0.00000095,-0.00000004,-0.00000052,0.0000
 0454,-0.00000043,-0.00000086,-0.00000163,-0.00000026,0.00000201,-0.000
 00997,0.00001651,-0.00000229,0.00000291,-0.00001011,-0.00000367,-0.000
 01698,0.00000048,0.00000597,0.00001411,0.00000370,-0.00000413,0.000001
 12,-0.00000209,0.00000097,-0.00001784,-0.00000102,0.00000245,0.0000395
 8,-0.00000509,-0.00000887,-0.00001594,0.00001069,-0.00000403,-0.000010
 22,0.00002515,-0.00001265,0.00027867,-0.00013533,0.00030993,0.00308883
 ,0.00051906,-0.00048424,-0.00139126,-0.00015991,0.00052199,0.01007580,
 -0.00374698,0.01069460,-0.12334748,0.07167626,-0.24006257,0.00007307,0
 .00003273,-0.00008336,-0.00002484,-0.00002175,-0.00000590,0.00001325,0
 .00000920,-0.00000596,0.00000606,-0.00000166,-0.00000072,-0.00000035,0
 .00000325,-0.00000045,-0.00000040,0.00000053,-0.00000009,-0.00000008,0
 .00000012,-0.00000005,-0.00000019,0.00000001,-0.00000013,0.00000005,-0
 .00000003,0.00000001,-0.00000046,0.,0.00000028,0.00000105,0.00000024,-
 0.00000115,0.00000005,-0.00000033,-0.00000015,0.00000416,-0.00000535,0
 .00000504,0.00000084,0.00000319,-0.00000048,0.00000692,-0.00000802,-0.
 00000647,0.12351491,-0.07614576,0.24513001,0.00000359,-0.00000703,0.00
 001569,-0.00008738,0.00000722,0.00000183,0.00024530,0.00001659,-0.0001
 3069,-0.00007043,-0.00002468,0.00009404,0.00001029,0.00039066,0.000150
 02,-0.00058576,0.00000201,0.00016768,0.00029641,0.00004281,-0.00007777
 ,-0.00009495,-0.00025669,0.00031657,-0.00001857,-0.00000143,-0.0000255
 6,0.00014359,0.00010395,-0.00010351,-0.00030199,-0.00014036,-0.0004271
 9,-0.00001579,0.00000238,0.00001246,0.00031030,-0.00010738,-0.00006388
 ,-0.00150064,-0.00085529,-0.00031724,0.00545606,-0.00208982,0.00697637
 ,-0.00011922,0.00149475,-0.00233238,-0.02728289,0.01854602,0.02819727,
 -0.05789221,0.02783318,0.03881425,0.00023458,-0.00040006,-0.00021907,0
 .00045463,0.00041039,0.00011336,-0.00015993,-0.00010834,0.00009574,-0.
 00012937,-0.00001574,-0.00004966,-0.00005311,-0.00013443,-0.00002678,-
 0.00000465,-0.00000479,0.00000669,-0.00000174,0.00000435,-0.00000546,-
 0.00000258,0.00000234,-0.00000507,0.00000569,0.00000059,-0.00001110,-0
 .00000208,0.00000117,-0.00000402,0.00000254,0.00000940,-0.00000397,-0.
 00000524,0.00000677,-0.00000860,0.00003204,0.00000988,-0.00001941,0.00
 000375,-0.00000136,0.00000369,0.00000179,-0.00000540,0.00001336,0.0058
 3437,-0.00976944,-0.01130665,0.07249916,0.00000056,0.00000027,-0.00000
 218,0.00000693,0.00000100,0.00000015,-0.00001806,-0.00002446,0.0000016
 1,0.00000261,0.00000570,-0.00000470,0.00009063,0.00004465,-0.00002199,
 -0.00013195,-0.00000046,0.00004492,0.00012241,0.00004465,0.00004498,-0
 .00007039,-0.00007125,0.00004093,0.00000182,-0.00000754,-0.00000447,0.
 00011897,-0.00004797,-0.00000503,-0.00024004,-0.00004565,-0.00010245,0
 .00001479,0.00003195,0.00000951,0.00033256,-0.00013680,-0.00022260,-0.
 00014506,-0.00038061,-0.00001649,0.00053593,0.00091128,-0.00067422,-0.
 00102043,0.00002192,0.00018623,-0.00215321,0.00670831,0.00783885,0.033
 28064,-0.13718017,-0.12498774,-0.00005593,-0.00002912,0.00001401,0.000
 06488,0.00005580,0.00000135,-0.00001984,-0.00001133,0.00001238,-0.0000
 2187,-0.00000424,-0.00000637,-0.00000621,-0.00001839,-0.00000363,-0.00
 000071,0.00000002,-0.00000023,-0.00000039,-0.00000035,0.00000068,0.000
 00014,-0.00000019,0.00000057,-0.00000002,0.00000149,0.00000117,0.00000
 186,0.00000024,0.00000180,0.00000067,0.00000510,-0.00000376,-0.0000007
 0,0.00000071,0.,0.00001049,-0.00000045,-0.00001597,-0.00000058,-0.0000
 0157,0.00000161,-0.00000137,-0.00000115,0.00000217,-0.00307889,0.00680
 290,0.00867029,-0.03362680,0.13548842,-0.00000157,0.00000169,-0.000003
 42,0.00002045,-0.00000115,-0.00000235,-0.00005757,-0.00001237,0.000027
 40,0.00001872,0.00000651,-0.00002134,0.00000920,-0.00002296,0.00001125
 ,0.00007271,-0.00001337,-0.00002568,-0.00008539,0.00001942,0.00001673,
 -0.00000052,0.00007967,-0.00004027,0.00001589,0.00000022,0.00000338,-0
 .00005366,-0.00003589,-0.00000641,0.00012165,0.00005498,0.00013156,0.0
 0000863,-0.00000241,-0.00000942,-0.00010370,-0.00000367,0.00003784,0.0
 0039556,-0.00052860,-0.00018407,-0.00336797,0.00180317,-0.00125731,-0.
 00009202,-0.00029158,0.00100065,0.01005146,0.00011860,-0.00177208,0.04
 590482,-0.12464916,-0.22774850,-0.00003775,0.00013974,0.00005449,-0.00
 011717,-0.00009797,-0.00003195,0.00005206,0.00002690,-0.00002356,0.000
 04620,0.00000782,0.00001025,0.00000755,0.00002893,0.00000805,0.0000010
 7,0.00000133,-0.00000169,0.00000055,-0.00000118,0.00000131,0.00000089,
 -0.00000055,0.00000138,-0.00000116,0.00000058,0.00000303,-0.00000002,-
 0.00000223,0.00000117,-0.00000461,-0.00000674,0.00000100,0.00000079,-0
 .00000130,0.00000238,-0.00001522,-0.00000562,0.00000751,-0.00000049,-0
 .00000066,-0.00000180,-0.00000024,0.00000043,-0.00000184,0.00539783,-0
 .01371124,-0.01451065,-0.05568189,0.13268534,0.23804952,0.00000216,-0.
 00000495,0.00001314,-0.00006911,0.00000494,-0.00000470,0.00018465,0.00
 000055,-0.00010084,-0.00005011,-0.00001608,0.00006813,0.00004199,0.000
 54638,0.00038687,-0.00066726,-0.00013243,0.00012072,0.00050527,0.00015
 164,-0.00020512,-0.00070616,-0.00055732,0.00069844,0.00006440,0.000141
 01,-0.00001347,0.00043929,0.00040165,-0.00052459,-0.00052011,0.0000436
 6,-0.00026362,0.00003915,0.00001119,0.00003234,0.00024580,-0.00005465,
 0.00018536,-0.00139161,0.00078217,0.00068824,0.00542760,-0.00459347,0.
 00569654,-0.00026399,0.00076053,-0.00241295,-0.02507041,-0.03456525,0.
 00668253,-0.05086719,-0.02697445,0.00415925,0.00048280,-0.00043420,-0.
 00044189,0.00033085,0.00031687,0.00001962,-0.00007289,-0.00005009,0.00
 005162,-0.00012739,-0.00002549,-0.00004937,-0.00006348,-0.00010263,-0.
 00003350,-0.00000214,-0.00000410,0.00000420,-0.00000101,0.00000361,-0.
 00000440,-0.00000107,0.00000167,-0.00000411,0.00000546,0.00000199,-0.0
 0000775,0.00000375,-0.00000168,-0.00000659,0.00004322,-0.00001415,0.00
 001325,-0.00001371,0.00000204,-0.00001588,0.00002630,0.00000399,-0.000
 02395,0.00000341,-0.00000129,-0.00000114,-0.00000242,-0.00000740,0.000
 01231,0.00444911,0.01503055,-0.00098069,0.00279444,0.00600655,-0.00250
 509,0.06480042,0.00000067,0.00000110,-0.00000674,0.00002803,0.00000229
 ,0.00000314,-0.00007800,-0.00006043,0.00002659,0.00001213,0.00002175,-
 0.00002827,0.00024434,-0.00005169,-0.00009360,-0.00019303,0.00001825,0
 .00010177,0.00021435,0.00003370,0.00014948,0.00000383,-0.00008266,-0.0
 0013681,-0.00005025,-0.00008881,-0.00002216,0.00034490,-0.00038933,0.0
 0024662,-0.00044574,-0.00007125,-0.00011679,-0.00001296,0.00001021,0.0
 0000189,0.00078908,-0.00037142,-0.00086419,-0.00007809,-0.00042450,-0.
 00034736,0.00235767,0.00010036,0.00315341,0.00115335,0.00070564,-0.001
 09797,-0.00755689,0.00253756,0.00063194,-0.03788782,-0.31595033,0.0483
 6813,-0.00017036,0.00007782,0.00009117,0.00006592,0.00002940,-0.000002
 53,-0.00001305,-0.00000673,0.00000846,-0.00002519,-0.00000573,-0.00000
 965,-0.00000924,-0.00001358,-0.00000792,-0.00000086,0.00000004,-0.0000
 0020,-0.00000089,-0.00000105,0.00000201,0.00000022,-0.00000077,0.00000
 179,-0.00000161,0.00000271,0.00000348,0.00000077,0.00000210,0.00000285
 ,-0.00002354,0.00002630,-0.00001050,0.00000261,0.00000473,0.00000457,0
 .00000593,0.00001188,0.00000736,-0.00000188,-0.00000274,0.00000240,0.0
 0000014,0.00000194,0.00000070,-0.00066772,-0.00454570,-0.00072735,-0.0
 0133543,-0.01216269,0.00441330,0.04332861,0.33064162,-0.00000121,0.000
 00047,0.00000096,-0.00000337,-0.00000015,-0.00000162,0.00001264,0.0000
 0757,0.00000050,-0.00000300,-0.00000360,0.00000489,-0.00004945,-0.0000
 5025,-0.00003283,0.00008866,0.00002240,-0.00005889,-0.00013556,0.00009
 265,0.00007902,0.00007047,0.00000690,-0.00005665,-0.00000239,0.0000089
 2,0.00000658,-0.00006147,0.00002219,0.00000079,0.00042383,0.00001105,0
 .00019895,-0.00009953,-0.00008723,-0.00004359,-0.00026392,0.00009342,-
 0.00023844,0.00050113,0.00015957,-0.00008953,-0.00281955,-0.00039798,-
 0.00017464,0.00047403,-0.00029049,0.00024926,0.00727198,0.00782861,-0.
 00155299,0.00563863,0.04711369,-0.05772564,-0.00004742,0.00003717,0.00
 007349,-0.00006018,-0.00008844,-0.00001972,0.00002734,0.00001185,-0.00
 001434,0.00004954,0.00001361,0.00001567,0.00000032,0.00000193,0.000006
 39,-0.00000003,0.00000032,0.00000050,0.00000028,0.,-0.00000033,-0.0000
 0056,0.00000024,-0.00000015,-0.00000018,-0.00000033,-0.00000046,-0.000
 00304,-0.00000027,-0.00000208,-0.00000495,-0.00000460,0.00000355,0.000
 00244,0.00000017,0.00000149,-0.00002382,-0.00000450,0.00004225,-0.0000
 0563,-0.00000102,0.00000880,0.00000164,0.00000901,-0.00000368,0.004414
 36,0.02272282,-0.00147381,-0.00415911,-0.02348670,0.00627344,-0.011232
 91,-0.05374901,0.05452283\\0.00000207,0.00000672,0.00000013,-0.0000008
 8,-0.00000270,-0.00000382,-0.00000188,-0.00000860,-0.00000276,-0.00000
 468,-0.00001559,-0.00000616,-0.00000241,-0.00000327,-0.00000299,-0.000
 00022,-0.00000587,0.00000726,-0.00000153,-0.00000316,0.00000692,0.0000
 0229,0.00000347,0.00001544,0.00000444,0.00001059,0.00001422,0.00000404
 ,0.00000522,0.00001896,-0.00000151,-0.00001067,0.00000733,-0.00000497,
 -0.00001847,0.00000218,-0.00000303,-0.00000848,0.00001191,-0.00000026,
 0.00000366,-0.00000731,0.00000213,0.00000706,-0.00000332,0.00000371,0.
 00001399,-0.00000056,-0.00000023,-0.00000084,-0.00000707,0.00000004,0.
 00000253,-0.00000089,0.00000079,0.00000386,-0.00000988,-0.00000154,0.0
 0000421,-0.00001968,-0.00000219,-0.00000410,-0.00002108,0.00000178,0.0
 0001019,-0.00001591,0.00000018,0.00000739,-0.00002586,0.00000179,0.000
 00802,0.00000101,0.00000243,0.00000681,0.00000683,0.00000266,0.0000107
 8,-0.00000463,-0.00000179,-0.00000539,-0.00000470,0.00000331,0.0000071
 6,0.00001681,0.00000462,0.00001331,0.00000765,0.00000586,0.00001585,0.
 00001940,-0.00000512,-0.00001608,-0.00000484,-0.00000556,-0.00002109,0
 .00000433,-0.00000632,-0.00002363,0.00000248,-0.00000115,-0.00000374,-
 0.00000232,0.00000187,0.00000760,-0.00000481,0.00000127,0.00000326,0.0
 0000574\\\@


 ... UNTIL SCIENCE IS MIXED WITH EMOTION AND APPEALS TO THE HEART AND
 IMAGINATION , IT IS LIKE DEAD INORGANIC MATTER; AND WHEN IT IS SO MIXED
 AND SO TRANSFORMED IT IS LITERATURE.

                                  -- JOHN BURROUGHS
 Job cpu time:       0 days  2 hours 39 minutes  7.8 seconds.
 Elapsed time:       0 days  0 hours 39 minutes 49.3 seconds.
 File lengths (MBytes):  RWF=    774 Int=      0 D2E=      0 Chk=     29 Scr=      1
 Normal termination of Gaussian 16 at Mon May 30 09:32:43 2022.
