 Entering Gaussian System, Link 0=/home/gridsan/groups/RMG/Software/gaussian//g16/g16
 Input=TS_Zy0fwX_ll_ad_14-19_15-16_optts_g16.com
 Output=TS_Zy0fwX_ll_ad_14-19_15-16_optts_g16.log
 Initial command:
 /home/gridsan/groups/RMG/Software/gaussian//g16/l1.exe "/state/partition1/slurm_tmp/20424376.4294967291.0/tmpt1j0n0_w/Gau-31267.inp" -scrdir="/state/partition1/slurm_tmp/20424376.4294967291.0/tmpt1j0n0_w/"
 Entering Link 1 = /home/gridsan/groups/RMG/Software/gaussian//g16/l1.exe PID=     31269.
  
 Copyright (c) 1988-2017, Gaussian, Inc.  All Rights Reserved.
  
 This is part of the Gaussian(R) 16 program.  It is based on
 the Gaussian(R) 09 system (copyright 2009, Gaussian, Inc.),
 the Gaussian(R) 03 system (copyright 2003, Gaussian, Inc.),
 the Gaussian(R) 98 system (copyright 1998, Gaussian, Inc.),
 the Gaussian(R) 94 system (copyright 1995, Gaussian, Inc.),
 the Gaussian 92(TM) system (copyright 1992, Gaussian, Inc.),
 the Gaussian 90(TM) system (copyright 1990, Gaussian, Inc.),
 the Gaussian 88(TM) system (copyright 1988, Gaussian, Inc.),
 the Gaussian 86(TM) system (copyright 1986, Carnegie Mellon
 University), and the Gaussian 82(TM) system (copyright 1983,
 Carnegie Mellon University). Gaussian is a federally registered
 trademark of Gaussian, Inc.
  
 This software contains proprietary and confidential information,
 including trade secrets, belonging to Gaussian, Inc.
  
 This software is provided under written license and may be
 used, copied, transmitted, or stored only in accord with that
 written license.
  
 The following legend is applicable only to US Government
 contracts under FAR:
  
                    RESTRICTED RIGHTS LEGEND
  
 Use, reproduction and disclosure by the US Government is
 subject to restrictions as set forth in subparagraphs (a)
 and (c) of the Commercial Computer Software - Restricted
 Rights clause in FAR 52.227-19.
  
 Gaussian, Inc.
 340 Quinnipiac St., Bldg. 40, Wallingford CT 06492
  
  
 ---------------------------------------------------------------
 Warning -- This program may not be used in any manner that
 competes with the business of Gaussian, Inc. or will provide
 assistance to any competitor of Gaussian, Inc.  The licensee
 of this program is prohibited from giving any competitor of
 Gaussian, Inc. access to this program.  By using this program,
 the user acknowledges that Gaussian, Inc. is engaged in the
 business of creating and licensing software in the field of
 computational chemistry and represents and warrants to the
 licensee that it is not a competitor of Gaussian, Inc. and that
 it will not use this program in any manner prohibited above.
 ---------------------------------------------------------------
  

 Cite this work as:
 Gaussian 16, Revision B.01,
 M. J. Frisch, G. W. Trucks, H. B. Schlegel, G. E. Scuseria, 
 M. A. Robb, J. R. Cheeseman, G. Scalmani, V. Barone, 
 G. A. Petersson, H. Nakatsuji, X. Li, M. Caricato, A. V. Marenich, 
 J. Bloino, B. G. Janesko, R. Gomperts, B. Mennucci, H. P. Hratchian, 
 J. V. Ortiz, A. F. Izmaylov, J. L. Sonnenberg, D. Williams-Young, 
 F. Ding, F. Lipparini, F. Egidi, J. Goings, B. Peng, A. Petrone, 
 T. Henderson, D. Ranasinghe, V. G. Zakrzewski, J. Gao, N. Rega, 
 G. Zheng, W. Liang, M. Hada, M. Ehara, K. Toyota, R. Fukuda, 
 J. Hasegawa, M. Ishida, T. Nakajima, Y. Honda, O. Kitao, H. Nakai, 
 T. Vreven, K. Throssell, J. A. Montgomery, Jr., J. E. Peralta, 
 F. Ogliaro, M. J. Bearpark, J. J. Heyd, E. N. Brothers, K. N. Kudin, 
 V. N. Staroverov, T. A. Keith, R. Kobayashi, J. Normand, 
 K. Raghavachari, A. P. Rendell, J. C. Burant, S. S. Iyengar, 
 J. Tomasi, M. Cossi, J. M. Millam, M. Klene, C. Adamo, R. Cammi, 
 J. W. Ochterski, R. L. Martin, K. Morokuma, O. Farkas, 
 J. B. Foresman, and D. J. Fox, Gaussian, Inc., Wallingford CT, 2016.
 
 ******************************************
 Gaussian 16:  ES64L-G16RevB.01 20-Dec-2017
                22-Oct-2022 
 ******************************************
 %mem=30399MB
 %nprocshared=8
 Will use up to    8 processors via shared memory.
 ----------------------------------------------------------------------
 # B3LYP def2svp Freq EmpiricalDispersion=GD3BJ Opt=(TS, CalcFC, NoEige
 nTest, MaxCycles=100, MaxStep=10, NoTrustUpdate, RecalcFC=30) IOp(2/9=
 2000) Geom=ModRedun NoSymm scrf=(smd,solvent=Water)
 ----------------------------------------------------------------------
 1/5=1,6=100,8=10,9=1,10=4,11=1,18=120,26=3,38=1,71=30/1,3;
 2/9=2000,12=2,15=1,17=6,18=5,40=1/2;
 3/5=43,7=101,11=2,25=1,30=1,70=32201,71=2,72=1,74=-5,124=41,140=1/1,2,3;
 4//1;
 5/5=2,38=5,53=1/2;
 8/6=4,10=90,11=11/1;
 11/6=1,8=1,9=11,15=111,16=1,31=1/1,2,10;
 10/6=1,13=1,31=1/2;
 6/7=2,8=2,9=2,10=2,28=1/1;
 7/10=1,18=20,25=1,30=1/1,2,3,16;
 1/5=1,6=100,8=10,9=1,10=4,11=1,18=20,26=3,71=30/3(2);
 2/9=2000,15=1/2;
 99//99;
 2/9=2000,15=1/2;
 3/5=43,7=101,11=2,25=1,30=1,70=32205,71=1,72=1,74=-5,124=41/1,2,3;
 4/5=5,16=3,69=1/1;
 5/5=2,38=5,53=1/2;
 7/30=1/1,2,3,16;
 1/5=1,6=100,8=10,9=1,11=1,18=20,26=3,71=30/3(-5);
 2/9=2000,15=1/2;
 6/7=2,8=2,9=2,10=2,19=2,28=1/1;
 99/9=1/99;
 -------------------------------------
 TS_Zy0fwX_ll_ad_14-19_15-16_optts_g16
 -------------------------------------
 Symbolic Z-matrix:
 Charge =  0 Multiplicity = 1
 C                    -1.20893   0.09909   7.93611 
 O                    -0.84652  -1.18378   7.41592 
 C                    -1.42568  -1.56826   6.29203 
 O                    -2.22154  -0.88307   5.68578 
 C                    -1.04264  -2.98735   5.84206 
 O                    -2.23401  -3.78651   5.93979 
 C                    -3.26792  -3.56083   5.00647 
 C                    -0.00909  -3.70134   6.76105 
 C                     1.18692  -4.40144   6.09566 
 C                     0.98899  -5.79998   5.48925 
 C                     0.06399  -6.00926   4.27994 
 C                     0.28111  -5.04291   3.11651 
 Br                    2.14458  -5.0854    2.49423 
 Br                   -0.83921  -5.64592   1.5566 
 C                    -0.11985  -3.75084   3.57293 
 C                    -0.52385  -3.02407   4.47501 
 C                     0.10705  -0.78744   3.72384 
 N                     0.92047  -1.39249   2.88899 
 C                     2.33512  -1.4449    3.21696 
 N                     0.57773  -2.18486   1.92411 
 C                    -0.72581  -1.99036   1.34773 
 H                    -0.54336   0.27378   8.77639 
 H                    -2.25032   0.08717   8.26089 
 H                    -1.08534   0.86435   7.16821 
 H                    -3.65698  -2.5406    5.06186 
 H                    -2.92977  -3.75856   3.98329 
 H                    -4.05322  -4.26564   5.27245 
 H                     0.38968  -2.96162   7.45292 
 H                    -0.58441  -4.42865   7.33541 
 H                     1.92358  -4.54302   6.89016 
 H                     1.64356  -3.74142   5.35894 
 H                     1.98583  -6.15154   5.21007 
 H                     0.6146   -6.46422   6.27073 
 H                     0.2028   -7.03594   3.92902 
 H                    -0.9788   -5.89449   4.58908 
 H                     0.53999  -0.23335   4.53583 
 H                    -0.91989  -0.60618   3.47601 
 H                     2.47854  -1.80882   4.23305 
 H                     2.82021  -2.11657   2.51315 
 H                     2.76386  -0.44821   3.12823 
 H                    -1.55803  -2.18584   2.03501 
 H                    -0.82796  -0.96184   0.98113 
 H                    -0.80588  -2.66966   0.50074 
 
 Add virtual bond connecting atoms C17        and C16        Dist= 4.62D+00.
 Add virtual bond connecting atoms N20        and C15        Dist= 4.49D+00.
 Add virtual bond connecting atoms H38        and H31        Dist= 4.51D+00.
 The following ModRedundant input section has been read:
 B      15      20 B                                                           
 B      16      17 B                                                           
 

 GradGradGradGradGradGradGradGradGradGradGradGradGradGradGradGradGradGrad
 Berny optimization.
 Initialization pass.
                           ----------------------------
                           !    Initial Parameters    !
                           ! (Angstroms and Degrees)  !
 --------------------------                            --------------------------
 ! Name  Definition              Value          Derivative Info.                !
 --------------------------------------------------------------------------------
 ! R1    R(1,2)                  1.431          calculate D2E/DX2 analytically  !
 ! R2    R(1,22)                 1.0861         calculate D2E/DX2 analytically  !
 ! R3    R(1,23)                 1.0909         calculate D2E/DX2 analytically  !
 ! R4    R(1,24)                 1.0911         calculate D2E/DX2 analytically  !
 ! R5    R(2,3)                  1.3215         calculate D2E/DX2 analytically  !
 ! R6    R(3,4)                  1.2126         calculate D2E/DX2 analytically  !
 ! R7    R(3,5)                  1.5372         calculate D2E/DX2 analytically  !
 ! R8    R(5,6)                  1.4379         calculate D2E/DX2 analytically  !
 ! R9    R(5,8)                  1.5565         calculate D2E/DX2 analytically  !
 ! R10   R(5,16)                 1.4626         calculate D2E/DX2 analytically  !
 ! R11   R(6,7)                  1.411          calculate D2E/DX2 analytically  !
 ! R12   R(7,25)                 1.0933         calculate D2E/DX2 analytically  !
 ! R13   R(7,26)                 1.0956         calculate D2E/DX2 analytically  !
 ! R14   R(7,27)                 1.0882         calculate D2E/DX2 analytically  !
 ! R15   R(8,9)                  1.5373         calculate D2E/DX2 analytically  !
 ! R16   R(8,28)                 1.0885         calculate D2E/DX2 analytically  !
 ! R17   R(8,29)                 1.0908         calculate D2E/DX2 analytically  !
 ! R18   R(9,10)                 1.5372         calculate D2E/DX2 analytically  !
 ! R19   R(9,30)                 1.0927         calculate D2E/DX2 analytically  !
 ! R20   R(9,31)                 1.0894         calculate D2E/DX2 analytically  !
 ! R21   R(10,11)                1.5368         calculate D2E/DX2 analytically  !
 ! R22   R(10,32)                1.0933         calculate D2E/DX2 analytically  !
 ! R23   R(10,33)                1.0918         calculate D2E/DX2 analytically  !
 ! R24   R(11,12)                1.5279         calculate D2E/DX2 analytically  !
 ! R25   R(11,34)                1.0938         calculate D2E/DX2 analytically  !
 ! R26   R(11,35)                1.0937         calculate D2E/DX2 analytically  !
 ! R27   R(12,13)                1.9651         calculate D2E/DX2 analytically  !
 ! R28   R(12,14)                2.013          calculate D2E/DX2 analytically  !
 ! R29   R(12,15)                1.4278         calculate D2E/DX2 analytically  !
 ! R30   R(15,16)                1.2268         calculate D2E/DX2 analytically  !
 ! R31   R(15,20)                2.3785         calculate D2E/DX2 analytically  !
 ! R32   R(16,17)                2.4423         calculate D2E/DX2 analytically  !
 ! R33   R(17,18)                1.3133         calculate D2E/DX2 analytically  !
 ! R34   R(17,36)                1.0741         calculate D2E/DX2 analytically  !
 ! R35   R(17,37)                1.0719         calculate D2E/DX2 analytically  !
 ! R36   R(18,19)                1.4531         calculate D2E/DX2 analytically  !
 ! R37   R(18,20)                1.2947         calculate D2E/DX2 analytically  !
 ! R38   R(19,38)                1.0888         calculate D2E/DX2 analytically  !
 ! R39   R(19,39)                1.0871         calculate D2E/DX2 analytically  !
 ! R40   R(19,40)                1.0886         calculate D2E/DX2 analytically  !
 ! R41   R(20,21)                1.4385         calculate D2E/DX2 analytically  !
 ! R42   R(21,41)                1.0969         calculate D2E/DX2 analytically  !
 ! R43   R(21,42)                1.0967         calculate D2E/DX2 analytically  !
 ! R44   R(21,43)                1.0887         calculate D2E/DX2 analytically  !
 ! R45   R(31,38)                2.3874         calculate D2E/DX2 analytically  !
 ! A1    A(2,1,22)             105.6788         calculate D2E/DX2 analytically  !
 ! A2    A(2,1,23)             109.8888         calculate D2E/DX2 analytically  !
 ! A3    A(2,1,24)             110.135          calculate D2E/DX2 analytically  !
 ! A4    A(22,1,23)            110.8806         calculate D2E/DX2 analytically  !
 ! A5    A(22,1,24)            111.2393         calculate D2E/DX2 analytically  !
 ! A6    A(23,1,24)            108.9839         calculate D2E/DX2 analytically  !
 ! A7    A(1,2,3)              117.3224         calculate D2E/DX2 analytically  !
 ! A8    A(2,3,4)              123.2601         calculate D2E/DX2 analytically  !
 ! A9    A(2,3,5)              114.1001         calculate D2E/DX2 analytically  !
 ! A10   A(4,3,5)              122.6033         calculate D2E/DX2 analytically  !
 ! A11   A(3,5,6)              106.662          calculate D2E/DX2 analytically  !
 ! A12   A(3,5,8)              114.5888         calculate D2E/DX2 analytically  !
 ! A13   A(3,5,16)             112.6533         calculate D2E/DX2 analytically  !
 ! A14   A(6,5,8)              104.7802         calculate D2E/DX2 analytically  !
 ! A15   A(6,5,16)             110.0874         calculate D2E/DX2 analytically  !
 ! A16   A(8,5,16)             107.746          calculate D2E/DX2 analytically  !
 ! A17   A(5,6,7)              118.2462         calculate D2E/DX2 analytically  !
 ! A18   A(6,7,25)             112.1165         calculate D2E/DX2 analytically  !
 ! A19   A(6,7,26)             111.266          calculate D2E/DX2 analytically  !
 ! A20   A(6,7,27)             105.2787         calculate D2E/DX2 analytically  !
 ! A21   A(25,7,26)            108.9996         calculate D2E/DX2 analytically  !
 ! A22   A(25,7,27)            109.5856         calculate D2E/DX2 analytically  !
 ! A23   A(26,7,27)            109.518          calculate D2E/DX2 analytically  !
 ! A24   A(5,8,9)              118.0323         calculate D2E/DX2 analytically  !
 ! A25   A(5,8,28)             107.8677         calculate D2E/DX2 analytically  !
 ! A26   A(5,8,29)             105.4574         calculate D2E/DX2 analytically  !
 ! A27   A(9,8,28)             107.4321         calculate D2E/DX2 analytically  !
 ! A28   A(9,8,29)             109.547          calculate D2E/DX2 analytically  !
 ! A29   A(28,8,29)            108.1587         calculate D2E/DX2 analytically  !
 ! A30   A(8,9,10)             119.0071         calculate D2E/DX2 analytically  !
 ! A31   A(8,9,30)             105.5926         calculate D2E/DX2 analytically  !
 ! A32   A(8,9,31)             110.0522         calculate D2E/DX2 analytically  !
 ! A33   A(10,9,30)            104.8197         calculate D2E/DX2 analytically  !
 ! A34   A(10,9,31)            109.7793         calculate D2E/DX2 analytically  !
 ! A35   A(30,9,31)            106.715          calculate D2E/DX2 analytically  !
 ! A36   A(9,10,11)            120.7856         calculate D2E/DX2 analytically  !
 ! A37   A(9,10,32)            106.0158         calculate D2E/DX2 analytically  !
 ! A38   A(9,10,33)            108.3789         calculate D2E/DX2 analytically  !
 ! A39   A(11,10,32)           107.7027         calculate D2E/DX2 analytically  !
 ! A40   A(11,10,33)           105.9011         calculate D2E/DX2 analytically  !
 ! A41   A(32,10,33)           107.4458         calculate D2E/DX2 analytically  !
 ! A42   A(10,11,12)           115.31           calculate D2E/DX2 analytically  !
 ! A43   A(10,11,34)           107.6906         calculate D2E/DX2 analytically  !
 ! A44   A(10,11,35)           109.7047         calculate D2E/DX2 analytically  !
 ! A45   A(12,11,34)           109.3482         calculate D2E/DX2 analytically  !
 ! A46   A(12,11,35)           106.5196         calculate D2E/DX2 analytically  !
 ! A47   A(34,11,35)           108.0699         calculate D2E/DX2 analytically  !
 ! A48   A(11,12,13)           111.2359         calculate D2E/DX2 analytically  !
 ! A49   A(11,12,14)           108.755          calculate D2E/DX2 analytically  !
 ! A50   A(11,12,15)           106.7998         calculate D2E/DX2 analytically  !
 ! A51   A(13,12,14)           106.0155         calculate D2E/DX2 analytically  !
 ! A52   A(13,12,15)           112.7743         calculate D2E/DX2 analytically  !
 ! A53   A(14,12,15)           111.2548         calculate D2E/DX2 analytically  !
 ! A54   A(12,15,16)           149.7243         calculate D2E/DX2 analytically  !
 ! A55   A(12,15,20)           106.9681         calculate D2E/DX2 analytically  !
 ! A56   A(16,15,20)           102.4898         calculate D2E/DX2 analytically  !
 ! A57   A(5,16,15)            144.9751         calculate D2E/DX2 analytically  !
 ! A58   A(5,16,17)            110.8607         calculate D2E/DX2 analytically  !
 ! A59   A(15,16,17)           103.3729         calculate D2E/DX2 analytically  !
 ! A60   A(16,17,18)            86.1928         calculate D2E/DX2 analytically  !
 ! A61   A(16,17,36)           110.1227         calculate D2E/DX2 analytically  !
 ! A62   A(16,17,37)            88.7673         calculate D2E/DX2 analytically  !
 ! A63   A(18,17,36)           117.9414         calculate D2E/DX2 analytically  !
 ! A64   A(18,17,37)           121.6243         calculate D2E/DX2 analytically  !
 ! A65   A(36,17,37)           118.2756         calculate D2E/DX2 analytically  !
 ! A66   A(17,18,19)           118.4326         calculate D2E/DX2 analytically  !
 ! A67   A(17,18,20)           126.281          calculate D2E/DX2 analytically  !
 ! A68   A(19,18,20)           113.8179         calculate D2E/DX2 analytically  !
 ! A69   A(18,19,38)           110.5438         calculate D2E/DX2 analytically  !
 ! A70   A(18,19,39)           108.0941         calculate D2E/DX2 analytically  !
 ! A71   A(18,19,40)           109.3895         calculate D2E/DX2 analytically  !
 ! A72   A(38,19,39)           109.8101         calculate D2E/DX2 analytically  !
 ! A73   A(38,19,40)           109.2812         calculate D2E/DX2 analytically  !
 ! A74   A(39,19,40)           109.7046         calculate D2E/DX2 analytically  !
 ! A75   A(15,20,18)            87.9347         calculate D2E/DX2 analytically  !
 ! A76   A(15,20,21)            95.7976         calculate D2E/DX2 analytically  !
 ! A77   A(18,20,21)           117.1123         calculate D2E/DX2 analytically  !
 ! A78   A(20,21,41)           114.3544         calculate D2E/DX2 analytically  !
 ! A79   A(20,21,42)           110.1921         calculate D2E/DX2 analytically  !
 ! A80   A(20,21,43)           107.098          calculate D2E/DX2 analytically  !
 ! A81   A(41,21,42)           107.8138         calculate D2E/DX2 analytically  !
 ! A82   A(41,21,43)           108.6906         calculate D2E/DX2 analytically  !
 ! A83   A(42,21,43)           108.558          calculate D2E/DX2 analytically  !
 ! A84   A(9,31,38)            162.9239         calculate D2E/DX2 analytically  !
 ! A85   A(19,38,31)           131.6521         calculate D2E/DX2 analytically  !
 ! D1    D(22,1,2,3)          -173.1711         calculate D2E/DX2 analytically  !
 ! D2    D(23,1,2,3)            67.1444         calculate D2E/DX2 analytically  !
 ! D3    D(24,1,2,3)           -52.928          calculate D2E/DX2 analytically  !
 ! D4    D(1,2,3,4)              1.0808         calculate D2E/DX2 analytically  !
 ! D5    D(1,2,3,5)           -176.769          calculate D2E/DX2 analytically  !
 ! D6    D(2,3,5,6)            113.5875         calculate D2E/DX2 analytically  !
 ! D7    D(2,3,5,8)             -1.8676         calculate D2E/DX2 analytically  !
 ! D8    D(2,3,5,16)          -125.5229         calculate D2E/DX2 analytically  !
 ! D9    D(4,3,5,6)            -64.2783         calculate D2E/DX2 analytically  !
 ! D10   D(4,3,5,8)           -179.7334         calculate D2E/DX2 analytically  !
 ! D11   D(4,3,5,16)            56.6113         calculate D2E/DX2 analytically  !
 ! D12   D(3,5,6,7)             71.176          calculate D2E/DX2 analytically  !
 ! D13   D(8,5,6,7)           -166.9422         calculate D2E/DX2 analytically  !
 ! D14   D(16,5,6,7)           -51.3392         calculate D2E/DX2 analytically  !
 ! D15   D(3,5,8,9)           -132.8066         calculate D2E/DX2 analytically  !
 ! D16   D(3,5,8,28)           -10.9206         calculate D2E/DX2 analytically  !
 ! D17   D(3,5,8,29)           104.4755         calculate D2E/DX2 analytically  !
 ! D18   D(6,5,8,9)            110.6521         calculate D2E/DX2 analytically  !
 ! D19   D(6,5,8,28)          -127.4619         calculate D2E/DX2 analytically  !
 ! D20   D(6,5,8,29)           -12.0658         calculate D2E/DX2 analytically  !
 ! D21   D(16,5,8,9)            -6.5666         calculate D2E/DX2 analytically  !
 ! D22   D(16,5,8,28)          115.3194         calculate D2E/DX2 analytically  !
 ! D23   D(16,5,8,29)         -129.2845         calculate D2E/DX2 analytically  !
 ! D24   D(3,5,16,15)         -176.6546         calculate D2E/DX2 analytically  !
 ! D25   D(3,5,16,17)           16.1867         calculate D2E/DX2 analytically  !
 ! D26   D(6,5,16,15)          -57.7441         calculate D2E/DX2 analytically  !
 ! D27   D(6,5,16,17)          135.0972         calculate D2E/DX2 analytically  !
 ! D28   D(8,5,16,15)           55.9741         calculate D2E/DX2 analytically  !
 ! D29   D(8,5,16,17)         -111.1846         calculate D2E/DX2 analytically  !
 ! D30   D(5,6,7,25)           -60.7692         calculate D2E/DX2 analytically  !
 ! D31   D(5,6,7,26)            61.5927         calculate D2E/DX2 analytically  !
 ! D32   D(5,6,7,27)          -179.8545         calculate D2E/DX2 analytically  !
 ! D33   D(5,8,9,10)           -80.3824         calculate D2E/DX2 analytically  !
 ! D34   D(5,8,9,30)           162.3354         calculate D2E/DX2 analytically  !
 ! D35   D(5,8,9,31)            47.5179         calculate D2E/DX2 analytically  !
 ! D36   D(28,8,9,10)          157.5098         calculate D2E/DX2 analytically  !
 ! D37   D(28,8,9,30)           40.2276         calculate D2E/DX2 analytically  !
 ! D38   D(28,8,9,31)          -74.5899         calculate D2E/DX2 analytically  !
 ! D39   D(29,8,9,10)           40.2446         calculate D2E/DX2 analytically  !
 ! D40   D(29,8,9,30)          -77.0376         calculate D2E/DX2 analytically  !
 ! D41   D(29,8,9,31)          168.1449         calculate D2E/DX2 analytically  !
 ! D42   D(8,9,10,11)           65.308          calculate D2E/DX2 analytically  !
 ! D43   D(8,9,10,32)         -172.0586         calculate D2E/DX2 analytically  !
 ! D44   D(8,9,10,33)          -56.9685         calculate D2E/DX2 analytically  !
 ! D45   D(30,9,10,11)        -177.006          calculate D2E/DX2 analytically  !
 ! D46   D(30,9,10,32)         -54.3725         calculate D2E/DX2 analytically  !
 ! D47   D(30,9,10,33)          60.7176         calculate D2E/DX2 analytically  !
 ! D48   D(31,9,10,11)         -62.719          calculate D2E/DX2 analytically  !
 ! D49   D(31,9,10,32)          59.9144         calculate D2E/DX2 analytically  !
 ! D50   D(31,9,10,33)         175.0046         calculate D2E/DX2 analytically  !
 ! D51   D(8,9,31,38)           37.0337         calculate D2E/DX2 analytically  !
 ! D52   D(10,9,31,38)         169.8645         calculate D2E/DX2 analytically  !
 ! D53   D(30,9,31,38)         -77.0691         calculate D2E/DX2 analytically  !
 ! D54   D(9,10,11,12)          48.7419         calculate D2E/DX2 analytically  !
 ! D55   D(9,10,11,34)         171.1211         calculate D2E/DX2 analytically  !
 ! D56   D(9,10,11,35)         -71.4881         calculate D2E/DX2 analytically  !
 ! D57   D(32,10,11,12)        -73.0806         calculate D2E/DX2 analytically  !
 ! D58   D(32,10,11,34)         49.2986         calculate D2E/DX2 analytically  !
 ! D59   D(32,10,11,35)        166.6894         calculate D2E/DX2 analytically  !
 ! D60   D(33,10,11,12)        172.2011         calculate D2E/DX2 analytically  !
 ! D61   D(33,10,11,34)        -65.4197         calculate D2E/DX2 analytically  !
 ! D62   D(33,10,11,35)         51.9711         calculate D2E/DX2 analytically  !
 ! D63   D(10,11,12,13)         55.8111         calculate D2E/DX2 analytically  !
 ! D64   D(10,11,12,14)        172.2052         calculate D2E/DX2 analytically  !
 ! D65   D(10,11,12,15)        -67.6341         calculate D2E/DX2 analytically  !
 ! D66   D(34,11,12,13)        -65.6771         calculate D2E/DX2 analytically  !
 ! D67   D(34,11,12,14)         50.717          calculate D2E/DX2 analytically  !
 ! D68   D(34,11,12,15)        170.8777         calculate D2E/DX2 analytically  !
 ! D69   D(35,11,12,13)        177.7689         calculate D2E/DX2 analytically  !
 ! D70   D(35,11,12,14)        -65.837          calculate D2E/DX2 analytically  !
 ! D71   D(35,11,12,15)         54.3236         calculate D2E/DX2 analytically  !
 ! D72   D(11,12,15,16)          3.733          calculate D2E/DX2 analytically  !
 ! D73   D(11,12,15,20)        169.9364         calculate D2E/DX2 analytically  !
 ! D74   D(13,12,15,16)       -118.7535         calculate D2E/DX2 analytically  !
 ! D75   D(13,12,15,20)         47.4499         calculate D2E/DX2 analytically  !
 ! D76   D(14,12,15,16)        122.2752         calculate D2E/DX2 analytically  !
 ! D77   D(14,12,15,20)        -71.5214         calculate D2E/DX2 analytically  !
 ! D78   D(12,15,16,5)          -8.5993         calculate D2E/DX2 analytically  !
 ! D79   D(12,15,16,17)        159.0748         calculate D2E/DX2 analytically  !
 ! D80   D(20,15,16,5)        -175.0888         calculate D2E/DX2 analytically  !
 ! D81   D(20,15,16,17)         -7.4147         calculate D2E/DX2 analytically  !
 ! D82   D(12,15,20,18)       -139.6306         calculate D2E/DX2 analytically  !
 ! D83   D(12,15,20,21)        103.3229         calculate D2E/DX2 analytically  !
 ! D84   D(16,15,20,18)         33.2958         calculate D2E/DX2 analytically  !
 ! D85   D(16,15,20,21)        -83.7507         calculate D2E/DX2 analytically  !
 ! D86   D(5,16,17,18)         155.592          calculate D2E/DX2 analytically  !
 ! D87   D(5,16,17,36)          37.1838         calculate D2E/DX2 analytically  !
 ! D88   D(5,16,17,37)         -82.6009         calculate D2E/DX2 analytically  !
 ! D89   D(15,16,17,18)        -16.874          calculate D2E/DX2 analytically  !
 ! D90   D(15,16,17,36)       -135.2823         calculate D2E/DX2 analytically  !
 ! D91   D(15,16,17,37)        104.933          calculate D2E/DX2 analytically  !
 ! D92   D(16,17,18,19)       -101.8813         calculate D2E/DX2 analytically  !
 ! D93   D(16,17,18,20)         63.3844         calculate D2E/DX2 analytically  !
 ! D94   D(36,17,18,19)          8.9118         calculate D2E/DX2 analytically  !
 ! D95   D(36,17,18,20)        174.1775         calculate D2E/DX2 analytically  !
 ! D96   D(37,17,18,19)        171.9201         calculate D2E/DX2 analytically  !
 ! D97   D(37,17,18,20)        -22.8141         calculate D2E/DX2 analytically  !
 ! D98   D(17,18,19,38)         50.4111         calculate D2E/DX2 analytically  !
 ! D99   D(17,18,19,39)        170.6228         calculate D2E/DX2 analytically  !
 ! D100  D(17,18,19,40)        -69.9686         calculate D2E/DX2 analytically  !
 ! D101  D(20,18,19,38)       -116.6381         calculate D2E/DX2 analytically  !
 ! D102  D(20,18,19,39)          3.5736         calculate D2E/DX2 analytically  !
 ! D103  D(20,18,19,40)        122.9822         calculate D2E/DX2 analytically  !
 ! D104  D(17,18,20,15)        -68.315          calculate D2E/DX2 analytically  !
 ! D105  D(17,18,20,21)         27.1418         calculate D2E/DX2 analytically  !
 ! D106  D(19,18,20,15)         97.5339         calculate D2E/DX2 analytically  !
 ! D107  D(19,18,20,21)       -167.0093         calculate D2E/DX2 analytically  !
 ! D108  D(18,19,38,31)         51.2364         calculate D2E/DX2 analytically  !
 ! D109  D(39,19,38,31)        -67.9419         calculate D2E/DX2 analytically  !
 ! D110  D(40,19,38,31)        171.6809         calculate D2E/DX2 analytically  !
 ! D111  D(15,20,21,41)         25.8231         calculate D2E/DX2 analytically  !
 ! D112  D(15,20,21,42)        147.4424         calculate D2E/DX2 analytically  !
 ! D113  D(15,20,21,43)        -94.6587         calculate D2E/DX2 analytically  !
 ! D114  D(18,20,21,41)        -64.8237         calculate D2E/DX2 analytically  !
 ! D115  D(18,20,21,42)         56.7955         calculate D2E/DX2 analytically  !
 ! D116  D(18,20,21,43)        174.6945         calculate D2E/DX2 analytically  !
 ! D117  D(9,31,38,19)        -130.6932         calculate D2E/DX2 analytically  !
 --------------------------------------------------------------------------------
 Trust Radius=1.00D-01 FncErr=1.00D-07 GrdErr=1.00D-06 EigMax=2.50D+02 EigMin=1.00D-04
 Number of steps in this run=    100 maximum allowed number of steps=    258.
 Search for a saddle point of order  1.
 GradGradGradGradGradGradGradGradGradGradGradGradGradGradGradGradGradGrad

                          Input orientation:                          
 ---------------------------------------------------------------------
 Center     Atomic      Atomic             Coordinates (Angstroms)
 Number     Number       Type             X           Y           Z
 ---------------------------------------------------------------------
      1          6           0       -1.208934    0.099086    7.936113
      2          8           0       -0.846521   -1.183784    7.415916
      3          6           0       -1.425677   -1.568260    6.292035
      4          8           0       -2.221539   -0.883074    5.685775
      5          6           0       -1.042644   -2.987350    5.842056
      6          8           0       -2.234013   -3.786507    5.939786
      7          6           0       -3.267924   -3.560827    5.006474
      8          6           0       -0.009086   -3.701336    6.761048
      9          6           0        1.186923   -4.401442    6.095661
     10          6           0        0.988991   -5.799983    5.489247
     11          6           0        0.063989   -6.009260    4.279942
     12          6           0        0.281109   -5.042913    3.116511
     13         35           0        2.144582   -5.085397    2.494225
     14         35           0       -0.839213   -5.645918    1.556599
     15          6           0       -0.119853   -3.750837    3.572931
     16          6           0       -0.523850   -3.024073    4.475005
     17          6           0        0.107055   -0.787445    3.723840
     18          7           0        0.920465   -1.392489    2.888993
     19          6           0        2.335122   -1.444904    3.216958
     20          7           0        0.577730   -2.184864    1.924114
     21          6           0       -0.725806   -1.990356    1.347730
     22          1           0       -0.543361    0.273778    8.776391
     23          1           0       -2.250319    0.087173    8.260889
     24          1           0       -1.085342    0.864350    7.168212
     25          1           0       -3.656980   -2.540599    5.061863
     26          1           0       -2.929767   -3.758558    3.983285
     27          1           0       -4.053216   -4.265639    5.272450
     28          1           0        0.389683   -2.961621    7.452917
     29          1           0       -0.584408   -4.428654    7.335412
     30          1           0        1.923582   -4.543016    6.890160
     31          1           0        1.643561   -3.741418    5.358945
     32          1           0        1.985828   -6.151539    5.210073
     33          1           0        0.614597   -6.464222    6.270729
     34          1           0        0.202800   -7.035938    3.929021
     35          1           0       -0.978798   -5.894485    4.589077
     36          1           0        0.539994   -0.233345    4.535826
     37          1           0       -0.919888   -0.606180    3.476007
     38          1           0        2.478542   -1.808817    4.233045
     39          1           0        2.820211   -2.116568    2.513153
     40          1           0        2.763857   -0.448211    3.128227
     41          1           0       -1.558032   -2.185843    2.035006
     42          1           0       -0.827960   -0.961837    0.981127
     43          1           0       -0.805877   -2.669658    0.500744
 ---------------------------------------------------------------------
                    Distance matrix (angstroms):
                    1          2          3          4          5
     1  C    0.000000
     2  O    1.430981   0.000000
     3  C    2.351598   1.321496   0.000000
     4  O    2.655942   2.230356   1.212612   0.000000
     5  C    3.733473   2.401739   1.537209   2.417064   0.000000
     6  O    4.487087   3.298221   2.387071   2.914550   1.437903
     7  C    5.120273   4.161603   3.002810   2.954105   2.445189
     8  C    4.154952   2.732804   2.603213   3.740824   1.556459
     9  C    5.420531   4.028807   3.858907   4.915744   2.652346
    10  C    6.754039   5.328269   4.937871   5.875553   3.487537
    11  C    7.231861   5.826540   5.098049   5.785999   3.577258
    12  C    7.203399   5.886366   5.007024   5.492598   3.661455
    13  Br   8.230376   6.956459   6.288113   6.848980   5.076237
    14  Br   8.593019   7.364936   6.276590   6.453341   5.047227
    15  C    5.919912   4.678283   3.723217   4.135851   2.565810
    16  C    4.711978   3.484213   2.496854   2.988644   1.462642
    17  C    4.501223   3.833773   3.091046   3.046422   3.263162
    18  N    5.677373   4.864035   4.137146   4.237180   3.888182
    19  C    6.100383   5.274684   4.859519   5.212857   4.547480
    20  N    6.674783   5.761123   4.844850   4.866278   4.315073
    21  C    6.928634   6.122745   5.011400   4.720374   4.614471
    22  H    1.086081   2.016751   3.216149   3.702228   4.415265
    23  H    1.090918   2.073634   2.701273   2.751984   4.094132
    24  H    1.091135   2.076836   2.607893   2.557744   4.073832
    25  H    4.606754   3.909116   2.727174   2.279725   2.764606
    26  H    5.785113   4.769939   3.519945   3.415914   2.758808
    27  H    5.851143   4.937122   3.901201   3.868802   3.319943
    28  H    3.486687   2.165704   2.566054   3.776457   2.155712
    29  H    4.609914   3.256434   3.158833   4.239415   2.125430
    30  H    5.696999   4.385696   4.519344   5.659307   3.509575
    31  H    5.433967   4.119846   3.874725   4.818293   2.831556
    32  H    7.530480   6.129155   5.815106   6.759065   4.425284
    33  H    7.012546   5.597263   5.304114   6.287691   3.875416
    34  H    8.304117   6.892548   6.175053   6.842613   4.647784
    35  H    6.868662   5.495381   4.670759   5.278390   3.166302
    36  H    3.838126   3.334768   2.954679   3.061143   3.434460
    37  H    4.524765   3.982700   3.018515   2.579543   3.359052
    38  H    5.563299   4.645146   4.420434   5.005816   4.046801
    39  H    7.109967   6.192907   5.710355   6.083279   5.173152
    40  H    6.260861   5.653333   5.368090   5.619995   5.319919
    41  H    6.337652   5.519471   4.303628   3.932628   3.924495
    42  H    7.045746   6.438642   5.378732   4.907340   5.270429
    43  H    7.944376   7.073123   5.927586   5.663968   5.355987
                    6          7          8          9         10
     6  O    0.000000
     7  C    1.411019   0.000000
     8  C    2.373189   3.703822   0.000000
     9  C    3.479259   4.662470   1.537311   0.000000
    10  C    3.826856   4.834068   2.649142   1.537150   0.000000
    11  C    3.602294   4.198132   3.389356   2.672619   1.536829
    12  C    3.984379   4.285344   3.894444   3.179201   2.589233
    13  Br   5.721110   6.158809   4.975911   3.788832   3.288796
    14  Br   4.961371   4.706153   5.617544   5.124161   4.339561
    15  C    3.173791   3.464318   3.190425   2.914638   3.016753
    16  C    2.377298   2.846139   2.439193   2.729545   3.320098
    17  C    4.402885   4.552723   4.210568   4.455629   5.387023
    18  N    4.998940   5.169915   4.603005   4.405397   5.117814
    19  C    5.811531   6.250890   4.811172   4.283271   5.093337
    20  N    5.157206   5.116959   5.102938   4.762997   5.093957
    21  C    5.156338   4.723891   5.722338   5.658155   5.882682
    22  H    5.233599   6.028244   4.488718   5.660201   7.074177
    23  H    4.515881   4.993460   4.650316   6.053966   7.268681
    24  H    4.945600   5.386926   4.708461   5.834563   7.178796
    25  H    2.085155   1.093297   4.188278   5.291018   5.691335
    26  H    2.076715   1.095610   4.031081   4.671463   4.668190
    27  H    1.996097   1.088204   4.346188   5.306145   5.274947
    28  H    3.139074   4.440971   1.088521   2.133265   3.503065
    29  H    2.254179   3.657641   1.090816   2.162253   2.786477
    30  H    4.331411   5.609341   2.111943   1.092675   2.101424
    31  H    3.921095   4.927427   2.167658   1.089450   2.164054
    32  H    4.892128   5.861327   3.519759   2.117866   1.093259
    33  H    3.923552   5.010191   2.874532   2.147852   1.091832
    34  H    4.532111   5.028243   4.380051   3.550126   2.140091
    35  H    2.800634   3.295494   3.235383   3.031389   2.165971
    36  H    4.721354   5.078768   4.156930   4.497181   5.665516
    37  H    4.232212   4.072535   4.604460   5.070036   5.888340
    38  H    5.388172   6.057194   4.020040   3.443737   4.441420
    39  H    6.330536   6.735571   5.344252   4.552213   5.077209
    40  H    6.635345   7.042626   5.609762   5.188490   6.112776
    41  H    4.273918   3.693769   5.199175   5.378901   5.610803
    42  H    5.877418   5.376950   6.448481   6.484528   6.857997
    43  H    5.733245   5.211282   6.394579   6.186552   6.156756
                   11         12         13         14         15
    11  C    0.000000
    12  C    1.527920   0.000000
    13  Br   2.893299   1.965090   0.000000
    14  Br   2.892125   2.012973   3.177477   0.000000
    15  C    2.373634   1.427778   2.841183   2.859092   0.000000
    16  C    3.048760   2.563041   3.910636   3.935812   1.226840
    17  C    5.251519   4.302110   4.912826   5.403436   2.975895
    18  N    4.897230   3.712969   3.910482   4.792014   2.666803
    19  C    5.207814   4.144240   3.716427   5.521024   3.386878
    20  N    4.521046   3.110987   3.345616   3.757884   2.378548
    21  C    5.037184   3.668864   4.374112   3.663280   2.901377
    22  H    7.750064   7.809046   8.683974   9.341077   6.591879
    23  H    7.640055   7.693538   8.906460   8.933479   6.422316
    24  H    7.543844   7.292409   8.226667   8.598510   5.929432
    25  H    5.146710   5.055148   6.835707   5.465317   4.024036
    26  H    3.757158   3.565191   5.452231   3.717708   2.839730
    27  H    4.580028   4.902918   6.841289   5.103188   4.315638
    28  H    4.411570   4.811235   5.672628   6.594103   3.992089
    29  H    3.500661   4.350352   5.596051   5.911120   3.851170
    30  H    3.524372   4.145846   4.434779   6.107070   3.975825
    31  H    2.966884   2.928937   3.203735   4.924339   2.509892
    32  H    2.139825   2.918582   2.921933   4.645899   3.588523
    33  H    2.115039   3.475690   4.301627   5.000620   3.896151
    34  H    1.093839   2.153707   3.103831   2.940464   3.320059
    35  H    1.093683   2.116835   3.846886   3.045848   2.523008
    36  H    5.801142   5.021297   5.503203   6.330399   3.706118
    37  H    5.550459   4.610448   5.515275   5.393477   3.246278
    38  H    4.845202   4.066292   3.724379   5.735347   3.310414
    39  H    5.086389   3.921042   3.044795   5.173267   3.526746
    40  H    6.288164   5.222592   4.721118   6.516770   4.406913
    41  H    4.721144   3.565802   4.725214   3.566188   2.623505
    42  H    6.095427   4.737624   5.303699   4.719313   3.872646
    43  H    5.117807   3.695418   4.302903   3.158174   3.328349
                   16         17         18         19         20
    16  C    0.000000
    17  C    2.442294   0.000000
    18  N    2.695098   1.313273   0.000000
    19  C    3.500026   2.377702   1.453121   0.000000
    20  N    2.902550   2.326656   1.294726   2.303782   0.000000
    21  C    3.299879   2.790439   2.333055   3.627783   1.438491
    22  H    5.420159   5.203605   6.291319   6.492059   7.365831
    23  H    5.195523   5.187193   6.410970   6.986756   7.301693
    24  H    4.763242   4.001741   5.237204   5.713549   6.289998
    25  H    3.224074   4.362547   5.195434   6.364708   5.282498
    26  H    2.563140   4.256420   4.649736   5.801664   4.361104
    27  H    3.825419   5.639493   6.218792   7.279592   6.081664
    28  H    3.115510   4.325845   4.855235   4.901888   5.586266
    29  H    3.187231   5.174937   5.590491   5.864136   5.972211
    30  H    3.759001   5.237335   5.190511   4.822871   5.659842
    31  H    2.448184   3.709498   3.484394   3.215640   3.918790
    32  H    4.076745   5.874707   5.401016   5.123176   5.339923
    33  H    4.044170   6.242599   6.103456   6.122032   6.099781
    34  H    4.113536   6.252594   5.783184   6.026067   5.262427
    35  H    2.908479   5.292407   5.173535   5.715203   4.825567
    36  H    2.987244   1.074143   2.049496   2.535700   3.260504
    37  H    2.645951   1.071863   2.085610   3.371299   2.672728
    38  H    3.248038   2.631813   2.099383   1.088777   3.014243
    39  H    3.981856   3.254773   2.067505   1.087099   2.319558
    40  H    4.388383   2.743799   2.084943   1.088616   3.040560
    41  H    2.779524   2.753215   2.738914   4.135535   2.138639
    42  H    4.068475   2.902954   2.623434   3.903509   2.088297
    43  H    3.999987   3.842463   3.211721   4.329401   2.043374
                   21         22         23         24         25
    21  C    0.000000
    22  H    7.768178   0.000000
    23  H    7.377806   1.792838   0.000000
    24  H    6.492813   1.796875   1.776265   0.000000
    25  H    4.763332   5.604736   4.372373   4.758540   0.000000
    26  H    3.863952   6.702874   5.792165   5.909055   1.782019
    27  H    5.626010   6.723318   5.579263   6.222458   1.782447
    28  H    6.281797   3.618005   4.113097   4.110330   4.719098
    29  H    6.466655   4.918432   4.901475   5.319284   4.263153
    30  H    6.652358   5.731072   6.382711   6.194397   6.204436
    31  H    4.976943   5.708184   6.183986   5.650970   5.442973
    32  H    6.291748   7.771751   8.134737   7.905005   6.700906
    33  H    6.785873   7.281474   7.422214   7.576493   5.924741
    34  H    5.743106   8.802596   8.690315   8.635174   6.032355
    35  H    5.080606   7.467976   7.132965   7.234994   4.317956
    36  H    3.853997   4.406044   4.665261   3.282698   4.818166
    37  H    2.546208   5.386109   5.014566   3.977714   3.707909
    38  H    4.315767   5.840470   6.494646   5.335007   6.234346
    39  H    3.734752   7.500368   7.975162   6.768219   6.973502
    40  H    4.210242   6.584885   7.195332   5.732419   7.024542
    41  H    1.096888   7.247452   6.663893   5.989734   3.700445
    42  H    1.096670   7.897714   7.491225   6.456100   5.210398
    43  H    1.088691   8.787438   8.361003   7.551320   5.380451
                   26         27         28         29         30
    26  H    0.000000
    27  H    1.783596   0.000000
    28  H    4.867463   5.118033   0.000000
    29  H    4.145659   4.039185   1.764893   0.000000
    30  H    5.711418   6.198068   2.273841   2.549773   0.000000
    31  H    4.775778   5.721499   2.562228   3.056560   1.750883
    32  H    5.603074   6.326971   4.213503   3.753867   2.326782
    33  H    5.011540   5.255360   3.703562   2.591275   2.405862
    34  H    4.533998   5.252907   5.390068   4.361322   4.236047
    35  H    2.955579   3.545727   4.321575   3.137923   3.942748
    36  H    4.977114   6.156264   3.996936   5.167454   5.102007
    37  H    3.772854   5.141653   4.804050   5.442322   5.936367
    38  H    5.754448   7.055508   4.007475   5.086245   3.852802
    39  H    6.157894   7.712083   5.569815   6.339665   5.084269
    40  H    6.641301   8.102033   5.536865   6.689934   5.623667
    41  H    2.854974   4.586124   5.809404   5.837161   6.422649
    42  H    4.610010   6.303399   6.882285   7.242588   7.437238
    43  H    4.221931   5.988451   7.060263   7.060864   7.196114
                   31         32         33         34         35
    31  H    0.000000
    32  H    2.438851   0.000000
    33  H    3.050210   1.761544   0.000000
    34  H    3.869668   2.366948   2.445410   0.000000
    35  H    3.479247   3.039855   2.385678   1.770526   0.000000
    36  H    3.768549   6.129443   6.468329   6.837922   5.861576
    37  H    4.466145   6.496244   6.669466   6.542740   5.404495
    38  H    2.387423   4.478458   5.412877   5.709135   5.364013
    39  H    3.481835   4.924487   6.155177   5.749410   5.745832
    40  H    4.132358   6.121060   7.119483   7.113258   6.767825
    41  H    4.870172   6.194089   6.400484   5.496475   4.540134
    42  H    5.744543   7.261846   7.767696   6.829879   6.113189
    43  H    5.545316   6.488058   7.050474   5.642243   5.209979
                   36         37         38         39         40
    36  H    0.000000
    37  H    1.842140   0.000000
    38  H    2.516298   3.683581   0.000000
    39  H    3.582893   4.146890   1.780303   0.000000
    40  H    2.640657   3.703497   1.775747   1.779019   0.000000
    41  H    3.803690   2.231377   4.611665   4.404819   4.784687
    42  H    3.877871   2.521779   4.714372   4.121851   4.216042
    43  H    4.901926   3.622586   5.045644   4.183803   4.957973
                   41         42         43
    41  H    0.000000
    42  H    1.772529   0.000000
    43  H    1.775887   1.774235   0.000000
 Symmetry turned off by external request.
 Stoichiometry    C14H22Br2N2O3
 Framework group  C1[X(C14H22Br2N2O3)]
 Deg. of freedom   123
 Full point group                 C1      NOp   1
 Rotational constants (GHZ):           0.3173687           0.1515342           0.1469137
 Standard basis: def2SVP (5D, 7F)
   440 basis functions,   789 primitive gaussians,   465 cartesian basis functions
   107 alpha electrons      107 beta electrons
       nuclear repulsion energy      3019.5179045618 Hartrees.
 NAtoms=   43 NActive=   43 NUniq=   43 SFac= 1.00D+00 NAtFMM=   60 NAOKFM=F Big=F
 Integral buffers will be    131072 words long.
 Raffenetti 2 integral format.
 Two-electron integral symmetry is turned off.
 Nuclear repulsion after empirical dispersion term =     3019.4103873857 Hartrees.
 Force inversion solution in PCM.
 ------------------------------------------------------------------------------
 Polarizable Continuum Model (PCM)
 =================================
 Model                : PCM.
 Atomic radii         : SMD-Coulomb.
 Polarization charges : Total charges.
 Charge compensation  : None.
 Solution method      : Matrix inversion.
 Cavity type          : VdW (van der Waals Surface) (Alpha=1.000).
 Cavity algorithm     : GePol (No added spheres)
                        Default sphere list used, NSphG=   43.
                        Lebedev-Laikov grids with approx.  5.0 points / Ang**2.
                        Smoothing algorithm: York/Karplus (Gamma=1.0000).
                        Polarization charges: spherical gaussians, with
                                              point-specific exponents (IZeta= 3).
                        Self-potential: point-specific (ISelfS= 7).
                        Self-field    : sphere-specific E.n sum rule (ISelfD= 2).
 1st derivatives      : Analytical E(r).r(x)/FMM algorithm (CHGder, D1EAlg=3).
                        Cavity 1st derivative terms included.
 2nd derivatives      : Analytical E(r).r(xy)/FMM algorithm (CHGder, D2EAlg=3).
                        Cavity 2nd derivative terms included.
 Solvent              : Water, Eps=  78.355300 Eps(inf)=   1.777849
 ------------------------------------------------------------------------------
 ------------------------------------------------------------------------------
 Atomic radii for non-electrostatic terms: SMD-CDS.
 ------------------------------------------------------------------------------
 Nuclear repulsion after PCM non-electrostatic terms =     3019.4212189045 Hartrees.
 One-electron integrals computed using PRISM.
   1 Symmetry operations used in ECPInt.
 ECPInt:  NShTT=   20910 NPrTT=   79794 LenC2=   19593 LenP2D=   51414.
 LDataN:  DoStor=T MaxTD1= 4 Len=   56
 NBasis=   440 RedAO= T EigKep=  3.51D-04  NBF=   440
 NBsUse=   440 1.00D-06 EigRej= -1.00D+00 NBFU=   440
 ExpMin= 1.22D-01 ExpMax= 1.13D+05 ExpMxC= 1.70D+04 IAcc=3 IRadAn=         5 AccDes= 0.00D+00
 Harris functional with IExCor=  402 and IRadAn=       5 diagonalized for initial guess.
 HarFok:  IExCor=  402 AccDes= 0.00D+00 IRadAn=         5 IDoV= 1 UseB2=F ITyADJ=14
 ICtDFT=  3500011 ScaDFX=  1.000000  1.000000  1.000000  1.000000
 FoFCou: FMM=F IPFlag=           0 FMFlag=      100000 FMFlg1=           0
         NFxFlg=           0 DoJE=T BraDBF=F KetDBF=T FulRan=T
         wScrn=  0.000000 ICntrl=       500 IOpCl=  0 I1Cent=   200000004 NGrid=           0
         NMat0=    1 NMatS0=      1 NMatT0=    0 NMatD0=    1 NMtDS0=    0 NMtDT0=    0
 Symmetry not used in FoFCou.
 Requested convergence on RMS density matrix=1.00D-08 within 128 cycles.
 Requested convergence on MAX density matrix=1.00D-06.
 Requested convergence on             energy=1.00D-06.
 No special actions if energy rises.
 Inv3:  Mode=1 IEnd=    25666875.
 Iteration    1 A*A^-1 deviation from unit magnitude is 4.00D-15 for    757.
 Iteration    1 A*A^-1 deviation from orthogonality  is 2.62D-15 for   1472   1168.
 Iteration    1 A^-1*A deviation from unit magnitude is 3.55D-15 for    207.
 Iteration    1 A^-1*A deviation from orthogonality  is 1.36D-13 for   2232   2217.
 Error on total polarization charges =  0.03764
 SCF Done:  E(RB3LYP) =  -6028.90653849     A.U. after   14 cycles
            NFock= 14  Conv=0.49D-08     -V/T= 2.0024
 SMD-CDS (non-electrostatic) energy       (kcal/mol) =       6.80
 (included in total energy above)
 DoSCS=F DFT=T ScalE2(SS,OS)=  1.000000  1.000000
 Range of M.O.s used for correlation:     1   440
 NBasis=   440 NAE=   107 NBE=   107 NFC=     0 NFV=     0
 NROrb=    440 NOA=   107 NOB=   107 NVA=   333 NVB=   333

 **** Warning!!: The largest alpha MO coefficient is  0.11366312D+02

   1 Symmetry operations used in ECPInt.
 ECPInt:  NShTT=   20910 NPrTT=   79794 LenC2=   19593 LenP2D=   51414.
 LDataN:  DoStor=T MaxTD1= 5 Len=  102
 Symmetrizing basis deriv contribution to polar:
 IMax=3 JMax=2 DiffMx= 0.00D+00
 G2DrvN: will do    44 centers at a time, making    1 passes.
 Calling FoFCou, ICntrl=  3107 FMM=F I1Cent=   0 AccDes= 0.00D+00.
 NEqPCM:  Using equilibrium solvation (IEInf=0, Eps=  78.3553, EpsInf=   1.7778)
 G2PCM: DoFxE=T DoFxN=T DoGrad=T DoDP/DQ/DG/TGxP=FFFF NFrqRd=   0 IEInf=0 SqF1=F DoCFld=F IF1Alg=4.
 End of G2Drv F.D. properties file   721 does not exist.
 End of G2Drv F.D. properties file   722 does not exist.
 End of G2Drv F.D. properties file   788 does not exist.
          IDoAtm=1111111111111111111111111111111111111111111
 NEqPCM:  Using equilibrium solvation (IEInf=0, Eps=  78.3553, EpsInf=   1.7778)
          Differentiating once with respect to nuclear coordinates.
 CalDSu exits because no D1Ps are significant.
          There are   132 degrees of freedom in the 1st order CPHF.  IDoFFX=6 NUNeed=     0.
    126 vectors produced by pass  0 Test12= 3.56D-14 1.00D-09 XBig12= 1.48D-01 1.11D-01.
 AX will form   126 AO Fock derivatives at one time.
    126 vectors produced by pass  1 Test12= 3.56D-14 1.00D-09 XBig12= 1.74D-02 2.34D-02.
    126 vectors produced by pass  2 Test12= 3.56D-14 1.00D-09 XBig12= 1.85D-04 1.89D-03.
    126 vectors produced by pass  3 Test12= 3.56D-14 1.00D-09 XBig12= 7.66D-07 1.19D-04.
    126 vectors produced by pass  4 Test12= 3.56D-14 1.00D-09 XBig12= 1.62D-09 4.92D-06.
     89 vectors produced by pass  5 Test12= 3.56D-14 1.00D-09 XBig12= 1.60D-12 1.22D-07.
     20 vectors produced by pass  6 Test12= 3.56D-14 1.00D-09 XBig12= 1.53D-15 3.24D-09.
 InvSVY:  IOpt=1 It=  1 EMax= 5.55D-16
 Solved reduced A of dimension   739 with   132 vectors.
 End of Minotr F.D. properties file   721 does not exist.
 End of Minotr F.D. properties file   722 does not exist.
 End of Minotr F.D. properties file   788 does not exist.

 **********************************************************************

            Population analysis using the SCF Density.

 **********************************************************************

 Alpha  occ. eigenvalues -- -482.77976-482.77794 -62.46155 -62.45968 -56.29400
 Alpha  occ. eigenvalues --  -56.29208 -56.29027 -56.29013 -56.28839 -56.28834
 Alpha  occ. eigenvalues --  -19.19011 -19.14654 -19.13344 -14.41886 -14.32388
 Alpha  occ. eigenvalues --  -10.32100 -10.29794 -10.26784 -10.23652 -10.21699
 Alpha  occ. eigenvalues --  -10.20826 -10.20597 -10.19214 -10.19056 -10.18245
 Alpha  occ. eigenvalues --  -10.17936 -10.17845 -10.17725 -10.17347  -8.67978
 Alpha  occ. eigenvalues --   -8.67772  -6.51354  -6.51123  -6.50037  -6.49983
 Alpha  occ. eigenvalues --   -6.49826  -6.49807  -2.62772  -2.62539  -2.62416
 Alpha  occ. eigenvalues --   -2.62373  -2.62185  -2.62169  -2.61334  -2.61333
 Alpha  occ. eigenvalues --   -2.61147  -2.61147  -1.11326  -1.03579  -1.03477
 Alpha  occ. eigenvalues --   -1.01452  -0.86238  -0.82115  -0.81055  -0.76925
 Alpha  occ. eigenvalues --   -0.75552  -0.74829  -0.73033  -0.72927  -0.69999
 Alpha  occ. eigenvalues --   -0.68206  -0.66106  -0.65033  -0.60593  -0.57049
 Alpha  occ. eigenvalues --   -0.56346  -0.55593  -0.53376  -0.51669  -0.50392
 Alpha  occ. eigenvalues --   -0.49663  -0.49013  -0.48630  -0.48333  -0.47801
 Alpha  occ. eigenvalues --   -0.47389  -0.45023  -0.44655  -0.43831  -0.42877
 Alpha  occ. eigenvalues --   -0.41828  -0.41220  -0.41064  -0.40512  -0.39492
 Alpha  occ. eigenvalues --   -0.39095  -0.38636  -0.38283  -0.37329  -0.37061
 Alpha  occ. eigenvalues --   -0.36322  -0.35169  -0.33970  -0.33120  -0.32495
 Alpha  occ. eigenvalues --   -0.31769  -0.31557  -0.30420  -0.29648  -0.28504
 Alpha  occ. eigenvalues --   -0.27692  -0.26536  -0.26324  -0.25673  -0.25073
 Alpha  occ. eigenvalues --   -0.24181  -0.20459
 Alpha virt. eigenvalues --   -0.03630  -0.03256  -0.00336  -0.00138   0.02220
 Alpha virt. eigenvalues --    0.06091   0.07230   0.08010   0.08671   0.08876
 Alpha virt. eigenvalues --    0.10458   0.11065   0.11462   0.12070   0.12320
 Alpha virt. eigenvalues --    0.13171   0.13375   0.13802   0.13992   0.14168
 Alpha virt. eigenvalues --    0.14306   0.15269   0.15624   0.16002   0.16080
 Alpha virt. eigenvalues --    0.17280   0.17565   0.18548   0.18651   0.19903
 Alpha virt. eigenvalues --    0.20126   0.20766   0.21310   0.22600   0.23179
 Alpha virt. eigenvalues --    0.24423   0.24929   0.26397   0.27116   0.28983
 Alpha virt. eigenvalues --    0.30055   0.32822   0.33785   0.34859   0.36062
 Alpha virt. eigenvalues --    0.36779   0.38483   0.39471   0.40607   0.41597
 Alpha virt. eigenvalues --    0.42408   0.43444   0.43684   0.44112   0.44761
 Alpha virt. eigenvalues --    0.45260   0.45903   0.46537   0.46825   0.47633
 Alpha virt. eigenvalues --    0.48197   0.48517   0.48602   0.49197   0.50238
 Alpha virt. eigenvalues --    0.50771   0.51267   0.51776   0.53138   0.54024
 Alpha virt. eigenvalues --    0.54434   0.55109   0.55999   0.56618   0.56817
 Alpha virt. eigenvalues --    0.57765   0.58136   0.58708   0.59318   0.60469
 Alpha virt. eigenvalues --    0.61407   0.61879   0.62522   0.62996   0.63519
 Alpha virt. eigenvalues --    0.63869   0.64172   0.64227   0.65072   0.65628
 Alpha virt. eigenvalues --    0.65815   0.66104   0.66757   0.66881   0.67212
 Alpha virt. eigenvalues --    0.67708   0.67927   0.68306   0.68604   0.69152
 Alpha virt. eigenvalues --    0.69423   0.69947   0.70288   0.71078   0.71425
 Alpha virt. eigenvalues --    0.71698   0.72229   0.72761   0.73144   0.73605
 Alpha virt. eigenvalues --    0.74353   0.75098   0.76362   0.77333   0.78010
 Alpha virt. eigenvalues --    0.78633   0.79559   0.80527   0.81449   0.81771
 Alpha virt. eigenvalues --    0.83868   0.84950   0.85442   0.86874   0.87673
 Alpha virt. eigenvalues --    0.88887   0.89755   0.90961   0.91517   0.91779
 Alpha virt. eigenvalues --    0.93017   0.93852   0.96974   0.98309   1.00410
 Alpha virt. eigenvalues --    1.01644   1.02638   1.04014   1.05042   1.07378
 Alpha virt. eigenvalues --    1.08158   1.08555   1.09980   1.10856   1.11749
 Alpha virt. eigenvalues --    1.12715   1.13862   1.14924   1.16397   1.17140
 Alpha virt. eigenvalues --    1.19151   1.19276   1.22145   1.24187   1.24424
 Alpha virt. eigenvalues --    1.25138   1.25843   1.29365   1.29804   1.31202
 Alpha virt. eigenvalues --    1.33221   1.33367   1.35687   1.36649   1.40139
 Alpha virt. eigenvalues --    1.41377   1.42169   1.43500   1.45276   1.46125
 Alpha virt. eigenvalues --    1.49014   1.50332   1.51742   1.51960   1.54235
 Alpha virt. eigenvalues --    1.54764   1.55243   1.55973   1.57257   1.58634
 Alpha virt. eigenvalues --    1.59449   1.61034   1.62859   1.63064   1.66082
 Alpha virt. eigenvalues --    1.66187   1.67021   1.68892   1.70220   1.70836
 Alpha virt. eigenvalues --    1.72493   1.72995   1.73522   1.74396   1.75818
 Alpha virt. eigenvalues --    1.76234   1.77142   1.77235   1.77985   1.79228
 Alpha virt. eigenvalues --    1.79513   1.79917   1.80262   1.81362   1.82085
 Alpha virt. eigenvalues --    1.82881   1.83476   1.83786   1.84381   1.85148
 Alpha virt. eigenvalues --    1.85637   1.86773   1.87795   1.88029   1.89049
 Alpha virt. eigenvalues --    1.90310   1.91381   1.91582   1.92119   1.92437
 Alpha virt. eigenvalues --    1.93331   1.93737   1.95439   1.95774   1.96278
 Alpha virt. eigenvalues --    1.97176   1.98042   1.99163   2.00063   2.01361
 Alpha virt. eigenvalues --    2.03650   2.04777   2.05950   2.07246   2.09436
 Alpha virt. eigenvalues --    2.09891   2.12340   2.13164   2.14204   2.14651
 Alpha virt. eigenvalues --    2.14885   2.17092   2.18306   2.21373   2.21855
 Alpha virt. eigenvalues --    2.23500   2.23948   2.25513   2.26752   2.29058
 Alpha virt. eigenvalues --    2.30368   2.31888   2.32590   2.34136   2.34852
 Alpha virt. eigenvalues --    2.36532   2.36775   2.37491   2.38970   2.40909
 Alpha virt. eigenvalues --    2.42006   2.43918   2.45735   2.46300   2.46593
 Alpha virt. eigenvalues --    2.48855   2.50144   2.52023   2.53034   2.56721
 Alpha virt. eigenvalues --    2.59350   2.60451   2.62154   2.63276   2.64089
 Alpha virt. eigenvalues --    2.64540   2.66267   2.67375   2.68011   2.68923
 Alpha virt. eigenvalues --    2.69878   2.71038   2.73485   2.74189   2.79878
 Alpha virt. eigenvalues --    2.80924   2.81797   2.84076   2.84494   2.84707
 Alpha virt. eigenvalues --    2.86963   2.87624   2.89050   2.90121   2.91145
 Alpha virt. eigenvalues --    2.94106   2.94436   2.94646   2.96241   2.98266
 Alpha virt. eigenvalues --    2.98717   2.99427   3.00454   3.02667   3.03762
 Alpha virt. eigenvalues --    3.03863   3.05752   3.06531   3.07587   3.08309
 Alpha virt. eigenvalues --    3.10622   3.13670   3.17195   3.18492   3.21834
 Alpha virt. eigenvalues --    3.34720   3.39988   3.40335   3.44002   3.44854
 Alpha virt. eigenvalues --    3.46105   3.47338   3.50138   3.50864   3.53143
 Alpha virt. eigenvalues --    3.55113   3.56063   3.60087   3.61784   3.64986
 Alpha virt. eigenvalues --    3.67555   3.82898   3.84372
          Condensed to atoms (all electrons):
               1          2          3          4          5          6
     1  C    4.370047   0.263658  -0.029333  -0.000172   0.012250  -0.000322
     2  O    0.263658   7.849397   0.416604  -0.078062  -0.125390   0.000377
     3  C   -0.029333   0.416604   4.717535   0.644590   0.096651  -0.027175
     4  O   -0.000172  -0.078062   0.644590   7.786196  -0.097303  -0.002213
     5  C    0.012250  -0.125390   0.096651  -0.097303   5.501074   0.291263
     6  O   -0.000322   0.000377  -0.027175  -0.002213   0.291263   8.049094
     7  C   -0.000043   0.000025  -0.007639  -0.006892  -0.040925   0.296365
     8  C   -0.000778   0.011945  -0.046362   0.003695   0.201428  -0.050761
     9  C   -0.000008   0.000285   0.002847  -0.000026  -0.050449  -0.002439
    10  C    0.000000  -0.000018  -0.000559  -0.000001  -0.000343   0.002546
    11  C   -0.000000   0.000000  -0.000093   0.000002   0.012216  -0.004739
    12  C   -0.000000   0.000001  -0.000265  -0.000002  -0.018340  -0.002354
    13  Br   0.000000  -0.000000   0.000009  -0.000000  -0.000358  -0.000005
    14  Br   0.000000   0.000000   0.000009   0.000000  -0.000023   0.000029
    15  C    0.000001  -0.000257   0.017367   0.000558  -0.053903  -0.015365
    16  C   -0.000848   0.002714  -0.015395   0.009694   0.215629  -0.052916
    17  C   -0.000069  -0.001803   0.005248  -0.006229  -0.019765   0.000474
    18  N    0.000001  -0.000009   0.000613   0.000220  -0.000344  -0.000006
    19  C    0.000000  -0.000005  -0.000000   0.000005  -0.000107  -0.000001
    20  N   -0.000000   0.000000  -0.000002   0.000008   0.001461  -0.000006
    21  C    0.000000  -0.000000   0.000056  -0.000107   0.000422   0.000011
    22  H    0.398654  -0.022871   0.004957   0.000888  -0.000006   0.000001
    23  H    0.402205  -0.025763  -0.001795   0.004951   0.000364   0.000042
    24  H    0.398018  -0.027182  -0.005703   0.012073   0.000357  -0.000012
    25  H    0.000147   0.000105  -0.001499   0.021211   0.009936  -0.031754
    26  H   -0.000010  -0.000011  -0.001939  -0.000103  -0.019091  -0.034234
    27  H   -0.000003   0.000020   0.000503   0.000538   0.004860  -0.025703
    28  H   -0.000525   0.020432  -0.025587   0.000557   0.021259   0.003485
    29  H   -0.000026   0.000309   0.006253  -0.000142  -0.006396   0.011586
    30  H    0.000000  -0.000058  -0.000221   0.000002   0.011317  -0.000164
    31  H   -0.000004   0.000173   0.000240  -0.000019  -0.033319   0.000202
    32  H   -0.000000   0.000000   0.000023  -0.000000  -0.000331  -0.000008
    33  H   -0.000000   0.000001  -0.000018   0.000000  -0.002820  -0.000107
    34  H    0.000000  -0.000000   0.000003  -0.000000  -0.000109   0.000057
    35  H    0.000000  -0.000003   0.000459  -0.000008  -0.000253   0.015915
    36  H    0.000000   0.001777   0.004757  -0.001842  -0.003262   0.000003
    37  H    0.000007   0.000271   0.003814   0.014675  -0.005116  -0.000024
    38  H   -0.000001  -0.000001  -0.000071  -0.000003  -0.000966   0.000005
    39  H   -0.000000  -0.000000   0.000004   0.000000  -0.000042   0.000000
    40  H    0.000000  -0.000000  -0.000003   0.000000   0.000023  -0.000000
    41  H   -0.000000   0.000000   0.000064   0.000220  -0.002166  -0.000006
    42  H   -0.000000   0.000000  -0.000016   0.000000   0.000041  -0.000001
    43  H   -0.000000  -0.000000  -0.000000  -0.000001   0.000012  -0.000000
               7          8          9         10         11         12
     1  C   -0.000043  -0.000778  -0.000008   0.000000  -0.000000  -0.000000
     2  O    0.000025   0.011945   0.000285  -0.000018   0.000000   0.000001
     3  C   -0.007639  -0.046362   0.002847  -0.000559  -0.000093  -0.000265
     4  O   -0.006892   0.003695  -0.000026  -0.000001   0.000002  -0.000002
     5  C   -0.040925   0.201428  -0.050449  -0.000343   0.012216  -0.018340
     6  O    0.296365  -0.050761  -0.002439   0.002546  -0.004739  -0.002354
     7  C    4.407699   0.009530  -0.000406  -0.000071   0.000101   0.000418
     8  C    0.009530   4.837652   0.399423  -0.041662  -0.007626   0.008305
     9  C   -0.000406   0.399423   4.628322   0.395028  -0.059898  -0.010581
    10  C   -0.000071  -0.041662   0.395028   4.658851   0.379341  -0.030683
    11  C    0.000101  -0.007626  -0.059898   0.379341   4.798407   0.303717
    12  C    0.000418   0.008305  -0.010581  -0.030683   0.303717   5.633194
    13  Br  -0.000010   0.000498  -0.003964  -0.016167  -0.071889   0.257538
    14  Br  -0.001125  -0.000149   0.000021   0.005098  -0.072961   0.248214
    15  C   -0.005044  -0.056613   0.015172  -0.024084  -0.030646   0.145364
    16  C   -0.004474  -0.020225   0.035074  -0.020576  -0.030738  -0.141647
    17  C    0.000088   0.002934  -0.000445   0.000076  -0.000246   0.002941
    18  N   -0.000005  -0.000355   0.000201  -0.000072  -0.000077  -0.002075
    19  C   -0.000000  -0.000033  -0.001243   0.000037  -0.000014  -0.000599
    20  N    0.000001  -0.000073   0.000091  -0.000050   0.001362  -0.017842
    21  C   -0.000252  -0.000053   0.000019  -0.000004  -0.000136  -0.002258
    22  H   -0.000001  -0.000015  -0.000003   0.000000  -0.000000   0.000000
    23  H   -0.000011  -0.000104  -0.000003  -0.000000  -0.000000  -0.000000
    24  H    0.000005  -0.000101   0.000015  -0.000000  -0.000000   0.000000
    25  H    0.384296  -0.000625  -0.000054   0.000019  -0.000062  -0.000241
    26  H    0.392156  -0.000303   0.000237  -0.000099  -0.000504   0.003828
    27  H    0.387041   0.000063   0.000000   0.000011   0.000072   0.000055
    28  H   -0.000377   0.315766   0.000896   0.007065  -0.000055  -0.000236
    29  H   -0.000009   0.300816  -0.002804  -0.011656  -0.002965   0.000061
    30  H    0.000016  -0.013025   0.330645  -0.013407   0.011649  -0.000084
    31  H    0.000040  -0.002809   0.353450  -0.010001  -0.021398   0.010924
    32  H    0.000000   0.009694  -0.012344   0.338460  -0.012364  -0.009640
    33  H    0.000014  -0.008203  -0.013250   0.350173  -0.017576   0.009952
    34  H   -0.000019  -0.000621   0.009613  -0.005332   0.325159  -0.029560
    35  H   -0.000268   0.004492  -0.013396   0.001715   0.339495  -0.010846
    36  H    0.000010   0.000349  -0.000093   0.000003  -0.000003   0.000037
    37  H   -0.000238  -0.000237   0.000047  -0.000007   0.000014  -0.000361
    38  H    0.000000   0.000679  -0.000995   0.000150   0.000003   0.000164
    39  H    0.000000   0.000010  -0.000019  -0.000003   0.000074  -0.000608
    40  H    0.000000  -0.000010   0.000048  -0.000001   0.000001   0.000014
    41  H    0.000434   0.000110   0.000008  -0.000002  -0.000131   0.001325
    42  H    0.000006   0.000001  -0.000001   0.000000   0.000013  -0.000040
    43  H    0.000011   0.000000   0.000001  -0.000003   0.000072  -0.001027
              13         14         15         16         17         18
     1  C    0.000000   0.000000   0.000001  -0.000848  -0.000069   0.000001
     2  O   -0.000000   0.000000  -0.000257   0.002714  -0.001803  -0.000009
     3  C    0.000009   0.000009   0.017367  -0.015395   0.005248   0.000613
     4  O   -0.000000   0.000000   0.000558   0.009694  -0.006229   0.000220
     5  C   -0.000358  -0.000023  -0.053903   0.215629  -0.019765  -0.000344
     6  O   -0.000005   0.000029  -0.015365  -0.052916   0.000474  -0.000006
     7  C   -0.000010  -0.001125  -0.005044  -0.004474   0.000088  -0.000005
     8  C    0.000498  -0.000149  -0.056613  -0.020225   0.002934  -0.000355
     9  C   -0.003964   0.000021   0.015172   0.035074  -0.000445   0.000201
    10  C   -0.016167   0.005098  -0.024084  -0.020576   0.000076  -0.000072
    11  C   -0.071889  -0.072961  -0.030646  -0.030738  -0.000246  -0.000077
    12  C    0.257538   0.248214   0.145364  -0.141647   0.002941  -0.002075
    13  Br  34.981587  -0.069024  -0.083827  -0.005408   0.000082   0.001338
    14  Br  -0.069024  35.012543  -0.073521  -0.004069  -0.000052   0.000161
    15  C   -0.083827  -0.073521   5.419067   0.684482  -0.054069  -0.049870
    16  C   -0.005408  -0.004069   0.684482   5.427832   0.120118  -0.025974
    17  C    0.000082  -0.000052  -0.054069   0.120118   4.804430   0.478023
    18  N    0.001338   0.000161  -0.049870  -0.025974   0.478023   6.180826
    19  C   -0.005317  -0.000003   0.000621  -0.004184  -0.064375   0.351463
    20  N   -0.001161   0.000585   0.118667  -0.043459  -0.079098   0.273302
    21  C    0.000080  -0.004740  -0.026856  -0.007070  -0.001494  -0.045553
    22  H    0.000000  -0.000000   0.000000   0.000021   0.000009   0.000000
    23  H    0.000000   0.000000  -0.000005  -0.000134  -0.000012  -0.000000
    24  H   -0.000000  -0.000000   0.000018   0.000193   0.000309   0.000012
    25  H    0.000000   0.000013  -0.001544  -0.008178  -0.000045  -0.000003
    26  H    0.000058   0.005882   0.004944   0.016364  -0.000244   0.000021
    27  H    0.000000  -0.000002   0.000005   0.000586   0.000004  -0.000000
    28  H   -0.000008   0.000001  -0.000734  -0.003119   0.000022   0.000002
    29  H   -0.000016   0.000004   0.005658   0.003507  -0.000126   0.000003
    30  H   -0.000066   0.000010   0.001472   0.000107  -0.000008   0.000005
    31  H    0.006529   0.000024  -0.001261   0.006243  -0.000712   0.000083
    32  H    0.020685   0.000068  -0.002512  -0.000744  -0.000001  -0.000002
    33  H    0.000205  -0.000254  -0.000293   0.001286  -0.000002   0.000000
    34  H    0.002989   0.005995   0.016786   0.003788   0.000004   0.000005
    35  H    0.006333   0.001978  -0.008949  -0.011592   0.000013  -0.000008
    36  H   -0.000003  -0.000001   0.001801  -0.002745   0.386684  -0.021649
    37  H    0.000012   0.000010  -0.006652   0.000095   0.369605  -0.001398
    38  H   -0.001243  -0.000008   0.002856   0.003382   0.005816  -0.026000
    39  H    0.010946   0.000032  -0.000573   0.000044   0.007953  -0.018883
    40  H    0.000295   0.000001   0.000252  -0.000465  -0.003240  -0.019757
    41  H    0.000115   0.000411  -0.009737   0.006783   0.015220  -0.011641
    42  H   -0.000034   0.000264   0.005121  -0.000790   0.008445  -0.010484
    43  H    0.000350   0.010566   0.001029   0.000214  -0.000088   0.008338
              19         20         21         22         23         24
     1  C    0.000000  -0.000000   0.000000   0.398654   0.402205   0.398018
     2  O   -0.000005   0.000000  -0.000000  -0.022871  -0.025763  -0.027182
     3  C   -0.000000  -0.000002   0.000056   0.004957  -0.001795  -0.005703
     4  O    0.000005   0.000008  -0.000107   0.000888   0.004951   0.012073
     5  C   -0.000107   0.001461   0.000422  -0.000006   0.000364   0.000357
     6  O   -0.000001  -0.000006   0.000011   0.000001   0.000042  -0.000012
     7  C   -0.000000   0.000001  -0.000252  -0.000001  -0.000011   0.000005
     8  C   -0.000033  -0.000073  -0.000053  -0.000015  -0.000104  -0.000101
     9  C   -0.001243   0.000091   0.000019  -0.000003  -0.000003   0.000015
    10  C    0.000037  -0.000050  -0.000004   0.000000  -0.000000  -0.000000
    11  C   -0.000014   0.001362  -0.000136  -0.000000  -0.000000  -0.000000
    12  C   -0.000599  -0.017842  -0.002258   0.000000  -0.000000   0.000000
    13  Br  -0.005317  -0.001161   0.000080   0.000000   0.000000  -0.000000
    14  Br  -0.000003   0.000585  -0.004740  -0.000000   0.000000  -0.000000
    15  C    0.000621   0.118667  -0.026856   0.000000  -0.000005   0.000018
    16  C   -0.004184  -0.043459  -0.007070   0.000021  -0.000134   0.000193
    17  C   -0.064375  -0.079098  -0.001494   0.000009  -0.000012   0.000309
    18  N    0.351463   0.273302  -0.045553   0.000000  -0.000000   0.000012
    19  C    4.488085  -0.084372   0.011952   0.000000  -0.000000   0.000002
    20  N   -0.084372   6.855916   0.333654  -0.000000  -0.000000   0.000000
    21  C    0.011952   0.333654   4.480547   0.000000   0.000000   0.000000
    22  H    0.000000  -0.000000   0.000000   0.610989  -0.022717  -0.021216
    23  H   -0.000000  -0.000000   0.000000  -0.022717   0.626397  -0.029133
    24  H    0.000002   0.000000   0.000000  -0.021216  -0.029133   0.629160
    25  H   -0.000000  -0.000003  -0.000004   0.000001   0.000070  -0.000029
    26  H    0.000002   0.000012  -0.000316  -0.000000   0.000002  -0.000001
    27  H   -0.000000  -0.000000   0.000007  -0.000000  -0.000000  -0.000001
    28  H    0.000018   0.000001   0.000001  -0.000545   0.000237   0.000144
    29  H    0.000000   0.000002   0.000001   0.000007   0.000020   0.000003
    30  H    0.000019  -0.000000   0.000000  -0.000000  -0.000000  -0.000001
    31  H    0.001630  -0.000232   0.000028   0.000000   0.000001  -0.000002
    32  H   -0.000001   0.000010  -0.000001  -0.000000   0.000000   0.000000
    33  H   -0.000002   0.000001  -0.000000  -0.000000   0.000000   0.000000
    34  H   -0.000000  -0.000027   0.000005   0.000000   0.000000  -0.000000
    35  H    0.000000   0.000014  -0.000007   0.000000  -0.000000   0.000000
    36  H   -0.001443   0.006703  -0.000585  -0.000032   0.000043  -0.000064
    37  H    0.004910  -0.010375   0.016649  -0.000000  -0.000020   0.000075
    38  H    0.384514   0.001860  -0.000531   0.000000  -0.000000  -0.000003
    39  H    0.379024   0.015750  -0.000452  -0.000000  -0.000000   0.000000
    40  H    0.390574   0.003770  -0.000682   0.000000  -0.000000  -0.000000
    41  H   -0.000951  -0.020452   0.366501  -0.000000  -0.000000  -0.000001
    42  H   -0.000651  -0.018359   0.362383   0.000000  -0.000000   0.000000
    43  H   -0.000243  -0.034172   0.391918   0.000000   0.000000   0.000000
              25         26         27         28         29         30
     1  C    0.000147  -0.000010  -0.000003  -0.000525  -0.000026   0.000000
     2  O    0.000105  -0.000011   0.000020   0.020432   0.000309  -0.000058
     3  C   -0.001499  -0.001939   0.000503  -0.025587   0.006253  -0.000221
     4  O    0.021211  -0.000103   0.000538   0.000557  -0.000142   0.000002
     5  C    0.009936  -0.019091   0.004860   0.021259  -0.006396   0.011317
     6  O   -0.031754  -0.034234  -0.025703   0.003485   0.011586  -0.000164
     7  C    0.384296   0.392156   0.387041  -0.000377  -0.000009   0.000016
     8  C   -0.000625  -0.000303   0.000063   0.315766   0.300816  -0.013025
     9  C   -0.000054   0.000237   0.000000   0.000896  -0.002804   0.330645
    10  C    0.000019  -0.000099   0.000011   0.007065  -0.011656  -0.013407
    11  C   -0.000062  -0.000504   0.000072  -0.000055  -0.002965   0.011649
    12  C   -0.000241   0.003828   0.000055  -0.000236   0.000061  -0.000084
    13  Br   0.000000   0.000058   0.000000  -0.000008  -0.000016  -0.000066
    14  Br   0.000013   0.005882  -0.000002   0.000001   0.000004   0.000010
    15  C   -0.001544   0.004944   0.000005  -0.000734   0.005658   0.001472
    16  C   -0.008178   0.016364   0.000586  -0.003119   0.003507   0.000107
    17  C   -0.000045  -0.000244   0.000004   0.000022  -0.000126  -0.000008
    18  N   -0.000003   0.000021  -0.000000   0.000002   0.000003   0.000005
    19  C   -0.000000   0.000002  -0.000000   0.000018   0.000000   0.000019
    20  N   -0.000003   0.000012  -0.000000   0.000001   0.000002  -0.000000
    21  C   -0.000004  -0.000316   0.000007   0.000001   0.000001   0.000000
    22  H    0.000001  -0.000000  -0.000000  -0.000545   0.000007  -0.000000
    23  H    0.000070   0.000002  -0.000000   0.000237   0.000020  -0.000000
    24  H   -0.000029  -0.000001  -0.000001   0.000144   0.000003  -0.000001
    25  H    0.676698  -0.040214  -0.023331   0.000028   0.000079  -0.000001
    26  H   -0.040214   0.676937  -0.021651  -0.000004   0.000340   0.000000
    27  H   -0.023331  -0.021651   0.650250   0.000014  -0.000426  -0.000001
    28  H    0.000028  -0.000004   0.000014   0.681440  -0.012937  -0.012355
    29  H    0.000079   0.000340  -0.000426  -0.012937   0.703562  -0.003675
    30  H   -0.000001   0.000000  -0.000001  -0.012355  -0.003675   0.729741
    31  H    0.000003  -0.000047   0.000001  -0.003428   0.007653  -0.020810
    32  H   -0.000000  -0.000001  -0.000000  -0.000489   0.000295  -0.006877
    33  H   -0.000000  -0.000011   0.000003   0.000168   0.006072  -0.009822
    34  H    0.000001  -0.000023  -0.000005   0.000021   0.000009  -0.000438
    35  H    0.000465  -0.001605  -0.000366  -0.000096   0.000641  -0.000266
    36  H   -0.000015   0.000011   0.000000   0.000013   0.000003  -0.000005
    37  H    0.000273   0.000017   0.000007  -0.000023   0.000004   0.000001
    38  H    0.000000  -0.000001   0.000000  -0.000006  -0.000010  -0.000073
    39  H   -0.000000  -0.000000   0.000000  -0.000002  -0.000000   0.000003
    40  H   -0.000000  -0.000000  -0.000000   0.000001   0.000000  -0.000000
    41  H    0.000202   0.002066  -0.000026  -0.000001  -0.000003  -0.000000
    42  H   -0.000007   0.000003  -0.000000  -0.000000   0.000000  -0.000000
    43  H   -0.000002  -0.000049  -0.000000  -0.000000   0.000000  -0.000000
              31         32         33         34         35         36
     1  C   -0.000004  -0.000000  -0.000000   0.000000   0.000000   0.000000
     2  O    0.000173   0.000000   0.000001  -0.000000  -0.000003   0.001777
     3  C    0.000240   0.000023  -0.000018   0.000003   0.000459   0.004757
     4  O   -0.000019  -0.000000   0.000000  -0.000000  -0.000008  -0.001842
     5  C   -0.033319  -0.000331  -0.002820  -0.000109  -0.000253  -0.003262
     6  O    0.000202  -0.000008  -0.000107   0.000057   0.015915   0.000003
     7  C    0.000040   0.000000   0.000014  -0.000019  -0.000268   0.000010
     8  C   -0.002809   0.009694  -0.008203  -0.000621   0.004492   0.000349
     9  C    0.353450  -0.012344  -0.013250   0.009613  -0.013396  -0.000093
    10  C   -0.010001   0.338460   0.350173  -0.005332   0.001715   0.000003
    11  C   -0.021398  -0.012364  -0.017576   0.325159   0.339495  -0.000003
    12  C    0.010924  -0.009640   0.009952  -0.029560  -0.010846   0.000037
    13  Br   0.006529   0.020685   0.000205   0.002989   0.006333  -0.000003
    14  Br   0.000024   0.000068  -0.000254   0.005995   0.001978  -0.000001
    15  C   -0.001261  -0.002512  -0.000293   0.016786  -0.008949   0.001801
    16  C    0.006243  -0.000744   0.001286   0.003788  -0.011592  -0.002745
    17  C   -0.000712  -0.000001  -0.000002   0.000004   0.000013   0.386684
    18  N    0.000083  -0.000002   0.000000   0.000005  -0.000008  -0.021649
    19  C    0.001630  -0.000001  -0.000002  -0.000000   0.000000  -0.001443
    20  N   -0.000232   0.000010   0.000001  -0.000027   0.000014   0.006703
    21  C    0.000028  -0.000001  -0.000000   0.000005  -0.000007  -0.000585
    22  H    0.000000  -0.000000  -0.000000   0.000000   0.000000  -0.000032
    23  H    0.000001   0.000000   0.000000   0.000000  -0.000000   0.000043
    24  H   -0.000002   0.000000   0.000000  -0.000000   0.000000  -0.000064
    25  H    0.000003  -0.000000  -0.000000   0.000001   0.000465  -0.000015
    26  H   -0.000047  -0.000001  -0.000011  -0.000023  -0.001605   0.000011
    27  H    0.000001  -0.000000   0.000003  -0.000005  -0.000366   0.000000
    28  H   -0.003428  -0.000489   0.000168   0.000021  -0.000096   0.000013
    29  H    0.007653   0.000295   0.006072   0.000009   0.000641   0.000003
    30  H   -0.020810  -0.006877  -0.009822  -0.000438  -0.000266  -0.000005
    31  H    0.684796  -0.008458   0.009205  -0.000068  -0.000520   0.000159
    32  H   -0.008458   0.712427  -0.023386  -0.012303   0.009069  -0.000000
    33  H    0.009205  -0.023386   0.705575  -0.002827  -0.011992   0.000000
    34  H   -0.000068  -0.012303  -0.002827   0.701510  -0.021515  -0.000000
    35  H   -0.000520   0.009069  -0.011992  -0.021515   0.681986  -0.000001
    36  H    0.000159  -0.000000   0.000000  -0.000000  -0.000001   0.612378
    37  H   -0.000048   0.000000   0.000000   0.000000  -0.000004  -0.037537
    38  H    0.006229   0.000023   0.000001  -0.000004   0.000007  -0.001248
    39  H   -0.000046  -0.000014   0.000000  -0.000001  -0.000005   0.000087
    40  H   -0.000166   0.000000   0.000000  -0.000000  -0.000000   0.001119
    41  H   -0.000015   0.000000  -0.000000   0.000008  -0.000015  -0.000356
    42  H    0.000001   0.000000   0.000000  -0.000000   0.000001   0.000299
[...]
 010,0.00000099,-0.00000291,0.00000154,-0.00000100,-0.00000170,0.000002
 62,0.00000304,-0.00000089,0.00000060,-0.00000195,-0.00000005,0.0000009
 3,-0.00000051,0.00000331,-0.00000536,-0.00000031,0.00000375,-0.0000034
 1,0.00000903,-0.00001497,0.00001359,-0.00000183,0.00000350,-0.00000201
 ,-0.00000028,0.00000386,0.00000015,0.00000668,0.00000986,-0.00000793,-
 0.00000525,-0.00000445,0.00000589,-0.00007165,0.00022899,0.00021327,-0
 .00045545,0.00013632,0.00018632,0.00722576,-0.00190478,-0.01006224,-0.
 13647819,-0.00118694,0.26713609,0.00000226,-0.00000757,-0.00001099,0.0
 0000869,0.00002596,0.00003475,0.00003309,-0.00005443,-0.00003382,-0.00
 002338,0.00003361,0.00000308,0.00008919,-0.00001623,-0.00005839,-0.000
 04788,-0.00002210,0.00002317,0.00001671,-0.00000755,0.00000408,-0.0000
 2181,0.00000943,0.00000256,-0.00000576,-0.00000220,0.00000652,-0.00000
 492,0.00000597,-0.00000622,0.00005371,-0.00005392,-0.00003732,-0.00028
 527,0.00007036,0.00016019,0.00012962,0.00016355,-0.00005291,0.00001290
 ,-0.00002666,-0.00001566,0.00021754,-0.00000023,-0.00013767,-0.0000916
 8,0.00003984,0.00016504,0.00028478,-0.00050328,-0.00083518,-0.00781831
 ,-0.02887042,-0.02016930,-0.06044882,-0.03568194,-0.02331033,-0.006380
 18,0.00029101,-0.00092997,-0.00001935,-0.00063619,-0.00131183,-0.00000
 211,-0.00000010,-0.00000407,-0.00000179,0.00000248,0.00000560,0.000007
 63,-0.00000234,-0.00000046,0.00000055,-0.00000051,-0.00000298,0.,0.000
 00536,-0.00000010,-0.00000528,-0.00000071,0.00000187,0.00000243,-0.000
 00172,0.00000736,0.00000619,-0.00000651,0.00000957,0.00000361,-0.00000
 262,0.00000169,-0.00000395,0.00000221,0.00000359,0.00000356,-0.0000059
 9,0.00000455,0.00000274,-0.00000090,0.00000301,-0.00000772,-0.00002292
 ,0.00001516,0.00001031,0.00001086,-0.00001176,-0.00101668,0.00015438,0
 .00024708,0.00028868,0.00010808,-0.00004409,0.00156344,0.00380734,0.00
 432711,0.00525059,0.01448671,0.00705559,0.06862214,0.00000210,-0.00002
 660,-0.00000769,0.00003486,0.00004125,0.00001868,0.00001444,-0.0000975
 9,-0.00003705,-0.00002510,0.00004357,0.00001421,0.00011058,-0.00002903
 ,-0.00015823,-0.00011215,-0.00003311,0.00005837,0.00003486,-0.00001636
 ,0.00002002,-0.00003685,-0.00000391,-0.00000015,0.00001303,0.00001939,
 -0.00001245,-0.00000564,0.00000083,-0.00000877,-0.00002198,0.00002505,
 -0.00002252,0.00026841,0.00022401,0.00003722,-0.00010449,-0.00025140,0
 .00001376,-0.00005390,-0.00003367,-0.00004370,-0.00012304,0.00005336,-
 0.00003005,-0.00000429,0.00006032,0.00003797,0.00125636,0.00004496,-0.
 00010815,0.00329372,0.00126734,0.00236751,-0.04803601,-0.23623857,-0.1
 3071787,-0.00052081,0.00022484,0.00029980,0.00054365,0.00073044,0.0000
 5522,0.00000113,0.00000950,0.00000504,-0.00000159,0.00000740,0.0000003
 4,-0.00000272,0.00000444,0.00000331,-0.00000234,0.00000181,-0.00000388
 ,0.00000341,0.00000685,-0.00000142,-0.00000861,0.00000014,0.00000278,0
 .00000085,0.00000178,0.00001190,0.00000400,-0.00000530,0.00001805,0.00
 000080,-0.00000822,0.00001584,-0.00001217,-0.00000128,-0.00003841,0.00
 000025,0.00000791,-0.00000791,-0.00000417,-0.00000395,0.00001481,0.000
 00443,-0.00000225,0.00000078,-0.00000397,-0.00001389,0.00001118,0.0008
 0420,0.00044945,0.00049028,0.00007919,0.00041052,0.00016371,-0.0048361
 3,-0.01516088,-0.01489914,0.00110962,0.00295037,0.00249946,0.04664889,
 0.24540496,-0.00001287,-0.00001527,0.00000931,-0.00003538,-0.00001235,
 0.00004033,0.00003148,0.00000852,-0.00000765,-0.00001795,0.00000112,0.
 00000021,0.00002181,-0.00000735,0.00003594,0.00001003,-0.00000273,-0.0
 0000921,-0.00000215,0.00000128,-0.00000343,-0.00000091,0.00000726,0.00
 000300,-0.00000713,-0.00001007,0.00000468,-0.00000225,0.00000075,-0.00
 000008,0.00002927,-0.00003210,-0.00001377,-0.00021038,-0.00006832,0.00
 005458,0.00006777,0.00011891,0.00003340,0.00002139,0.00000089,0.000013
 59,0.00010736,-0.00003799,-0.00013762,-0.00006087,0.00006646,0.0000821
 4,0.00177686,-0.00001251,-0.00011069,-0.00003028,-0.00581759,-0.007349
 53,-0.03167645,-0.12807536,-0.13563569,-0.00319754,-0.00035606,-0.0003
 8211,-0.00021978,-0.00042869,0.00037307,0.00000453,0.00000450,0.000006
 96,0.00000078,0.00000047,-0.00000106,-0.00000560,0.00000491,-0.0000012
 5,0.00000087,-0.00000120,-0.00000003,-0.00000102,0.00000078,-0.0000006
 9,-0.00000041,-0.00000080,-0.00000011,0.00000124,-0.00000253,-0.000000
 35,0.00000186,-0.00000300,-0.00000003,0.00000244,0.00000160,-0.0000039
 5,0.00000318,0.00000025,0.00002243,0.00000149,-0.00000429,0.00000309,0
 .00000216,0.00000082,-0.00000196,-0.00000420,-0.00001015,0.00000758,0.
 00000531,0.00000845,-0.00000720,0.00110700,0.00002004,0.00070617,0.000
 02462,0.00039304,0.00001222,0.00416301,0.01310034,0.01127686,-0.006683
 09,-0.01887395,-0.00934886,0.03504845,0.14002266,0.14033284,0.00000034
 ,0.00005408,0.00002896,0.00006152,0.00003309,-0.00016035,-0.00014312,-
 0.00005427,0.00011226,0.00003014,0.00001004,-0.00000888,0.00010688,0.0
 0019993,-0.00013681,0.00010439,0.00000335,0.00012193,-0.00012277,-0.00
 018061,-0.00013633,0.00000593,-0.00001792,0.00003063,0.00000113,-0.000
 00441,0.00002429,0.00000374,-0.00000493,0.00000787,-0.00007007,0.00021
 142,0.00018251,-0.00006095,0.00065307,-0.00062901,0.00006697,0.0000583
 6,-0.00006874,0.00012903,-0.00014183,-0.00014388,-0.00115635,-0.000055
 54,0.00245136,0.00088613,-0.00188669,-0.00093412,0.00253901,-0.0010975
 8,-0.00291744,0.00052728,0.00698403,0.00840897,-0.00016407,0.00079696,
 -0.00099887,-0.03491629,-0.01237657,0.01417883,-0.13702964,-0.05087364
 ,0.10972412,-0.00000063,-0.00000374,0.00000083,0.00000294,-0.00000923,
 -0.00000667,-0.00000165,-0.00000203,-0.00000225,-0.00006278,-0.0001127
 6,0.00010134,-0.00002781,0.00003611,0.00020030,-0.00004260,-0.00001984
 ,0.00009743,0.00000434,0.00000214,0.00000882,-0.00000484,0.00000112,0.
 00000189,-0.00000361,-0.00000785,0.00001669,-0.00001820,-0.00000751,0.
 00000580,0.00000413,-0.00000404,0.00000651,0.00000247,-0.00000493,0.00
 000213,0.00000860,0.00005875,-0.00006518,-0.00000117,-0.00000185,-0.00
 000486,0.00040908,-0.00037839,0.00023759,0.00005528,-0.00138287,-0.000
 18036,-0.00014670,-0.00010728,-0.00012347,0.00025668,-0.00003698,-0.00
 020113,0.00003836,-0.00003612,-0.00022362,0.16055866,-0.00000727,0.000
 02482,0.00000892,0.00002597,-0.00002152,-0.00005146,-0.00012300,0.0001
 2230,0.00006997,0.00007679,-0.00006340,-0.00000103,-0.00041385,0.00022
 209,-0.00031304,-0.00002946,-0.00010252,0.00006207,-0.00014812,0.00006
 449,0.00020013,0.00011952,0.00001375,-0.00009146,0.00002149,-0.0000087
 0,-0.00000310,0.00001547,0.00001909,-0.00000389,-0.00007674,0.00000782
 ,-0.00003982,0.00033011,0.00038072,0.00037755,-0.00011456,0.00004431,-
 0.00001252,-0.00013235,0.00000612,-0.00035494,0.00125820,-0.00105340,0
 .00175583,0.00113740,-0.00113322,-0.00007234,0.00083198,-0.00080737,0.
 00046073,-0.00227152,0.00144560,0.00175208,-0.00000498,0.00034849,-0.0
 0025440,0.00261647,0.00019507,-0.00291963,-0.05328859,-0.07066161,0.05
 783580,0.00000027,-0.00000371,0.00000056,0.00000153,-0.00000461,-0.000
 00115,-0.00000010,-0.00000807,-0.00000360,0.00004208,-0.00010684,-0.00
 001626,-0.00010689,-0.00012474,0.00013508,0.00001988,-0.00003328,-0.00
 001238,-0.00000665,0.00000697,-0.00001698,-0.00003031,0.00002388,-0.00
 004049,-0.00000884,-0.00000013,-0.00000050,-0.00000063,-0.00000913,0.0
 0001865,-0.00000261,-0.00000138,0.00000040,-0.00000369,0.00000189,-0.0
 0001465,-0.00000861,-0.00000851,-0.00001668,-0.00001179,0.00001434,0.0
 0000654,0.00027326,0.00042185,-0.00025433,-0.00086463,-0.00197562,-0.0
 0056718,-0.00014123,-0.00009235,-0.00006059,-0.00005049,-0.00005867,-0
 .00004376,-0.00002093,-0.00003636,0.00005935,0.05595256,0.07597786,-0.
 00000162,-0.00003469,-0.00001039,-0.00002499,-0.00001088,0.00009450,0.
 00009092,0.00007396,-0.00005614,-0.00000129,-0.00002794,0.00001992,0.0
 0034496,-0.00022748,0.00035578,-0.00000803,0.00007494,-0.00023970,0.00
 015410,0.00019055,-0.00000841,-0.00004915,-0.00000198,0.00007222,-0.00
 005296,-0.00000565,-0.00000408,0.00001090,-0.00001402,0.00001858,0.000
 01866,-0.00004397,0.00006289,-0.00012976,-0.00061300,-0.00031489,0.000
 04667,-0.00008716,-0.00000882,-0.00007709,0.00028302,0.00022601,-0.001
 82800,0.00163283,-0.00242673,-0.00100441,0.00189328,0.00049430,0.00143
 582,-0.00255367,0.00142407,-0.00103188,-0.00142956,0.00027010,-0.00007
 432,0.00077111,-0.00043887,-0.00111623,-0.00364950,0.01305126,0.109983
 68,0.05860342,-0.18130455,0.00000020,0.00000249,-0.00000017,-0.0000028
 9,0.00000663,0.00000539,-0.00000052,0.00000091,0.00000210,0.00002649,0
 .00016373,-0.00008875,0.00008341,-0.00009412,-0.00025731,0.00004766,0.
 00003287,-0.00009185,0.00000505,-0.00000681,0.00000783,0.00001558,-0.0
 0000813,0.00001891,0.00001190,0.00000885,-0.00002265,0.00002673,0.0000
 3150,-0.00002600,-0.00000741,0.00000317,-0.00000438,-0.00000054,0.0000
 0418,-0.00001114,0.00002091,0.00001768,0.00003678,0.00000290,-0.000008
 45,0.00000350,-0.00033103,0.00125392,-0.00070434,-0.00155320,-0.002136
 93,-0.00010440,-0.00016609,0.00004664,-0.00008236,0.00006179,-0.000016
 19,0.00001768,0.00007656,0.00001203,-0.00001279,-0.12189186,-0.0643679
 3,0.19055117,-0.00000769,0.00010231,0.00005053,0.00007066,-0.00003411,
 -0.00025452,-0.00026107,0.00012342,0.00018420,0.00013636,-0.00008654,-
 0.00003048,-0.00028997,0.00033818,0.00018550,0.00032771,0.00013389,-0.
 00008862,-0.00009990,-0.00002675,-0.00012840,0.00010188,-0.00001987,-0
 .00002106,-0.00000888,-0.00001596,0.00000199,0.00000833,-0.00000445,0.
 00001570,-0.00008915,0.00021085,0.00023115,0.00004517,0.00025808,-0.00
 097728,0.00002734,0.00009788,-0.00002167,0.00018200,-0.00026249,0.0001
 1626,-0.00130189,-0.00050731,0.00332860,0.00098450,-0.00234507,-0.0014
 5975,0.00258392,-0.00015426,-0.00297098,0.00015987,0.00602723,0.007352
 85,0.00011640,-0.00060288,0.00062258,-0.02224585,0.02786723,-0.0163095
 9,-0.05762960,0.05295950,-0.01459064,-0.00000049,-0.00001059,-0.000003
 07,0.00000714,-0.00001814,-0.00000958,0.00000075,-0.00000992,-0.000001
 93,0.00000514,-0.00000945,0.00000594,0.00000069,0.00002109,0.00005192,
 0.00000730,0.00000849,0.00002817,-0.00000809,0.00000802,-0.00001725,-0
 .00001617,0.00002619,-0.00004074,-0.00000990,0.00001243,-0.00000505,0.
 00000896,0.00000632,0.00001521,-0.00000103,-0.00000006,0.00000641,0.00
 000529,0.00000059,-0.00001587,0.00002400,0.00007801,-0.00008125,0.0000
 0041,-0.00000462,-0.00000203,0.00004792,-0.00010868,0.00019292,-0.0000
 5932,0.00011840,-0.00040856,0.00012232,-0.00017891,0.00004938,-0.00007
 856,0.00006897,0.00002928,-0.00005908,-0.00028085,0.00001639,0.0055541
 3,-0.01671356,0.00352972,0.07115353,0.00001022,-0.00008967,-0.00004175
 ,-0.00005371,0.00008606,0.00020496,0.00020046,-0.00024816,-0.00010065,
 -0.00015498,0.00013487,0.00003545,0.00030909,-0.00012704,-0.00033045,-
 0.00028777,-0.00012977,0.00019615,0.00009056,-0.00007914,-0.00001198,-
 0.00010798,0.00001422,0.00001333,0.00001513,0.00001269,0.00000940,-0.0
 0004926,-0.00000779,-0.00002186,0.00017356,-0.00006492,-0.00011596,-0.
 00050556,0.00013155,0.00034401,0.00016345,-0.00014352,0.00008993,0.000
 15306,-0.00043858,0.00011597,0.00112120,0.00002735,-0.00141265,-0.0002
 1506,0.00110767,0.00039482,0.00087972,-0.00065638,0.00195891,-0.002444
 94,0.00175814,-0.00391387,0.00007815,0.00013626,0.00043909,0.00935638,
 0.00189568,0.00368663,0.05093068,-0.26331710,0.05314533,0.00000129,0.0
 0001185,0.00000270,-0.00000545,0.00001736,0.00000867,-0.00000202,0.000
 01309,0.00000430,0.00000854,-0.00000531,-0.00002557,-0.00000086,0.0000
 5182,0.00002137,-0.00003265,-0.00000072,0.00002656,0.00000839,-0.00000
 332,0.00002876,0.00001788,-0.00002810,0.00005089,0.00001061,-0.0000140
 6,0.00003191,-0.00003089,-0.00002092,-0.00001539,0.00001189,-0.0000005
 4,-0.00000205,0.00000449,-0.00000911,0.00004864,-0.00002164,-0.0000526
 4,0.00001937,0.00001427,0.00000769,-0.00001832,-0.00037730,-0.00042036
 ,0.00026953,-0.00018939,0.00094926,-0.00094676,-0.00019009,-0.00006445
 ,-0.00010498,-0.00007446,0.00001974,0.00007463,0.00003799,-0.00002340,
 -0.00001967,0.00258577,-0.00965182,0.00130008,-0.06453632,0.28267577,-
 0.00000245,0.00002077,0.00000704,-0.00000886,-0.00004141,-0.00003419,-
 0.00004511,0.00007341,0.00003550,0.00003764,-0.00004889,-0.00000145,0.
 00003826,-0.00011650,0.00026588,0.00010361,0.00007463,-0.00012485,-0.0
 0001754,0.00006174,0.00001986,0.00001218,-0.00000150,0.00003262,-0.000
 02619,-0.00001541,-0.00000502,-0.00002405,-0.00003654,0.00002637,0.000
 06474,0.00011195,0.00018303,-0.00009518,-0.00066642,-0.00067394,-0.000
 00467,0.00004410,0.00001951,0.00019996,-0.00025465,0.00046590,-0.00082
 256,0.00040632,-0.00076959,-0.00032863,0.00059561,0.00025101,0.0020871
 9,-0.00007667,-0.00053663,-0.00176147,0.00372181,0.00320209,-0.0000445
 3,-0.00007054,0.00015115,-0.00449515,0.00672244,-0.00428635,-0.0163205
 2,0.05226234,-0.06037952,-0.00000001,-0.00000260,-0.00000021,0.0000022
 0,-0.00000535,-0.00000203,-0.00000012,-0.00000355,-0.00000041,-0.00001
 161,0.00001722,0.00002188,0.00001144,-0.00004657,-0.00004220,0.0000167
 8,0.00000359,-0.00002492,-0.00000323,-0.00000147,-0.00000538,-0.000000
 03,0.00000509,-0.00000767,0.00000272,0.00001661,-0.00001358,0.00002301
 ,0.00001987,-0.00001033,-0.00000114,0.00000484,-0.00000152,0.00000824,
 0.00000235,0.00000704,0.00001448,0.00005513,-0.00004051,-0.00000082,-0
 .00000293,-0.00000416,0.00012752,-0.00040670,0.00036637,0.00001746,0.0
 0047703,-0.00145914,0.00000232,-0.00010379,-0.00005560,-0.00005454,-0.
 00002019,-0.00003556,-0.00004549,-0.00010852,0.00002154,-0.00514325,0.
 02017850,-0.00486739,0.01990440,-0.06104425,0.05993342,-0.00000225,0.0
 0002336,0.00001000,0.00002110,-0.00000815,-0.00005873,-0.00007140,0.00
 004431,0.00002921,0.00004106,-0.00003050,-0.00000332,-0.00008677,0.000
 06085,0.00004011,0.00007854,0.00002843,-0.00002755,-0.00004293,0.00002
 008,-0.00000750,0.00002844,-0.00000640,-0.00000533,-0.00000095,-0.0000
 0948,0.00000281,-0.00001291,-0.00001505,0.00000746,0.00002244,0.000082
 11,0.00011921,-0.00002559,-0.00011827,-0.00029643,-0.00000120,0.000010
 56,0.00002160,0.00004441,0.00012120,0.00012076,-0.00019321,-0.00003842
 ,0.00055305,0.00026716,-0.00030916,-0.00020703,-0.00083197,0.00061952,
 0.00077145,-0.00746833,-0.00024247,-0.00435575,0.00041605,-0.00071940,
 -0.00090159,-0.00920985,-0.02165826,-0.02904208,-0.04661482,-0.0093906
 2,-0.01260517,0.00000011,-0.00000276,0.00000005,0.00000150,-0.00000421
 ,-0.00000251,-0.00000034,-0.00000310,-0.00000220,0.00001235,-0.0000168
 0,-0.00000613,0.00000401,0.00000488,0.00000025,0.00000470,-0.00000580,
 0.00000635,-0.00000282,0.00000224,-0.00000481,-0.00000478,0.00000694,-
 0.00001106,-0.00000185,0.00000640,-0.00000070,0.00000442,0.00000179,0.
 00000247,0.00000117,0.00000119,0.00000255,0.00000432,-0.00000079,0.000
 00582,0.00000070,0.00003375,-0.00002685,-0.00000015,-0.00000518,-0.000
 00415,0.00043168,-0.00021461,-0.00010764,0.00066530,-0.00015968,0.0002
 9049,-0.00008742,-0.00000852,-0.00005288,-0.00001841,0.00002631,0.0000
 5112,-0.00040474,0.00000417,-0.00005743,0.00261611,0.01185844,0.013358
 68,0.00048495,0.00309753,0.00658301,0.05993219,-0.00000265,0.00002537,
 0.00001465,0.00000811,-0.00003082,-0.00005250,-0.00005449,0.00007737,0
 .00004170,0.00004656,-0.00004221,-0.00001496,-0.00011878,0.00004054,0.
 00006692,0.00008532,0.00002850,-0.00004882,-0.00004783,0.00002426,0.00
 002592,0.00003902,-0.00000349,-0.00000637,-0.00000333,0.00000402,-0.00
 000814,0.00005260,0.00001953,0.00000855,-0.00013416,-0.00007173,-0.000
 10239,0.00034344,0.00030396,0.00045901,-0.00011596,0.00005988,-0.00007
 866,0.00024648,-0.00174677,0.00005263,-0.00012242,-0.00010878,0.000094
 21,0.00014860,-0.00024990,-0.00002095,0.00027319,0.00023257,-0.0003853
 6,0.00063189,0.00196535,0.00042163,0.00025626,0.00026192,-0.00017504,-
 0.00099359,0.00052816,0.00350009,-0.01557381,-0.14325497,-0.13466774,-
 0.00000004,-0.00000346,-0.00000095,0.00000157,-0.00000455,-0.00000284,
 0.00000013,-0.00000359,-0.00000172,0.00001167,-0.00001300,-0.00000537,
 -0.00000801,-0.00000890,-0.00000060,0.00001059,-0.00000693,-0.00000590
 ,-0.00000159,-0.00000022,-0.00001088,-0.00000703,0.00000871,-0.0000194
 8,-0.00000547,-0.00000131,-0.00001564,0.00001035,0.00000576,0.00000927
 ,-0.00000911,-0.00000162,-0.00000065,-0.00000911,0.00000485,-0.0000333
 5,0.00000479,-0.00001453,0.00001627,-0.00000832,-0.00000044,0.00001358
 ,-0.00003880,0.00010569,-0.00003111,-0.00040142,-0.00029058,0.00001066
 ,-0.00011466,-0.00003053,-0.00001652,0.00001014,0.00001119,0.00001138,
 0.00004395,-0.00000470,-0.00003043,0.00116864,0.00662550,0.00893025,-0
 .00253629,-0.01345423,-0.02180091,0.01691356,0.14901413,-0.00000142,0.
 00001812,0.00001329,0.00001324,0.00000069,-0.00004159,-0.00003815,0.00
 001457,0.00003359,0.00002260,-0.00001198,-0.00000348,-0.00006214,0.000
 03960,0.00007537,0.00005034,0.00003862,-0.00001052,0.00000858,-0.00000
 721,-0.00005564,0.00001290,-0.00000650,-0.00000665,-0.00000119,-0.0000
 1823,0.00000516,-0.00006062,-0.00003142,0.00001777,0.00010857,0.000135
 56,0.00023118,-0.00033153,-0.00055137,-0.00116669,0.00009258,0.0001004
 3,0.00006538,0.00045456,-0.00052070,0.00077372,-0.00021940,0.00018461,
 0.00052266,-0.00005027,-0.00017146,-0.00035898,0.00019457,-0.00020607,
 -0.00000316,-0.00150618,0.00067156,0.00088951,0.00023890,-0.00040498,-
 0.00014348,-0.00356828,-0.00415096,-0.00629144,-0.02012194,-0.13152556
 ,-0.22838063,-0.00000005,-0.00000174,-0.00000045,0.00000113,-0.0000026
 0,-0.00000204,-0.00000060,-0.00000111,-0.00000015,-0.00002314,0.000023
 43,0.00002341,0.00001430,-0.00002609,-0.00000562,-0.00000109,0.0000140
 6,-0.00000089,-0.00000366,0.00000409,-0.00000103,-0.00000240,0.0000055
 8,-0.00000390,0.00000245,0.00001346,0.00000690,0.00000279,0.00000120,-
 0.00000497,0.00000757,0.00000604,0.00000163,0.00001264,-0.00000404,0.0
 0003248,0.00000480,0.00008217,-0.00004209,0.00000371,-0.00000653,-0.00
 001178,-0.00010007,-0.00000865,0.00005923,-0.00026926,0.00021548,-0.00
 002544,0.00000352,0.00001239,-0.00000963,-0.00005599,-0.00001268,-0.00
 006542,-0.00018802,0.00001096,-0.00001186,-0.00197398,-0.01338803,-0.0
 1564691,0.00151922,0.00560473,0.00837195,0.02581042,0.14386055,0.24117
 119\\0.00000233,-0.00000261,0.00000429,0.00000079,-0.00000242,0.000000
 72,0.00000572,-0.00000473,0.00000361,-0.00000135,-0.00000125,0.0000012
 9,0.00000313,0.00000054,-0.00000128,-0.00000267,0.00000406,0.00000167,
 -0.00000176,0.00000048,-0.00000123,0.00000035,-0.00000022,-0.00000276,
 -0.00000968,0.00000753,0.00000057,0.00000372,-0.00000083,-0.00000714,-
 0.00000126,-0.00000138,-0.00000385,0.00000094,0.00000437,0.00000045,-0
 .00000241,-0.00000132,-0.00000375,-0.00000310,0.00000437,-0.00000359,0
 .00000169,0.00000770,0.00000457,0.00000371,-0.00000713,-0.00000343,-0.
 00000311,0.00000916,0.00000595,-0.00000475,0.00001126,-0.00000351,0.00
 001096,-0.00000409,-0.00000237,-0.00000792,-0.00000649,0.00000551,-0.0
 0000112,0.00000191,-0.00000337,0.00000251,-0.00000324,0.00000416,0.000
 00252,-0.00000344,0.00000354,0.00000242,-0.00000156,0.00000439,0.00000
 015,0.00000021,0.00000189,-0.00000135,0.00000194,-0.00000031,0.0000002
 4,0.00000074,0.00000067,0.00000052,-0.00000294,-0.00000125,0.00000071,
 -0.00000283,-0.00000141,-0.00000015,-0.00000227,-0.00000272,0.00000476
 ,-0.00001676,-0.00000861,-0.00000143,-0.00000323,-0.00000547,-0.000001
 54,-0.00000110,-0.00000440,-0.00000286,0.00000105,-0.00000519,-0.00000
 048,-0.00000150,-0.00000242,0.00000118,-0.00000104,0.00000290,0.000000
 62,0.00000164,0.00000507,0.00000406,0.00000325,0.00000498,-0.00000050,
 0.00000437,0.00000169,-0.00000347,-0.00000275,0.00000657,-0.00000037,0
 .00000277,0.00000112,-0.00000031,0.00000339,0.00000236,-0.00000142,0.0
 0000440,0.00000012\\\@


 REALITY IS FOR PEOPLE WHO CAN'T FACE SCIENCE FICTION.
 Job cpu time:       0 days  4 hours 27 minutes 44.0 seconds.
 Elapsed time:       0 days  0 hours 33 minutes 32.1 seconds.
 File lengths (MBytes):  RWF=   1200 Int=      0 D2E=      0 Chk=     34 Scr=      1
 Normal termination of Gaussian 16 at Sat Oct 22 06:13:09 2022.
