 Entering Gaussian System, Link 0=g16
 Initial command:
 /public/software/apps/Gaussian/g16/l1.exe "/tmp/Gau-98427.inp" -scrdir="/tmp/"
 Entering Link 1 = /public/software/apps/Gaussian/g16/l1.exe PID=     98431.
  
 Copyright (c) 1988-2019, Gaussian, Inc.  All Rights Reserved.
  
 This is part of the Gaussian(R) 16 program.  It is based on
 the Gaussian(R) 09 system (copyright 2009, Gaussian, Inc.),
 the Gaussian(R) 03 system (copyright 2003, Gaussian, Inc.),
 the Gaussian(R) 98 system (copyright 1998, Gaussian, Inc.),
 the Gaussian(R) 94 system (copyright 1995, Gaussian, Inc.),
 the Gaussian 92(TM) system (copyright 1992, Gaussian, Inc.),
 the Gaussian 90(TM) system (copyright 1990, Gaussian, Inc.),
 the Gaussian 88(TM) system (copyright 1988, Gaussian, Inc.),
 the Gaussian 86(TM) system (copyright 1986, Carnegie Mellon
 University), and the Gaussian 82(TM) system (copyright 1983,
 Carnegie Mellon University). Gaussian is a federally registered
 trademark of Gaussian, Inc.
  
 This software contains proprietary and confidential information,
 including trade secrets, belonging to Gaussian, Inc.
  
 This software is provided under written license and may be
 used, copied, transmitted, or stored only in accord with that
 written license.
  
 The following legend is applicable only to US Government
 contracts under FAR:
  
                    RESTRICTED RIGHTS LEGEND
  
 Use, reproduction and disclosure by the US Government is
 subject to restrictions as set forth in subparagraphs (a)
 and (c) of the Commercial Computer Software - Restricted
 Rights clause in FAR 52.227-19.
  
 Gaussian, Inc.
 340 Quinnipiac St., Bldg. 40, Wallingford CT 06492
  
  
 ---------------------------------------------------------------
 Warning -- This program may not be used in any manner that
 competes with the business of Gaussian, Inc. or will provide
 assistance to any competitor of Gaussian, Inc.  The licensee
 of this program is prohibited from giving any competitor of
 Gaussian, Inc. access to this program.  By using this program,
 the user acknowledges that Gaussian, Inc. is engaged in the
 business of creating and licensing software in the field of
 computational chemistry and represents and warrants to the
 licensee that it is not a competitor of Gaussian, Inc. and that
 it will not use this program in any manner prohibited above.
 ---------------------------------------------------------------
  

 Cite this work as:
 Gaussian 16, Revision C.01,
 M. J. Frisch, G. W. Trucks, H. B. Schlegel, G. E. Scuseria, 
 M. A. Robb, J. R. Cheeseman, G. Scalmani, V. Barone, 
 G. A. Petersson, H. Nakatsuji, X. Li, M. Caricato, A. V. Marenich, 
 J. Bloino, B. G. Janesko, R. Gomperts, B. Mennucci, H. P. Hratchian, 
 J. V. Ortiz, A. F. Izmaylov, J. L. Sonnenberg, D. Williams-Young, 
 F. Ding, F. Lipparini, F. Egidi, J. Goings, B. Peng, A. Petrone, 
 T. Henderson, D. Ranasinghe, V. G. Zakrzewski, J. Gao, N. Rega, 
 G. Zheng, W. Liang, M. Hada, M. Ehara, K. Toyota, R. Fukuda, 
 J. Hasegawa, M. Ishida, T. Nakajima, Y. Honda, O. Kitao, H. Nakai, 
 T. Vreven, K. Throssell, J. A. Montgomery, Jr., J. E. Peralta, 
 F. Ogliaro, M. J. Bearpark, J. J. Heyd, E. N. Brothers, K. N. Kudin, 
 V. N. Staroverov, T. A. Keith, R. Kobayashi, J. Normand, 
 K. Raghavachari, A. P. Rendell, J. C. Burant, S. S. Iyengar, 
 J. Tomasi, M. Cossi, J. M. Millam, M. Klene, C. Adamo, R. Cammi, 
 J. W. Ochterski, R. L. Martin, K. Morokuma, O. Farkas, 
 J. B. Foresman, and D. J. Fox, Gaussian, Inc., Wallingford CT, 2019.
 
 ******************************************
 Gaussian 16:  ES64L-G16RevC.01  3-Jul-2019
                 9-Jun-2024 
 ******************************************
 %nprocshared=32
 Will use up to   32 processors via shared memory.
 %mem=80GB
 ------------------------------------------------------------
 #p scrf=(smd,solvent=chlorobenzene) aug-cc-pvqz em=gd3 m062x
 ------------------------------------------------------------
 1/38=1,172=1/1;
 2/12=2,17=6,18=5,40=1/2;
 3/5=16,6=2,7=10,11=2,25=1,30=1,70=32201,72=14,74=-55,124=31/1,2,3;
 4//1;
 5/5=2,38=5,53=14/2;
 6/7=2,8=2,9=2,10=2,28=1/1;
 99/5=1,9=1/99;
 Leave Link    1 at Sun Jun  9 05:47:36 2024, MaxMem= 10737418240 cpu:               2.8 elap:               0.2
 (Enter /public/software/apps/Gaussian/g16/l101.exe)
 -------------------------------
 Title: Yne12-vinyl12-S12-PhCl-1
 -------------------------------
 Symbolic Z-matrix:
 Charge =  1 Multiplicity = 1
 N                    -2.00253   0.16298  -0.08406 
 S                    -1.36758  -1.11204  -1.37733 
 O                    -0.11224  -0.53855  -1.81638 
 O                    -2.49906  -1.30652  -2.25966 
 C                    -1.12615  -2.51362  -0.29747 
 H                    -2.09118  -2.78486   0.12735 
 H                    -0.74174  -3.31508  -0.93175 
 H                    -0.39841  -2.23248   0.46223 
 C                    -1.24709   1.11278   0.1956 
 C                    -0.4302    2.08084   0.44512 
 C                    -0.36466   3.36334  -0.33078 
 H                    -1.08526   3.38419  -1.14638 
 H                    -0.55355   4.19833   0.34864 
 C                    -3.3284   -0.04775   0.46582 
 C                    -4.43392   0.27554  -0.3128 
 C                    -3.43876  -0.59142   1.74147 
 C                    -5.69949   0.05193   0.22033 
 H                    -4.30411   0.69034  -1.30345 
 C                    -4.71279  -0.80678   2.25768 
 H                    -2.55078  -0.83521   2.31108 
 C                    -5.83783  -0.48707   1.49872 
 H                    -6.57604   0.30155  -0.36429 
 H                    -4.82428  -1.2228    3.25118 
 H                    -6.827    -0.65727   1.90592 
 H                     0.24471   1.93216   1.28735 
 H                     0.6456    3.47783  -0.73189 
 
 ITRead=  0  0  0  0  0  0  0  0  0  0  0  0  0  0  0  0  0  0  0  0
 ITRead=  0  0  0  0  0  0
 MicOpt= -1 -1 -1 -1 -1 -1 -1 -1 -1 -1 -1 -1 -1 -1 -1 -1 -1 -1 -1 -1
 MicOpt= -1 -1 -1 -1 -1 -1
 NAtoms=     26 NQM=       26 NQMF=       0 NMMI=      0 NMMIF=      0
                NMic=       0 NMicF=      0.
                    Isotopes and Nuclear Properties:
 (Nuclear quadrupole moments (NQMom) in fm**2, nuclear magnetic moments (NMagM)
  in nuclear magnetons)

  Atom         1           2           3           4           5           6           7           8           9          10
 IAtWgt=          14          32          16          16          12           1           1           1          12          12
 AtmWgt=  14.0030740  31.9720718  15.9949146  15.9949146  12.0000000   1.0078250   1.0078250   1.0078250  12.0000000  12.0000000
 NucSpn=           2           0           0           0           0           1           1           1           0           0
 AtZEff=  -0.0000000  -0.0000000  -0.0000000  -0.0000000  -0.0000000  -0.0000000  -0.0000000  -0.0000000  -0.0000000  -0.0000000
 NQMom=    2.0440000   0.0000000   0.0000000   0.0000000   0.0000000   0.0000000   0.0000000   0.0000000   0.0000000   0.0000000
 NMagM=    0.4037610   0.0000000   0.0000000   0.0000000   0.0000000   2.7928460   2.7928460   2.7928460   0.0000000   0.0000000
 AtZNuc=   7.0000000  16.0000000   8.0000000   8.0000000   6.0000000   1.0000000   1.0000000   1.0000000   6.0000000   6.0000000

  Atom        11          12          13          14          15          16          17          18          19          20
 IAtWgt=          12           1           1          12          12          12          12           1          12           1
 AtmWgt=  12.0000000   1.0078250   1.0078250  12.0000000  12.0000000  12.0000000  12.0000000   1.0078250  12.0000000   1.0078250
 NucSpn=           0           1           1           0           0           0           0           1           0           1
 AtZEff=  -0.0000000  -0.0000000  -0.0000000  -0.0000000  -0.0000000  -0.0000000  -0.0000000  -0.0000000  -0.0000000  -0.0000000
 NQMom=    0.0000000   0.0000000   0.0000000   0.0000000   0.0000000   0.0000000   0.0000000   0.0000000   0.0000000   0.0000000
 NMagM=    0.0000000   2.7928460   2.7928460   0.0000000   0.0000000   0.0000000   0.0000000   2.7928460   0.0000000   2.7928460
 AtZNuc=   6.0000000   1.0000000   1.0000000   6.0000000   6.0000000   6.0000000   6.0000000   1.0000000   6.0000000   1.0000000

  Atom        21          22          23          24          25          26
 IAtWgt=          12           1           1           1           1           1
 AtmWgt=  12.0000000   1.0078250   1.0078250   1.0078250   1.0078250   1.0078250
 NucSpn=           0           1           1           1           1           1
 AtZEff=  -0.0000000  -0.0000000  -0.0000000  -0.0000000  -0.0000000  -0.0000000
 NQMom=    0.0000000   0.0000000   0.0000000   0.0000000   0.0000000   0.0000000
 NMagM=    0.0000000   2.7928460   2.7928460   2.7928460   2.7928460   2.7928460
 AtZNuc=   6.0000000   1.0000000   1.0000000   1.0000000   1.0000000   1.0000000
 Leave Link  101 at Sun Jun  9 05:47:37 2024, MaxMem= 10737418240 cpu:               5.7 elap:               0.2
 (Enter /public/software/apps/Gaussian/g16/l202.exe)
                          Input orientation:                          
 ---------------------------------------------------------------------
 Center     Atomic      Atomic             Coordinates (Angstroms)
 Number     Number       Type             X           Y           Z
 ---------------------------------------------------------------------
      1          7           0       -2.002530    0.162979   -0.084063
      2         16           0       -1.367577   -1.112040   -1.377328
      3          8           0       -0.112238   -0.538551   -1.816380
      4          8           0       -2.499059   -1.306519   -2.259656
      5          6           0       -1.126149   -2.513617   -0.297472
      6          1           0       -2.091176   -2.784861    0.127353
      7          1           0       -0.741741   -3.315082   -0.931747
      8          1           0       -0.398413   -2.232481    0.462233
      9          6           0       -1.247087    1.112778    0.195596
     10          6           0       -0.430204    2.080840    0.445117
     11          6           0       -0.364655    3.363338   -0.330777
     12          1           0       -1.085256    3.384187   -1.146378
     13          1           0       -0.553547    4.198329    0.348635
     14          6           0       -3.328402   -0.047745    0.465823
     15          6           0       -4.433919    0.275535   -0.312801
     16          6           0       -3.438761   -0.591422    1.741473
     17          6           0       -5.699492    0.051930    0.220333
     18          1           0       -4.304114    0.690344   -1.303454
     19          6           0       -4.712787   -0.806778    2.257684
     20          1           0       -2.550778   -0.835206    2.311083
     21          6           0       -5.837833   -0.487072    1.498716
     22          1           0       -6.576043    0.301549   -0.364287
     23          1           0       -4.824279   -1.222804    3.251180
     24          1           0       -6.826999   -0.657267    1.905922
     25          1           0        0.244708    1.932162    1.287352
     26          1           0        0.645603    3.477832   -0.731887
 ---------------------------------------------------------------------
                    Distance matrix (angstroms):
                    1          2          3          4          5
     1  N    0.000000
     2  S    1.923895   0.000000
     3  O    2.658246   1.448286   0.000000
     4  O    2.671923   1.447956   2.546210   0.000000
     5  C    2.824492   1.785720   2.689978   2.681815   0.000000
     6  H    2.956741   2.363470   3.569342   2.837195   1.088727
     7  H    3.795401   2.333154   2.981271   2.980912   1.091980
     8  H    2.934256   2.361917   2.853659   3.560730   1.088939
     9  C    1.245400   2.727347   2.839510   3.667246   3.661760
    10  C    2.535830   3.794003   3.475152   4.803141   4.705828
    11  C    3.603582   4.704267   4.182758   5.484872   5.926178
    12  H    3.513700   4.510998   4.096772   5.024037   5.958725
    13  H    4.309388   5.642837   5.226861   6.394650   6.767241
    14  C    1.450764   2.893918   3.974047   3.114572   3.393090
    15  C    2.444717   3.530019   4.647624   3.168094   4.326771
    16  C    2.442225   3.779916   4.871023   4.171743   3.633222
    17  C    3.711134   4.761600   5.976142   4.270656   5.269309
    18  H    2.657502   3.446345   4.398307   2.856573   4.623508
    19  C    3.710755   4.949437   6.151016   5.055363   4.722933
    20  H    2.652107   3.883423   4.803169   4.595266   3.413384
    21  C    4.199679   5.352140   6.616264   5.093551   5.434440
    22  H    4.584185   5.491139   6.677958   4.774946   6.134409
    23  H    4.583286   5.777901   6.953538   5.981887   5.285385
    24  H    5.282835   6.386849   7.678388   6.041906   6.387540
    25  H    3.171887   4.355129   3.983087   5.531598   4.914862
    26  H    4.291915   5.053357   4.228685   5.925622   6.263009
                    6          7          8          9         10
     6  H    0.000000
     7  H    1.795495   0.000000
     8  H    1.811826   1.798077   0.000000
     9  C    3.988575   4.596980   3.461517   0.000000
    10  C    5.151199   5.577525   4.313472   1.291008   0.000000
    11  C    6.402430   6.716000   5.651831   2.474020   1.500370
    12  H    6.378983   6.711503   5.882716   2.643177   2.158857
    13  H    7.153895   7.624050   6.433684   3.166235   2.123272
    14  C    3.022763   4.395396   3.654849   2.398272   3.595950
    15  C    3.879201   5.187273   4.814159   3.333968   4.456826
    16  C    3.038510   4.673152   3.684189   3.177651   4.227640
    17  C    4.590858   6.102733   5.777412   4.577108   5.650876
    18  H    4.361348   5.373277   5.187972   3.430891   4.471930
    19  C    3.914584   5.677435   4.885703   4.466316   5.473961
    20  H    2.963286   4.465238   3.162799   3.157457   4.059801
    21  C    4.604119   6.314661   5.805863   5.033149   6.078379
    22  H    5.466413   6.887751   6.728117   5.419348   6.449213
    23  H    4.434881   6.208190   5.327848   5.252413   6.172192
    24  H    5.487985   7.221268   6.774382   6.098663   7.109864
    25  H    5.390015   5.781959   4.294028   2.022072   1.089482
    26  H    6.888365   6.936018   5.926514   3.167962   2.119973
                   11         12         13         14         15
    11  C    0.000000
    12  H    1.088534   0.000000
    13  H    1.092928   1.783425   0.000000
    14  C    4.588448   4.405571   5.073726   0.000000
    15  C    5.108205   4.644579   5.557256   1.390300   0.000000
    16  C    5.420745   5.448315   5.762480   1.391060   2.441720
    17  C    6.303145   5.853461   6.609829   2.385847   1.391368
    18  H    4.859047   4.200299   5.394637   2.151077   1.081808
    19  C    6.557153   6.504676   6.781950   2.388183   2.802956
    20  H    5.420916   5.648457   5.759914   2.151692   3.415367
    21  C    6.937462   6.676088   7.155372   2.749022   2.415396
    22  H    6.925100   6.345318   7.208579   3.370202   2.142901
    23  H    7.331532   7.385335   7.486829   3.372925   3.885790
    24  H    7.932842   7.656207   8.084439   3.832177   3.394066
    25  H    2.244533   3.130531   2.579518   4.166780   5.214830
    26  H    1.092986   1.782258   1.767655   5.445817   6.019293
                   16         17         18         19         20
    16  C    0.000000
    17  C    2.799763   0.000000
    18  H    3.415163   2.162540   0.000000
    19  C    1.391400   2.421108   3.884597   0.000000
    20  H    1.082774   3.882351   4.297251   2.162855   0.000000
    21  C    2.413580   1.394247   3.404520   1.394264   3.403802
    22  H    3.882546   1.082789   2.488947   3.402182   4.965136
    23  H    2.144182   3.402496   4.967434   1.082840   2.490546
    24  H    3.392865   2.148358   4.298965   2.148484   4.299056
    25  H    4.488056   6.325134   5.380164   5.746311   4.064615
    26  H    6.273625   7.273497   5.709332   7.483833   6.170803
                   21         22         23         24         25
    21  C    0.000000
    22  H    2.153522   0.000000
    23  H    2.154002   4.296968   0.000000
    24  H    1.083159   2.477127   2.477991   0.000000
    25  H    6.549402   7.204822   6.285305   7.556243   0.000000
    26  H    7.920290   7.897853   8.238957   8.938504   2.574323
                   26
    26  H    0.000000
 Stoichiometry    C10H12NO2S(1+)
 Framework group  C1[X(C10H12NO2S)]
 Deg. of freedom    72
 Full point group                 C1      NOp   1
 Largest Abelian subgroup         C1      NOp   1
 Largest concise Abelian subgroup C1      NOp   1
                         Standard orientation:                         
 ---------------------------------------------------------------------
 Center     Atomic      Atomic             Coordinates (Angstroms)
 Number     Number       Type             X           Y           Z
 ---------------------------------------------------------------------
      1          7           0        0.419322    0.269153    0.135475
      2         16           0        1.242146   -1.438591   -0.193068
      3          8           0        2.657310   -1.131104   -0.175903
      4          8           0        0.555734   -1.936184   -1.366873
      5          6           0        0.720942   -2.292695    1.286001
      6          1           0       -0.366811   -2.338743    1.285773
      7          1           0        1.152230   -3.293663    1.219105
      8          1           0        1.116920   -1.752436    2.144552
      9          6           0        1.176575    1.226503    0.382603
     10          6           0        2.004551    2.186446    0.626870
     11          6           0        2.649437    3.044430   -0.421507
     12          1           0        2.346225    2.757588   -1.426838
     13          1           0        2.380508    4.088033   -0.239678
     14          6           0       -1.027262    0.340370    0.051571
     15          6           0       -1.623794    0.357284   -1.204134
     16          6           0       -1.760072    0.361010    1.233777
     17          6           0       -3.012689    0.408045   -1.269703
     18          1           0       -1.017082    0.333080   -2.099469
     19          6           0       -3.147838    0.412761    1.147626
     20          1           0       -1.254817    0.339450    2.191197
     21          6           0       -3.770489    0.434954   -0.099685
     22          1           0       -3.500437    0.428525   -2.236198
     23          1           0       -3.739695    0.436415    2.054096
     24          1           0       -4.851210    0.474985   -0.160286
     25          1           0        2.229374    2.368575    1.677230
     26          1           0        3.734673    2.955243   -0.327024
 ---------------------------------------------------------------------
 Rotational constants (GHZ):           0.8037164           0.4795434           0.3720190
 Leave Link  202 at Sun Jun  9 05:47:39 2024, MaxMem= 10737418240 cpu:               1.6 elap:               2.2
 (Enter /public/software/apps/Gaussian/g16/l301.exe)
 Standard basis: Aug-CC-pVQZ (5D, 7F)
 Ernie: Thresh=  0.10000D-02 Tol=  0.10000D-05 Strict=F.
 Ernie:  53 primitive shells out of 758 were deleted.
 There are  2134 symmetry adapted cartesian basis functions of A   symmetry.
 There are  1676 symmetry adapted basis functions of A   symmetry.
  1676 basis functions,  2465 primitive gaussians,  2134 cartesian basis functions
    55 alpha electrons       55 beta electrons
       nuclear repulsion energy      1015.2334423467 Hartrees.
 IExCor= 4336 DFT=T Ex+Corr=M062X ExCW=0 ScaHFX=  0.540000
 ScaDFX=  1.000000  1.000000  1.000000  1.000000 ScalE2=  1.000000  1.000000
 IRadAn=      5 IRanWt=     -1 IRanGd=            0 ICorTp=0 IEmpDi=131
 NAtoms=   26 NActive=   26 NUniq=   26 SFac= 1.00D+00 NAtFMM=   60 NAOKFM=F Big=F
 Integral buffers will be    131072 words long.
 Raffenetti 2 integral format.
 Two-electron integral symmetry is turned on.
 R6Disp:  Grimme-D3 Dispersion energy=       -0.0013387599 Hartrees.
 Nuclear repulsion after empirical dispersion term =     1015.2321035867 Hartrees.
 ------------------------------------------------------------------------------
 Polarizable Continuum Model (PCM)
 =================================
 Model                : PCM.
 Atomic radii         : SMD-Coulomb.
 Polarization charges : Total charges.
 Charge compensation  : None.
 Solution method      : On-the-fly selection.
 Cavity type          : VdW (van der Waals Surface) (Alpha=1.000).
 Cavity algorithm     : GePol (No added spheres)
                        Default sphere list used, NSphG=   26.
                        Lebedev-Laikov grids with approx.  5.0 points / Ang**2.
                        Smoothing algorithm: York/Karplus (Gamma=1.0000).
                        Polarization charges: spherical gaussians, with
                                              point-specific exponents (IZeta= 3).
                        Self-potential: point-specific (ISelfS= 7).
                        Self-field    : sphere-specific E.n sum rule (ISelfD= 2).
 Solvent              : ChloroBenzene, Eps=   5.696800 Eps(inf)=   2.322881
 ------------------------------------------------------------------------------
 GePol: Number of generator spheres                  =      26
 GePol: Total number of spheres                      =      26
 GePol: Number of exposed spheres                    =      26 (100.00%)
 GePol: Number of points                             =    2240
 GePol: Average weight of points                     =       0.12
 GePol: Minimum weight of points                     =   0.39D-07
 GePol: Maximum weight of points                     =    0.19854
 GePol: Number of points with low weight             =     126
 GePol: Fraction of low-weight points (<1% of avg)   =       5.63%
 GePol: Cavity surface area                          =    258.139 Ang**2
 GePol: Cavity volume                                =    248.216 Ang**3
 ------------------------------------------------------------------------------
 Atomic radii for non-electrostatic terms: SMD-CDS.
 ------------------------------------------------------------------------------
 PCM non-electrostatic energy =        -0.0077397180 Hartrees.
 Nuclear repulsion after PCM non-electrostatic terms =     1015.2243638687 Hartrees.
 Leave Link  301 at Sun Jun  9 05:47:40 2024, MaxMem= 10737418240 cpu:               3.9 elap:               0.1
 (Enter /public/software/apps/Gaussian/g16/l302.exe)
 NPDir=0 NMtPBC=     1 NCelOv=     1 NCel=       1 NClECP=     1 NCelD=      1
         NCelK=      1 NCelE2=     1 NClLst=     1 CellRange=     0.0.
 One-electron integrals computed using PRISM.
 One-electron integral symmetry used in STVInt
 NBasis=  1676 RedAO= T EigKep=  1.05D-06  NBF=  1676
 NBsUse=  1664 1.00D-06 EigRej=  9.41D-07 NBFU=  1664
 Precomputing XC quadrature grid using
 IXCGrd= 4 IRadAn=           5 IRanWt=          -1 IRanGd=           0 AccXCQ= 0.00D+00.
 Generated NRdTot=       0 NPtTot=           0 NUsed=           0 NTot=          32
 NSgBfM=  2116  2116  2116  2116  2116 MxSgAt=    26 MxSgA2=    26.
 Leave Link  302 at Sun Jun  9 05:47:47 2024, MaxMem= 10737418240 cpu:             153.0 elap:               5.0
 (Enter /public/software/apps/Gaussian/g16/l303.exe)
 DipDrv:  MaxL=1.
 Leave Link  303 at Sun Jun  9 05:47:48 2024, MaxMem= 10737418240 cpu:              12.5 elap:               0.5
 (Enter /public/software/apps/Gaussian/g16/l401.exe)
 ExpMin= 2.36D-02 ExpMax= 7.28D+05 ExpMxC= 2.28D+03 IAcc=3 IRadAn=         5 AccDes= 0.00D+00
 Harris functional with IExCor= 1009 and IRadAn=       5 diagonalized for initial guess.
 HarFok:  IExCor= 1009 AccDes= 0.00D+00 IRadAn=         5 IDoV= 1 UseB2=F ITyADJ=14
 ICtDFT=  3500011 ScaDFX=  1.000000  1.000000  1.000000  1.000000
 FoFCou: FMM=F IPFlag=           0 FMFlag=      100000 FMFlg1=           0
         NFxFlg=           0 DoJE=T BraDBF=F KetDBF=T FulRan=T
         wScrn=  0.000000 ICntrl=       500 IOpCl=  0 I1Cent=   200000004 NGrid=           0
         NMat0=    1 NMatS0=      1 NMatT0=    0 NMatD0=    1 NMtDS0=    0 NMtDT0=    0
 Petite list used in FoFCou.
 Harris En= -991.053060346800    
 JPrj=0 DoOrth=F DoCkMO=F.
 Leave Link  401 at Sun Jun  9 05:48:09 2024, MaxMem= 10737418240 cpu:             305.8 elap:               9.7
 (Enter /public/software/apps/Gaussian/g16/l502.exe)
 Integral symmetry usage will be decided dynamically.
 Closed shell SCF:
 Using DIIS extrapolation, IDIIS=  1040.
 NGot= 10737418240 LenX= 10728225540 LenY= 10723669450
 Requested convergence on RMS density matrix=1.00D-08 within 128 cycles.
 Requested convergence on MAX density matrix=1.00D-06.
 Requested convergence on             energy=1.00D-06.
 No special actions if energy rises.
 Fock matrices will be formed incrementally for  20 cycles.

 Cycle   1  Pass 1  IDiag  1:
 FoFJK:  IHMeth= 1 ICntrl=       0 DoSepK=F KAlg= 0 I1Cent=           0 FoldK=F
 IRaf= 880000000 NMat=       1 IRICut=       1 DoRegI=T DoRafI=F ISym2E= 0 IDoP0=0 IntGTp=1.
 FoFCou: FMM=F IPFlag=           0 FMFlag=      100000 FMFlg1=           0
         NFxFlg=           0 DoJE=F BraDBF=F KetDBF=F FulRan=T
         wScrn=  0.000000 ICntrl=         0 IOpCl=  0 I1Cent=           0 NGrid=           0
         NMat0=    1 NMatS0=      1 NMatT0=    0 NMatD0=    1 NMtDS0=    0 NMtDT0=    0
 Symmetry not used in FoFCou.
 Inv3:  Mode=1 IEnd=    15052800.
 Iteration    1 A*A^-1 deviation from unit magnitude is 3.00D-15 for   1717.
 Iteration    1 A*A^-1 deviation from orthogonality  is 3.03D-15 for    772    474.
 Iteration    1 A^-1*A deviation from unit magnitude is 3.11D-15 for   2100.
 Iteration    1 A^-1*A deviation from orthogonality  is 7.63D-15 for   1110   1069.
 E= -990.854861021339    
 DIIS: error= 1.37D-02 at cycle   1 NSaved=   1.
 NSaved= 1 IEnMin= 1 EnMin= -990.854861021339     IErMin= 1 ErrMin= 1.37D-02
 ErrMax= 1.37D-02  0.00D+00 EMaxC= 1.00D-01 BMatC= 8.25D-01 BMatP= 8.25D-01
 IDIUse=3 WtCom= 8.63D-01 WtEn= 1.37D-01
 Coeff-Com:  0.100D+01
 Coeff-En:   0.100D+01
 Coeff:      0.100D+01
 Gap=     0.387 Goal=   None    Shift=    0.000
 GapD=    0.387 DampG=1.000 DampE=0.500 DampFc=0.5000 IDamp=-1.
 Damping current iteration by 5.00D-01
 RMSDP=1.81D-03 MaxDP=2.90D-01              OVMax= 2.99D-01

 Cycle   2  Pass 1  IDiag  1:
 RMSU=  9.04D-04    CP:  1.02D+00
 E= -991.050062337440     Delta-E=       -0.195201316101 Rises=F Damp=T
 DIIS: error= 3.56D-03 at cycle   2 NSaved=   2.
 NSaved= 2 IEnMin= 2 EnMin= -991.050062337440     IErMin= 2 ErrMin= 3.56D-03
 ErrMax= 3.56D-03  0.00D+00 EMaxC= 1.00D-01 BMatC= 1.08D-01 BMatP= 8.25D-01
 IDIUse=3 WtCom= 9.64D-01 WtEn= 3.56D-02
 Coeff-Com:  0.115D+00 0.885D+00
 Coeff-En:   0.266D+00 0.734D+00
 Coeff:      0.120D+00 0.880D+00
 Gap=     0.293 Goal=   None    Shift=    0.000
 RMSDP=1.04D-03 MaxDP=2.10D-01 DE=-1.95D-01 OVMax= 1.75D-01

 Cycle   3  Pass 1  IDiag  1:
 RMSU=  1.01D-03    CP:  9.85D-01  1.27D+00
 E= -991.380548778576     Delta-E=       -0.330486441136 Rises=F Damp=F
 DIIS: error= 3.78D-03 at cycle   3 NSaved=   3.
 NSaved= 3 IEnMin= 3 EnMin= -991.380548778576     IErMin= 2 ErrMin= 3.56D-03
 ErrMax= 3.78D-03  0.00D+00 EMaxC= 1.00D-01 BMatC= 6.12D-02 BMatP= 1.08D-01
 IDIUse=3 WtCom= 9.62D-01 WtEn= 3.78D-02
 Coeff-Com: -0.569D-01 0.422D+00 0.635D+00
 Coeff-En:   0.000D+00 0.000D+00 0.100D+01
 Coeff:     -0.547D-01 0.406D+00 0.649D+00
 Gap=     0.283 Goal=   None    Shift=    0.000
 RMSDP=3.52D-04 MaxDP=7.11D-02 DE=-3.30D-01 OVMax= 4.57D-02

 Cycle   4  Pass 1  IDiag  1:
 RMSU=  3.24D-04    CP:  9.98D-01  1.31D+00  1.12D+00
 E= -991.424912086536     Delta-E=       -0.044363307960 Rises=F Damp=F
 DIIS: error= 1.35D-03 at cycle   4 NSaved=   4.
 NSaved= 4 IEnMin= 4 EnMin= -991.424912086536     IErMin= 4 ErrMin= 1.35D-03
 ErrMax= 1.35D-03  0.00D+00 EMaxC= 1.00D-01 BMatC= 7.11D-03 BMatP= 6.12D-02
 IDIUse=3 WtCom= 9.87D-01 WtEn= 1.35D-02
 Coeff-Com: -0.369D-01 0.952D-01 0.310D+00 0.632D+00
 Coeff-En:   0.000D+00 0.000D+00 0.434D-01 0.957D+00
 Coeff:     -0.364D-01 0.939D-01 0.306D+00 0.636D+00
 Gap=     0.274 Goal=   None    Shift=    0.000
 RMSDP=9.72D-05 MaxDP=2.49D-02 DE=-4.44D-02 OVMax= 1.34D-02

 Cycle   5  Pass 1  IDiag  1:
 RMSU=  7.00D-05    CP:  9.95D-01  1.33D+00  1.09D+00  8.28D-01
 E= -991.430571879946     Delta-E=       -0.005659793409 Rises=F Damp=F
 DIIS: error= 3.04D-04 at cycle   5 NSaved=   5.
 NSaved= 5 IEnMin= 5 EnMin= -991.430571879946     IErMin= 5 ErrMin= 3.04D-04
 ErrMax= 3.04D-04  0.00D+00 EMaxC= 1.00D-01 BMatC= 3.47D-04 BMatP= 7.11D-03
 IDIUse=3 WtCom= 9.97D-01 WtEn= 3.04D-03
 Coeff-Com: -0.122D-01 0.204D-01 0.944D-01 0.263D+00 0.634D+00
 Coeff-En:   0.000D+00 0.000D+00 0.000D+00 0.000D+00 0.100D+01
 Coeff:     -0.122D-01 0.204D-01 0.941D-01 0.262D+00 0.635D+00
 Gap=     0.276 Goal=   None    Shift=    0.000
 RMSDP=3.79D-05 MaxDP=1.03D-02 DE=-5.66D-03 OVMax= 3.59D-03

 Cycle   6  Pass 1  IDiag  1:
 RMSU=  2.72D-05    CP:  9.91D-01  1.32D+00  1.07D+00  7.81D-01  1.08D+00
 E= -991.430838255562     Delta-E=       -0.000266375616 Rises=F Damp=F
 DIIS: error= 1.02D-04 at cycle   6 NSaved=   6.
 NSaved= 6 IEnMin= 6 EnMin= -991.430838255562     IErMin= 6 ErrMin= 1.02D-04
 ErrMax= 1.02D-04  0.00D+00 EMaxC= 1.00D-01 BMatC= 5.18D-05 BMatP= 3.47D-04
 IDIUse=3 WtCom= 9.99D-01 WtEn= 1.02D-03
 Coeff-Com: -0.192D-02 0.230D-03 0.118D-01 0.530D-01 0.308D+00 0.629D+00
 Coeff-En:   0.000D+00 0.000D+00 0.000D+00 0.000D+00 0.494D-02 0.995D+00
 Coeff:     -0.191D-02 0.230D-03 0.117D-01 0.529D-01 0.308D+00 0.629D+00
 Gap=     0.277 Goal=   None    Shift=    0.000
 RMSDP=1.03D-05 MaxDP=3.00D-03 DE=-2.66D-04 OVMax= 1.12D-03

 Cycle   7  Pass 1  IDiag  1:
 RMSU=  7.61D-06    CP:  9.91D-01  1.32D+00  1.07D+00  7.77D-01  1.15D+00
                    CP:  1.15D+00
 E= -991.430878915653     Delta-E=       -0.000040660091 Rises=F Damp=F
 DIIS: error= 2.47D-05 at cycle   7 NSaved=   7.
 NSaved= 7 IEnMin= 7 EnMin= -991.430878915653     IErMin= 7 ErrMin= 2.47D-05
 ErrMax= 2.47D-05  0.00D+00 EMaxC= 1.00D-01 BMatC= 3.62D-06 BMatP= 5.18D-05
 IDIUse=1 WtCom= 1.00D+00 WtEn= 0.00D+00
 Coeff-Com:  0.985D-03-0.264D-02-0.914D-02-0.178D-01 0.398D-01 0.226D+00
 Coeff-Com:  0.763D+00
 Coeff:      0.985D-03-0.264D-02-0.914D-02-0.178D-01 0.398D-01 0.226D+00
 Coeff:      0.763D+00
 Gap=     0.276 Goal=   None    Shift=    0.000
 RMSDP=5.11D-06 MaxDP=1.42D-03 DE=-4.07D-05 OVMax= 9.11D-04

 Cycle   8  Pass 1  IDiag  1:
 RMSU=  3.26D-06    CP:  9.91D-01  1.32D+00  1.07D+00  7.79D-01  1.18D+00
                    CP:  1.23D+00  1.17D+00
 E= -991.430882220469     Delta-E=       -0.000003304816 Rises=F Damp=F
 DIIS: error= 1.01D-05 at cycle   8 NSaved=   8.
 NSaved= 8 IEnMin= 8 EnMin= -991.430882220469     IErMin= 8 ErrMin= 1.01D-05
 ErrMax= 1.01D-05  0.00D+00 EMaxC= 1.00D-01 BMatC= 9.01D-07 BMatP= 3.62D-06
 IDIUse=1 WtCom= 1.00D+00 WtEn= 0.00D+00
 Coeff-Com:  0.676D-03-0.126D-02-0.561D-02-0.149D-01-0.154D-01 0.320D-01
 Coeff-Com:  0.386D+00 0.618D+00
 Coeff:      0.676D-03-0.126D-02-0.561D-02-0.149D-01-0.154D-01 0.320D-01
 Coeff:      0.386D+00 0.618D+00
 Gap=     0.276 Goal=   None    Shift=    0.000
 RMSDP=1.58D-06 MaxDP=4.02D-04 DE=-3.30D-06 OVMax= 2.05D-04

 Cycle   9  Pass 1  IDiag  1:
 RMSU=  1.03D-06    CP:  9.91D-01  1.32D+00  1.07D+00  7.80D-01  1.19D+00
                    CP:  1.25D+00  1.26D+00  1.17D+00
 E= -991.430882921417     Delta-E=       -0.000000700948 Rises=F Damp=F
 DIIS: error= 3.51D-06 at cycle   9 NSaved=   9.
 NSaved= 9 IEnMin= 9 EnMin= -991.430882921417     IErMin= 9 ErrMin= 3.51D-06
 ErrMax= 3.51D-06  0.00D+00 EMaxC= 1.00D-01 BMatC= 1.01D-07 BMatP= 9.01D-07
 IDIUse=1 WtCom= 1.00D+00 WtEn= 0.00D+00
 Coeff-Com:  0.159D-03-0.192D-03-0.117D-02-0.437D-02-0.131D-01-0.195D-01
 Coeff-Com:  0.772D-01 0.286D+00 0.675D+00
 Coeff:      0.159D-03-0.192D-03-0.117D-02-0.437D-02-0.131D-01-0.195D-01
 Coeff:      0.772D-01 0.286D+00 0.675D+00
 Gap=     0.276 Goal=   None    Shift=    0.000
 RMSDP=7.37D-07 MaxDP=1.59D-04 DE=-7.01D-07 OVMax= 6.89D-05

 Cycle  10  Pass 1  IDiag  1:
 RMSU=  4.66D-07    CP:  9.91D-01  1.32D+00  1.07D+00  7.80D-01  1.19D+00
                    CP:  1.26D+00  1.30D+00  1.26D+00  1.24D+00
 E= -991.430883008236     Delta-E=       -0.000000086819 Rises=F Damp=F
 DIIS: error= 1.34D-06 at cycle  10 NSaved=  10.
 NSaved=10 IEnMin=10 EnMin= -991.430883008236     IErMin=10 ErrMin= 1.34D-06
 ErrMax= 1.34D-06  0.00D+00 EMaxC= 1.00D-01 BMatC= 7.22D-09 BMatP= 1.01D-07
 IDIUse=1 WtCom= 1.00D+00 WtEn= 0.00D+00
 Coeff-Com: -0.174D-04 0.716D-04 0.218D-03 0.145D-03-0.282D-02-0.101D-01
 Coeff-Com: -0.117D-01 0.216D-01 0.222D+00 0.781D+00
 Coeff:     -0.174D-04 0.716D-04 0.218D-03 0.145D-03-0.282D-02-0.101D-01
 Coeff:     -0.117D-01 0.216D-01 0.222D+00 0.781D+00
 Gap=     0.276 Goal=   None    Shift=    0.000
 RMSDP=2.90D-07 MaxDP=5.52D-05 DE=-8.68D-08 OVMax= 5.68D-05

 Cycle  11  Pass 1  IDiag  1:
 RMSU=  1.43D-07    CP:  9.91D-01  1.32D+00  1.07D+00  7.80D-01  1.19D+00
                    CP:  1.27D+00  1.31D+00  1.30D+00  1.36D+00  1.20D+00
 E= -991.430883015246     Delta-E=       -0.000000007010 Rises=F Damp=F
 DIIS: error= 8.65D-07 at cycle  11 NSaved=  11.
 NSaved=11 IEnMin=11 EnMin= -991.430883015246     IErMin=11 ErrMin= 8.65D-07
 ErrMax= 8.65D-07  0.00D+00 EMaxC= 1.00D-01 BMatC= 1.94D-09 BMatP= 7.22D-09
 IDIUse=1 WtCom= 1.00D+00 WtEn= 0.00D+00
 Coeff-Com: -0.233D-04 0.494D-04 0.237D-03 0.552D-03-0.138D-03-0.336D-02
 Coeff-Com: -0.149D-01-0.243D-01 0.282D-01 0.388D+00 0.625D+00
 Coeff:     -0.233D-04 0.494D-04 0.237D-03 0.552D-03-0.138D-03-0.336D-02
 Coeff:     -0.149D-01-0.243D-01 0.282D-01 0.388D+00 0.625D+00
 Gap=     0.276 Goal=   None    Shift=    0.000
 RMSDP=9.56D-08 MaxDP=2.31D-05 DE=-7.01D-09 OVMax= 1.17D-05

 Cycle  12  Pass 1  IDiag  1:
 RMSU=  4.73D-08    CP:  9.91D-01  1.32D+00  1.07D+00  7.80D-01  1.19D+00
                    CP:  1.27D+00  1.32D+00  1.31D+00  1.39D+00  1.30D+00
                    CP:  1.17D+00
 E= -991.430883017226     Delta-E=       -0.000000001980 Rises=F Damp=F
 DIIS: error= 1.66D-07 at cycle  12 NSaved=  12.
 NSaved=12 IEnMin=12 EnMin= -991.430883017226     IErMin=12 ErrMin= 1.66D-07
 ErrMax= 1.66D-07  0.00D+00 EMaxC= 1.00D-01 BMatC= 7.42D-11 BMatP= 1.94D-09
 IDIUse=1 WtCom= 1.00D+00 WtEn= 0.00D+00
 Coeff-Com: -0.519D-06-0.181D-05 0.196D-04 0.954D-04 0.315D-03 0.712D-03
 Coeff-Com: -0.107D-02-0.873D-02-0.238D-01-0.936D-02 0.144D+00 0.898D+00
 Coeff:     -0.519D-06-0.181D-05 0.196D-04 0.954D-04 0.315D-03 0.712D-03
 Coeff:     -0.107D-02-0.873D-02-0.238D-01-0.936D-02 0.144D+00 0.898D+00
 Gap=     0.276 Goal=   None    Shift=    0.000
 RMSDP=4.75D-08 MaxDP=1.31D-05 DE=-1.98D-09 OVMax= 6.19D-06

 Cycle  13  Pass 1  IDiag  1:
 RMSU=  2.21D-08    CP:  9.91D-01  1.32D+00  1.07D+00  7.80D-01  1.19D+00
                    CP:  1.27D+00  1.32D+00  1.31D+00  1.41D+00  1.35D+00
                    CP:  1.30D+00  1.33D+00
 E= -991.430883017309     Delta-E=       -0.000000000084 Rises=F Damp=F
 DIIS: error= 5.16D-08 at cycle  13 NSaved=  13.
 NSaved=13 IEnMin=13 EnMin= -991.430883017309     IErMin=13 ErrMin= 5.16D-08
 ErrMax= 5.16D-08  0.00D+00 EMaxC= 1.00D-01 BMatC= 6.53D-12 BMatP= 7.42D-11
 IDIUse=1 WtCom= 1.00D+00 WtEn= 0.00D+00
 Coeff-Com:  0.127D-05-0.340D-05-0.832D-05-0.890D-05 0.818D-04 0.378D-03
 Coeff-Com:  0.632D-03-0.540D-03-0.648D-02-0.257D-01-0.125D-01 0.212D+00
 Coeff-Com:  0.832D+00
 Coeff:      0.127D-05-0.340D-05-0.832D-05-0.890D-05 0.818D-04 0.378D-03
 Coeff:      0.632D-03-0.540D-03-0.648D-02-0.257D-01-0.125D-01 0.212D+00
 Coeff:      0.832D+00
 Gap=     0.276 Goal=   None    Shift=    0.000
 RMSDP=1.21D-08 MaxDP=2.69D-06 DE=-8.36D-11 OVMax= 1.48D-06

 Cycle  14  Pass 1  IDiag  1:
 RMSU=  5.40D-09    CP:  9.91D-01  1.32D+00  1.07D+00  7.80D-01  1.19D+00
                    CP:  1.27D+00  1.32D+00  1.31D+00  1.41D+00  1.36D+00
                    CP:  1.33D+00  1.43D+00  1.21D+00
 E= -991.430883017410     Delta-E=       -0.000000000100 Rises=F Damp=F
 DIIS: error= 2.28D-08 at cycle  14 NSaved=  14.
 NSaved=14 IEnMin=14 EnMin= -991.430883017410     IErMin=14 ErrMin= 2.28D-08
 ErrMax= 2.28D-08  0.00D+00 EMaxC= 1.00D-01 BMatC= 1.37D-12 BMatP= 6.53D-12
 IDIUse=1 WtCom= 1.00D+00 WtEn= 0.00D+00
 Coeff-Com:  0.542D-06-0.993D-06-0.598D-05-0.161D-04-0.820D-05 0.588D-04
 Coeff-Com:  0.392D-03 0.920D-03 0.596D-03-0.938D-02-0.268D-01-0.433D-01
 Coeff-Com:  0.334D+00 0.743D+00
 Coeff:      0.542D-06-0.993D-06-0.598D-05-0.161D-04-0.820D-05 0.588D-04
 Coeff:      0.392D-03 0.920D-03 0.596D-03-0.938D-02-0.268D-01-0.433D-01
 Coeff:      0.334D+00 0.743D+00
 Gap=     0.276 Goal=   None    Shift=    0.000
 RMSDP=4.73D-09 MaxDP=1.38D-06 DE=-1.00D-10 OVMax= 5.72D-07

 Cycle  15  Pass 1  IDiag  1:
 RMSU=  2.13D-09    CP:  9.91D-01  1.32D+00  1.07D+00  7.80D-01  1.19D+00
                    CP:  1.27D+00  1.32D+00  1.31D+00  1.41D+00  1.37D+00
                    CP:  1.35D+00  1.48D+00  1.27D+00  1.12D+00
 E= -991.430883017353     Delta-E=        0.000000000056 Rises=F Damp=F
 DIIS: error= 4.62D-09 at cycle  15 NSaved=  15.
 NSaved=15 IEnMin=14 EnMin= -991.430883017410     IErMin=15 ErrMin= 4.62D-09
 ErrMax= 4.62D-09  0.00D+00 EMaxC= 1.00D-01 BMatC= 6.51D-14 BMatP= 1.37D-12
 IDIUse=1 WtCom= 1.00D+00 WtEn= 0.00D+00
 Coeff-Com: -0.221D-07 0.895D-07-0.692D-06-0.240D-05-0.815D-05-0.172D-04
 Coeff-Com:  0.396D-04 0.242D-03 0.594D-03-0.242D-04-0.449D-02-0.270D-01
 Coeff-Com:  0.113D-01 0.147D+00 0.872D+00
 Coeff:     -0.221D-07 0.895D-07-0.692D-06-0.240D-05-0.815D-05-0.172D-04
 Coeff:      0.396D-04 0.242D-03 0.594D-03-0.242D-04-0.449D-02-0.270D-01
 Coeff:      0.113D-01 0.147D+00 0.872D+00
 Gap=     0.276 Goal=   None    Shift=    0.000
 RMSDP=1.20D-09 MaxDP=3.55D-07 DE= 5.60D-11 OVMax= 1.99D-07

 Error on total polarization charges =  0.03751
 SCF Done:  E(RM062X) =  -991.430883017     A.U. after   15 cycles
            NFock= 15  Conv=0.12D-08     -V/T= 2.0042
 KE= 9.873127978905D+02 PE=-4.339534654189D+03 EE= 1.345566609413D+03
 SMD-CDS (non-electrostatic) energy       (kcal/mol) =      -4.86
 (included in total energy above)
 Leave Link  502 at Sun Jun  9 08:00:32 2024, MaxMem= 10737418240 cpu:          253258.8 elap:            7942.1
 (Enter /public/software/apps/Gaussian/g16/l601.exe)
 Copying SCF densities to generalized density rwf, IOpCl= 0 IROHF=0.

 **********************************************************************

            Population analysis using the SCF Density.

 **********************************************************************

 Orbital symmetries:
       Occupied  (A) (A) (A) (A) (A) (A) (A) (A) (A) (A) (A) (A)
                 (A) (A) (A) (A) (A) (A) (A) (A) (A) (A) (A) (A)
                 (A) (A) (A) (A) (A) (A) (A) (A) (A) (A) (A) (A)
                 (A) (A) (A) (A) (A) (A) (A) (A) (A) (A) (A) (A)
                 (A) (A) (A) (A) (A) (A) (A)
       Virtual   (A) (A) (A) (A) (A) (A) (A) (A) (A) (A) (A) (A)
                 (A) (A) (A) (A) (A) (A) (A) (A) (A) (A) (A) (A)
                 (A) (A) (A) (A) (A) (A) (A) (A) (A) (A) (A) (A)
                 (A) (A) (A) (A) (A) (A) (A) (A) (A) (A) (A) (A)
                 (A) (A) (A) (A) (A) (A) (A) (A) (A) (A) (A) (A)
                 (A) (A) (A) (A) (A) (A) (A) (A) (A) (A) (A) (A)
                 (A) (A) (A) (A) (A) (A) (A) (A) (A) (A) (A) (A)
                 (A) (A) (A) (A) (A) (A) (A) (A) (A) (A) (A) (A)
                 (A) (A) (A) (A) (A) (A) (A) (A) (A) (A) (A) (A)
                 (A) (A) (A) (A) (A) (A) (A) (A) (A) (A) (A) (A)
                 (A) (A) (A) (A) (A) (A) (A) (A) (A) (A) (A) (A)
                 (A) (A) (A) (A) (A) (A) (A) (A) (A) (A) (A) (A)
                 (A) (A) (A) (A) (A) (A) (A) (A) (A) (A) (A) (A)
                 (A) (A) (A) (A) (A) (A) (A) (A) (A) (A) (A) (A)
                 (A) (A) (A) (A) (A) (A) (A) (A) (A) (A) (A) (A)
                 (A) (A) (A) (A) (A) (A) (A) (A) (A) (A) (A) (A)
                 (A) (A) (A) (A) (A) (A) (A) (A) (A) (A) (A) (A)
                 (A) (A) (A) (A) (A) (A) (A) (A) (A) (A) (A) (A)
                 (A) (A) (A) (A) (A) (A) (A) (A) (A) (A) (A) (A)
                 (A) (A) (A) (A) (A) (A) (A) (A) (A) (A) (A) (A)
                 (A) (A) (A) (A) (A) (A) (A) (A) (A) (A) (A) (A)
                 (A) (A) (A) (A) (A) (A) (A) (A) (A) (A) (A) (A)
                 (A) (A) (A) (A) (A) (A) (A) (A) (A) (A) (A) (A)
                 (A) (A) (A) (A) (A) (A) (A) (A) (A) (A) (A) (A)
                 (A) (A) (A) (A) (A) (A) (A) (A) (A) (A) (A) (A)
                 (A) (A) (A) (A) (A) (A) (A) (A) (A) (A) (A) (A)
                 (A) (A) (A) (A) (A) (A) (A) (A) (A) (A) (A) (A)
                 (A) (A) (A) (A) (A) (A) (A) (A) (A) (A) (A) (A)
                 (A) (A) (A) (A) (A) (A) (A) (A) (A) (A) (A) (A)
                 (A) (A) (A) (A) (A) (A) (A) (A) (A) (A) (A) (A)
                 (A) (A) (A) (A) (A) (A) (A) (A) (A) (A) (A) (A)
                 (A) (A) (A) (A) (A) (A) (A) (A) (A) (A) (A) (A)
                 (A) (A) (A) (A) (A) (A) (A) (A) (A) (A) (A) (A)
                 (A) (A) (A) (A) (A) (A) (A) (A) (A) (A) (A) (A)
                 (A) (A) (A) (A) (A) (A) (A) (A) (A) (A) (A) (A)
                 (A) (A) (A) (A) (A) (A) (A) (A) (A) (A) (A) (A)
                 (A) (A) (A) (A) (A) (A) (A) (A) (A) (A) (A) (A)
                 (A) (A) (A) (A) (A) (A) (A) (A) (A) (A) (A) (A)
                 (A) (A) (A) (A) (A) (A) (A) (A) (A) (A) (A) (A)
                 (A) (A) (A) (A) (A) (A) (A) (A) (A) (A) (A) (A)
                 (A) (A) (A) (A) (A) (A) (A) (A) (A) (A) (A) (A)
                 (A) (A) (A) (A) (A) (A) (A) (A) (A) (A) (A) (A)
                 (A) (A) (A) (A) (A) (A) (A) (A) (A) (A) (A) (A)
                 (A) (A) (A) (A) (A) (A) (A) (A) (A) (A) (A) (A)
                 (A) (A) (A) (A) (A) (A) (A) (A) (A) (A) (A) (A)
                 (A) (A) (A) (A) (A) (A) (A) (A) (A) (A) (A) (A)
                 (A) (A) (A) (A) (A) (A) (A) (A) (A) (A) (A) (A)
                 (A) (A) (A) (A) (A) (A) (A) (A) (A) (A) (A) (A)
                 (A) (A) (A) (A) (A) (A) (A) (A) (A) (A) (A) (A)
                 (A) (A) (A) (A) (A) (A) (A) (A) (A) (A) (A) (A)
                 (A) (A) (A) (A) (A) (A) (A) (A) (A) (A) (A) (A)
                 (A) (A) (A) (A) (A) (A) (A) (A) (A) (A) (A) (A)
                 (A) (A) (A) (A) (A) (A) (A) (A) (A) (A) (A) (A)
                 (A) (A) (A) (A) (A) (A) (A) (A) (A) (A) (A) (A)
                 (A) (A) (A) (A) (A) (A) (A) (A) (A) (A) (A) (A)
                 (A) (A) (A) (A) (A) (A) (A) (A) (A) (A) (A) (A)
                 (A) (A) (A) (A) (A) (A) (A) (A) (A) (A) (A) (A)
                 (A) (A) (A) (A) (A) (A) (A) (A) (A) (A) (A) (A)
                 (A) (A) (A) (A) (A) (A) (A) (A) (A) (A) (A) (A)
                 (A) (A) (A) (A) (A) (A) (A) (A) (A) (A) (A) (A)
                 (A) (A) (A) (A) (A) (A) (A) (A) (A) (A) (A) (A)
                 (A) (A) (A) (A) (A) (A) (A) (A) (A) (A) (A) (A)
                 (A) (A) (A) (A) (A) (A) (A) (A) (A) (A) (A) (A)
                 (A) (A) (A) (A) (A) (A) (A) (A) (A) (A) (A) (A)
                 (A) (A) (A) (A) (A) (A) (A) (A) (A) (A) (A) (A)
                 (A) (A) (A) (A) (A) (A) (A) (A) (A) (A) (A) (A)
                 (A) (A) (A) (A) (A) (A) (A) (A) (A) (A) (A) (A)
                 (A) (A) (A) (A) (A) (A) (A) (A) (A) (A) (A) (A)
                 (A) (A) (A) (A) (A) (A) (A) (A) (A) (A) (A) (A)
                 (A) (A) (A) (A) (A) (A) (A) (A) (A) (A) (A) (A)
                 (A) (A) (A) (A) (A) (A) (A) (A) (A) (A) (A) (A)
                 (A) (A) (A) (A) (A) (A) (A) (A) (A) (A) (A) (A)
                 (A) (A) (A) (A) (A) (A) (A) (A) (A) (A) (A) (A)
                 (A) (A) (A) (A) (A) (A) (A) (A) (A) (A) (A) (A)
                 (A) (A) (A) (A) (A) (A) (A) (A) (A) (A) (A) (A)
                 (A) (A) (A) (A) (A) (A) (A) (A) (A) (A) (A) (A)
                 (A) (A) (A) (A) (A) (A) (A) (A) (A) (A) (A) (A)
                 (A) (A) (A) (A) (A) (A) (A) (A) (A) (A) (A) (A)
                 (A) (A) (A) (A) (A) (A) (A) (A) (A) (A) (A) (A)
                 (A) (A) (A) (A) (A) (A) (A) (A) (A) (A) (A) (A)
                 (A) (A) (A) (A) (A) (A) (A) (A) (A) (A) (A) (A)
                 (A) (A) (A) (A) (A) (A) (A) (A) (A) (A) (A) (A)
                 (A) (A) (A) (A) (A) (A) (A) (A) (A) (A) (A) (A)
                 (A) (A) (A) (A) (A) (A) (A) (A) (A) (A) (A) (A)
                 (A) (A) (A) (A) (A) (A) (A) (A) (A) (A) (A) (A)
                 (A) (A) (A) (A) (A) (A) (A) (A) (A) (A) (A) (A)
                 (A) (A) (A) (A) (A) (A) (A) (A) (A) (A) (A) (A)
                 (A) (A) (A) (A) (A) (A) (A) (A) (A) (A) (A) (A)
                 (A) (A) (A) (A) (A) (A) (A) (A) (A) (A) (A) (A)
                 (A) (A) (A) (A) (A) (A) (A) (A) (A) (A) (A) (A)
                 (A) (A) (A) (A) (A) (A) (A) (A) (A) (A) (A) (A)
                 (A) (A) (A) (A) (A) (A) (A) (A) (A) (A) (A) (A)
                 (A) (A) (A) (A) (A) (A) (A) (A) (A) (A) (A) (A)
                 (A) (A) (A) (A) (A) (A) (A) (A) (A) (A) (A) (A)
                 (A) (A) (A) (A) (A) (A) (A) (A) (A) (A) (A) (A)
                 (A) (A) (A) (A) (A) (A) (A) (A) (A) (A) (A) (A)
                 (A) (A) (A) (A) (A) (A) (A) (A) (A) (A) (A) (A)
                 (A) (A) (A) (A) (A) (A) (A) (A) (A) (A) (A) (A)
                 (A) (A) (A) (A) (A) (A) (A) (A) (A) (A) (A) (A)
                 (A) (A) (A) (A) (A) (A) (A) (A) (A) (A) (A) (A)
                 (A) (A) (A) (A) (A) (A) (A) (A) (A) (A) (A) (A)
                 (A) (A) (A) (A) (A) (A) (A) (A) (A) (A) (A) (A)
                 (A) (A) (A) (A) (A) (A) (A) (A) (A) (A) (A) (A)
                 (A) (A) (A) (A) (A) (A) (A) (A) (A) (A) (A) (A)
                 (A) (A) (A) (A) (A) (A) (A) (A) (A) (A) (A) (A)
                 (A) (A) (A) (A) (A) (A) (A) (A) (A) (A) (A) (A)
                 (A) (A) (A) (A) (A) (A) (A) (A) (A) (A) (A) (A)
                 (A) (A) (A) (A) (A) (A) (A) (A) (A) (A) (A) (A)
                 (A) (A) (A) (A) (A) (A) (A) (A) (A) (A) (A) (A)
                 (A) (A) (A) (A) (A) (A) (A) (A) (A) (A) (A) (A)
                 (A) (A) (A) (A) (A) (A) (A) (A) (A) (A) (A) (A)
                 (A) (A) (A) (A) (A) (A) (A) (A) (A) (A) (A) (A)
                 (A) (A) (A) (A) (A) (A) (A) (A) (A) (A) (A) (A)
                 (A) (A) (A) (A) (A) (A) (A) (A) (A) (A) (A) (A)
                 (A) (A) (A) (A) (A) (A) (A) (A) (A) (A) (A) (A)
                 (A) (A) (A) (A) (A) (A) (A) (A) (A) (A) (A) (A)
                 (A) (A) (A) (A) (A) (A) (A) (A) (A) (A) (A) (A)
                 (A) (A) (A) (A) (A) (A) (A) (A) (A) (A) (A) (A)
                 (A) (A) (A) (A) (A) (A) (A) (A) (A) (A) (A) (A)
                 (A) (A) (A) (A) (A) (A) (A) (A) (A) (A) (A) (A)
                 (A) (A) (A) (A) (A) (A) (A) (A) (A) (A) (A) (A)
                 (A) (A) (A) (A) (A) (A) (A) (A) (A) (A) (A) (A)
                 (A) (A) (A) (A) (A) (A) (A) (A) (A) (A) (A) (A)
                 (A) (A) (A) (A) (A) (A) (A) (A) (A) (A) (A) (A)
                 (A) (A) (A) (A) (A) (A) (A) (A) (A) (A) (A) (A)
                 (A) (A) (A) (A) (A) (A) (A) (A) (A) (A) (A) (A)
                 (A) (A) (A) (A) (A) (A) (A) (A) (A) (A) (A) (A)
                 (A) (A) (A) (A) (A) (A) (A) (A) (A) (A) (A) (A)
                 (A) (A) (A) (A) (A) (A) (A) (A) (A) (A) (A) (A)
                 (A) (A) (A) (A) (A) (A) (A) (A) (A) (A) (A) (A)
                 (A) (A) (A) (A) (A) (A) (A) (A) (A) (A) (A) (A)
                 (A) (A) (A) (A) (A) (A) (A) (A) (A) (A) (A) (A)
                 (A) (A) (A) (A) (A) (A) (A) (A) (A) (A) (A) (A)
                 (A) (A) (A) (A) (A) (A) (A) (A) (A) (A) (A) (A)
                 (A)
 The electronic state is 1-A.
 Alpha  occ. eigenvalues --  -90.21476 -19.69680 -19.69606 -14.90817 -10.68981
 Alpha  occ. eigenvalues --  -10.63919 -10.63167 -10.62416 -10.58957 -10.58737
 Alpha  occ. eigenvalues --  -10.57943 -10.57868 -10.57777 -10.57676  -8.51711
 Alpha  occ. eigenvalues --   -6.44090  -6.43714  -6.43707  -1.30174  -1.19818
 Alpha  occ. eigenvalues --   -1.16722  -1.00562  -0.95946  -0.92565  -0.89305
 Alpha  occ. eigenvalues --   -0.88650  -0.82128  -0.77756  -0.76069  -0.73595
 Alpha  occ. eigenvalues --   -0.68809  -0.66689  -0.63373  -0.62276  -0.61215
 Alpha  occ. eigenvalues --   -0.60040  -0.58457  -0.55106  -0.54821  -0.54602
 Alpha  occ. eigenvalues --   -0.54340  -0.53012  -0.52548  -0.51159  -0.48855
 Alpha  occ. eigenvalues --   -0.48312  -0.47733  -0.47167  -0.45959  -0.45788
 Alpha  occ. eigenvalues --   -0.45306  -0.43767  -0.38200  -0.34979  -0.34852
 Alpha virt. eigenvalues --   -0.07214  -0.06373  -0.02585  -0.01960  -0.01592
 Alpha virt. eigenvalues --   -0.01096  -0.00985  -0.00804   0.00426   0.00492
 Alpha virt. eigenvalues --    0.00667   0.01092   0.01290   0.02078   0.02429
 Alpha virt. eigenvalues --    0.02589   0.02738   0.03241   0.03370   0.03756
 Alpha virt. eigenvalues --    0.04370   0.04575   0.04649   0.05207   0.05264
 Alpha virt. eigenvalues --    0.05561   0.05904   0.06261   0.06507   0.06845
 Alpha virt. eigenvalues --    0.07027   0.07131   0.07183   0.07351   0.07607
 Alpha virt. eigenvalues --    0.07796   0.08029   0.08224   0.08617   0.08736
 Alpha virt. eigenvalues --    0.09177   0.09560   0.09740   0.09857   0.10117
 Alpha virt. eigenvalues --    0.10532   0.10696   0.11117   0.11244   0.11718
 Alpha virt. eigenvalues --    0.11740   0.11912   0.12633   0.12851   0.13429
 Alpha virt. eigenvalues --    0.13506   0.13809   0.14103   0.14569   0.15043
 Alpha virt. eigenvalues --    0.15691   0.15939   0.16130   0.16237   0.16801
 Alpha virt. eigenvalues --    0.16964   0.17370   0.17438   0.17863   0.17970
 Alpha virt. eigenvalues --    0.18189   0.18523   0.18750   0.18863   0.18891
 Alpha virt. eigenvalues --    0.19372   0.19729   0.19895   0.19951   0.20290
 Alpha virt. eigenvalues --    0.20433   0.20604   0.20894   0.21090   0.21325
 Alpha virt. eigenvalues --    0.21861   0.22259   0.22324   0.22709   0.23069
 Alpha virt. eigenvalues --    0.23486   0.23687   0.23904   0.24042   0.24288
 Alpha virt. eigenvalues --    0.24510   0.24799   0.25164   0.25446   0.25592
 Alpha virt. eigenvalues --    0.25911   0.26130   0.26143   0.26492   0.26585
 Alpha virt. eigenvalues --    0.26599   0.26898   0.27343   0.27612   0.27811
 Alpha virt. eigenvalues --    0.28279   0.28566   0.28726   0.29005   0.29411
 Alpha virt. eigenvalues --    0.29787   0.29832   0.30492   0.30699   0.30919
 Alpha virt. eigenvalues --    0.31072   0.31272   0.31652   0.31973   0.32284
 Alpha virt. eigenvalues --    0.32552   0.32929   0.33108   0.33184   0.33578
 Alpha virt. eigenvalues --    0.33656   0.33924   0.34144   0.34401   0.34780
 Alpha virt. eigenvalues --    0.34974   0.35208   0.35280   0.35640   0.36047
 Alpha virt. eigenvalues --    0.36364   0.36487   0.36688   0.37204   0.37539
 Alpha virt. eigenvalues --    0.37614   0.37747   0.38176   0.38351   0.38597
 Alpha virt. eigenvalues --    0.38751   0.38974   0.39420   0.39554   0.39963
 Alpha virt. eigenvalues --    0.40365   0.40671   0.40944   0.41067   0.41172
 Alpha virt. eigenvalues --    0.41703   0.42013   0.42068   0.42216   0.42438
 Alpha virt. eigenvalues --    0.42874   0.43079   0.43572   0.43975   0.44300
 Alpha virt. eigenvalues --    0.44405   0.44534   0.45340   0.45621   0.45693
 Alpha virt. eigenvalues --    0.45876   0.46216   0.46907   0.47214   0.47595
 Alpha virt. eigenvalues --    0.47845   0.48079   0.48521   0.49009   0.49261
 Alpha virt. eigenvalues --    0.49542   0.49955   0.50343   0.50826   0.51265
 Alpha virt. eigenvalues --    0.51386   0.51769   0.52036   0.52432   0.52993
 Alpha virt. eigenvalues --    0.53153   0.53283   0.53854   0.54192   0.54340
 Alpha virt. eigenvalues --    0.54942   0.55145   0.55349   0.55465   0.55797
 Alpha virt. eigenvalues --    0.56230   0.56724   0.57083   0.57475   0.57943
 Alpha virt. eigenvalues --    0.58649   0.58926   0.59319   0.59825   0.59993
 Alpha virt. eigenvalues --    0.60458   0.60747   0.61141   0.61349   0.61534
 Alpha virt. eigenvalues --    0.61754   0.62187   0.62565   0.62715   0.62838
 Alpha virt. eigenvalues --    0.63365   0.63894   0.64063   0.64432   0.64772
 Alpha virt. eigenvalues --    0.65129   0.65411   0.65847   0.65871   0.66306
 Alpha virt. eigenvalues --    0.66795   0.66947   0.67119   0.67555   0.68073
 Alpha virt. eigenvalues --    0.68724   0.68761   0.68957   0.69334   0.69682
 Alpha virt. eigenvalues --    0.70219   0.70421   0.70673   0.70759   0.71065
 Alpha virt. eigenvalues --    0.71550   0.72090   0.72289   0.72366   0.72932
 Alpha virt. eigenvalues --    0.73032   0.73371   0.74029   0.74384   0.74725
 Alpha virt. eigenvalues --    0.74983   0.75208   0.75617   0.76057   0.76441
 Alpha virt. eigenvalues --    0.76825   0.77078   0.77717   0.77876   0.78093
 Alpha virt. eigenvalues --    0.78336   0.78791   0.79148   0.79183   0.79355
 Alpha virt. eigenvalues --    0.79722   0.79877   0.80215   0.80623   0.80823
 Alpha virt. eigenvalues --    0.81491   0.81638   0.81961   0.82162   0.82869
 Alpha virt. eigenvalues --    0.82969   0.83561   0.83812   0.84302   0.84805
 Alpha virt. eigenvalues --    0.85257   0.85482   0.85614   0.85978   0.86079
 Alpha virt. eigenvalues --    0.86167   0.86716   0.87193   0.87466   0.87956
 Alpha virt. eigenvalues --    0.88357   0.88839   0.89341   0.89577   0.89933
 Alpha virt. eigenvalues --    0.90292   0.90417   0.90833   0.90883   0.91181
 Alpha virt. eigenvalues --    0.91468   0.91999   0.92274   0.92424   0.92828
 Alpha virt. eigenvalues --    0.93498   0.93546   0.94429   0.94835   0.95442
 Alpha virt. eigenvalues --    0.95881   0.95997   0.96242   0.96617   0.96871
 Alpha virt. eigenvalues --    0.97119   0.97841   0.98084   0.98252   0.98803
 Alpha virt. eigenvalues --    0.98900   0.99693   1.00453   1.00688   1.00829
 Alpha virt. eigenvalues --    1.01049   1.01785   1.02556   1.02698   1.03073
 Alpha virt. eigenvalues --    1.03139   1.03502   1.03625   1.04235   1.04536
 Alpha virt. eigenvalues --    1.04732   1.05270   1.05545   1.05667   1.06557
 Alpha virt. eigenvalues --    1.06980   1.07358   1.07496   1.07993   1.08116
 Alpha virt. eigenvalues --    1.08330   1.09010   1.09249   1.09811   1.10031
 Alpha virt. eigenvalues --    1.10180   1.10694   1.10808   1.11144   1.11599
 Alpha virt. eigenvalues --    1.12440   1.12815   1.13026   1.13488   1.13526
 Alpha virt. eigenvalues --    1.14102   1.14181   1.14848   1.14866   1.15615
 Alpha virt. eigenvalues --    1.15800   1.16071   1.16391   1.16833   1.17160
 Alpha virt. eigenvalues --    1.17541   1.18026   1.18333   1.18453   1.19221
 Alpha virt. eigenvalues --    1.19548   1.20201   1.20603   1.21015   1.21610
 Alpha virt. eigenvalues --    1.22038   1.22235   1.22521   1.23456   1.23888
 Alpha virt. eigenvalues --    1.24288   1.24606   1.25263   1.25691   1.25782
 Alpha virt. eigenvalues --    1.25979   1.26530   1.27022   1.27511   1.27865
 Alpha virt. eigenvalues --    1.27909   1.28461   1.28857   1.29387   1.30072
 Alpha virt. eigenvalues --    1.30533   1.31151   1.31563   1.31793   1.32277
 Alpha virt. eigenvalues --    1.32725   1.33432   1.33892   1.34249   1.35206
 Alpha virt. eigenvalues --    1.35317   1.35511   1.36036   1.36722   1.36983
 Alpha virt. eigenvalues --    1.37875   1.38509   1.38636   1.38920   1.39214
 Alpha virt. eigenvalues --    1.39783   1.39852   1.40720   1.40946   1.41779
 Alpha virt. eigenvalues --    1.42136   1.42558   1.43209   1.43694   1.43791
 Alpha virt. eigenvalues --    1.44452   1.44603   1.44976   1.45567   1.45960
 Alpha virt. eigenvalues --    1.46467   1.46925   1.47055   1.47617   1.47940
 Alpha virt. eigenvalues --    1.48059   1.48656   1.49312   1.49747   1.50371
 Alpha virt. eigenvalues --    1.51060   1.51279   1.51625   1.51770   1.52058
 Alpha virt. eigenvalues --    1.53696   1.54264   1.54379   1.55371   1.55495
 Alpha virt. eigenvalues --    1.55940   1.56460   1.56869   1.57255   1.57716
 Alpha virt. eigenvalues --    1.58348   1.58902   1.59328   1.59519   1.60046
 Alpha virt. eigenvalues --    1.60363   1.61605   1.61669   1.61829   1.62092
 Alpha virt. eigenvalues --    1.62748   1.63164   1.63683   1.64090   1.64661
 Alpha virt. eigenvalues --    1.65013   1.65542   1.65714   1.66000   1.66954
 Alpha virt. eigenvalues --    1.67324   1.67806   1.68060   1.68659   1.69304
 Alpha virt. eigenvalues --    1.69702   1.70772   1.71427   1.71861   1.71975
 Alpha virt. eigenvalues --    1.72225   1.72964   1.73386   1.73887   1.74249
 Alpha virt. eigenvalues --    1.74682   1.75444   1.75998   1.76175   1.76578
 Alpha virt. eigenvalues --    1.77189   1.77509   1.77763   1.78412   1.79203
 Alpha virt. eigenvalues --    1.79719   1.79802   1.80389   1.80867   1.81230
 Alpha virt. eigenvalues --    1.81774   1.82071   1.83035   1.83193   1.83758
 Alpha virt. eigenvalues --    1.84296   1.84705   1.85094   1.85276   1.85369
 Alpha virt. eigenvalues --    1.85565   1.86613   1.86751   1.87347   1.88008
 Alpha virt. eigenvalues --    1.88317   1.88590   1.88869   1.89136   1.89435
 Alpha virt. eigenvalues --    1.90156   1.90350   1.91117   1.91628   1.91924
 Alpha virt. eigenvalues --    1.92250   1.92629   1.92747   1.93058   1.93898
 Alpha virt. eigenvalues --    1.94113   1.94606   1.95228   1.95659   1.95962
 Alpha virt. eigenvalues --    1.96056   1.96438   1.96977   1.97460   1.97664
 Alpha virt. eigenvalues --    1.98064   1.98400   1.98639   1.98900   1.99554
 Alpha virt. eigenvalues --    1.99929   2.00179   2.00369   2.00542   2.00987
 Alpha virt. eigenvalues --    2.01374   2.02285   2.02387   2.02791   2.03248
 Alpha virt. eigenvalues --    2.03507   2.04040   2.04228   2.04303   2.05166
 Alpha virt. eigenvalues --    2.05363   2.05693   2.05957   2.06555   2.06800
 Alpha virt. eigenvalues --    2.07036   2.07841   2.08173   2.08382   2.08973
 Alpha virt. eigenvalues --    2.09380   2.09662   2.10142   2.10688   2.10838
 Alpha virt. eigenvalues --    2.11290   2.11792   2.12051   2.12758   2.12793
 Alpha virt. eigenvalues --    2.12992   2.13788   2.14009   2.14235   2.14713
 Alpha virt. eigenvalues --    2.14996   2.15441   2.16007   2.16086   2.16583
 Alpha virt. eigenvalues --    2.17009   2.17443   2.17897   2.18237   2.18664
 Alpha virt. eigenvalues --    2.19538   2.19760   2.19921   2.20301   2.20721
 Alpha virt. eigenvalues --    2.21014   2.21383   2.21895   2.22192   2.22506
 Alpha virt. eigenvalues --    2.22890   2.23550   2.23743   2.24182   2.24428
 Alpha virt. eigenvalues --    2.24769   2.25243   2.25404   2.26280   2.26703
 Alpha virt. eigenvalues --    2.26804   2.27219   2.27689   2.27777   2.28037
 Alpha virt. eigenvalues --    2.28461   2.28946   2.29079   2.29602   2.29699
 Alpha virt. eigenvalues --    2.30243   2.30769   2.31395   2.31718   2.32065
 Alpha virt. eigenvalues --    2.32795   2.33409   2.33663   2.34151   2.34325
 Alpha virt. eigenvalues --    2.34805   2.35288   2.35817   2.36340   2.36597
 Alpha virt. eigenvalues --    2.36951   2.37299   2.37538   2.38436   2.39371
 Alpha virt. eigenvalues --    2.39749   2.39882   2.40292   2.40623   2.41059
 Alpha virt. eigenvalues --    2.41343   2.41772   2.41974   2.42505   2.43038
 Alpha virt. eigenvalues --    2.43994   2.44249   2.44719   2.45332   2.45771
 Alpha virt. eigenvalues --    2.46444   2.46935   2.47269   2.47613   2.48079
 Alpha virt. eigenvalues --    2.48716   2.49354   2.49709   2.50336   2.50839
 Alpha virt. eigenvalues --    2.51628   2.52473   2.52685   2.53056   2.53746
 Alpha virt. eigenvalues --    2.53864   2.54709   2.55170   2.55519   2.56125
 Alpha virt. eigenvalues --    2.56213   2.57218   2.57267   2.57885   2.58143
 Alpha virt. eigenvalues --    2.58751   2.59105   2.59415   2.60033   2.60765
 Alpha virt. eigenvalues --    2.61210   2.61815   2.61968   2.62760   2.63053
 Alpha virt. eigenvalues --    2.63467   2.63842   2.64025   2.64195   2.64854
 Alpha virt. eigenvalues --    2.65776   2.66392   2.66839   2.67554   2.68153
 Alpha virt. eigenvalues --    2.68632   2.68758   2.69163   2.69868   2.70583
 Alpha virt. eigenvalues --    2.71244   2.71266   2.72041   2.72609   2.73010
 Alpha virt. eigenvalues --    2.73749   2.74008   2.75092   2.75492   2.76152
 Alpha virt. eigenvalues --    2.76984   2.77872   2.78183   2.79181   2.79662
 Alpha virt. eigenvalues --    2.80310   2.80654   2.81404   2.82121   2.82290
 Alpha virt. eigenvalues --    2.83018   2.83278   2.83566   2.84545   2.84885
 Alpha virt. eigenvalues --    2.85710   2.86279   2.86412   2.87018   2.87801
 Alpha virt. eigenvalues --    2.87949   2.88220   2.88402   2.89538   2.90219
 Alpha virt. eigenvalues --    2.90780   2.91209   2.91581   2.92129   2.93370
 Alpha virt. eigenvalues --    2.93848   2.94066   2.95234   2.95911   2.96593
 Alpha virt. eigenvalues --    2.96851   2.96866   2.97798   2.98288   2.98540
 Alpha virt. eigenvalues --    2.98830   2.99320   2.99923   3.01144   3.01927
 Alpha virt. eigenvalues --    3.02674   3.03062   3.03831   3.04795   3.05378
 Alpha virt. eigenvalues --    3.05591   3.05914   3.06986   3.07503   3.08534
 Alpha virt. eigenvalues --    3.09374   3.10230   3.10539   3.10750   3.11126
 Alpha virt. eigenvalues --    3.12944   3.13305   3.14019   3.15002   3.15785
 Alpha virt. eigenvalues --    3.16885   3.17701   3.18444   3.18890   3.19292
 Alpha virt. eigenvalues --    3.20684   3.21277   3.21464   3.22604   3.23213
 Alpha virt. eigenvalues --    3.23969   3.24450   3.26593   3.27447   3.27833
 Alpha virt. eigenvalues --    3.28254   3.28935   3.29444   3.30623   3.31286
 Alpha virt. eigenvalues --    3.31894   3.33092   3.33672   3.34143   3.34224
 Alpha virt. eigenvalues --    3.35466   3.35967   3.37791   3.38317   3.39073
 Alpha virt. eigenvalues --    3.39757   3.40846   3.40989   3.42463   3.43370
 Alpha virt. eigenvalues --    3.43793   3.44171   3.45225   3.45654   3.45957
 Alpha virt. eigenvalues --    3.46799   3.47207   3.48334   3.49035   3.49384
 Alpha virt. eigenvalues --    3.51467   3.51865   3.52193   3.52619   3.53027
 Alpha virt. eigenvalues --    3.54623   3.54724   3.55273   3.56351   3.57131
 Alpha virt. eigenvalues --    3.57872   3.58687   3.59033   3.59782   3.60435
 Alpha virt. eigenvalues --    3.60953   3.61585   3.62302   3.62896   3.63059
 Alpha virt. eigenvalues --    3.64091   3.64869   3.65111   3.66388   3.67279
 Alpha virt. eigenvalues --    3.67594   3.68083   3.68703   3.69144   3.69994
 Alpha virt. eigenvalues --    3.70477   3.71117   3.71839   3.72425   3.72923
 Alpha virt. eigenvalues --    3.73245   3.73513   3.74505   3.75271   3.75429
 Alpha virt. eigenvalues --    3.75878   3.76636   3.77224   3.78188   3.79160
 Alpha virt. eigenvalues --    3.79563   3.79869   3.81036   3.81619   3.82145
 Alpha virt. eigenvalues --    3.82213   3.83056   3.83182   3.83926   3.84244
 Alpha virt. eigenvalues --    3.85355   3.85776   3.86489   3.87200   3.87753
 Alpha virt. eigenvalues --    3.88020   3.88210   3.88811   3.89517   3.91187
 Alpha virt. eigenvalues --    3.91446   3.92263   3.93057   3.93323   3.94367
 Alpha virt. eigenvalues --    3.95361   3.96012   3.96379   3.96817   3.97453
 Alpha virt. eigenvalues --    3.98286   3.98683   3.99038   4.00338   4.00654
 Alpha virt. eigenvalues --    4.01109   4.02632   4.02939   4.03905   4.04160
 Alpha virt. eigenvalues --    4.04623   4.05421   4.05735   4.06026   4.06578
 Alpha virt. eigenvalues --    4.07153   4.07574   4.07720   4.08864   4.09093
 Alpha virt. eigenvalues --    4.10341   4.10880   4.11160   4.11649   4.12285
 Alpha virt. eigenvalues --    4.12845   4.13479   4.13947   4.13984   4.14754
 Alpha virt. eigenvalues --    4.15517   4.16193   4.16680   4.16830   4.17759
 Alpha virt. eigenvalues --    4.18597   4.19151   4.20050   4.20979   4.21420
 Alpha virt. eigenvalues --    4.21924   4.22275   4.22526   4.24132   4.24524
 Alpha virt. eigenvalues --    4.25205   4.25371   4.26938   4.26993   4.28013
 Alpha virt. eigenvalues --    4.28860   4.29643   4.30513   4.31062   4.31254
 Alpha virt. eigenvalues --    4.31682   4.32575   4.33623   4.34948   4.35176
 Alpha virt. eigenvalues --    4.36252   4.36691   4.36932   4.37096   4.38655
 Alpha virt. eigenvalues --    4.39625   4.40354   4.41308   4.41644   4.42405
 Alpha virt. eigenvalues --    4.42712   4.43766   4.44201   4.45235   4.45872
 Alpha virt. eigenvalues --    4.46980   4.47838   4.48467   4.49015   4.50781
 Alpha virt. eigenvalues --    4.51490   4.54124   4.54405   4.56020   4.56851
 Alpha virt. eigenvalues --    4.57566   4.58147   4.59758   4.60733   4.61443
 Alpha virt. eigenvalues --    4.61937   4.62593   4.64346   4.65313   4.65710
 Alpha virt. eigenvalues --    4.66990   4.67834   4.69011   4.69773   4.71237
 Alpha virt. eigenvalues --    4.72027   4.73056   4.73490   4.73965   4.74730
 Alpha virt. eigenvalues --    4.75521   4.76789   4.77570   4.78245   4.79277
 Alpha virt. eigenvalues --    4.80533   4.80822   4.82558   4.84234   4.85328
 Alpha virt. eigenvalues --    4.86148   4.87096   4.88055   4.88918   4.89786
 Alpha virt. eigenvalues --    4.90507   4.91117   4.94486   4.95382   4.97273
 Alpha virt. eigenvalues --    4.97480   4.99286   4.99628   4.99871   5.02167
 Alpha virt. eigenvalues --    5.03452   5.04653   5.05149   5.07254   5.09651
 Alpha virt. eigenvalues --    5.13344   5.14995   5.16941   5.18378   5.19427
 Alpha virt. eigenvalues --    5.21644   5.22205   5.24278   5.25494   5.28824
 Alpha virt. eigenvalues --    5.29982   5.32679   5.36311   5.36474   5.39359
 Alpha virt. eigenvalues --    5.40900   5.42576   5.43929   5.45130   5.48753
 Alpha virt. eigenvalues --    5.51046   5.52456   5.54438   5.55195   5.55852
 Alpha virt. eigenvalues --    5.57054   5.58059   5.58447   5.59712   5.61448
 Alpha virt. eigenvalues --    5.63826   5.64353   5.66968   5.67726   5.68996
 Alpha virt. eigenvalues --    5.70408   5.72188   5.74340   5.75644   5.76037
 Alpha virt. eigenvalues --    5.76707   5.78376   5.79230   5.79765   5.80213
 Alpha virt. eigenvalues --    5.81442   5.81829   5.82702   5.83435   5.83816
 Alpha virt. eigenvalues --    5.85903   5.86014   5.86509   5.86974   5.87958
 Alpha virt. eigenvalues --    5.89095   5.89854   5.90426   5.91423   5.92425
 Alpha virt. eigenvalues --    5.93520   5.95017   5.95995   5.96499   5.97536
 Alpha virt. eigenvalues --    5.98851   6.00043   6.01908   6.02049   6.03672
 Alpha virt. eigenvalues --    6.05020   6.05927   6.07169   6.07706   6.08842
 Alpha virt. eigenvalues --    6.10257   6.11532   6.12887   6.14944   6.16423
 Alpha virt. eigenvalues --    6.17206   6.18584   6.19657   6.20197   6.21692
 Alpha virt. eigenvalues --    6.22243   6.23185   6.24437   6.24488   6.24992
 Alpha virt. eigenvalues --    6.26354   6.26983   6.27621   6.28101   6.28891
 Alpha virt. eigenvalues --    6.29108   6.29512   6.29749   6.31072   6.32186
 Alpha virt. eigenvalues --    6.32714   6.33175   6.34481   6.35384   6.36249
 Alpha virt. eigenvalues --    6.37617   6.38875   6.39372   6.40199   6.40501
 Alpha virt. eigenvalues --    6.41009   6.41853   6.42597   6.43018   6.43292
 Alpha virt. eigenvalues --    6.44658   6.44886   6.45645   6.46440   6.47268
 Alpha virt. eigenvalues --    6.48122   6.48436   6.50113   6.50351   6.50703
 Alpha virt. eigenvalues --    6.51640   6.52961   6.53724   6.54566   6.55184
 Alpha virt. eigenvalues --    6.55686   6.57224   6.58274   6.58461   6.58665
 Alpha virt. eigenvalues --    6.60064   6.60277   6.61023   6.61448   6.62067
 Alpha virt. eigenvalues --    6.62085   6.63128   6.63574   6.63771   6.64979
 Alpha virt. eigenvalues --    6.65498   6.67038   6.67281   6.67653   6.68159
 Alpha virt. eigenvalues --    6.68658   6.68967   6.70308   6.70931   6.72173
 Alpha virt. eigenvalues --    6.72598   6.73572   6.74736   6.75649   6.76077
 Alpha virt. eigenvalues --    6.76558   6.76805   6.77560   6.78310   6.78455
 Alpha virt. eigenvalues --    6.79159   6.80058   6.80493   6.82086   6.82531
 Alpha virt. eigenvalues --    6.83299   6.83606   6.84314   6.85337   6.87291
 Alpha virt. eigenvalues --    6.87759   6.88898   6.90184   6.91742   6.92059
 Alpha virt. eigenvalues --    6.93827   6.95270   6.96329   6.96398   6.97531
 Alpha virt. eigenvalues --    6.98183   6.99040   6.99329   7.00262   7.02302
 Alpha virt. eigenvalues --    7.02688   7.03336   7.03443   7.05051   7.05587
 Alpha virt. eigenvalues --    7.07129   7.08458   7.10804   7.10907   7.13298
 Alpha virt. eigenvalues --    7.14871   7.16110   7.17197   7.17521   7.18695
 Alpha virt. eigenvalues --    7.19740   7.20957   7.21727   7.21908   7.22927
 Alpha virt. eigenvalues --    7.24015   7.24951   7.25139   7.27328   7.28339
 Alpha virt. eigenvalues --    7.28498   7.29106   7.31199   7.31596   7.31825
 Alpha virt. eigenvalues --    7.32747   7.34397   7.35782   7.36390   7.37231
 Alpha virt. eigenvalues --    7.37608   7.39732   7.40120   7.40948   7.41960
 Alpha virt. eigenvalues --    7.42431   7.44433   7.44769   7.45933   7.46434
 Alpha virt. eigenvalues --    7.47787   7.48823   7.49197   7.50139   7.50525
 Alpha virt. eigenvalues --    7.51405   7.52609   7.53305   7.53954   7.54105
 Alpha virt. eigenvalues --    7.57261   7.58634   7.59174   7.60342   7.61355
 Alpha virt. eigenvalues --    7.64342   7.65063   7.66006   7.66229   7.69756
 Alpha virt. eigenvalues --    7.72740   7.73239   7.73485   7.73976   7.77589
 Alpha virt. eigenvalues --    7.78879   7.79938   7.82117   7.83795   7.84491
 Alpha virt. eigenvalues --    7.85503   7.86201   7.87294   7.88601   7.89676
 Alpha virt. eigenvalues --    7.90889   7.93027   7.93473   7.97153   7.98652
 Alpha virt. eigenvalues --    8.00708   8.03296   8.03747   8.05279   8.05817
 Alpha virt. eigenvalues --    8.06858   8.09051   8.09965   8.11766   8.11955
 Alpha virt. eigenvalues --    8.12494   8.12982   8.13890   8.14411   8.15316
 Alpha virt. eigenvalues --    8.15576   8.17611   8.18489   8.18947   8.21394
 Alpha virt. eigenvalues --    8.22126   8.22911   8.23236   8.24470   8.25606
 Alpha virt. eigenvalues --    8.27277   8.28016   8.28171   8.29108   8.30093
 Alpha virt. eigenvalues --    8.33393   8.35311   8.36648   8.38344   8.39525
 Alpha virt. eigenvalues --    8.41819   8.43544   8.45313   8.47452   8.48487
 Alpha virt. eigenvalues --    8.48985   8.51639   8.51877   8.52378   8.54129
 Alpha virt. eigenvalues --    8.55804   8.56040   8.57423   8.58589   8.59984
 Alpha virt. eigenvalues --    8.61339   8.61866   8.63205   8.63771   8.64563
 Alpha virt. eigenvalues --    8.66187   8.66973   8.69764   8.70803   8.74191
 Alpha virt. eigenvalues --    8.74701   8.75685   8.76349   8.77835   8.78389
 Alpha virt. eigenvalues --    8.79576   8.80767   8.81815   8.83317   8.84519
 Alpha virt. eigenvalues --    8.85951   8.86579   8.88928   8.90045   8.90500
 Alpha virt. eigenvalues --    8.91603   8.92826   8.93483   8.94105   8.95446
 Alpha virt. eigenvalues --    8.96559   8.97569   8.98856   8.99142   9.00928
 Alpha virt. eigenvalues --    9.01302   9.02517   9.04666   9.06526   9.07232
 Alpha virt. eigenvalues --    9.08466   9.08838   9.10309   9.10928   9.12002
 Alpha virt. eigenvalues --    9.13609   9.15313   9.16038   9.16334   9.17795
 Alpha virt. eigenvalues --    9.19845   9.20071   9.23114   9.23235   9.25968
 Alpha virt. eigenvalues --    9.27053   9.28375   9.29679   9.32435   9.34226
 Alpha virt. eigenvalues --    9.36762   9.39413   9.40637   9.41621   9.42688
 Alpha virt. eigenvalues --    9.43336   9.44121   9.45699   9.46089   9.48380
 Alpha virt. eigenvalues --    9.49738   9.51209   9.54030   9.55064   9.59502
 Alpha virt. eigenvalues --    9.60350   9.60416   9.61408   9.62122   9.64590
 Alpha virt. eigenvalues --    9.66180   9.66712   9.69028   9.69940   9.70387
 Alpha virt. eigenvalues --    9.70591   9.73244   9.74085   9.74641   9.75527
 Alpha virt. eigenvalues --    9.76124   9.77660   9.78817   9.81838   9.82017
 Alpha virt. eigenvalues --    9.82970   9.83461   9.85182   9.86646   9.88357
 Alpha virt. eigenvalues --    9.90018   9.92986   9.95778   9.96951  10.02144
 Alpha virt. eigenvalues --   10.05940  10.08588  10.10312  10.11548  10.13253
 Alpha virt. eigenvalues --   10.14349  10.15575  10.16353  10.18389  10.18658
 Alpha virt. eigenvalues --   10.19543  10.21773  10.23400  10.25814  10.26555
 Alpha virt. eigenvalues --   10.29693  10.30100  10.32045  10.33499  10.33920
 Alpha virt. eigenvalues --   10.35752  10.36703  10.36951  10.38848  10.39320
 Alpha virt. eigenvalues --   10.40487  10.41127  10.42065  10.43170  10.46220
 Alpha virt. eigenvalues --   10.46635  10.48268  10.50345  10.51571  10.52777
 Alpha virt. eigenvalues --   10.53659  10.54434  10.55855  10.58653  10.58809
 Alpha virt. eigenvalues --   10.60678  10.62522  10.67272  10.68431  10.70451
 Alpha virt. eigenvalues --   10.71475  10.75178  10.76528  10.79207  10.81260
 Alpha virt. eigenvalues --   10.82335  10.85787  10.97312  11.02686  11.04090
 Alpha virt. eigenvalues --   11.04752  11.06137  11.09330  11.12280  11.15368
 Alpha virt. eigenvalues --   11.23462  11.28546  11.33557  11.36649  11.37634
 Alpha virt. eigenvalues --   11.40937  11.43108  11.46131  11.54465  11.56824
 Alpha virt. eigenvalues --   11.58127  11.66592  11.70965  11.72390  12.05502
 Alpha virt. eigenvalues --   12.09328  12.15329  12.19325  12.25602  12.27064
 Alpha virt. eigenvalues --   12.35128  12.48679  12.50923  12.52158  12.54822
 Alpha virt. eigenvalues --   12.57859  12.59059  12.62759  12.66249  12.66776
 Alpha virt. eigenvalues --   12.68095  12.69002  12.69562  12.70941  12.72882
 Alpha virt. eigenvalues --   12.76281  12.77679  12.79650  12.81486  12.87714
 Alpha virt. eigenvalues --   12.89249  12.98758  13.01370  13.39318  13.52177
 Alpha virt. eigenvalues --   24.68936  25.13974  25.31933  25.38974  25.73088
 Alpha virt. eigenvalues --   25.77974  26.00450  26.10041  26.17216  27.76908
 Alpha virt. eigenvalues --   27.86945  33.92438  43.01472  43.03969
          Condensed to atoms (all electrons):
               1          2          3          4          5          6
     1  N    8.860393  -0.226920  -0.026711  -0.080654  -0.292610  -0.096335
     2  S   -0.226920  14.510841   0.070650   0.079247   0.037756  -0.203241
     3  O   -0.026711   0.070650   8.972338  -0.101903   0.008142   0.012885
     4  O   -0.080654   0.079247  -0.101903   8.997416   0.025329   0.035770
     5  C   -0.292610   0.037756   0.008142   0.025329   7.771671   0.091566
     6  H   -0.096335  -0.203241   0.012885   0.035770   0.091566   0.488950
     7  H    0.013104   0.161909  -0.031542  -0.032983   0.150058  -0.186405
     8  H   -0.023232  -0.121355   0.006958   0.019956   0.203470   0.079535
     9  C    0.354671  -0.260123  -0.036724   0.025117  -0.076384   0.015773
    10  C   -0.339952  -0.015409   0.011242  -0.014317  -0.017997  -0.004771
    11  C   -0.092278  -0.000924   0.014574   0.000980  -0.003100  -0.000176
    12  H    0.009367  -0.002553   0.000937   0.000903  -0.000239  -0.000191
    13  H    0.005366  -0.000990  -0.000341   0.000143  -0.000442  -0.000075
    14  C   -0.564171  -0.010465   0.066343  -0.034668  -0.030359  -0.066355
    15  C   -0.255290  -0.011467  -0.004255   0.033934  -0.018945  -0.013820
    16  C   -0.374879  -0.102529   0.000968   0.002329   0.037650   0.052053
    17  C   -0.017196  -0.007724   0.003165  -0.005417  -0.004594   0.000320
    18  H   -0.015780   0.016855  -0.007393  -0.024955   0.007317   0.003766
    19  C   -0.098521   0.007050   0.002024   0.003376  -0.006412  -0.005884
    20  H    0.029781   0.001198   0.000505   0.000242   0.012477   0.011453
    21  C    0.051780  -0.004550  -0.000223  -0.001842   0.003141  -0.007721
    22  H   -0.000839  -0.000407   0.000063   0.000535   0.000019   0.000543
    23  H   -0.003991   0.000211   0.000099  -0.000168   0.000294  -0.002426
    24  H   -0.009854   0.001239  -0.000020   0.000115   0.000863  -0.000679
    25  H   -0.019296   0.001144   0.003141  -0.000599   0.004414   0.001095
    26  H   -0.002559  -0.002942  -0.000198  -0.000119  -0.000321  -0.000042
               7          8          9         10         11         12
     1  N    0.013104  -0.023232   0.354671  -0.339952  -0.092278   0.009367
     2  S    0.161909  -0.121355  -0.260123  -0.015409  -0.000924  -0.002553
     3  O   -0.031542   0.006958  -0.036724   0.011242   0.014574   0.000937
     4  O   -0.032983   0.019956   0.025117  -0.014317   0.000980   0.000903
     5  C    0.150058   0.203470  -0.076384  -0.017997  -0.003100  -0.000239
     6  H   -0.186405   0.079535   0.015773  -0.004771  -0.000176  -0.000191
     7  H    0.631420  -0.135098  -0.011786   0.004020  -0.000349   0.000057
     8  H   -0.135098   0.300916   0.016608  -0.010864   0.000002  -0.000072
     9  C   -0.011786   0.016608   5.593063   0.368579  -0.240818   0.031157
    10  C    0.004020  -0.010864   0.368579   6.971971   0.048472   0.003036
    11  C   -0.000349   0.000002  -0.240818   0.048472   7.843644   0.153742
    12  H    0.000057  -0.000072   0.031157   0.003036   0.153742   0.241427
    13  H   -0.000034   0.000108   0.022207  -0.082193   0.207291   0.005046
    14  C    0.021533  -0.029365  -0.527540  -0.153699  -0.002309  -0.002331
    15  C    0.001330  -0.003494  -0.117057  -0.004589  -0.002236   0.001626
    16  C   -0.000186   0.008660  -0.089861  -0.038220  -0.013467   0.000417
    17  C   -0.000776  -0.000171  -0.047653   0.024983  -0.007343  -0.001002
    18  H    0.001786  -0.000626  -0.027740  -0.017263   0.002161  -0.001211
    19  C    0.001572  -0.003046  -0.071581  -0.020018   0.000973   0.000406
    20  H    0.004634  -0.000467  -0.035952   0.011099   0.000642  -0.000298
    21  C    0.000275   0.000488   0.024834  -0.003532   0.000827   0.000206
    22  H   -0.000014  -0.000070   0.000209   0.000814  -0.000625  -0.000034
    23  H   -0.000024  -0.000239   0.002572   0.000643   0.000106  -0.000011
    24  H    0.000060   0.000184   0.003221  -0.000239   0.000126   0.000044
    25  H    0.000027   0.000169  -0.017599   0.163589  -0.052779   0.006176
    26  H   -0.000004   0.000063   0.010033  -0.036641   0.159170   0.002929
              13         14         15         16         17         18
     1  N    0.005366  -0.564171  -0.255290  -0.374879  -0.017196  -0.015780
     2  S   -0.000990  -0.010465  -0.011467  -0.102529  -0.007724   0.016855
     3  O   -0.000341   0.066343  -0.004255   0.000968   0.003165  -0.007393
     4  O    0.000143  -0.034668   0.033934   0.002329  -0.005417  -0.024955
     5  C   -0.000442  -0.030359  -0.018945   0.037650  -0.004594   0.007317
     6  H   -0.000075  -0.066355  -0.013820   0.052053   0.000320   0.003766
     7  H   -0.000034   0.021533   0.001330  -0.000186  -0.000776   0.001786
     8  H    0.000108  -0.029365  -0.003494   0.008660  -0.000171  -0.000626
     9  C    0.022207  -0.527540  -0.117057  -0.089861  -0.047653  -0.027740
    10  C   -0.082193  -0.153699  -0.004589  -0.038220   0.024983  -0.017263
    11  C    0.207291  -0.002309  -0.002236  -0.013467  -0.007343   0.002161
    12  H    0.005046  -0.002331   0.001626   0.000417  -0.001002  -0.001211
    13  H    0.220273   0.005934   0.001241  -0.000248  -0.000779   0.000319
    14  C    0.005934   7.831505   0.061000  -0.038355  -0.729740  -0.071358
    15  C    0.001241   0.061000   7.417026  -0.465110   0.460032  -0.057548
    16  C   -0.000248  -0.038355  -0.465110   7.647253   0.167476   0.048204
    17  C   -0.000779  -0.729740   0.460032   0.167476   7.662294  -0.113096
    18  H    0.000319  -0.071358  -0.057548   0.048204  -0.113096   0.617562
    19  C    0.000218  -0.534532   0.135426   0.706501   0.051399   0.010628
    20  H    0.000132  -0.165707   0.009073  -0.040026   0.038630   0.001196
    21  C    0.000090   0.196563  -0.185167  -0.386690  -0.412364  -0.033475
    22  H   -0.000030  -0.008879  -0.159171   0.035060   0.173997   0.020005
    23  H    0.000040   0.005678   0.029419  -0.170301  -0.022319   0.002211
    24  H    0.000020   0.082304  -0.034103  -0.040891  -0.171815  -0.006966
    25  H   -0.013461  -0.029987  -0.001195   0.004433   0.002101  -0.000868
    26  H    0.023734   0.010422   0.000505  -0.001074   0.000077  -0.000079
              19         20         21         22         23         24
     1  N   -0.098521   0.029781   0.051780  -0.000839  -0.003991  -0.009854
     2  S    0.007050   0.001198  -0.004550  -0.000407   0.000211   0.001239
     3  O    0.002024   0.000505  -0.000223   0.000063   0.000099  -0.000020
     4  O    0.003376   0.000242  -0.001842   0.000535  -0.000168   0.000115
     5  C   -0.006412   0.012477   0.003141   0.000019   0.000294   0.000863
     6  H   -0.005884   0.011453  -0.007721   0.000543  -0.002426  -0.000679
     7  H    0.001572   0.004634   0.000275  -0.000014  -0.000024   0.000060
     8  H   -0.003046  -0.000467   0.000488  -0.000070  -0.000239   0.000184
     9  C   -0.071581  -0.035952   0.024834   0.000209   0.002572   0.003221
    10  C   -0.020018   0.011099  -0.003532   0.000814   0.000643  -0.000239
    11  C    0.000973   0.000642   0.000827  -0.000625   0.000106   0.000126
    12  H    0.000406  -0.000298   0.000206  -0.000034  -0.000011   0.000044
    13  H    0.000218   0.000132   0.000090  -0.000030   0.000040   0.000020
    14  C   -0.534532  -0.165707   0.196563  -0.008879   0.005678   0.082304
    15  C    0.135426   0.009073  -0.185167  -0.159171   0.029419  -0.034103
    16  C    0.706501  -0.040026  -0.386690   0.035060  -0.170301  -0.040891
    17  C    0.051399   0.038630  -0.412364   0.173997  -0.022319  -0.171815
    18  H    0.010628   0.001196  -0.033475   0.020005   0.002211  -0.006966
    19  C    6.856210  -0.004750  -0.047851   0.003047   0.190506  -0.248314
    20  H   -0.004750   0.518093  -0.061070   0.002934   0.005165  -0.012158
    21  C   -0.047851  -0.061070   7.367649  -0.086799  -0.048236   0.132768
    22  H    0.003047   0.002934  -0.086799   0.350092  -0.003344  -0.013193
    23  H    0.190506   0.005165  -0.048236  -0.003344   0.366035  -0.000642
    24  H   -0.248314  -0.012158   0.132768  -0.013193  -0.000642   0.547913
    25  H   -0.001965   0.000323  -0.000291   0.000077  -0.000004  -0.000054
    26  H    0.000176   0.000176   0.000017   0.000009   0.000035   0.000004
              25         26
     1  N   -0.019296  -0.002559
     2  S    0.001144  -0.002942
     3  O    0.003141  -0.000198
     4  O   -0.000599  -0.000119
     5  C    0.004414  -0.000321
     6  H    0.001095  -0.000042
     7  H    0.000027  -0.000004
     8  H    0.000169   0.000063
     9  C   -0.017599   0.010033
    10  C    0.163589  -0.036641
    11  C   -0.052779   0.159170
    12  H    0.006176   0.002929
    13  H   -0.013461   0.023734
    14  C   -0.029987   0.010422
    15  C   -0.001195   0.000505
    16  C    0.004433  -0.001074
    17  C    0.002101   0.000077
    18  H   -0.000868  -0.000079
    19  C   -0.001965   0.000176
    20  H    0.000323   0.000176
    21  C   -0.000291   0.000017
    22  H    0.000077   0.000009
    23  H   -0.000004   0.000035
    24  H   -0.000054   0.000004
    25  H    0.277481  -0.010091
    26  H   -0.010091   0.221064
 Mulliken charges:
               1
     1  N    0.216605
     2  S    2.083499
     3  O   -0.964724
     4  O   -0.927767
     5  C   -1.902764
     6  H    0.794412
     7  H    0.407418
     8  H    0.690982
     9  C    1.092775
    10  C   -0.848744
    11  C   -2.016304
    12  H    0.550468
    13  H    0.606432
    14  C    0.718538
    15  C   -0.817164
    16  C   -0.949167
    17  C   -1.042482
    18  H    0.646346
    19  C   -0.926638
    20  H    0.672675
    21  C   -0.498829
    22  H    0.686002
    23  H    0.648692
    24  H    0.770066
    25  H    0.684018
    26  H    0.625656
 Sum of Mulliken charges =   1.00000
 Mulliken charges with hydrogens summed into heavy atoms:
               1
     1  N    0.216605
     2  S    2.083499
     3  O   -0.964724
     4  O   -0.927767
     5  C   -0.009953
     9  C    1.092775
    10  C   -0.164726
    11  C   -0.233749
    14  C    0.718538
    15  C   -0.170818
    16  C   -0.276492
    17  C   -0.356480
    19  C   -0.277946
    21  C    0.271237
 Electronic spatial extent (au):  <R**2>=           3177.7816
 Charge=              1.0000 electrons
 Dipole moment (field-independent basis, Debye):
    X=              0.7403    Y=              2.9720    Z=              5.2031  Tot=              6.0376
 Quadrupole moment (field-independent basis, Debye-Ang):
   XX=            -65.1273   YY=            -64.6715   ZZ=            -73.8401
   XY=             10.5458   XZ=              5.2351   YZ=             -8.1355
 Traceless Quadrupole moment (field-independent basis, Debye-Ang):
   XX=              2.7524   YY=              3.2081   ZZ=             -5.9605
   XY=             10.5458   XZ=              5.2351   YZ=             -8.1355
 Octapole moment (field-independent basis, Debye-Ang**2):
  XXX=            -40.0120  YYY=             -5.8469  ZZZ=             11.7295  XYY=             66.0005
  XXY=             40.9014  XXZ=              5.7400  XZZ=             -1.0393  YZZ=              1.4949
  YYZ=             25.7970  XYZ=             -2.2751
 Hexadecapole moment (field-independent basis, Debye-Ang**3):
 XXXX=          -2039.0328 YYYY=          -1041.4932 ZZZZ=           -458.9608 XXXY=             72.6949
 XXXZ=             12.9548 YYYX=             83.1350 YYYZ=            -46.7754 ZZZX=             19.8979
 ZZZY=             -9.4338 XXYY=           -528.8649 XXZZ=           -412.8852 YYZZ=           -281.4119
 XXYZ=              1.5876 YYXZ=             22.6387 ZZXY=              0.2522
 N-N= 1.015224363869D+03 E-N=-4.339534655213D+03  KE= 9.873127978905D+02
 No NMR shielding tensors so no spin-rotation constants.
 Leave Link  601 at Sun Jun  9 08:00:35 2024, MaxMem= 10737418240 cpu:              45.9 elap:               2.1
 (Enter /public/software/apps/Gaussian/g16/l9999.exe)
 Unable to Open any file for archive entry.
 1\1\GINC-NODE14\SP\RM062X\Aug-CC-pVQZ\C10H12N1O2S1(1+)\LLG_HG\09-Jun-2
 024\0\\#p scrf=(smd,solvent=chlorobenzene) aug-cc-pvqz em=gd3 m062x\\T
 itle: Yne12-vinyl12-S12-PhCl-1\\1,1\N,0,-2.00253,0.162979,-0.084063\S,
 0,-1.367577,-1.11204,-1.377328\O,0,-0.112238,-0.538551,-1.81638\O,0,-2
 .499059,-1.306519,-2.259656\C,0,-1.126149,-2.513617,-0.297472\H,0,-2.0
 91176,-2.784861,0.127353\H,0,-0.741741,-3.315082,-0.931747\H,0,-0.3984
 13,-2.232481,0.462233\C,0,-1.247087,1.112778,0.195596\C,0,-0.430204,2.
 08084,0.445117\C,0,-0.364655,3.363338,-0.330777\H,0,-1.085256,3.384187
 ,-1.146378\H,0,-0.553547,4.198329,0.348635\C,0,-3.328402,-0.047745,0.4
 65823\C,0,-4.433919,0.275535,-0.312801\C,0,-3.438761,-0.591422,1.74147
 3\C,0,-5.699492,0.05193,0.220333\H,0,-4.304114,0.690344,-1.303454\C,0,
 -4.712787,-0.806778,2.257684\H,0,-2.550778,-0.835206,2.311083\C,0,-5.8
 37833,-0.487072,1.498716\H,0,-6.576043,0.301549,-0.364287\H,0,-4.82427
 9,-1.222804,3.25118\H,0,-6.826999,-0.657267,1.905922\H,0,0.244708,1.93
 2162,1.287352\H,0,0.645603,3.477832,-0.731887\\Version=ES64L-G16RevC.0
 1\State=1-A\HF=-991.430883\RMSD=1.204e-09\Dipole=1.1588997,0.4240278,2
 .0296771\Quadrupole=3.587975,7.8328318,-11.4208068,3.9143439,1.6230465
 ,-2.7708802\PG=C01 [X(C10H12N1O2S1)]\\@
 The archive entry for this job was punched.


 FRICTION IS A DRAG,
 AND ENTROPY AIN'T WHAT IT USED TO BE.
 Job cpu time:       2 days 22 hours 30 minutes  5.8 seconds.
 Elapsed time:       0 days  2 hours 12 minutes 42.7 seconds.
 File lengths (MBytes):  RWF=   1528 Int=      0 D2E=      0 Chk=    162 Scr=      1
 Normal termination of Gaussian 16 at Sun Jun  9 08:00:36 2024.
