 Entering Gaussian System, Link 0=g16
 Initial command:
 /public/software/apps/Gaussian/g16/l1.exe "/tmp/Gau-8450.inp" -scrdir="/tmp/"
 Entering Link 1 = /public/software/apps/Gaussian/g16/l1.exe PID=      8451.
  
 Copyright (c) 1988-2019, Gaussian, Inc.  All Rights Reserved.
  
 This is part of the Gaussian(R) 16 program.  It is based on
 the Gaussian(R) 09 system (copyright 2009, Gaussian, Inc.),
 the Gaussian(R) 03 system (copyright 2003, Gaussian, Inc.),
 the Gaussian(R) 98 system (copyright 1998, Gaussian, Inc.),
 the Gaussian(R) 94 system (copyright 1995, Gaussian, Inc.),
 the Gaussian 92(TM) system (copyright 1992, Gaussian, Inc.),
 the Gaussian 90(TM) system (copyright 1990, Gaussian, Inc.),
 the Gaussian 88(TM) system (copyright 1988, Gaussian, Inc.),
 the Gaussian 86(TM) system (copyright 1986, Carnegie Mellon
 University), and the Gaussian 82(TM) system (copyright 1983,
 Carnegie Mellon University). Gaussian is a federally registered
 trademark of Gaussian, Inc.
  
 This software contains proprietary and confidential information,
 including trade secrets, belonging to Gaussian, Inc.
  
 This software is provided under written license and may be
 used, copied, transmitted, or stored only in accord with that
 written license.
  
 The following legend is applicable only to US Government
 contracts under FAR:
  
                    RESTRICTED RIGHTS LEGEND
  
 Use, reproduction and disclosure by the US Government is
 subject to restrictions as set forth in subparagraphs (a)
 and (c) of the Commercial Computer Software - Restricted
 Rights clause in FAR 52.227-19.
  
 Gaussian, Inc.
 340 Quinnipiac St., Bldg. 40, Wallingford CT 06492
  
  
 ---------------------------------------------------------------
 Warning -- This program may not be used in any manner that
 competes with the business of Gaussian, Inc. or will provide
 assistance to any competitor of Gaussian, Inc.  The licensee
 of this program is prohibited from giving any competitor of
 Gaussian, Inc. access to this program.  By using this program,
 the user acknowledges that Gaussian, Inc. is engaged in the
 business of creating and licensing software in the field of
 computational chemistry and represents and warrants to the
 licensee that it is not a competitor of Gaussian, Inc. and that
 it will not use this program in any manner prohibited above.
 ---------------------------------------------------------------
  

 Cite this work as:
 Gaussian 16, Revision C.01,
 M. J. Frisch, G. W. Trucks, H. B. Schlegel, G. E. Scuseria, 
 M. A. Robb, J. R. Cheeseman, G. Scalmani, V. Barone, 
 G. A. Petersson, H. Nakatsuji, X. Li, M. Caricato, A. V. Marenich, 
 J. Bloino, B. G. Janesko, R. Gomperts, B. Mennucci, H. P. Hratchian, 
 J. V. Ortiz, A. F. Izmaylov, J. L. Sonnenberg, D. Williams-Young, 
 F. Ding, F. Lipparini, F. Egidi, J. Goings, B. Peng, A. Petrone, 
 T. Henderson, D. Ranasinghe, V. G. Zakrzewski, J. Gao, N. Rega, 
 G. Zheng, W. Liang, M. Hada, M. Ehara, K. Toyota, R. Fukuda, 
 J. Hasegawa, M. Ishida, T. Nakajima, Y. Honda, O. Kitao, H. Nakai, 
 T. Vreven, K. Throssell, J. A. Montgomery, Jr., J. E. Peralta, 
 F. Ogliaro, M. J. Bearpark, J. J. Heyd, E. N. Brothers, K. N. Kudin, 
 V. N. Staroverov, T. A. Keith, R. Kobayashi, J. Normand, 
 K. Raghavachari, A. P. Rendell, J. C. Burant, S. S. Iyengar, 
 J. Tomasi, M. Cossi, J. M. Millam, M. Klene, C. Adamo, R. Cammi, 
 J. W. Ochterski, R. L. Martin, K. Morokuma, O. Farkas, 
 J. B. Foresman, and D. J. Fox, Gaussian, Inc., Wallingford CT, 2019.
 
 ******************************************
 Gaussian 16:  ES64L-G16RevC.01  3-Jul-2019
                 9-Jun-2024 
 ******************************************
 %nprocshared=32
 Will use up to   32 processors via shared memory.
 %mem=80GB
 ------------------------------------------------------------
 #p scrf=(smd,solvent=chlorobenzene) aug-cc-pvqz em=gd3 m062x
 ------------------------------------------------------------
 1/38=1,172=1/1;
 2/12=2,17=6,18=5,40=1/2;
 3/5=16,6=2,7=10,11=2,25=1,30=1,70=32201,72=14,74=-55,124=31/1,2,3;
 4//1;
 5/5=2,38=5,53=14/2;
 6/7=2,8=2,9=2,10=2,28=1/1;
 99/5=1,9=1/99;
 Leave Link    1 at Sun Jun  9 07:29:20 2024, MaxMem= 10737418240 cpu:               3.2 elap:               0.4
 (Enter /public/software/apps/Gaussian/g16/l101.exe)
 ----------------------------
 Title: Yne4-vinyl4-S4-PhCl-1
 ----------------------------
 Symbolic Z-matrix:
 Charge =  1 Multiplicity = 1
 N                    -1.70027   0.45902  -0.12398 
 C                    -2.96088   0.58014   0.63956 
 S                    -1.04329  -1.37175  -0.5938 
 O                    -0.11892  -1.0482   -1.6532 
 O                    -2.26194  -2.12113  -0.78314 
 C                    -0.20246  -1.77509   0.92907 
 H                    -0.94384  -1.83463   1.72313 
 H                     0.26581  -2.74667   0.75073 
 H                     0.54608  -1.00425   1.10467 
 C                    -1.09343   1.43808  -0.59769 
 C                    -0.39314   2.37483  -1.14435 
 C                     0.75312   3.09186  -0.50091 
 H                     0.52871   4.16121  -0.47684 
 H                     0.94909   2.73248   0.50714 
 F                    -3.09111   1.80904   1.10813 
 F                    -3.97951   0.28762  -0.15156 
 F                    -2.91708  -0.28812   1.64524 
 H                    -0.69786   2.64932  -2.15546 
 H                     1.63967   2.95087  -1.12511 
 
 ITRead=  0  0  0  0  0  0  0  0  0  0  0  0  0  0  0  0  0  0  0
 MicOpt= -1 -1 -1 -1 -1 -1 -1 -1 -1 -1 -1 -1 -1 -1 -1 -1 -1 -1 -1
 NAtoms=     19 NQM=       19 NQMF=       0 NMMI=      0 NMMIF=      0
                NMic=       0 NMicF=      0.
                    Isotopes and Nuclear Properties:
 (Nuclear quadrupole moments (NQMom) in fm**2, nuclear magnetic moments (NMagM)
  in nuclear magnetons)

  Atom         1           2           3           4           5           6           7           8           9          10
 IAtWgt=          14          12          32          16          16          12           1           1           1          12
 AtmWgt=  14.0030740  12.0000000  31.9720718  15.9949146  15.9949146  12.0000000   1.0078250   1.0078250   1.0078250  12.0000000
 NucSpn=           2           0           0           0           0           0           1           1           1           0
 AtZEff=  -0.0000000  -0.0000000  -0.0000000  -0.0000000  -0.0000000  -0.0000000  -0.0000000  -0.0000000  -0.0000000  -0.0000000
 NQMom=    2.0440000   0.0000000   0.0000000   0.0000000   0.0000000   0.0000000   0.0000000   0.0000000   0.0000000   0.0000000
 NMagM=    0.4037610   0.0000000   0.0000000   0.0000000   0.0000000   0.0000000   2.7928460   2.7928460   2.7928460   0.0000000
 AtZNuc=   7.0000000   6.0000000  16.0000000   8.0000000   8.0000000   6.0000000   1.0000000   1.0000000   1.0000000   6.0000000

  Atom        11          12          13          14          15          16          17          18          19
 IAtWgt=          12          12           1           1          19          19          19           1           1
 AtmWgt=  12.0000000  12.0000000   1.0078250   1.0078250  18.9984032  18.9984032  18.9984032   1.0078250   1.0078250
 NucSpn=           0           0           1           1           1           1           1           1           1
 AtZEff=  -0.0000000  -0.0000000  -0.0000000  -0.0000000  -0.0000000  -0.0000000  -0.0000000  -0.0000000  -0.0000000
 NQMom=    0.0000000   0.0000000   0.0000000   0.0000000   0.0000000   0.0000000   0.0000000   0.0000000   0.0000000
 NMagM=    0.0000000   0.0000000   2.7928460   2.7928460   2.6288670   2.6288670   2.6288670   2.7928460   2.7928460
 AtZNuc=   6.0000000   6.0000000   1.0000000   1.0000000   9.0000000   9.0000000   9.0000000   1.0000000   1.0000000
 Leave Link  101 at Sun Jun  9 07:29:21 2024, MaxMem= 10737418240 cpu:               2.6 elap:               0.2
 (Enter /public/software/apps/Gaussian/g16/l202.exe)
                          Input orientation:                          
 ---------------------------------------------------------------------
 Center     Atomic      Atomic             Coordinates (Angstroms)
 Number     Number       Type             X           Y           Z
 ---------------------------------------------------------------------
      1          7           0       -1.700265    0.459022   -0.123981
      2          6           0       -2.960879    0.580141    0.639559
      3         16           0       -1.043294   -1.371754   -0.593799
      4          8           0       -0.118924   -1.048196   -1.653204
      5          8           0       -2.261944   -2.121130   -0.783137
      6          6           0       -0.202460   -1.775086    0.929065
      7          1           0       -0.943841   -1.834629    1.723131
      8          1           0        0.265807   -2.746669    0.750734
      9          1           0        0.546075   -1.004245    1.104669
     10          6           0       -1.093431    1.438079   -0.597687
     11          6           0       -0.393135    2.374831   -1.144346
     12          6           0        0.753119    3.091858   -0.500907
     13          1           0        0.528707    4.161208   -0.476838
     14          1           0        0.949087    2.732475    0.507144
     15          9           0       -3.091112    1.809037    1.108131
     16          9           0       -3.979505    0.287620   -0.151558
     17          9           0       -2.917081   -0.288122    1.645238
     18          1           0       -0.697859    2.649324   -2.155462
     19          1           0        1.639673    2.950868   -1.125112
 ---------------------------------------------------------------------
                    Distance matrix (angstroms):
                    1          2          3          4          5
     1  N    0.000000
     2  C    1.478787   0.000000
     3  S    2.001020   3.001366   0.000000
     4  O    2.666621   3.998119   1.442737   0.000000
     5  O    2.721609   3.132002   1.443094   2.549655   0.000000
     6  C    2.888523   3.638651   1.785719   2.683926   2.700529
     7  H    3.040532   3.327715   2.364806   3.563510   2.846201
     8  H    3.860961   4.635896   2.326350   2.968459   3.022182
     9  H    2.949029   3.876252   2.354984   2.837256   3.563175
    10  C    1.245471   2.398791   2.810283   2.871471   3.750704
    11  C    2.533783   3.605071   3.842227   3.471490   4.882272
    12  C    3.618424   4.626356   4.812438   4.385008   6.028723
    13  H    4.335782   5.123241   5.753133   5.379698   6.881084
    14  H    3.547672   4.465189   4.693224   4.483439   5.960959
    15  F    2.296758   1.321630   4.148199   4.962122   4.439665
    16  F    2.285842   1.322510   3.401534   4.352405   3.025059
    17  F    2.273544   1.329357   3.114261   4.391710   3.112254
    18  H    3.151056   4.149087   4.327492   3.776120   5.204505
    19  H    4.285644   5.468043   5.115239   4.400461   6.408176
                    6          7          8          9         10
     6  C    0.000000
     7  H    1.087994   0.000000
     8  H    1.093183   1.800173   0.000000
     9  H    1.088732   1.814355   1.799962   0.000000
    10  C    3.667319   4.014871   4.601943   3.398668   0.000000
    11  C    4.642973   5.123012   5.500481   4.166334   1.291029
    12  C    5.161889   5.665359   5.991033   4.404407   2.480746
    13  H    6.144164   6.554260   7.021027   5.402164   3.171966
    14  H    4.671422   5.091192   5.526955   3.805592   2.658570
    15  F    4.606768   4.273792   5.670194   4.598228   2.652952
    16  F    4.437181   4.151344   5.295632   4.871129   3.138791
    17  F    3.176969   2.508272   4.120117   3.577499   3.366925
    18  H    5.416192   5.933787   6.204141   5.052167   2.012524
    19  H    5.472453   6.139056   6.153717   4.670203   3.168054
                   11         12         13         14         15
    11  C    0.000000
    12  C    1.497344   0.000000
    13  H    2.118137   1.092909   0.000000
    14  H    2.157982   1.087992   1.784998   0.000000
    15  F    3.559895   4.360361   4.598687   4.187736   0.000000
    16  F    4.266630   5.512125   5.952686   5.540959   2.165818
    17  F    4.609056   5.431443   6.014416   5.036519   2.171830
    18  H    1.091127   2.244711   2.570610   3.131903   4.133374
    19  H    2.112936   1.093384   1.766190   1.785739   5.354576
                   16         17         18         19
    16  F    0.000000
    17  F    2.165340   0.000000
    18  H    4.512480   5.291395   0.000000
    19  H    6.294113   6.239383   2.572276   0.000000
 Stoichiometry    C5H7F3NO2S(1+)
 Framework group  C1[X(C5H7F3NO2S)]
 Deg. of freedom    51
 Full point group                 C1      NOp   1
 Largest Abelian subgroup         C1      NOp   1
 Largest concise Abelian subgroup C1      NOp   1
                         Standard orientation:                         
 ---------------------------------------------------------------------
 Center     Atomic      Atomic             Coordinates (Angstroms)
 Number     Number       Type             X           Y           Z
 ---------------------------------------------------------------------
      1          7           0        0.249656    0.247326   -0.106295
      2          6           0       -0.187533    1.652190    0.042140
      3         16           0       -1.147592   -1.183801   -0.166761
      4          8           0       -0.384584   -2.262477   -0.746215
      5          8           0       -2.257388   -0.533984   -0.821447
      6          6           0       -1.403345   -1.410180    1.585990
      7          1           0       -1.823653   -0.492096    1.991199
      8          1           0       -2.110343   -2.239832    1.668944
      9          1           0       -0.441893   -1.667390    2.027340
     10          6           0        1.431998   -0.079543   -0.321748
     11          6           0        2.617955   -0.529890   -0.561436
     12          6           0        3.616000   -0.945780    0.474412
     13          1           0        4.520399   -0.344672    0.351199
     14          1           0        3.230993   -0.831384    1.485555
     15          9           0        0.843857    2.417748    0.353366
     16          9           0       -0.728964    2.062435   -1.092578
     17          9           0       -1.097609    1.699143    1.009997
     18          1           0        2.885573   -0.587447   -1.617669
     19          1           0        3.882572   -1.990669    0.293762
 ---------------------------------------------------------------------
 Rotational constants (GHZ):           0.8713098           0.7862921           0.5128136
 Leave Link  202 at Sun Jun  9 07:29:23 2024, MaxMem= 10737418240 cpu:               1.2 elap:               0.3
 (Enter /public/software/apps/Gaussian/g16/l301.exe)
 Standard basis: Aug-CC-pVQZ (5D, 7F)
 Ernie: Thresh=  0.10000D-02 Tol=  0.10000D-05 Strict=F.
 Ernie:  47 primitive shells out of 602 were deleted.
 There are  1649 symmetry adapted cartesian basis functions of A   symmetry.
 There are  1286 symmetry adapted basis functions of A   symmetry.
  1286 basis functions,  1932 primitive gaussians,  1649 cartesian basis functions
    51 alpha electrons       51 beta electrons
       nuclear repulsion energy       932.7938044271 Hartrees.
 IExCor= 4336 DFT=T Ex+Corr=M062X ExCW=0 ScaHFX=  0.540000
 ScaDFX=  1.000000  1.000000  1.000000  1.000000 ScalE2=  1.000000  1.000000
 IRadAn=      5 IRanWt=     -1 IRanGd=            0 ICorTp=0 IEmpDi=131
 NAtoms=   19 NActive=   19 NUniq=   19 SFac= 1.00D+00 NAtFMM=   60 NAOKFM=F Big=F
 Integral buffers will be    131072 words long.
 Raffenetti 2 integral format.
 Two-electron integral symmetry is turned on.
 R6Disp:  Grimme-D3 Dispersion energy=       -0.0007780182 Hartrees.
 Nuclear repulsion after empirical dispersion term =      932.7930264089 Hartrees.
 ------------------------------------------------------------------------------
 Polarizable Continuum Model (PCM)
 =================================
 Model                : PCM.
 Atomic radii         : SMD-Coulomb.
 Polarization charges : Total charges.
 Charge compensation  : None.
 Solution method      : On-the-fly selection.
 Cavity type          : VdW (van der Waals Surface) (Alpha=1.000).
 Cavity algorithm     : GePol (No added spheres)
                        Default sphere list used, NSphG=   19.
                        Lebedev-Laikov grids with approx.  5.0 points / Ang**2.
                        Smoothing algorithm: York/Karplus (Gamma=1.0000).
                        Polarization charges: spherical gaussians, with
                                              point-specific exponents (IZeta= 3).
                        Self-potential: point-specific (ISelfS= 7).
                        Self-field    : sphere-specific E.n sum rule (ISelfD= 2).
 Solvent              : ChloroBenzene, Eps=   5.696800 Eps(inf)=   2.322881
 ------------------------------------------------------------------------------
 Spheres list:
 ISph  on   Nord     Re0    Alpha      Xe            Ye            Ze
    1   N      1    1.8900  1.000      0.249656      0.247326     -0.106295
    2   C      2    1.8500  1.000     -0.187533      1.652190      0.042140
    3   S      3    2.4900  1.000     -1.147592     -1.183801     -0.166761
    4   O      4    2.2940  1.000     -0.384584     -2.262477     -0.746215
    5   O      5    2.2940  1.000     -2.257388     -0.533984     -0.821447
    6   C      6    1.8500  1.000     -1.403345     -1.410180      1.585990
    7   H      7    1.2000  1.000     -1.823653     -0.492096      1.991199
    8   H      8    1.2000  1.000     -2.110343     -2.239832      1.668944
    9   H      9    1.2000  1.000     -0.441893     -1.667390      2.027340
   10   C     10    1.8500  1.000      1.431998     -0.079543     -0.321748
   11   C     11    1.8500  1.000      2.617955     -0.529890     -0.561436
   12   C     12    1.8500  1.000      3.616000     -0.945780      0.474412
   13   H     13    1.2000  1.000      4.520399     -0.344672      0.351199
   14   H     14    1.2000  1.000      3.230993     -0.831384      1.485555
   15   F     15    1.7300  1.000      0.843857      2.417748      0.353366
   16   F     16    1.7300  1.000     -0.728964      2.062435     -1.092578
   17   F     17    1.7300  1.000     -1.097609      1.699143      1.009997
   18   H     18    1.2000  1.000      2.885573     -0.587447     -1.617669
   19   H     19    1.2000  1.000      3.882572     -1.990669      0.293762
 ------------------------------------------------------------------------------
 GePol: Number of generator spheres                  =      19
 GePol: Total number of spheres                      =      19
 GePol: Number of exposed spheres                    =      19 (100.00%)
 GePol: Number of points                             =    1732
 GePol: Average weight of points                     =       0.13
 GePol: Minimum weight of points                     =   0.54D-08
 GePol: Maximum weight of points                     =    0.21501
 GePol: Number of points with low weight             =      97
 GePol: Fraction of low-weight points (<1% of avg)   =       5.60%
 GePol: Cavity surface area                          =    221.268 Ang**2
 GePol: Cavity volume                                =    212.825 Ang**3
 ------------------------------------------------------------------------------
 Atomic radii for non-electrostatic terms: SMD-CDS.
 ------------------------------------------------------------------------------
 PCM non-electrostatic energy =        -0.0015115131 Hartrees.
 Nuclear repulsion after PCM non-electrostatic terms =      932.7915148957 Hartrees.
 Leave Link  301 at Sun Jun  9 07:29:24 2024, MaxMem= 10737418240 cpu:               2.9 elap:               0.1
 (Enter /public/software/apps/Gaussian/g16/l302.exe)
 NPDir=0 NMtPBC=     1 NCelOv=     1 NCel=       1 NClECP=     1 NCelD=      1
         NCelK=      1 NCelE2=     1 NClLst=     1 CellRange=     0.0.
 One-electron integrals computed using PRISM.
 One-electron integral symmetry used in STVInt
 NBasis=  1286 RedAO= T EigKep=  1.93D-06  NBF=  1286
 NBsUse=  1284 1.00D-06 EigRej=  6.62D-07 NBFU=  1284
 Precomputing XC quadrature grid using
 IXCGrd= 4 IRadAn=           5 IRanWt=          -1 IRanGd=           0 AccXCQ= 0.00D+00.
 Generated NRdTot=       0 NPtTot=           0 NUsed=           0 NTot=          32
 NSgBfM=  1645  1645  1645  1645  1645 MxSgAt=    19 MxSgA2=    19.
 Leave Link  302 at Sun Jun  9 07:29:28 2024, MaxMem= 10737418240 cpu:              63.7 elap:               2.7
 (Enter /public/software/apps/Gaussian/g16/l303.exe)
 DipDrv:  MaxL=1.
 Leave Link  303 at Sun Jun  9 07:29:31 2024, MaxMem= 10737418240 cpu:               8.9 elap:               0.5
 (Enter /public/software/apps/Gaussian/g16/l401.exe)
 ExpMin= 2.36D-02 ExpMax= 7.28D+05 ExpMxC= 2.54D+03 IAcc=3 IRadAn=         5 AccDes= 0.00D+00
 Harris functional with IExCor= 1009 and IRadAn=       5 diagonalized for initial guess.
 HarFok:  IExCor= 1009 AccDes= 0.00D+00 IRadAn=         5 IDoV= 1 UseB2=F ITyADJ=14
 ICtDFT=  3500011 ScaDFX=  1.000000  1.000000  1.000000  1.000000
 FoFCou: FMM=F IPFlag=           0 FMFlag=      100000 FMFlg1=           0
         NFxFlg=           0 DoJE=T BraDBF=F KetDBF=T FulRan=T
         wScrn=  0.000000 ICntrl=       500 IOpCl=  0 I1Cent=   200000004 NGrid=           0
         NMat0=    1 NMatS0=      1 NMatT0=    0 NMatD0=    1 NMtDS0=    0 NMtDT0=    0
 Petite list used in FoFCou.
 Harris En= -1096.97715874256    
 JPrj=0 DoOrth=F DoCkMO=F.
 Leave Link  401 at Sun Jun  9 07:29:36 2024, MaxMem= 10737418240 cpu:             142.2 elap:               4.6
 (Enter /public/software/apps/Gaussian/g16/l502.exe)
 Integral symmetry usage will be decided dynamically.
 Closed shell SCF:
 Using DIIS extrapolation, IDIIS=  1040.
 NGot= 10737418240 LenX= 10731914358 LenY= 10729193508
 Requested convergence on RMS density matrix=1.00D-08 within 128 cycles.
 Requested convergence on MAX density matrix=1.00D-06.
 Requested convergence on             energy=1.00D-06.
 No special actions if energy rises.
 Fock matrices will be formed incrementally for  20 cycles.

 Cycle   1  Pass 1  IDiag  1:
 FoFJK:  IHMeth= 1 ICntrl=       0 DoSepK=F KAlg= 0 I1Cent=           0 FoldK=F
 IRaf= 900000000 NMat=       1 IRICut=       1 DoRegI=T DoRafI=F ISym2E= 0 IDoP0=0 IntGTp=1.
 FoFCou: FMM=F IPFlag=           0 FMFlag=      100000 FMFlg1=           0
         NFxFlg=           0 DoJE=F BraDBF=F KetDBF=F FulRan=T
         wScrn=  0.000000 ICntrl=         0 IOpCl=  0 I1Cent=           0 NGrid=           0
         NMat0=    1 NMatS0=      1 NMatT0=    0 NMatD0=    1 NMtDS0=    0 NMtDT0=    0
 Symmetry not used in FoFCou.
 Inv3:  Mode=1 IEnd=     8999472.
 Iteration    1 A*A^-1 deviation from unit magnitude is 3.55D-15 for     16.
 Iteration    1 A*A^-1 deviation from orthogonality  is 2.74D-15 for    994    735.
 Iteration    1 A^-1*A deviation from unit magnitude is 3.11D-15 for     83.
 Iteration    1 A^-1*A deviation from orthogonality  is 1.61D-15 for    777     45.
 E= -1096.94626291511    
 DIIS: error= 1.46D-02 at cycle   1 NSaved=   1.
 NSaved= 1 IEnMin= 1 EnMin= -1096.94626291511     IErMin= 1 ErrMin= 1.46D-02
 ErrMax= 1.46D-02  0.00D+00 EMaxC= 1.00D-01 BMatC= 7.82D-01 BMatP= 7.82D-01
 IDIUse=3 WtCom= 8.54D-01 WtEn= 1.46D-01
 Coeff-Com:  0.100D+01
 Coeff-En:   0.100D+01
 Coeff:      0.100D+01
 Gap=     0.259 Goal=   None    Shift=    0.000
 GapD=    0.259 DampG=1.000 DampE=0.500 DampFc=0.5000 IDamp=-1.
 Damping current iteration by 5.00D-01
 RMSDP=1.60D-03 MaxDP=2.58D-01              OVMax= 2.89D-01

 Cycle   2  Pass 1  IDiag  1:
 RMSU=  8.02D-04    CP:  1.00D+00
 E= -1097.10096415123     Delta-E=       -0.154701236117 Rises=F Damp=T
 DIIS: error= 3.95D-03 at cycle   2 NSaved=   2.
 NSaved= 2 IEnMin= 2 EnMin= -1097.10096415123     IErMin= 2 ErrMin= 3.95D-03
 ErrMax= 3.95D-03  0.00D+00 EMaxC= 1.00D-01 BMatC= 1.05D-01 BMatP= 7.82D-01
 IDIUse=3 WtCom= 9.60D-01 WtEn= 3.95D-02
 Coeff-Com:  0.135D+00 0.865D+00
 Coeff-En:   0.307D+00 0.693D+00
 Coeff:      0.142D+00 0.858D+00
 Gap=     0.308 Goal=   None    Shift=    0.000
 RMSDP=8.23D-04 MaxDP=1.84D-01 DE=-1.55D-01 OVMax= 1.89D-01

 Cycle   3  Pass 1  IDiag  1:
 RMSU=  7.52D-04    CP:  9.72D-01  1.39D+00
 E= -1097.41143095653     Delta-E=       -0.310466805302 Rises=F Damp=F
 DIIS: error= 4.58D-03 at cycle   3 NSaved=   3.
 NSaved= 3 IEnMin= 3 EnMin= -1097.41143095653     IErMin= 2 ErrMin= 3.95D-03
 ErrMax= 4.58D-03  0.00D+00 EMaxC= 1.00D-01 BMatC= 4.57D-02 BMatP= 1.05D-01
 IDIUse=3 WtCom= 9.54D-01 WtEn= 4.58D-02
 Coeff-Com: -0.472D-01 0.376D+00 0.672D+00
 Coeff-En:   0.000D+00 0.000D+00 0.100D+01
 Coeff:     -0.451D-01 0.358D+00 0.687D+00
 Gap=     0.298 Goal=   None    Shift=    0.000
 RMSDP=2.07D-04 MaxDP=4.30D-02 DE=-3.10D-01 OVMax= 4.40D-02

 Cycle   4  Pass 1  IDiag  1:
 RMSU=  1.97D-04    CP:  9.76D-01  1.47D+00  1.02D+00
 E= -1097.44160254112     Delta-E=       -0.030171584586 Rises=F Damp=F
 DIIS: error= 1.62D-03 at cycle   4 NSaved=   4.
 NSaved= 4 IEnMin= 4 EnMin= -1097.44160254112     IErMin= 4 ErrMin= 1.62D-03
 ErrMax= 1.62D-03  0.00D+00 EMaxC= 1.00D-01 BMatC= 7.45D-03 BMatP= 4.57D-02
 IDIUse=3 WtCom= 9.84D-01 WtEn= 1.62D-02
 Coeff-Com: -0.375D-01 0.771D-01 0.343D+00 0.617D+00
 Coeff-En:   0.000D+00 0.000D+00 0.935D-01 0.906D+00
 Coeff:     -0.369D-01 0.758D-01 0.339D+00 0.622D+00
 Gap=     0.299 Goal=   None    Shift=    0.000
 RMSDP=9.02D-05 MaxDP=2.77D-02 DE=-3.02D-02 OVMax= 1.36D-02

 Cycle   5  Pass 1  IDiag  1:
 RMSU=  6.71D-05    CP:  9.75D-01  1.48D+00  1.00D+00  7.10D-01
 E= -1097.44716819510     Delta-E=       -0.005565653984 Rises=F Damp=F
 DIIS: error= 2.68D-04 at cycle   5 NSaved=   5.
 NSaved= 5 IEnMin= 5 EnMin= -1097.44716819510     IErMin= 5 ErrMin= 2.68D-04
 ErrMax= 2.68D-04  0.00D+00 EMaxC= 1.00D-01 BMatC= 1.89D-04 BMatP= 7.45D-03
 IDIUse=3 WtCom= 9.97D-01 WtEn= 2.68D-03
 Coeff-Com: -0.120D-01 0.170D-01 0.101D+00 0.227D+00 0.667D+00
 Coeff-En:   0.000D+00 0.000D+00 0.000D+00 0.000D+00 0.100D+01
 Coeff:     -0.119D-01 0.169D-01 0.101D+00 0.226D+00 0.668D+00
 Gap=     0.300 Goal=   None    Shift=    0.000
 RMSDP=3.05D-05 MaxDP=1.08D-02 DE=-5.57D-03 OVMax= 3.98D-03

 Cycle   6  Pass 1  IDiag  1:
 RMSU=  2.15D-05    CP:  9.73D-01  1.48D+00  9.87D-01  6.42D-01  1.19D+00
 E= -1097.44730555019     Delta-E=       -0.000137355089 Rises=F Damp=F
 DIIS: error= 1.02D-04 at cycle   6 NSaved=   6.
 NSaved= 6 IEnMin= 6 EnMin= -1097.44730555019     IErMin= 6 ErrMin= 1.02D-04
 ErrMax= 1.02D-04  0.00D+00 EMaxC= 1.00D-01 BMatC= 4.46D-05 BMatP= 1.89D-04
 IDIUse=3 WtCom= 9.99D-01 WtEn= 1.02D-03
 Coeff-Com: -0.810D-03-0.143D-02 0.234D-02 0.196D-01 0.329D+00 0.651D+00
 Coeff-En:   0.000D+00 0.000D+00 0.000D+00 0.000D+00 0.579D-01 0.942D+00
 Coeff:     -0.809D-03-0.142D-02 0.234D-02 0.195D-01 0.329D+00 0.651D+00
 Gap=     0.301 Goal=   None    Shift=    0.000
 RMSDP=1.04D-05 MaxDP=3.50D-03 DE=-1.37D-04 OVMax= 1.63D-03

 Cycle   7  Pass 1  IDiag  1:
 RMSU=  6.25D-06    CP:  9.73D-01  1.48D+00  9.84D-01  6.28D-01  1.30D+00
                    CP:  1.13D+00
 E= -1097.44733961132     Delta-E=       -0.000034061127 Rises=F Damp=F
 DIIS: error= 3.54D-05 at cycle   7 NSaved=   7.
 NSaved= 7 IEnMin= 7 EnMin= -1097.44733961132     IErMin= 7 ErrMin= 3.54D-05
 ErrMax= 3.54D-05  0.00D+00 EMaxC= 1.00D-01 BMatC= 5.73D-06 BMatP= 4.46D-05
 IDIUse=1 WtCom= 1.00D+00 WtEn= 0.00D+00
 Coeff-Com:  0.146D-02-0.338D-02-0.149D-01-0.268D-01 0.698D-01 0.311D+00
 Coeff-Com:  0.663D+00
 Coeff:      0.146D-02-0.338D-02-0.149D-01-0.268D-01 0.698D-01 0.311D+00
 Coeff:      0.663D+00
 Gap=     0.301 Goal=   None    Shift=    0.000
 RMSDP=3.83D-06 MaxDP=1.21D-03 DE=-3.41D-05 OVMax= 7.71D-04

 Cycle   8  Pass 1  IDiag  1:
 RMSU=  2.21D-06    CP:  9.73D-01  1.48D+00  9.83D-01  6.24D-01  1.33D+00
                    CP:  1.20D+00  1.04D+00
 E= -1097.44734409194     Delta-E=       -0.000004480624 Rises=F Damp=F
 DIIS: error= 1.08D-05 at cycle   8 NSaved=   8.
 NSaved= 8 IEnMin= 8 EnMin= -1097.44734409194     IErMin= 8 ErrMin= 1.08D-05
 ErrMax= 1.08D-05  0.00D+00 EMaxC= 1.00D-01 BMatC= 7.59D-07 BMatP= 5.73D-06
 IDIUse=1 WtCom= 1.00D+00 WtEn= 0.00D+00
 Coeff-Com:  0.713D-03-0.117D-02-0.645D-02-0.143D-01-0.160D-01 0.389D-01
 Coeff-Com:  0.302D+00 0.696D+00
 Coeff:      0.713D-03-0.117D-02-0.645D-02-0.143D-01-0.160D-01 0.389D-01
 Coeff:      0.302D+00 0.696D+00
 Gap=     0.301 Goal=   None    Shift=    0.000
 RMSDP=1.45D-06 MaxDP=4.20D-04 DE=-4.48D-06 OVMax= 2.43D-04

 Cycle   9  Pass 1  IDiag  1:
 RMSU=  9.90D-07    CP:  9.73D-01  1.48D+00  9.82D-01  6.22D-01  1.34D+00
                    CP:  1.21D+00  1.11D+00  1.13D+00
 E= -1097.44734472720     Delta-E=       -0.000000635261 Rises=F Damp=F
 DIIS: error= 4.09D-06 at cycle   9 NSaved=   9.
 NSaved= 9 IEnMin= 9 EnMin= -1097.44734472720     IErMin= 9 ErrMin= 4.09D-06
 ErrMax= 4.09D-06  0.00D+00 EMaxC= 1.00D-01 BMatC= 8.73D-08 BMatP= 7.59D-07
 IDIUse=1 WtCom= 1.00D+00 WtEn= 0.00D+00
 Coeff-Com:  0.152D-03-0.161D-03-0.105D-02-0.317D-02-0.157D-01-0.183D-01
 Coeff-Com:  0.629D-01 0.304D+00 0.671D+00
 Coeff:      0.152D-03-0.161D-03-0.105D-02-0.317D-02-0.157D-01-0.183D-01
 Coeff:      0.629D-01 0.304D+00 0.671D+00
 Gap=     0.301 Goal=   None    Shift=    0.000
 RMSDP=5.08D-07 MaxDP=1.04D-04 DE=-6.35D-07 OVMax= 7.09D-05

 Cycle  10  Pass 1  IDiag  1:
 RMSU=  3.20D-07    CP:  9.73D-01  1.48D+00  9.82D-01  6.22D-01  1.34D+00
                    CP:  1.22D+00  1.15D+00  1.22D+00  1.11D+00
 E= -1097.44734479816     Delta-E=       -0.000000070961 Rises=F Damp=F
 DIIS: error= 1.22D-06 at cycle  10 NSaved=  10.
 NSaved=10 IEnMin=10 EnMin= -1097.44734479816     IErMin=10 ErrMin= 1.22D-06
 ErrMax= 1.22D-06  0.00D+00 EMaxC= 1.00D-01 BMatC= 7.96D-09 BMatP= 8.73D-08
 IDIUse=1 WtCom= 1.00D+00 WtEn= 0.00D+00
 Coeff-Com: -0.178D-04 0.718D-04 0.406D-03 0.583D-03-0.426D-02-0.116D-01
 Coeff-Com: -0.874D-02 0.350D-01 0.244D+00 0.745D+00
 Coeff:     -0.178D-04 0.718D-04 0.406D-03 0.583D-03-0.426D-02-0.116D-01
 Coeff:     -0.874D-02 0.350D-01 0.244D+00 0.745D+00
 Gap=     0.301 Goal=   None    Shift=    0.000
 RMSDP=1.94D-07 MaxDP=3.55D-05 DE=-7.10D-08 OVMax= 3.43D-05

 Cycle  11  Pass 1  IDiag  1:
 RMSU=  1.00D-07    CP:  9.73D-01  1.48D+00  9.82D-01  6.22D-01  1.34D+00
                    CP:  1.23D+00  1.16D+00  1.25D+00  1.20D+00  1.18D+00
 E= -1097.44734480479     Delta-E=       -0.000000006624 Rises=F Damp=F
 DIIS: error= 6.14D-07 at cycle  11 NSaved=  11.
 NSaved=11 IEnMin=11 EnMin= -1097.44734480479     IErMin=11 ErrMin= 6.14D-07
 ErrMax= 6.14D-07  0.00D+00 EMaxC= 1.00D-01 BMatC= 1.30D-09 BMatP= 7.96D-09
 IDIUse=1 WtCom= 1.00D+00 WtEn= 0.00D+00
 Coeff-Com: -0.194D-04 0.329D-04 0.266D-03 0.581D-03-0.106D-03-0.271D-02
 Coeff-Com: -0.109D-01-0.236D-01 0.738D-02 0.306D+00 0.723D+00
 Coeff:     -0.194D-04 0.329D-04 0.266D-03 0.581D-03-0.106D-03-0.271D-02
 Coeff:     -0.109D-01-0.236D-01 0.738D-02 0.306D+00 0.723D+00
 Gap=     0.301 Goal=   None    Shift=    0.000
 RMSDP=7.62D-08 MaxDP=1.80D-05 DE=-6.62D-09 OVMax= 7.59D-06

 Cycle  12  Pass 1  IDiag  1:
 RMSU=  3.75D-08    CP:  9.73D-01  1.48D+00  9.82D-01  6.22D-01  1.34D+00
                    CP:  1.23D+00  1.16D+00  1.27D+00  1.23D+00  1.28D+00
                    CP:  1.12D+00
 E= -1097.44734480585     Delta-E=       -0.000000001068 Rises=F Damp=F
 DIIS: error= 2.29D-07 at cycle  12 NSaved=  12.
 NSaved=12 IEnMin=12 EnMin= -1097.44734480585     IErMin=12 ErrMin= 2.29D-07
 ErrMax= 2.29D-07  0.00D+00 EMaxC= 1.00D-01 BMatC= 7.88D-11 BMatP= 1.30D-09
 IDIUse=1 WtCom= 1.00D+00 WtEn= 0.00D+00
 Coeff-Com: -0.280D-05 0.223D-05 0.427D-04 0.117D-03 0.326D-03 0.308D-03
 Coeff-Com: -0.225D-02-0.974D-02-0.180D-01 0.335D-01 0.234D+00 0.761D+00
 Coeff:     -0.280D-05 0.223D-05 0.427D-04 0.117D-03 0.326D-03 0.308D-03
 Coeff:     -0.225D-02-0.974D-02-0.180D-01 0.335D-01 0.234D+00 0.761D+00
 Gap=     0.301 Goal=   None    Shift=    0.000
 RMSDP=2.18D-08 MaxDP=6.74D-06 DE=-1.07D-09 OVMax= 5.23D-06

 Cycle  13  Pass 1  IDiag  1:
 RMSU=  1.06D-08    CP:  9.73D-01  1.48D+00  9.82D-01  6.22D-01  1.34D+00
                    CP:  1.23D+00  1.16D+00  1.27D+00  1.23D+00  1.30D+00
                    CP:  1.22D+00  1.21D+00
 E= -1097.44734480591     Delta-E=       -0.000000000058 Rises=F Damp=F
 DIIS: error= 8.35D-08 at cycle  13 NSaved=  13.
 NSaved=13 IEnMin=13 EnMin= -1097.44734480591     IErMin=13 ErrMin= 8.35D-08
 ErrMax= 8.35D-08  0.00D+00 EMaxC= 1.00D-01 BMatC= 1.23D-11 BMatP= 7.88D-11
 IDIUse=1 WtCom= 1.00D+00 WtEn= 0.00D+00
 Coeff-Com:  0.803D-06-0.225D-05-0.109D-04-0.183D-04 0.125D-03 0.410D-03
 Coeff-Com:  0.320D-03-0.113D-02-0.757D-02-0.251D-01-0.982D-02 0.280D+00
 Coeff-Com:  0.762D+00
 Coeff:      0.803D-06-0.225D-05-0.109D-04-0.183D-04 0.125D-03 0.410D-03
 Coeff:      0.320D-03-0.113D-02-0.757D-02-0.251D-01-0.982D-02 0.280D+00
 Coeff:      0.762D+00
 Gap=     0.301 Goal=   None    Shift=    0.000
 RMSDP=8.95D-09 MaxDP=2.40D-06 DE=-5.82D-11 OVMax= 1.39D-06

 Cycle  14  Pass 1  IDiag  1:
 RMSU=  4.20D-09    CP:  9.73D-01  1.48D+00  9.82D-01  6.22D-01  1.34D+00
                    CP:  1.23D+00  1.16D+00  1.28D+00  1.23D+00  1.31D+00
                    CP:  1.26D+00  1.31D+00  1.10D+00
 E= -1097.44734480591     Delta-E=       -0.000000000002 Rises=F Damp=F
 DIIS: error= 2.58D-08 at cycle  14 NSaved=  14.
 NSaved=14 IEnMin=14 EnMin= -1097.44734480591     IErMin=14 ErrMin= 2.58D-08
 ErrMax= 2.58D-08  0.00D+00 EMaxC= 1.00D-01 BMatC= 1.33D-12 BMatP= 1.23D-11
 IDIUse=1 WtCom= 1.00D+00 WtEn= 0.00D+00
 Coeff-Com:  0.561D-06-0.893D-06-0.941D-05-0.206D-04 0.704D-05 0.125D-03
 Coeff-Com:  0.409D-03 0.780D-03-0.371D-03-0.128D-01-0.328D-01 0.145D-01
 Coeff-Com:  0.279D+00 0.751D+00
 Coeff:      0.561D-06-0.893D-06-0.941D-05-0.206D-04 0.704D-05 0.125D-03
 Coeff:      0.409D-03 0.780D-03-0.371D-03-0.128D-01-0.328D-01 0.145D-01
 Coeff:      0.279D+00 0.751D+00
 Gap=     0.301 Goal=   None    Shift=    0.000
 RMSDP=3.35D-09 MaxDP=1.29D-06 DE=-2.05D-12 OVMax= 7.64D-07

 Cycle  15  Pass 1  IDiag  1:
 RMSU=  1.41D-09    CP:  9.73D-01  1.48D+00  9.82D-01  6.22D-01  1.34D+00
                    CP:  1.23D+00  1.16D+00  1.28D+00  1.23D+00  1.31D+00
                    CP:  1.27D+00  1.34D+00  1.20D+00  1.19D+00
 E= -1097.44734480591     Delta-E=        0.000000000001 Rises=F Damp=F
 DIIS: error= 6.43D-09 at cycle  15 NSaved=  15.
 NSaved=15 IEnMin=14 EnMin= -1097.44734480591     IErMin=15 ErrMin= 6.43D-09
 ErrMax= 6.43D-09  0.00D+00 EMaxC= 1.00D-01 BMatC= 1.49D-13 BMatP= 1.33D-12
 IDIUse=1 WtCom= 1.00D+00 WtEn= 0.00D+00
 Coeff-Com:  0.465D-07 0.224D-07-0.207D-05-0.474D-05-0.136D-04-0.628D-05
 Coeff-Com:  0.100D-03 0.404D-03 0.727D-03-0.147D-02-0.102D-01-0.302D-01
 Coeff-Com:  0.774D-03 0.252D+00 0.788D+00
 Coeff:      0.465D-07 0.224D-07-0.207D-05-0.474D-05-0.136D-04-0.628D-05
 Coeff:      0.100D-03 0.404D-03 0.727D-03-0.147D-02-0.102D-01-0.302D-01
 Coeff:      0.774D-03 0.252D+00 0.788D+00
 Gap=     0.301 Goal=   None    Shift=    0.000
 RMSDP=1.20D-09 MaxDP=4.98D-07 DE= 6.82D-13 OVMax= 1.43D-07

 Error on total polarization charges =  0.02356
 SCF Done:  E(RM062X) =  -1097.44734481     A.U. after   15 cycles
            NFock= 15  Conv=0.12D-08     -V/T= 2.0037
 KE= 1.093426780570D+03 PE=-4.439903615216D+03 EE= 1.316237974945D+03
 SMD-CDS (non-electrostatic) energy       (kcal/mol) =      -0.95
 (included in total energy above)
 Leave Link  502 at Sun Jun  9 08:24:13 2024, MaxMem= 10737418240 cpu:          103859.1 elap:            3273.6
 (Enter /public/software/apps/Gaussian/g16/l601.exe)
 Copying SCF densities to generalized density rwf, IOpCl= 0 IROHF=0.

 **********************************************************************

            Population analysis using the SCF Density.

 **********************************************************************

 Orbital symmetries:
       Occupied  (A) (A) (A) (A) (A) (A) (A) (A) (A) (A) (A) (A)
                 (A) (A) (A) (A) (A) (A) (A) (A) (A) (A) (A) (A)
                 (A) (A) (A) (A) (A) (A) (A) (A) (A) (A) (A) (A)
                 (A) (A) (A) (A) (A) (A) (A) (A) (A) (A) (A) (A)
                 (A) (A) (A)
       Virtual   (A) (A) (A) (A) (A) (A) (A) (A) (A) (A) (A) (A)
                 (A) (A) (A) (A) (A) (A) (A) (A) (A) (A) (A) (A)
                 (A) (A) (A) (A) (A) (A) (A) (A) (A) (A) (A) (A)
                 (A) (A) (A) (A) (A) (A) (A) (A) (A) (A) (A) (A)
                 (A) (A) (A) (A) (A) (A) (A) (A) (A) (A) (A) (A)
                 (A) (A) (A) (A) (A) (A) (A) (A) (A) (A) (A) (A)
                 (A) (A) (A) (A) (A) (A) (A) (A) (A) (A) (A) (A)
                 (A) (A) (A) (A) (A) (A) (A) (A) (A) (A) (A) (A)
                 (A) (A) (A) (A) (A) (A) (A) (A) (A) (A) (A) (A)
                 (A) (A) (A) (A) (A) (A) (A) (A) (A) (A) (A) (A)
                 (A) (A) (A) (A) (A) (A) (A) (A) (A) (A) (A) (A)
                 (A) (A) (A) (A) (A) (A) (A) (A) (A) (A) (A) (A)
                 (A) (A) (A) (A) (A) (A) (A) (A) (A) (A) (A) (A)
                 (A) (A) (A) (A) (A) (A) (A) (A) (A) (A) (A) (A)
                 (A) (A) (A) (A) (A) (A) (A) (A) (A) (A) (A) (A)
                 (A) (A) (A) (A) (A) (A) (A) (A) (A) (A) (A) (A)
                 (A) (A) (A) (A) (A) (A) (A) (A) (A) (A) (A) (A)
                 (A) (A) (A) (A) (A) (A) (A) (A) (A) (A) (A) (A)
                 (A) (A) (A) (A) (A) (A) (A) (A) (A) (A) (A) (A)
                 (A) (A) (A) (A) (A) (A) (A) (A) (A) (A) (A) (A)
                 (A) (A) (A) (A) (A) (A) (A) (A) (A) (A) (A) (A)
                 (A) (A) (A) (A) (A) (A) (A) (A) (A) (A) (A) (A)
                 (A) (A) (A) (A) (A) (A) (A) (A) (A) (A) (A) (A)
                 (A) (A) (A) (A) (A) (A) (A) (A) (A) (A) (A) (A)
                 (A) (A) (A) (A) (A) (A) (A) (A) (A) (A) (A) (A)
                 (A) (A) (A) (A) (A) (A) (A) (A) (A) (A) (A) (A)
                 (A) (A) (A) (A) (A) (A) (A) (A) (A) (A) (A) (A)
                 (A) (A) (A) (A) (A) (A) (A) (A) (A) (A) (A) (A)
                 (A) (A) (A) (A) (A) (A) (A) (A) (A) (A) (A) (A)
                 (A) (A) (A) (A) (A) (A) (A) (A) (A) (A) (A) (A)
                 (A) (A) (A) (A) (A) (A) (A) (A) (A) (A) (A) (A)
                 (A) (A) (A) (A) (A) (A) (A) (A) (A) (A) (A) (A)
                 (A) (A) (A) (A) (A) (A) (A) (A) (A) (A) (A) (A)
                 (A) (A) (A) (A) (A) (A) (A) (A) (A) (A) (A) (A)
                 (A) (A) (A) (A) (A) (A) (A) (A) (A) (A) (A) (A)
                 (A) (A) (A) (A) (A) (A) (A) (A) (A) (A) (A) (A)
                 (A) (A) (A) (A) (A) (A) (A) (A) (A) (A) (A) (A)
                 (A) (A) (A) (A) (A) (A) (A) (A) (A) (A) (A) (A)
                 (A) (A) (A) (A) (A) (A) (A) (A) (A) (A) (A) (A)
                 (A) (A) (A) (A) (A) (A) (A) (A) (A) (A) (A) (A)
                 (A) (A) (A) (A) (A) (A) (A) (A) (A) (A) (A) (A)
                 (A) (A) (A) (A) (A) (A) (A) (A) (A) (A) (A) (A)
                 (A) (A) (A) (A) (A) (A) (A) (A) (A) (A) (A) (A)
                 (A) (A) (A) (A) (A) (A) (A) (A) (A) (A) (A) (A)
                 (A) (A) (A) (A) (A) (A) (A) (A) (A) (A) (A) (A)
                 (A) (A) (A) (A) (A) (A) (A) (A) (A) (A) (A) (A)
                 (A) (A) (A) (A) (A) (A) (A) (A) (A) (A) (A) (A)
                 (A) (A) (A) (A) (A) (A) (A) (A) (A) (A) (A) (A)
                 (A) (A) (A) (A) (A) (A) (A) (A) (A) (A) (A) (A)
                 (A) (A) (A) (A) (A) (A) (A) (A) (A) (A) (A) (A)
                 (A) (A) (A) (A) (A) (A) (A) (A) (A) (A) (A) (A)
                 (A) (A) (A) (A) (A) (A) (A) (A) (A) (A) (A) (A)
                 (A) (A) (A) (A) (A) (A) (A) (A) (A) (A) (A) (A)
                 (A) (A) (A) (A) (A) (A) (A) (A) (A) (A) (A) (A)
                 (A) (A) (A) (A) (A) (A) (A) (A) (A) (A) (A) (A)
                 (A) (A) (A) (A) (A) (A) (A) (A) (A) (A) (A) (A)
                 (A) (A) (A) (A) (A) (A) (A) (A) (A) (A) (A) (A)
                 (A) (A) (A) (A) (A) (A) (A) (A) (A) (A) (A) (A)
                 (A) (A) (A) (A) (A) (A) (A) (A) (A) (A) (A) (A)
                 (A) (A) (A) (A) (A) (A) (A) (A) (A) (A) (A) (A)
                 (A) (A) (A) (A) (A) (A) (A) (A) (A) (A) (A) (A)
                 (A) (A) (A) (A) (A) (A) (A) (A) (A) (A) (A) (A)
                 (A) (A) (A) (A) (A) (A) (A) (A) (A) (A) (A) (A)
                 (A) (A) (A) (A) (A) (A) (A) (A) (A) (A) (A) (A)
                 (A) (A) (A) (A) (A) (A) (A) (A) (A) (A) (A) (A)
                 (A) (A) (A) (A) (A) (A) (A) (A) (A) (A) (A) (A)
                 (A) (A) (A) (A) (A) (A) (A) (A) (A) (A) (A) (A)
                 (A) (A) (A) (A) (A) (A) (A) (A) (A) (A) (A) (A)
                 (A) (A) (A) (A) (A) (A) (A) (A) (A) (A) (A) (A)
                 (A) (A) (A) (A) (A) (A) (A) (A) (A) (A) (A) (A)
                 (A) (A) (A) (A) (A) (A) (A) (A) (A) (A) (A) (A)
                 (A) (A) (A) (A) (A) (A) (A) (A) (A) (A) (A) (A)
                 (A) (A) (A) (A) (A) (A) (A) (A) (A) (A) (A) (A)
                 (A) (A) (A) (A) (A) (A) (A) (A) (A) (A) (A) (A)
                 (A) (A) (A) (A) (A) (A) (A) (A) (A) (A) (A) (A)
                 (A) (A) (A) (A) (A) (A) (A) (A) (A) (A) (A) (A)
                 (A) (A) (A) (A) (A) (A) (A) (A) (A) (A) (A) (A)
                 (A) (A) (A) (A) (A) (A) (A) (A) (A) (A) (A) (A)
                 (A) (A) (A) (A) (A) (A) (A) (A) (A) (A) (A) (A)
                 (A) (A) (A) (A) (A) (A) (A) (A) (A) (A) (A) (A)
                 (A) (A) (A) (A) (A) (A) (A) (A) (A) (A) (A) (A)
                 (A) (A) (A) (A) (A) (A) (A) (A) (A) (A) (A) (A)
                 (A) (A) (A) (A) (A) (A) (A) (A) (A) (A) (A) (A)
                 (A) (A) (A) (A) (A) (A) (A) (A) (A) (A) (A) (A)
                 (A) (A) (A) (A) (A) (A) (A) (A) (A) (A) (A) (A)
                 (A) (A) (A) (A) (A) (A) (A) (A) (A) (A) (A) (A)
                 (A) (A) (A) (A) (A) (A) (A) (A) (A) (A) (A) (A)
                 (A) (A) (A) (A) (A) (A) (A) (A) (A) (A) (A) (A)
                 (A) (A) (A) (A) (A) (A) (A) (A) (A) (A) (A) (A)
                 (A) (A) (A) (A) (A) (A) (A) (A) (A) (A) (A) (A)
                 (A) (A) (A) (A) (A) (A) (A) (A) (A) (A) (A) (A)
                 (A) (A) (A) (A) (A) (A) (A) (A) (A) (A) (A) (A)
                 (A) (A) (A) (A) (A) (A) (A) (A) (A) (A) (A) (A)
                 (A) (A) (A) (A) (A) (A) (A) (A) (A) (A) (A) (A)
                 (A) (A) (A) (A) (A) (A) (A) (A) (A) (A) (A) (A)
                 (A) (A) (A) (A) (A) (A) (A) (A) (A) (A) (A) (A)
                 (A) (A) (A) (A) (A) (A) (A) (A) (A) (A) (A) (A)
                 (A) (A) (A) (A) (A) (A) (A) (A) (A) (A) (A) (A)
                 (A) (A) (A) (A) (A) (A) (A) (A) (A) (A) (A) (A)
                 (A) (A) (A) (A) (A) (A) (A) (A) (A) (A) (A) (A)
                 (A) (A) (A) (A) (A) (A) (A) (A) (A) (A) (A) (A)
                 (A) (A) (A) (A) (A) (A) (A) (A) (A) (A) (A) (A)
                 (A) (A) (A) (A) (A) (A) (A) (A) (A)
 The electronic state is 1-A.
 Alpha  occ. eigenvalues --  -90.23370 -25.34695 -25.34684 -25.34209 -19.71782
 Alpha  occ. eigenvalues --  -19.71757 -14.91853 -10.90958 -10.70699 -10.64649
 Alpha  occ. eigenvalues --  -10.63794 -10.58808  -8.53620  -6.46034  -6.45588
 Alpha  occ. eigenvalues --   -6.45582  -1.54401  -1.45115  -1.44755  -1.32109
 Alpha  occ. eigenvalues --   -1.21975  -1.17889  -0.97609  -0.94032  -0.90104
 Alpha  occ. eigenvalues --   -0.83171  -0.79705  -0.79048  -0.77001  -0.76062
 Alpha  occ. eigenvalues --   -0.69590  -0.65106  -0.64048  -0.63969  -0.63548
 Alpha  occ. eigenvalues --   -0.62772  -0.60836  -0.60555  -0.60331  -0.58184
 Alpha  occ. eigenvalues --   -0.57013  -0.56053  -0.55821  -0.53684  -0.51730
 Alpha  occ. eigenvalues --   -0.50306  -0.49311  -0.48785  -0.47840  -0.47422
 Alpha  occ. eigenvalues --   -0.39593
 Alpha virt. eigenvalues --   -0.09488  -0.07827  -0.02912  -0.01189  -0.00931
 Alpha virt. eigenvalues --   -0.00596  -0.00472   0.00853   0.01075   0.01195
 Alpha virt. eigenvalues --    0.01703   0.01900   0.02120   0.03154   0.03581
 Alpha virt. eigenvalues --    0.03699   0.04326   0.04700   0.04850   0.05511
 Alpha virt. eigenvalues --    0.05983   0.06227   0.06585   0.07194   0.07275
 Alpha virt. eigenvalues --    0.07471   0.07999   0.08533   0.08679   0.09115
 Alpha virt. eigenvalues --    0.09236   0.09622   0.09920   0.10309   0.10878
 Alpha virt. eigenvalues --    0.11274   0.11567   0.11954   0.12257   0.12829
 Alpha virt. eigenvalues --    0.13174   0.13408   0.13814   0.14617   0.14859
 Alpha virt. eigenvalues --    0.15176   0.15500   0.16017   0.16243   0.16597
 Alpha virt. eigenvalues --    0.16949   0.17578   0.17793   0.18180   0.18917
 Alpha virt. eigenvalues --    0.18986   0.19332   0.19656   0.19877   0.20255
 Alpha virt. eigenvalues --    0.20431   0.20681   0.20866   0.21311   0.21609
 Alpha virt. eigenvalues --    0.21762   0.21903   0.22420   0.22610   0.23206
 Alpha virt. eigenvalues --    0.23673   0.23829   0.24124   0.24440   0.24633
 Alpha virt. eigenvalues --    0.24877   0.25578   0.25731   0.25917   0.26158
 Alpha virt. eigenvalues --    0.26435   0.26659   0.27396   0.27463   0.27829
 Alpha virt. eigenvalues --    0.28423   0.28543   0.29001   0.29471   0.30125
 Alpha virt. eigenvalues --    0.30558   0.31009   0.31267   0.31888   0.31968
 Alpha virt. eigenvalues --    0.32482   0.32698   0.32881   0.33255   0.33994
 Alpha virt. eigenvalues --    0.34189   0.34516   0.34713   0.35295   0.35687
 Alpha virt. eigenvalues --    0.36327   0.36561   0.36892   0.37017   0.37711
 Alpha virt. eigenvalues --    0.37858   0.38316   0.38806   0.39094   0.39701
 Alpha virt. eigenvalues --    0.39999   0.40238   0.40436   0.40893   0.41261
 Alpha virt. eigenvalues --    0.41980   0.42576   0.42859   0.43514   0.43596
 Alpha virt. eigenvalues --    0.44400   0.44707   0.45747   0.45889   0.46587
 Alpha virt. eigenvalues --    0.46716   0.46886   0.47462   0.48230   0.48764
 Alpha virt. eigenvalues --    0.49042   0.49363   0.49557   0.50649   0.51665
 Alpha virt. eigenvalues --    0.51854   0.52085   0.52268   0.53172   0.53992
 Alpha virt. eigenvalues --    0.54433   0.55070   0.55492   0.55927   0.56199
 Alpha virt. eigenvalues --    0.56541   0.57475   0.58277   0.58638   0.58962
 Alpha virt. eigenvalues --    0.59561   0.59904   0.60079   0.61385   0.61482
 Alpha virt. eigenvalues --    0.61753   0.62532   0.62848   0.63056   0.63524
 Alpha virt. eigenvalues --    0.63818   0.64150   0.64921   0.65387   0.65737
 Alpha virt. eigenvalues --    0.65856   0.66574   0.66967   0.67093   0.67751
 Alpha virt. eigenvalues --    0.68070   0.68537   0.69224   0.69604   0.69755
 Alpha virt. eigenvalues --    0.70399   0.70771   0.71112   0.71504   0.72693
 Alpha virt. eigenvalues --    0.73041   0.73473   0.74033   0.74352   0.74556
 Alpha virt. eigenvalues --    0.75044   0.75163   0.75586   0.76095   0.76915
 Alpha virt. eigenvalues --    0.77447   0.77880   0.78204   0.78464   0.79267
 Alpha virt. eigenvalues --    0.79895   0.80328   0.80475   0.80637   0.81318
 Alpha virt. eigenvalues --    0.81647   0.82579   0.83230   0.83350   0.84091
 Alpha virt. eigenvalues --    0.84163   0.84628   0.85193   0.85256   0.85706
 Alpha virt. eigenvalues --    0.86131   0.86887   0.87194   0.87748   0.88435
 Alpha virt. eigenvalues --    0.89118   0.89379   0.90077   0.90202   0.90234
 Alpha virt. eigenvalues --    0.90730   0.91415   0.92479   0.92710   0.93199
 Alpha virt. eigenvalues --    0.93899   0.94313   0.94859   0.95557   0.95920
 Alpha virt. eigenvalues --    0.96302   0.96921   0.97288   0.97586   0.97999
 Alpha virt. eigenvalues --    0.99180   0.99416   1.00319   1.00457   1.00732
 Alpha virt. eigenvalues --    1.01519   1.01680   1.02183   1.02998   1.03114
 Alpha virt. eigenvalues --    1.03590   1.04045   1.04342   1.04981   1.05763
 Alpha virt. eigenvalues --    1.06481   1.06741   1.07374   1.07803   1.07942
 Alpha virt. eigenvalues --    1.08982   1.09424   1.09734   1.10293   1.10875
 Alpha virt. eigenvalues --    1.11514   1.11870   1.12174   1.12424   1.12720
 Alpha virt. eigenvalues --    1.13211   1.13759   1.14440   1.15191   1.15379
 Alpha virt. eigenvalues --    1.15648   1.16595   1.17098   1.17873   1.18812
 Alpha virt. eigenvalues --    1.18958   1.19686   1.20216   1.20835   1.21401
 Alpha virt. eigenvalues --    1.21937   1.22710   1.23843   1.24198   1.25023
 Alpha virt. eigenvalues --    1.25303   1.25942   1.26126   1.26716   1.27557
 Alpha virt. eigenvalues --    1.28830   1.29566   1.30400   1.31088   1.32132
 Alpha virt. eigenvalues --    1.32386   1.33062   1.33323   1.33683   1.34400
 Alpha virt. eigenvalues --    1.35147   1.35583   1.36367   1.36520   1.37662
 Alpha virt. eigenvalues --    1.38236   1.38732   1.39912   1.40908   1.41131
 Alpha virt. eigenvalues --    1.41663   1.42514   1.43089   1.43512   1.43918
 Alpha virt. eigenvalues --    1.45262   1.45287   1.46352   1.46514   1.47474
 Alpha virt. eigenvalues --    1.48471   1.48729   1.49814   1.50310   1.50681
 Alpha virt. eigenvalues --    1.51340   1.51991   1.52149   1.52421   1.53020
 Alpha virt. eigenvalues --    1.54115   1.54412   1.54878   1.55860   1.56292
 Alpha virt. eigenvalues --    1.57662   1.58022   1.58806   1.59848   1.60369
 Alpha virt. eigenvalues --    1.60735   1.61636   1.61864   1.63188   1.63895
 Alpha virt. eigenvalues --    1.64825   1.65253   1.65865   1.66879   1.66929
 Alpha virt. eigenvalues --    1.67455   1.68389   1.68580   1.69937   1.70264
 Alpha virt. eigenvalues --    1.71603   1.71862   1.72586   1.72822   1.74287
 Alpha virt. eigenvalues --    1.75179   1.75788   1.76663   1.77186   1.77702
 Alpha virt. eigenvalues --    1.78555   1.78913   1.79137   1.80136   1.81249
 Alpha virt. eigenvalues --    1.81427   1.81668   1.82389   1.82758   1.83095
 Alpha virt. eigenvalues --    1.83798   1.84305   1.84839   1.85230   1.85620
 Alpha virt. eigenvalues --    1.85945   1.86889   1.87597   1.88710   1.88973
 Alpha virt. eigenvalues --    1.89412   1.89914   1.90400   1.90991   1.91263
 Alpha virt. eigenvalues --    1.92166   1.92579   1.92913   1.93364   1.93973
 Alpha virt. eigenvalues --    1.94405   1.94743   1.95304   1.95828   1.96214
 Alpha virt. eigenvalues --    1.96463   1.96667   1.97419   1.97885   1.98968
 Alpha virt. eigenvalues --    1.99425   1.99898   2.00253   2.01003   2.01379
 Alpha virt. eigenvalues --    2.01789   2.01949   2.02996   2.03349   2.03675
 Alpha virt. eigenvalues --    2.04335   2.04688   2.05142   2.05325   2.05605
 Alpha virt. eigenvalues --    2.06523   2.07088   2.07715   2.08064   2.08339
 Alpha virt. eigenvalues --    2.08896   2.09488   2.09730   2.10364   2.10709
 Alpha virt. eigenvalues --    2.11226   2.12300   2.12683   2.13235   2.13512
 Alpha virt. eigenvalues --    2.14166   2.14797   2.15242   2.15784   2.16213
 Alpha virt. eigenvalues --    2.17019   2.17743   2.18179   2.18653   2.19530
 Alpha virt. eigenvalues --    2.19994   2.20508   2.20728   2.21945   2.22307
 Alpha virt. eigenvalues --    2.23133   2.23404   2.23867   2.24757   2.25329
 Alpha virt. eigenvalues --    2.25861   2.26409   2.26673   2.27982   2.28395
 Alpha virt. eigenvalues --    2.28789   2.30006   2.30223   2.30995   2.31470
 Alpha virt. eigenvalues --    2.31839   2.32601   2.33228   2.33354   2.34577
 Alpha virt. eigenvalues --    2.35349   2.35593   2.35929   2.36716   2.37498
 Alpha virt. eigenvalues --    2.37943   2.38892   2.39136   2.39774   2.40558
 Alpha virt. eigenvalues --    2.41421   2.41966   2.42489   2.43620   2.44461
 Alpha virt. eigenvalues --    2.45058   2.45692   2.46979   2.47714   2.48138
 Alpha virt. eigenvalues --    2.48837   2.49448   2.50069   2.50717   2.51476
 Alpha virt. eigenvalues --    2.52382   2.53094   2.53837   2.54623   2.55256
 Alpha virt. eigenvalues --    2.56349   2.56542   2.56745   2.57701   2.58749
 Alpha virt. eigenvalues --    2.59798   2.60330   2.60495   2.60977   2.62292
 Alpha virt. eigenvalues --    2.63442   2.64039   2.64936   2.65894   2.66303
 Alpha virt. eigenvalues --    2.66875   2.68513   2.68746   2.70233   2.70344
 Alpha virt. eigenvalues --    2.70685   2.71862   2.72156   2.73281   2.73688
 Alpha virt. eigenvalues --    2.74331   2.75063   2.75507   2.76394   2.77091
 Alpha virt. eigenvalues --    2.77613   2.77951   2.79407   2.80900   2.81666
 Alpha virt. eigenvalues --    2.81908   2.82340   2.83008   2.83924   2.85183
 Alpha virt. eigenvalues --    2.85403   2.86606   2.87771   2.87965   2.88610
 Alpha virt. eigenvalues --    2.89070   2.89836   2.90176   2.91064   2.92082
 Alpha virt. eigenvalues --    2.92586   2.93182   2.93704   2.94188   2.95012
 Alpha virt. eigenvalues --    2.95976   2.97974   2.98304   2.99257   3.00049
 Alpha virt. eigenvalues --    3.00529   3.01680   3.02446   3.03883   3.04872
 Alpha virt. eigenvalues --    3.05495   3.06301   3.06685   3.07941   3.09044
 Alpha virt. eigenvalues --    3.09748   3.10774   3.11369   3.12019   3.13531
 Alpha virt. eigenvalues --    3.13931   3.15026   3.16437   3.17472   3.18754
 Alpha virt. eigenvalues --    3.18940   3.19867   3.20806   3.22509   3.23827
 Alpha virt. eigenvalues --    3.24937   3.26775   3.27589   3.28469   3.30039
 Alpha virt. eigenvalues --    3.30582   3.31800   3.33103   3.34507   3.35688
 Alpha virt. eigenvalues --    3.36419   3.37973   3.38111   3.38767   3.39353
 Alpha virt. eigenvalues --    3.41603   3.41974   3.42555   3.43220   3.45720
 Alpha virt. eigenvalues --    3.46069   3.46379   3.48534   3.49379   3.50192
 Alpha virt. eigenvalues --    3.51614   3.53275   3.53807   3.54193   3.54789
 Alpha virt. eigenvalues --    3.56359   3.56969   3.59177   3.59931   3.62070
 Alpha virt. eigenvalues --    3.63472   3.64467   3.65280   3.66121   3.67208
 Alpha virt. eigenvalues --    3.67418   3.68851   3.69498   3.69983   3.71182
 Alpha virt. eigenvalues --    3.71292   3.72560   3.73310   3.74074   3.74776
 Alpha virt. eigenvalues --    3.75664   3.76393   3.76704   3.77399   3.79336
 Alpha virt. eigenvalues --    3.79879   3.80582   3.81427   3.81525   3.82752
 Alpha virt. eigenvalues --    3.83268   3.83946   3.84600   3.86081   3.87319
 Alpha virt. eigenvalues --    3.87841   3.89981   3.90633   3.91130   3.91859
 Alpha virt. eigenvalues --    3.92698   3.93439   3.94098   3.94810   3.96039
 Alpha virt. eigenvalues --    3.96467   3.97333   3.98087   3.98308   3.99632
 Alpha virt. eigenvalues --    4.00605   4.01477   4.02114   4.02716   4.03500
 Alpha virt. eigenvalues --    4.05584   4.06270   4.07150   4.07997   4.08321
 Alpha virt. eigenvalues --    4.10062   4.10258   4.11010   4.11981   4.12173
 Alpha virt. eigenvalues --    4.13186   4.13908   4.14052   4.15541   4.15896
 Alpha virt. eigenvalues --    4.17922   4.18717   4.19428   4.20325   4.21322
 Alpha virt. eigenvalues --    4.22346   4.23949   4.24963   4.25905   4.27401
 Alpha virt. eigenvalues --    4.27823   4.28601   4.29564   4.30160   4.32900
 Alpha virt. eigenvalues --    4.33313   4.34364   4.35310   4.35649   4.36528
 Alpha virt. eigenvalues --    4.37539   4.38230   4.38591   4.40213   4.40576
 Alpha virt. eigenvalues --    4.41850   4.42038   4.45368   4.46512   4.48365
 Alpha virt. eigenvalues --    4.48642   4.50583   4.52541   4.52986   4.54334
 Alpha virt. eigenvalues --    4.55497   4.55953   4.57745   4.59159   4.59763
 Alpha virt. eigenvalues --    4.61044   4.62747   4.63736   4.64471   4.65492
 Alpha virt. eigenvalues --    4.66166   4.67211   4.67787   4.68882   4.70059
 Alpha virt. eigenvalues --    4.71187   4.72318   4.72864   4.75306   4.76130
 Alpha virt. eigenvalues --    4.77151   4.78278   4.78385   4.79762   4.80687
 Alpha virt. eigenvalues --    4.81358   4.82401   4.84260   4.85273   4.86915
 Alpha virt. eigenvalues --    4.87965   4.89140   4.90407   4.90896   4.92828
 Alpha virt. eigenvalues --    4.93443   4.93796   4.95948   4.98690   4.99802
 Alpha virt. eigenvalues --    5.01590   5.03098   5.04874   5.07776   5.08694
 Alpha virt. eigenvalues --    5.09447   5.12504   5.13217   5.14985   5.16624
 Alpha virt. eigenvalues --    5.18998   5.20257   5.20891   5.24371   5.25564
 Alpha virt. eigenvalues --    5.27498   5.27643   5.29308   5.32261   5.34421
 Alpha virt. eigenvalues --    5.36044   5.36800   5.37464   5.41165   5.41439
 Alpha virt. eigenvalues --    5.41979   5.43245   5.43580   5.46651   5.47393
 Alpha virt. eigenvalues --    5.49379   5.50896   5.53069   5.54190   5.56520
 Alpha virt. eigenvalues --    5.57879   5.58086   5.59255   5.60107   5.60504
 Alpha virt. eigenvalues --    5.62637   5.63426   5.64045   5.66397   5.68128
 Alpha virt. eigenvalues --    5.69683   5.71903   5.73483   5.73855   5.74843
 Alpha virt. eigenvalues --    5.75798   5.76990   5.78440   5.79205   5.79653
 Alpha virt. eigenvalues --    5.80407   5.81410   5.82423   5.84011   5.84316
 Alpha virt. eigenvalues --    5.85189   5.87594   5.88090   5.89389   5.89758
 Alpha virt. eigenvalues --    5.90197   5.91120   5.92293   5.94209   5.94714
 Alpha virt. eigenvalues --    5.96005   5.96260   5.97726   5.98918   6.00556
 Alpha virt. eigenvalues --    6.02472   6.03241   6.04865   6.05957   6.09324
 Alpha virt. eigenvalues --    6.11813   6.12627   6.14473   6.16254   6.17751
 Alpha virt. eigenvalues --    6.19277   6.20932   6.22602   6.24016   6.26260
 Alpha virt. eigenvalues --    6.26961   6.27498   6.28803   6.29979   6.30192
 Alpha virt. eigenvalues --    6.31470   6.32870   6.33847   6.34040   6.35001
 Alpha virt. eigenvalues --    6.35666   6.38007   6.38573   6.39470   6.40439
 Alpha virt. eigenvalues --    6.41045   6.42300   6.43170   6.44175   6.45825
 Alpha virt. eigenvalues --    6.46226   6.48229   6.48614   6.49972   6.50183
 Alpha virt. eigenvalues --    6.51129   6.52379   6.53225   6.53852   6.55599
 Alpha virt. eigenvalues --    6.56319   6.57762   6.59123   6.60507   6.61819
 Alpha virt. eigenvalues --    6.62530   6.63648   6.64880   6.65230   6.66021
 Alpha virt. eigenvalues --    6.66377   6.67090   6.68076   6.69139   6.71187
 Alpha virt. eigenvalues --    6.72129   6.72849   6.74234   6.75660   6.76372
 Alpha virt. eigenvalues --    6.77484   6.79219   6.81054   6.82726   6.84565
 Alpha virt. eigenvalues --    6.85975   6.88266   6.91006   6.92017   6.93471
 Alpha virt. eigenvalues --    6.95334   6.95652   6.97896   6.99656   7.00243
 Alpha virt. eigenvalues --    7.02383   7.02631   7.06682   7.09674   7.10820
 Alpha virt. eigenvalues --    7.12739   7.16510   7.17809   7.19806   7.20088
 Alpha virt. eigenvalues --    7.22265   7.22731   7.23572   7.26084   7.26795
 Alpha virt. eigenvalues --    7.27423   7.28052   7.29796   7.32540   7.34002
 Alpha virt. eigenvalues --    7.34774   7.36261   7.36751   7.38412   7.40044
 Alpha virt. eigenvalues --    7.42473   7.43410   7.44283   7.45569   7.46407
 Alpha virt. eigenvalues --    7.48929   7.50309   7.52663   7.53190   7.55166
 Alpha virt. eigenvalues --    7.57239   7.60237   7.61308   7.63845   7.64504
 Alpha virt. eigenvalues --    7.72861   7.73938   7.77507   7.79644   7.81115
 Alpha virt. eigenvalues --    7.83669   7.84615   7.86763   7.92659   7.97093
 Alpha virt. eigenvalues --    7.98249   7.99746   8.02010   8.02936   8.04502
 Alpha virt. eigenvalues --    8.06607   8.08140   8.08828   8.09538   8.11063
 Alpha virt. eigenvalues --    8.12356   8.13813   8.14763   8.17068   8.17885
 Alpha virt. eigenvalues --    8.18396   8.20534   8.22079   8.24694   8.25128
 Alpha virt. eigenvalues --    8.29542   8.30968   8.35683   8.39838   8.43100
 Alpha virt. eigenvalues --    8.45331   8.49279   8.50743   8.52277   8.55154
 Alpha virt. eigenvalues --    8.57784   8.59128   8.59823   8.61355   8.63592
 Alpha virt. eigenvalues --    8.63996   8.65403   8.67867   8.70705   8.71082
 Alpha virt. eigenvalues --    8.75505   8.76178   8.76888   8.78602   8.79532
 Alpha virt. eigenvalues --    8.80465   8.81440   8.82155   8.85753   8.88189
 Alpha virt. eigenvalues --    8.89436   8.90699   8.92111   8.93561   8.97961
 Alpha virt. eigenvalues --    9.00232   9.01062   9.02103   9.05065   9.06631
 Alpha virt. eigenvalues --    9.07242   9.08934   9.11597   9.12718   9.13790
 Alpha virt. eigenvalues --    9.14388   9.17258   9.19617   9.20914   9.23646
 Alpha virt. eigenvalues --    9.26519   9.28958   9.32869   9.34138   9.36967
 Alpha virt. eigenvalues --    9.41603   9.42040   9.45418   9.49298   9.51037
 Alpha virt. eigenvalues --    9.52029   9.55542   9.58869   9.59643   9.60301
 Alpha virt. eigenvalues --    9.62824   9.67553   9.68256   9.71515   9.72244
 Alpha virt. eigenvalues --    9.73668   9.73846   9.77665   9.78550   9.80868
 Alpha virt. eigenvalues --    9.82350   9.86639   9.89073   9.92883  10.00956
 Alpha virt. eigenvalues --   10.08805  10.11259  10.14165  10.16163  10.19841
 Alpha virt. eigenvalues --   10.21555  10.21748  10.23820  10.26154  10.29367
 Alpha virt. eigenvalues --   10.30274  10.31474  10.32322  10.33395  10.35339
 Alpha virt. eigenvalues --   10.35987  10.36686  10.38478  10.39611  10.41935
 Alpha virt. eigenvalues --   10.43239  10.46239  10.47408  10.48757  10.50856
 Alpha virt. eigenvalues --   10.51454  10.52187  10.54520  10.58781  10.59462
 Alpha virt. eigenvalues --   10.60280  10.63868  10.65256  10.73352  10.74603
 Alpha virt. eigenvalues --   10.79619  10.87614  10.95591  11.00209  11.05232
 Alpha virt. eigenvalues --   11.09417  11.11898  11.26511  11.31042  11.33152
 Alpha virt. eigenvalues --   11.34248  11.37180  11.40659  11.49506  11.53275
 Alpha virt. eigenvalues --   11.60054  11.62556  11.68021  11.84120  12.05428
 Alpha virt. eigenvalues --   12.09993  12.13224  12.16739  12.22151  12.32169
 Alpha virt. eigenvalues --   12.43246  12.44613  12.48904  12.49637  12.51882
 Alpha virt. eigenvalues --   12.59293  12.61036  12.61971  12.63844  12.66395
 Alpha virt. eigenvalues --   12.67398  12.70469  12.71330  12.73926  12.83517
 Alpha virt. eigenvalues --   12.94453  12.95452  13.01344  13.01614  13.03383
 Alpha virt. eigenvalues --   13.04633  13.07163  13.08351  13.17278  13.19215
 Alpha virt. eigenvalues --   13.23160  13.34550  13.35697  13.37301  13.37664
 Alpha virt. eigenvalues --   13.40029  13.42614  13.43657  13.45657  13.47680
 Alpha virt. eigenvalues --   13.49541  13.50191  13.50715  13.52043  13.53622
 Alpha virt. eigenvalues --   13.53836  13.57555  13.58260  13.62200  13.65197
 Alpha virt. eigenvalues --   13.66767  13.69237  13.75004  13.82840  14.00429
 Alpha virt. eigenvalues --   14.06948  14.15435  14.34309  14.40610  14.54119
 Alpha virt. eigenvalues --   15.10562  15.13438  15.17925  15.18364  15.23110
 Alpha virt. eigenvalues --   15.27283  15.30504  15.36817  15.38784  15.41711
 Alpha virt. eigenvalues --   15.47620  15.52293  15.72850  15.78652  15.81760
 Alpha virt. eigenvalues --   15.82590  16.03716  16.08126  16.16014  16.18234
 Alpha virt. eigenvalues --   16.18921  16.36093  16.38410  16.43321  16.46819
 Alpha virt. eigenvalues --   16.55154  16.60222  16.76629  16.78020  16.82187
 Alpha virt. eigenvalues --   16.90020  16.96384  17.00262  17.23248  17.28894
 Alpha virt. eigenvalues --   17.40579  25.31079  25.50829  26.11580  27.22997
 Alpha virt. eigenvalues --   27.69606  27.84623  33.45599  42.89817  43.02473
 Alpha virt. eigenvalues --   55.00635  55.22810  57.00239
          Condensed to atoms (all electrons):
               1          2          3          4          5          6
     1  N    8.693170  -0.525675  -0.156555   0.007222  -0.057338  -0.108648
     2  C   -0.525675   5.555621  -0.201083  -0.019497   0.032458  -0.001934
     3  S   -0.156555  -0.201083  14.216170   0.145897   0.153431   0.158599
     4  O    0.007222  -0.019497   0.145897   8.858564  -0.080493  -0.018381
     5  O   -0.057338   0.032458   0.153431  -0.080493   8.866703   0.008200
     6  C   -0.108648  -0.001934   0.158599  -0.018381   0.008200   7.065614
     7  H   -0.012010   0.011371  -0.098026   0.008373   0.007793   0.205145
     8  H   -0.002634  -0.005132   0.131144  -0.019616  -0.027727   0.159765
     9  H   -0.018982   0.000578  -0.106114  -0.002564   0.012527   0.217443
    10  C   -0.062149  -0.247738  -0.096993   0.006148  -0.015183  -0.018869
    11  C   -0.411594  -0.066573  -0.032658   0.023814  -0.003768  -0.006079
    12  C   -0.007755   0.000413  -0.005885  -0.000483  -0.000813  -0.002941
    13  H    0.003668   0.000245   0.000489  -0.000051  -0.000098  -0.000147
    14  H    0.001191  -0.000815  -0.001367  -0.000739   0.000063   0.003517
    15  F   -0.014895   0.105831  -0.002925  -0.001071  -0.000334   0.001132
    16  F   -0.074303   0.075418  -0.000895  -0.000899  -0.001014  -0.002977
    17  F   -0.127445   0.152974   0.006658  -0.003099   0.004624  -0.015408
    18  H   -0.019558  -0.007907   0.002423   0.000191  -0.000348  -0.000307
    19  H    0.005292   0.000815  -0.003351  -0.000871   0.000049   0.000876
               7          8          9         10         11         12
     1  N   -0.012010  -0.002634  -0.018982  -0.062149  -0.411594  -0.007755
     2  C    0.011371  -0.005132   0.000578  -0.247738  -0.066573   0.000413
     3  S   -0.098026   0.131144  -0.106114  -0.096993  -0.032658  -0.005885
     4  O    0.008373  -0.019616  -0.002564   0.006148   0.023814  -0.000483
     5  O    0.007793  -0.027727   0.012527  -0.015183  -0.003768  -0.000813
     6  C    0.205145   0.159765   0.217443  -0.018869  -0.006079  -0.002941
     7  H    0.263009  -0.052841   0.024505  -0.002484  -0.000472  -0.000010
     8  H   -0.052841   0.356758  -0.079865   0.003983   0.003115   0.000265
     9  H    0.024505  -0.079865   0.302761   0.000311  -0.003343  -0.000037
    10  C   -0.002484   0.003983   0.000311   5.112463   0.515825  -0.135211
    11  C   -0.000472   0.003115  -0.003343   0.515825   6.598062  -0.091346
    12  C   -0.000010   0.000265  -0.000037  -0.135211  -0.091346   7.450131
    13  H    0.000007  -0.000028   0.000347   0.017843  -0.037334   0.207441
    14  H    0.000175   0.000018   0.001063   0.012570  -0.011335   0.206930
    15  F    0.001573  -0.000164  -0.001693  -0.041188   0.004262   0.007160
    16  F   -0.000329  -0.000034  -0.000099   0.019631   0.009249   0.000069
    17  F    0.008122  -0.003914   0.003529  -0.020575  -0.008783  -0.000617
    18  H   -0.000090   0.000123   0.000206  -0.016264   0.172761  -0.038329
    19  H   -0.000099   0.000282  -0.001014  -0.002109  -0.029680   0.232345
              13         14         15         16         17         18
     1  N    0.003668   0.001191  -0.014895  -0.074303  -0.127445  -0.019558
     2  C    0.000245  -0.000815   0.105831   0.075418   0.152974  -0.007907
     3  S    0.000489  -0.001367  -0.002925  -0.000895   0.006658   0.002423
     4  O   -0.000051  -0.000739  -0.001071  -0.000899  -0.003099   0.000191
     5  O   -0.000098   0.000063  -0.000334  -0.001014   0.004624  -0.000348
     6  C   -0.000147   0.003517   0.001132  -0.002977  -0.015408  -0.000307
     7  H    0.000007   0.000175   0.001573  -0.000329   0.008122  -0.000090
     8  H   -0.000028   0.000018  -0.000164  -0.000034  -0.003914   0.000123
     9  H    0.000347   0.001063  -0.001693  -0.000099   0.003529   0.000206
    10  C    0.017843   0.012570  -0.041188   0.019631  -0.020575  -0.016264
    11  C   -0.037334  -0.011335   0.004262   0.009249  -0.008783   0.172761
    12  C    0.207441   0.206930   0.007160   0.000069  -0.000617  -0.038329
    13  H    0.223543  -0.002648  -0.000527  -0.000114  -0.000035   0.004951
    14  H   -0.002648   0.239674  -0.000238  -0.000164   0.000306   0.001249
    15  F   -0.000527  -0.000238   9.395688  -0.042116  -0.033515  -0.001445
    16  F   -0.000114  -0.000164  -0.042116   9.434163  -0.009545  -0.000427
    17  F   -0.000035   0.000306  -0.033515  -0.009545   9.430962  -0.000151
    18  H    0.004951   0.001249  -0.001445  -0.000427  -0.000151   0.240639
    19  H    0.008638   0.004056   0.000797   0.000063  -0.000077  -0.014141
              19
     1  N    0.005292
     2  C    0.000815
     3  S   -0.003351
     4  O   -0.000871
     5  O    0.000049
     6  C    0.000876
     7  H   -0.000099
     8  H    0.000282
     9  H   -0.001014
    10  C   -0.002109
    11  C   -0.029680
    12  C    0.232345
    13  H    0.008638
    14  H    0.004056
    15  F    0.000797
    16  F    0.000063
    17  F   -0.000077
    18  H   -0.014141
    19  H    0.251492
 Mulliken charges:
               1
     1  N   -0.111001
     2  C    1.140630
     3  S    1.891038
     4  O   -0.902446
     5  O   -0.898732
     6  C   -1.644602
     7  H    0.636287
     8  H    0.536502
     9  H    0.650440
    10  C    0.969989
    11  C   -0.624122
    12  C   -1.821328
    13  H    0.573810
    14  H    0.546495
    15  F   -0.376332
    16  F   -0.405678
    17  F   -0.384010
    18  H    0.676422
    19  H    0.546637
 Sum of Mulliken charges =   1.00000
 Mulliken charges with hydrogens summed into heavy atoms:
               1
     1  N   -0.111001
     2  C    1.140630
     3  S    1.891038
     4  O   -0.902446
     5  O   -0.898732
     6  C    0.178627
    10  C    0.969989
    11  C    0.052301
    12  C   -0.154386
    15  F   -0.376332
    16  F   -0.405678
    17  F   -0.384010
 Electronic spatial extent (au):  <R**2>=           2236.3251
 Charge=              1.0000 electrons
 Dipole moment (field-independent basis, Debye):
    X=              5.5405    Y=             -3.2514    Z=              4.1037  Tot=              7.6230
 Quadrupole moment (field-independent basis, Debye-Ang):
   XX=            -45.3031   YY=            -67.9550   ZZ=            -63.4499
   XY=             -0.3048   XZ=            -10.1481   YZ=             -7.3867
 Traceless Quadrupole moment (field-independent basis, Debye-Ang):
   XX=             13.5996   YY=             -9.0524   ZZ=             -4.5472
   XY=             -0.3048   XZ=            -10.1481   YZ=             -7.3867
 Octapole moment (field-independent basis, Debye-Ang**2):
  XXX=             71.0040  YYY=             24.6429  ZZZ=              9.6713  XYY=            -12.6180
  XXY=            -24.1587  XXZ=              8.8403  XZZ=             -3.0109  YZZ=             -1.7767
  YYZ=             14.9952  XYZ=              9.5003
 Hexadecapole moment (field-independent basis, Debye-Ang**3):
 XXXX=          -1038.0258 YYYY=           -939.9572 ZZZZ=           -291.5717 XXXY=            -50.9723
 XXXZ=            -41.1845 YYYX=              9.6806 YYYZ=            -25.3088 ZZZX=            -27.4084
 ZZZY=            -12.0493 XXYY=           -332.8504 XXZZ=           -240.1130 YYZZ=           -199.9497
 XXYZ=            -13.8694 YYXZ=            -16.5503 ZZXY=              6.8973
 N-N= 9.327915148957D+02 E-N=-4.439903615889D+03  KE= 1.093426780570D+03
 No NMR shielding tensors so no spin-rotation constants.
 Leave Link  601 at Sun Jun  9 08:24:22 2024, MaxMem= 10737418240 cpu:              24.6 elap:               1.4
 (Enter /public/software/apps/Gaussian/g16/l9999.exe)
 Unable to Open any file for archive entry.
 1\1\GINC-NODE13\SP\RM062X\Aug-CC-pVQZ\C5H7F3N1O2S1(1+)\LLG_HG\09-Jun-2
 024\0\\#p scrf=(smd,solvent=chlorobenzene) aug-cc-pvqz em=gd3 m062x\\T
 itle: Yne4-vinyl4-S4-PhCl-1\\1,1\N,0,-1.700265,0.459022,-0.123981\C,0,
 -2.960879,0.580141,0.639559\S,0,-1.043294,-1.371754,-0.593799\O,0,-0.1
 18924,-1.048196,-1.653204\O,0,-2.261944,-2.12113,-0.783137\C,0,-0.2024
 6,-1.775086,0.929065\H,0,-0.943841,-1.834629,1.723131\H,0,0.265807,-2.
 746669,0.750734\H,0,0.546075,-1.004245,1.104669\C,0,-1.093431,1.438079
 ,-0.597687\C,0,-0.393135,2.374831,-1.144346\C,0,0.753119,3.091858,-0.5
 00907\H,0,0.528707,4.161208,-0.476838\H,0,0.949087,2.732475,0.507144\F
 ,0,-3.091112,1.809037,1.108131\F,0,-3.979505,0.28762,-0.151558\F,0,-2.
 917081,-0.288122,1.645238\H,0,-0.697859,2.649324,-2.155462\H,0,1.63967
 3,2.950868,-1.125112\\Version=ES64L-G16RevC.01\State=1-A\HF=-1097.4473
 448\RMSD=1.199e-09\Dipole=2.5357433,1.4555847,0.6677431\Quadrupole=-2.
 2324479,8.3461209,-6.1136731,1.7664219,1.5758926,-10.2470265\PG=C01 [X
 (C5H7F3N1O2S1)]\\@
 The archive entry for this job was punched.


 IN NATURE THERE ARE NEITHER REWARDS OR
 PUNISHMENTS -- THERE ARE CONSEQUENCES.

                            -- ROBERT GREEN INGERSOLL
 Job cpu time:       1 days  4 hours 55 minutes 50.4 seconds.
 Elapsed time:       0 days  0 hours 54 minutes 45.5 seconds.
 File lengths (MBytes):  RWF=    904 Int=      0 D2E=      0 Chk=     97 Scr=      1
 Normal termination of Gaussian 16 at Sun Jun  9 08:24:29 2024.
