 Entering Gaussian System, Link 0=g16
 Initial command:
 /public/software/apps/Gaussian/g16/l1.exe "/tmp/Gau-56124.inp" -scrdir="/tmp/"
 Entering Link 1 = /public/software/apps/Gaussian/g16/l1.exe PID=     56125.
  
 Copyright (c) 1988-2019, Gaussian, Inc.  All Rights Reserved.
  
 This is part of the Gaussian(R) 16 program.  It is based on
 the Gaussian(R) 09 system (copyright 2009, Gaussian, Inc.),
 the Gaussian(R) 03 system (copyright 2003, Gaussian, Inc.),
 the Gaussian(R) 98 system (copyright 1998, Gaussian, Inc.),
 the Gaussian(R) 94 system (copyright 1995, Gaussian, Inc.),
 the Gaussian 92(TM) system (copyright 1992, Gaussian, Inc.),
 the Gaussian 90(TM) system (copyright 1990, Gaussian, Inc.),
 the Gaussian 88(TM) system (copyright 1988, Gaussian, Inc.),
 the Gaussian 86(TM) system (copyright 1986, Carnegie Mellon
 University), and the Gaussian 82(TM) system (copyright 1983,
 Carnegie Mellon University). Gaussian is a federally registered
 trademark of Gaussian, Inc.
  
 This software contains proprietary and confidential information,
 including trade secrets, belonging to Gaussian, Inc.
  
 This software is provided under written license and may be
 used, copied, transmitted, or stored only in accord with that
 written license.
  
 The following legend is applicable only to US Government
 contracts under FAR:
  
                    RESTRICTED RIGHTS LEGEND
  
 Use, reproduction and disclosure by the US Government is
 subject to restrictions as set forth in subparagraphs (a)
 and (c) of the Commercial Computer Software - Restricted
 Rights clause in FAR 52.227-19.
  
 Gaussian, Inc.
 340 Quinnipiac St., Bldg. 40, Wallingford CT 06492
  
  
 ---------------------------------------------------------------
 Warning -- This program may not be used in any manner that
 competes with the business of Gaussian, Inc. or will provide
 assistance to any competitor of Gaussian, Inc.  The licensee
 of this program is prohibited from giving any competitor of
 Gaussian, Inc. access to this program.  By using this program,
 the user acknowledges that Gaussian, Inc. is engaged in the
 business of creating and licensing software in the field of
 computational chemistry and represents and warrants to the
 licensee that it is not a competitor of Gaussian, Inc. and that
 it will not use this program in any manner prohibited above.
 ---------------------------------------------------------------
  

 Cite this work as:
 Gaussian 16, Revision C.01,
 M. J. Frisch, G. W. Trucks, H. B. Schlegel, G. E. Scuseria, 
 M. A. Robb, J. R. Cheeseman, G. Scalmani, V. Barone, 
 G. A. Petersson, H. Nakatsuji, X. Li, M. Caricato, A. V. Marenich, 
 J. Bloino, B. G. Janesko, R. Gomperts, B. Mennucci, H. P. Hratchian, 
 J. V. Ortiz, A. F. Izmaylov, J. L. Sonnenberg, D. Williams-Young, 
 F. Ding, F. Lipparini, F. Egidi, J. Goings, B. Peng, A. Petrone, 
 T. Henderson, D. Ranasinghe, V. G. Zakrzewski, J. Gao, N. Rega, 
 G. Zheng, W. Liang, M. Hada, M. Ehara, K. Toyota, R. Fukuda, 
 J. Hasegawa, M. Ishida, T. Nakajima, Y. Honda, O. Kitao, H. Nakai, 
 T. Vreven, K. Throssell, J. A. Montgomery, Jr., J. E. Peralta, 
 F. Ogliaro, M. J. Bearpark, J. J. Heyd, E. N. Brothers, K. N. Kudin, 
 V. N. Staroverov, T. A. Keith, R. Kobayashi, J. Normand, 
 K. Raghavachari, A. P. Rendell, J. C. Burant, S. S. Iyengar, 
 J. Tomasi, M. Cossi, J. M. Millam, M. Klene, C. Adamo, R. Cammi, 
 J. W. Ochterski, R. L. Martin, K. Morokuma, O. Farkas, 
 J. B. Foresman, and D. J. Fox, Gaussian, Inc., Wallingford CT, 2019.
 
 ******************************************
 Gaussian 16:  ES64L-G16RevC.01  3-Jul-2019
                 9-Jun-2024 
 ******************************************
 %nprocshared=32
 Will use up to   32 processors via shared memory.
 %mem=80GB
 ------------------------------------------------------------
 #p scrf=(smd,solvent=chlorobenzene) aug-cc-pvqz em=gd3 m062x
 ------------------------------------------------------------
 1/38=1,172=1/1;
 2/12=2,17=6,18=5,40=1/2;
 3/5=16,6=2,7=10,11=2,25=1,30=1,70=32201,72=14,74=-55,124=31/1,2,3;
 4//1;
 5/5=2,38=5,53=14/2;
 6/7=2,8=2,9=2,10=2,28=1/1;
 99/5=1,9=1/99;
 Leave Link    1 at Sun Jun  9 08:28:03 2024, MaxMem= 10737418240 cpu:               4.3 elap:               0.2
 (Enter /public/software/apps/Gaussian/g16/l101.exe)
 ----------------------------
 Title: Yne8-vinyl8-S8-PhCl-1
 ----------------------------
 Symbolic Z-matrix:
 Charge =  1 Multiplicity = 1
 N                    -1.84691  -0.15406  -0.69157 
 S                    -1.38239  -1.76856   0.24926 
 O                    -1.98573  -1.59765   1.55448 
 O                     0.04835  -1.86827   0.04804 
 C                    -2.28625  -2.94104  -0.74899 
 H                    -1.88451  -2.89956  -1.76032 
 H                    -2.10988  -3.91798  -0.29371 
 H                    -3.34278  -2.6797   -0.70897 
 C                    -0.94217   0.40189  -1.34218 
 C                     0.04512   0.92607  -1.98865 
 C                     1.03031   1.89357  -1.40251 
 H                     2.0339    1.47226  -1.50366 
 H                     0.9985    2.82517  -1.97298 
 C                    -3.21653   0.3096   -0.5793 
 C                    -3.63146   0.89428   0.61219 
 C                    -4.0709    0.11779  -1.66082 
 C                    -4.95507   1.31119   0.71227 
 H                    -2.93769   1.01708   1.43286 
 C                    -5.39048   0.54184  -1.54171 
 H                    -3.70763  -0.35144  -2.56674 
 C                    -5.83      1.13515  -0.35889 
 H                    -5.30002   1.77469   1.62797 
 H                    -6.07304   0.40793  -2.3716 
 H                    -6.85892   1.46217  -0.27171 
 H                     0.14237   0.63227  -3.03323 
 H                     0.82619   2.09906  -0.35335 
 
 ITRead=  0  0  0  0  0  0  0  0  0  0  0  0  0  0  0  0  0  0  0  0
 ITRead=  0  0  0  0  0  0
 MicOpt= -1 -1 -1 -1 -1 -1 -1 -1 -1 -1 -1 -1 -1 -1 -1 -1 -1 -1 -1 -1
 MicOpt= -1 -1 -1 -1 -1 -1
 NAtoms=     26 NQM=       26 NQMF=       0 NMMI=      0 NMMIF=      0
                NMic=       0 NMicF=      0.
                    Isotopes and Nuclear Properties:
 (Nuclear quadrupole moments (NQMom) in fm**2, nuclear magnetic moments (NMagM)
  in nuclear magnetons)

  Atom         1           2           3           4           5           6           7           8           9          10
 IAtWgt=          14          32          16          16          12           1           1           1          12          12
 AtmWgt=  14.0030740  31.9720718  15.9949146  15.9949146  12.0000000   1.0078250   1.0078250   1.0078250  12.0000000  12.0000000
 NucSpn=           2           0           0           0           0           1           1           1           0           0
 AtZEff=  -0.0000000  -0.0000000  -0.0000000  -0.0000000  -0.0000000  -0.0000000  -0.0000000  -0.0000000  -0.0000000  -0.0000000
 NQMom=    2.0440000   0.0000000   0.0000000   0.0000000   0.0000000   0.0000000   0.0000000   0.0000000   0.0000000   0.0000000
 NMagM=    0.4037610   0.0000000   0.0000000   0.0000000   0.0000000   2.7928460   2.7928460   2.7928460   0.0000000   0.0000000
 AtZNuc=   7.0000000  16.0000000   8.0000000   8.0000000   6.0000000   1.0000000   1.0000000   1.0000000   6.0000000   6.0000000

  Atom        11          12          13          14          15          16          17          18          19          20
 IAtWgt=          12           1           1          12          12          12          12           1          12           1
 AtmWgt=  12.0000000   1.0078250   1.0078250  12.0000000  12.0000000  12.0000000  12.0000000   1.0078250  12.0000000   1.0078250
 NucSpn=           0           1           1           0           0           0           0           1           0           1
 AtZEff=  -0.0000000  -0.0000000  -0.0000000  -0.0000000  -0.0000000  -0.0000000  -0.0000000  -0.0000000  -0.0000000  -0.0000000
 NQMom=    0.0000000   0.0000000   0.0000000   0.0000000   0.0000000   0.0000000   0.0000000   0.0000000   0.0000000   0.0000000
 NMagM=    0.0000000   2.7928460   2.7928460   0.0000000   0.0000000   0.0000000   0.0000000   2.7928460   0.0000000   2.7928460
 AtZNuc=   6.0000000   1.0000000   1.0000000   6.0000000   6.0000000   6.0000000   6.0000000   1.0000000   6.0000000   1.0000000

  Atom        21          22          23          24          25          26
 IAtWgt=          12           1           1           1           1           1
 AtmWgt=  12.0000000   1.0078250   1.0078250   1.0078250   1.0078250   1.0078250
 NucSpn=           0           1           1           1           1           1
 AtZEff=  -0.0000000  -0.0000000  -0.0000000  -0.0000000  -0.0000000  -0.0000000
 NQMom=    0.0000000   0.0000000   0.0000000   0.0000000   0.0000000   0.0000000
 NMagM=    0.0000000   2.7928460   2.7928460   2.7928460   2.7928460   2.7928460
 AtZNuc=   6.0000000   1.0000000   1.0000000   1.0000000   1.0000000   1.0000000
 Leave Link  101 at Sun Jun  9 08:28:03 2024, MaxMem= 10737418240 cpu:               1.4 elap:               0.1
 (Enter /public/software/apps/Gaussian/g16/l202.exe)
                          Input orientation:                          
 ---------------------------------------------------------------------
 Center     Atomic      Atomic             Coordinates (Angstroms)
 Number     Number       Type             X           Y           Z
 ---------------------------------------------------------------------
      1          7           0       -1.846914   -0.154055   -0.691572
      2         16           0       -1.382390   -1.768558    0.249260
      3          8           0       -1.985725   -1.597652    1.554475
      4          8           0        0.048351   -1.868265    0.048044
      5          6           0       -2.286254   -2.941042   -0.748990
      6          1           0       -1.884506   -2.899562   -1.760319
      7          1           0       -2.109882   -3.917981   -0.293712
      8          1           0       -3.342783   -2.679704   -0.708966
      9          6           0       -0.942168    0.401886   -1.342184
     10          6           0        0.045120    0.926068   -1.988649
     11          6           0        1.030310    1.893574   -1.402506
     12          1           0        2.033897    1.472263   -1.503656
     13          1           0        0.998496    2.825165   -1.972984
     14          6           0       -3.216528    0.309596   -0.579301
     15          6           0       -3.631463    0.894277    0.612186
     16          6           0       -4.070903    0.117785   -1.660824
     17          6           0       -4.955067    1.311185    0.712272
     18          1           0       -2.937691    1.017084    1.432855
     19          6           0       -5.390485    0.541841   -1.541711
     20          1           0       -3.707630   -0.351440   -2.566742
     21          6           0       -5.830000    1.135147   -0.358886
     22          1           0       -5.300021    1.774686    1.627965
     23          1           0       -6.073040    0.407934   -2.371601
     24          1           0       -6.858924    1.462169   -0.271711
     25          1           0        0.142374    0.632266   -3.033232
     26          1           0        0.826187    2.099056   -0.353351
 ---------------------------------------------------------------------
                    Distance matrix (angstroms):
                    1          2          3          4          5
     1  N    0.000000
     2  S    1.925504   0.000000
     3  O    2.673568   1.448036   0.000000
     4  O    2.660372   1.448257   2.545590   0.000000
     5  C    2.821987   1.785551   2.683461   2.690073   0.000000
     6  H    2.946429   2.360021   3.562734   2.840719   1.088994
     7  H    3.794019   2.333256   2.969030   2.996014   1.092152
     8  H    2.935444   2.364641   2.852299   3.568093   1.089107
     9  C    1.245364   2.727144   3.671212   2.840325   3.651522
    10  C    2.535521   3.782464   4.800752   3.457806   4.682585
    11  C    3.602309   4.686221   5.479860   4.149671   5.899169
    12  H    4.285450   5.024605   5.910491   4.184411   6.221775
    13  H    4.314409   5.631099   6.396081   5.197655   6.748102
    14  C    1.450317   2.892974   3.115360   3.974428   3.385388
    15  C    2.446099   3.504388   3.131465   4.635831   4.286264
    16  C    2.441203   3.799317   4.198671   4.881893   3.656889
    17  C    3.711916   4.739538   4.241183   5.965257   5.228698
    18  H    2.659803   3.402890   2.785296   4.377144   4.566353
    19  C    3.709973   4.960882   5.075056   6.157667   4.732349
    20  H    2.649054   3.917248   4.637071   4.821334   3.468511
    21  C    4.199726   5.346268   5.089950   6.613704   5.415315
    22  H    4.585220   5.459234   4.728913   6.661256   6.080362
    23  H    4.582409   5.797260   6.011871   6.964710   5.309261
    24  H    5.282869   6.379767   6.037013   7.674926   6.365954
    25  H    3.171583   4.343226   5.527060   3.969352   4.887180
    26  H    3.512317   4.494373   5.021185   4.062731   5.936868
                    6          7          8          9         10
     6  H    0.000000
     7  H    1.799697   0.000000
     8  H    1.811147   1.796054   0.000000
     9  C    3.458670   4.596096   3.957286   0.000000
    10  C    4.290808   5.566117   5.110486   1.291287   0.000000
    11  C    5.621240   6.698089   6.365517   2.473750   1.500077
    12  H    5.876446   6.905766   6.839521   3.166819   2.118674
    13  H    6.413223   7.612620   7.123765   3.168022   2.125027
    14  C    3.669848   4.379342   2.994773   2.400671   3.606196
    15  C    4.803525   5.127737   3.821272   3.360702   4.503623
    16  C    3.727548   4.690630   3.043376   3.157725   4.207426
    17  C    5.768227   6.037488   4.532833   4.599019   5.696065
    18  H    5.161945   5.293502   4.291589   3.472956   4.540059
    19  C    4.917615   5.675374   3.907032   4.454989   5.467466
    20  H    3.235278   4.521026   3.000876   3.116861   4.006164
    21  C    5.814621   6.275160   4.567482   5.039390   6.100564
    22  H    6.707817   6.802668   5.397557   5.449518   6.509269
    23  H    5.371872   6.223969   4.444341   5.233124   6.151991
    24  H    6.781260   7.176343   5.450647   6.105581   7.134501
    25  H    4.266422   5.769088   5.340194   2.022115   1.089464
    26  H    5.857781   6.695431   6.351639   2.642964   2.158742
                   11         12         13         14         15
    11  C    0.000000
    12  H    1.093124   0.000000
    13  H    1.092849   1.767107   0.000000
    14  C    4.606765   5.456481   5.102633   0.000000
    15  C    5.175877   6.075126   5.643399   1.390563   0.000000
    16  C    5.407636   6.255229   5.755533   1.391560   2.441848
    17  C    6.374653   7.333614   6.704301   2.386181   1.391315
    18  H    4.955052   5.791975   5.510215   2.151060   1.081619
    19  C    6.563015   7.482552   6.798429   2.388778   2.803149
    20  H    5.370625   6.117285   5.708852   2.151295   3.415142
    21  C    6.980559   7.953931   7.217329   2.749610   2.415484
    22  H    7.019329   7.980280   7.330870   3.370379   2.142665
    23  H    7.321465   8.222442   7.483884   3.373673   3.885976
    24  H    7.981530   8.977753   8.154210   3.832765   3.394154
    25  H    2.244682   2.573530   2.581836   4.172303   5.253529
    26  H    1.088400   1.781750   1.783294   4.426823   4.717457
                   16         17         18         19         20
    16  C    0.000000
    17  C    2.799560   0.000000
    18  H    3.415224   2.162300   0.000000
    19  C    1.391153   2.421140   3.884597   0.000000
    20  H    1.082971   3.882313   4.296794   2.163479   0.000000
    21  C    2.413398   1.394230   3.404369   1.394367   3.404265
    22  H    3.882291   1.082737   2.488500   3.402196   4.965047
    23  H    2.144281   3.402352   4.967430   1.082834   2.491966
    24  H    3.392649   2.148416   4.298804   2.148538   4.299651
    25  H    4.460930   6.361889   5.438825   5.731085   4.000978
    26  H    5.442096   5.931205   4.304413   6.517985   5.608879
                   21         22         23         24         25
    21  C    0.000000
    22  H    2.153477   0.000000
    23  H    2.153817   4.296754   0.000000
    24  H    1.083156   2.477219   2.477612   0.000000
    25  H    6.563099   7.256138   6.254554   7.571850   0.000000
    26  H    6.725621   6.446802   7.384616   7.711888   3.130629
                   26
    26  H    0.000000
 Stoichiometry    C10H12NO2S(1+)
 Framework group  C1[X(C10H12NO2S)]
 Deg. of freedom    72
 Full point group                 C1      NOp   1
 Largest Abelian subgroup         C1      NOp   1
 Largest concise Abelian subgroup C1      NOp   1
                         Standard orientation:                         
 ---------------------------------------------------------------------
 Center     Atomic      Atomic             Coordinates (Angstroms)
 Number     Number       Type             X           Y           Z
 ---------------------------------------------------------------------
      1          7           0       -0.417065    0.279057    0.118244
      2         16           0       -1.223721   -1.445946   -0.166781
      3          8           0       -0.532935   -1.966538   -1.328076
      4          8           0       -2.642029   -1.153086   -0.157585
      5          6           0       -0.692680   -2.252000    1.335372
      6          1           0       -1.120836   -1.708512    2.176331
      7          1           0       -1.085189   -3.269776    1.281852
      8          1           0        0.396274   -2.256848    1.352949
      9          6           0       -1.184939    1.230660    0.354366
     10          6           0       -2.040367    2.169568    0.586993
     11          6           0       -2.721757    2.983837   -0.472679
     12          1           0       -3.802589    2.861868   -0.363835
     13          1           0       -2.486077    4.039743   -0.318286
     14          6           0        1.028827    0.357884    0.036999
     15          6           0        1.635382    0.289809   -1.212449
     16          6           0        1.753350    0.463977    1.220321
     17          6           0        3.024484    0.341956   -1.271037
     18          1           0        1.035955    0.198629   -2.108146
     19          6           0        3.141295    0.515310    1.141062
     20          1           0        1.239789    0.503831    2.172946
     21          6           0        3.773346    0.453390   -0.100283
     22          1           0        3.519384    0.296748   -2.232988
     23          1           0        3.726641    0.602865    2.047833
     24          1           0        4.854384    0.492595   -0.155482
     25          1           0       -2.259674    2.367403    1.635658
     26          1           0       -2.420998    2.683838   -1.474756
 ---------------------------------------------------------------------
 Rotational constants (GHZ):           0.8103044           0.4774467           0.3717869
 Leave Link  202 at Sun Jun  9 08:28:03 2024, MaxMem= 10737418240 cpu:               1.4 elap:               0.1
 (Enter /public/software/apps/Gaussian/g16/l301.exe)
 Standard basis: Aug-CC-pVQZ (5D, 7F)
 Ernie: Thresh=  0.10000D-02 Tol=  0.10000D-05 Strict=F.
 Ernie:  53 primitive shells out of 758 were deleted.
 There are  2134 symmetry adapted cartesian basis functions of A   symmetry.
 There are  1676 symmetry adapted basis functions of A   symmetry.
  1676 basis functions,  2465 primitive gaussians,  2134 cartesian basis functions
    55 alpha electrons       55 beta electrons
       nuclear repulsion energy      1015.5100906995 Hartrees.
 IExCor= 4336 DFT=T Ex+Corr=M062X ExCW=0 ScaHFX=  0.540000
 ScaDFX=  1.000000  1.000000  1.000000  1.000000 ScalE2=  1.000000  1.000000
 IRadAn=      5 IRanWt=     -1 IRanGd=            0 ICorTp=0 IEmpDi=131
 NAtoms=   26 NActive=   26 NUniq=   26 SFac= 1.00D+00 NAtFMM=   60 NAOKFM=F Big=F
 Integral buffers will be    131072 words long.
 Raffenetti 2 integral format.
 Two-electron integral symmetry is turned on.
 R6Disp:  Grimme-D3 Dispersion energy=       -0.0013361052 Hartrees.
 Nuclear repulsion after empirical dispersion term =     1015.5087545943 Hartrees.
 ------------------------------------------------------------------------------
 Polarizable Continuum Model (PCM)
 =================================
 Model                : PCM.
 Atomic radii         : SMD-Coulomb.
 Polarization charges : Total charges.
 Charge compensation  : None.
 Solution method      : On-the-fly selection.
 Cavity type          : VdW (van der Waals Surface) (Alpha=1.000).
 Cavity algorithm     : GePol (No added spheres)
                        Default sphere list used, NSphG=   26.
                        Lebedev-Laikov grids with approx.  5.0 points / Ang**2.
                        Smoothing algorithm: York/Karplus (Gamma=1.0000).
                        Polarization charges: spherical gaussians, with
                                              point-specific exponents (IZeta= 3).
                        Self-potential: point-specific (ISelfS= 7).
                        Self-field    : sphere-specific E.n sum rule (ISelfD= 2).
 Solvent              : ChloroBenzene, Eps=   5.696800 Eps(inf)=   2.322881
 ------------------------------------------------------------------------------
 GePol: Number of generator spheres                  =      26
 GePol: Total number of spheres                      =      26
 GePol: Number of exposed spheres                    =      26 (100.00%)
 GePol: Number of points                             =    2252
 GePol: Average weight of points                     =       0.11
 GePol: Minimum weight of points                     =   0.22D-09
 GePol: Maximum weight of points                     =    0.19854
 GePol: Number of points with low weight             =     120
 GePol: Fraction of low-weight points (<1% of avg)   =       5.33%
 GePol: Cavity surface area                          =    257.280 Ang**2
 GePol: Cavity volume                                =    247.949 Ang**3
 ------------------------------------------------------------------------------
 Atomic radii for non-electrostatic terms: SMD-CDS.
 ------------------------------------------------------------------------------
 PCM non-electrostatic energy =        -0.0076996129 Hartrees.
 Nuclear repulsion after PCM non-electrostatic terms =     1015.5010549814 Hartrees.
 Leave Link  301 at Sun Jun  9 08:28:04 2024, MaxMem= 10737418240 cpu:               4.3 elap:               0.2
 (Enter /public/software/apps/Gaussian/g16/l302.exe)
 NPDir=0 NMtPBC=     1 NCelOv=     1 NCel=       1 NClECP=     1 NCelD=      1
         NCelK=      1 NCelE2=     1 NClLst=     1 CellRange=     0.0.
 One-electron integrals computed using PRISM.
 One-electron integral symmetry used in STVInt
 NBasis=  1676 RedAO= T EigKep=  1.04D-06  NBF=  1676
 NBsUse=  1664 1.00D-06 EigRej=  9.28D-07 NBFU=  1664
 Precomputing XC quadrature grid using
 IXCGrd= 4 IRadAn=           5 IRanWt=          -1 IRanGd=           0 AccXCQ= 0.00D+00.
 Generated NRdTot=       0 NPtTot=           0 NUsed=           0 NTot=          32
 NSgBfM=  2114  2114  2114  2114  2114 MxSgAt=    26 MxSgA2=    26.
 Leave Link  302 at Sun Jun  9 08:28:07 2024, MaxMem= 10737418240 cpu:             120.3 elap:               3.8
 (Enter /public/software/apps/Gaussian/g16/l303.exe)
 DipDrv:  MaxL=1.
 Leave Link  303 at Sun Jun  9 08:28:08 2024, MaxMem= 10737418240 cpu:              10.8 elap:               0.5
 (Enter /public/software/apps/Gaussian/g16/l401.exe)
 ExpMin= 2.36D-02 ExpMax= 7.28D+05 ExpMxC= 2.28D+03 IAcc=3 IRadAn=         5 AccDes= 0.00D+00
 Harris functional with IExCor= 1009 and IRadAn=       5 diagonalized for initial guess.
 HarFok:  IExCor= 1009 AccDes= 0.00D+00 IRadAn=         5 IDoV= 1 UseB2=F ITyADJ=14
 ICtDFT=  3500011 ScaDFX=  1.000000  1.000000  1.000000  1.000000
 FoFCou: FMM=F IPFlag=           0 FMFlag=      100000 FMFlg1=           0
         NFxFlg=           0 DoJE=T BraDBF=F KetDBF=T FulRan=T
         wScrn=  0.000000 ICntrl=       500 IOpCl=  0 I1Cent=   200000004 NGrid=           0
         NMat0=    1 NMatS0=      1 NMatT0=    0 NMatD0=    1 NMtDS0=    0 NMtDT0=    0
 Petite list used in FoFCou.
 Harris En= -991.052978176238    
 JPrj=0 DoOrth=F DoCkMO=F.
 Leave Link  401 at Sun Jun  9 08:28:16 2024, MaxMem= 10737418240 cpu:             250.7 elap:               7.9
 (Enter /public/software/apps/Gaussian/g16/l502.exe)
 Integral symmetry usage will be decided dynamically.
 Closed shell SCF:
 Using DIIS extrapolation, IDIIS=  1040.
 NGot= 10737418240 LenX= 10728225540 LenY= 10723669450
 Requested convergence on RMS density matrix=1.00D-08 within 128 cycles.
 Requested convergence on MAX density matrix=1.00D-06.
 Requested convergence on             energy=1.00D-06.
 No special actions if energy rises.
 Fock matrices will be formed incrementally for  20 cycles.

 Cycle   1  Pass 1  IDiag  1:
 FoFJK:  IHMeth= 1 ICntrl=       0 DoSepK=F KAlg= 0 I1Cent=           0 FoldK=F
 IRaf= 880000000 NMat=       1 IRICut=       1 DoRegI=T DoRafI=F ISym2E= 0 IDoP0=0 IntGTp=1.
 FoFCou: FMM=F IPFlag=           0 FMFlag=      100000 FMFlg1=           0
         NFxFlg=           0 DoJE=F BraDBF=F KetDBF=F FulRan=T
         wScrn=  0.000000 ICntrl=         0 IOpCl=  0 I1Cent=           0 NGrid=           0
         NMat0=    1 NMatS0=      1 NMatT0=    0 NMatD0=    1 NMtDS0=    0 NMtDT0=    0
 Symmetry not used in FoFCou.
 Inv3:  Mode=1 IEnd=    15214512.
 Iteration    1 A*A^-1 deviation from unit magnitude is 3.33D-15 for   1353.
 Iteration    1 A*A^-1 deviation from orthogonality  is 1.98D-15 for   1500    367.
 Iteration    1 A^-1*A deviation from unit magnitude is 3.33D-15 for   1353.
 Iteration    1 A^-1*A deviation from orthogonality  is 1.55D-15 for   2184     75.
 E= -990.854880505201    
 DIIS: error= 1.40D-02 at cycle   1 NSaved=   1.
 NSaved= 1 IEnMin= 1 EnMin= -990.854880505201     IErMin= 1 ErrMin= 1.40D-02
 ErrMax= 1.40D-02  0.00D+00 EMaxC= 1.00D-01 BMatC= 8.25D-01 BMatP= 8.25D-01
 IDIUse=3 WtCom= 8.60D-01 WtEn= 1.40D-01
 Coeff-Com:  0.100D+01
 Coeff-En:   0.100D+01
 Coeff:      0.100D+01
 Gap=     0.371 Goal=   None    Shift=    0.000
 GapD=    0.371 DampG=1.000 DampE=0.500 DampFc=0.5000 IDamp=-1.
 Damping current iteration by 5.00D-01
 RMSDP=1.80D-03 MaxDP=3.01D-01              OVMax= 2.99D-01

 Cycle   2  Pass 1  IDiag  1:
 RMSU=  8.99D-04    CP:  1.02D+00
 E= -991.050138377166     Delta-E=       -0.195257871965 Rises=F Damp=T
 DIIS: error= 3.93D-03 at cycle   2 NSaved=   2.
 NSaved= 2 IEnMin= 2 EnMin= -991.050138377166     IErMin= 2 ErrMin= 3.93D-03
 ErrMax= 3.93D-03  0.00D+00 EMaxC= 1.00D-01 BMatC= 1.08D-01 BMatP= 8.25D-01
 IDIUse=3 WtCom= 9.61D-01 WtEn= 3.93D-02
 Coeff-Com:  0.115D+00 0.885D+00
 Coeff-En:   0.266D+00 0.734D+00
 Coeff:      0.121D+00 0.879D+00
 Gap=     0.292 Goal=   None    Shift=    0.000
 RMSDP=1.04D-03 MaxDP=2.10D-01 DE=-1.95D-01 OVMax= 1.75D-01

 Cycle   3  Pass 1  IDiag  1:
 RMSU=  1.01D-03    CP:  9.86D-01  1.27D+00
 E= -991.380756723970     Delta-E=       -0.330618346805 Rises=F Damp=F
 DIIS: error= 4.07D-03 at cycle   3 NSaved=   3.
 NSaved= 3 IEnMin= 3 EnMin= -991.380756723970     IErMin= 2 ErrMin= 3.93D-03
 ErrMax= 4.07D-03  0.00D+00 EMaxC= 1.00D-01 BMatC= 6.09D-02 BMatP= 1.08D-01
 IDIUse=3 WtCom= 9.59D-01 WtEn= 4.07D-02
 Coeff-Com: -0.565D-01 0.421D+00 0.635D+00
 Coeff-En:   0.000D+00 0.000D+00 0.100D+01
 Coeff:     -0.542D-01 0.404D+00 0.650D+00
 Gap=     0.282 Goal=   None    Shift=    0.000
 RMSDP=3.52D-04 MaxDP=7.07D-02 DE=-3.31D-01 OVMax= 4.56D-02

 Cycle   4  Pass 1  IDiag  1:
 RMSU=  3.24D-04    CP:  9.98D-01  1.32D+00  1.12D+00
 E= -991.424807027884     Delta-E=       -0.044050303913 Rises=F Damp=F
 DIIS: error= 1.31D-03 at cycle   4 NSaved=   4.
 NSaved= 4 IEnMin= 4 EnMin= -991.424807027884     IErMin= 4 ErrMin= 1.31D-03
 ErrMax= 1.31D-03  0.00D+00 EMaxC= 1.00D-01 BMatC= 7.22D-03 BMatP= 6.09D-02
 IDIUse=3 WtCom= 9.87D-01 WtEn= 1.31D-02
 Coeff-Com: -0.364D-01 0.943D-01 0.311D+00 0.631D+00
 Coeff-En:   0.000D+00 0.000D+00 0.479D-01 0.952D+00
 Coeff:     -0.359D-01 0.930D-01 0.308D+00 0.635D+00
 Gap=     0.274 Goal=   None    Shift=    0.000
 RMSDP=9.68D-05 MaxDP=2.49D-02 DE=-4.41D-02 OVMax= 1.31D-02

 Cycle   5  Pass 1  IDiag  1:
 RMSU=  6.97D-05    CP:  9.95D-01  1.33D+00  1.09D+00  8.27D-01
 E= -991.430551678067     Delta-E=       -0.005744650183 Rises=F Damp=F
 DIIS: error= 2.81D-04 at cycle   5 NSaved=   5.
 NSaved= 5 IEnMin= 5 EnMin= -991.430551678067     IErMin= 5 ErrMin= 2.81D-04
 ErrMax= 2.81D-04  0.00D+00 EMaxC= 1.00D-01 BMatC= 3.48D-04 BMatP= 7.22D-03
 IDIUse=3 WtCom= 9.97D-01 WtEn= 2.81D-03
 Coeff-Com: -0.120D-01 0.201D-01 0.953D-01 0.263D+00 0.634D+00
 Coeff-En:   0.000D+00 0.000D+00 0.000D+00 0.000D+00 0.100D+01
 Coeff:     -0.120D-01 0.200D-01 0.950D-01 0.262D+00 0.635D+00
 Gap=     0.275 Goal=   None    Shift=    0.000
 RMSDP=3.77D-05 MaxDP=1.03D-02 DE=-5.74D-03 OVMax= 3.60D-03

 Cycle   6  Pass 1  IDiag  1:
 RMSU=  2.71D-05    CP:  9.91D-01  1.33D+00  1.07D+00  7.80D-01  1.08D+00
 E= -991.430817835569     Delta-E=       -0.000266157502 Rises=F Damp=F
 DIIS: error= 1.02D-04 at cycle   6 NSaved=   6.
 NSaved= 6 IEnMin= 6 EnMin= -991.430817835569     IErMin= 6 ErrMin= 1.02D-04
 ErrMax= 1.02D-04  0.00D+00 EMaxC= 1.00D-01 BMatC= 5.19D-05 BMatP= 3.48D-04
 IDIUse=3 WtCom= 9.99D-01 WtEn= 1.02D-03
 Coeff-Com: -0.190D-02 0.188D-03 0.121D-01 0.532D-01 0.309D+00 0.628D+00
 Coeff-En:   0.000D+00 0.000D+00 0.000D+00 0.000D+00 0.541D-02 0.995D+00
 Coeff:     -0.190D-02 0.187D-03 0.121D-01 0.531D-01 0.308D+00 0.628D+00
 Gap=     0.276 Goal=   None    Shift=    0.000
 RMSDP=1.03D-05 MaxDP=3.00D-03 DE=-2.66D-04 OVMax= 1.13D-03

 Cycle   7  Pass 1  IDiag  1:
 RMSU=  7.58D-06    CP:  9.91D-01  1.32D+00  1.07D+00  7.77D-01  1.14D+00
                    CP:  1.15D+00
 E= -991.430858534440     Delta-E=       -0.000040698871 Rises=F Damp=F
 DIIS: error= 2.56D-05 at cycle   7 NSaved=   7.
 NSaved= 7 IEnMin= 7 EnMin= -991.430858534440     IErMin= 7 ErrMin= 2.56D-05
 ErrMax= 2.56D-05  0.00D+00 EMaxC= 1.00D-01 BMatC= 3.67D-06 BMatP= 5.19D-05
 IDIUse=1 WtCom= 1.00D+00 WtEn= 0.00D+00
 Coeff-Com:  0.967D-03-0.262D-02-0.914D-02-0.176D-01 0.404D-01 0.227D+00
 Coeff-Com:  0.761D+00
 Coeff:      0.967D-03-0.262D-02-0.914D-02-0.176D-01 0.404D-01 0.227D+00
 Coeff:      0.761D+00
 Gap=     0.276 Goal=   None    Shift=    0.000
 RMSDP=5.08D-06 MaxDP=1.43D-03 DE=-4.07D-05 OVMax= 9.15D-04

 Cycle   8  Pass 1  IDiag  1:
 RMSU=  3.25D-06    CP:  9.91D-01  1.32D+00  1.07D+00  7.79D-01  1.18D+00
                    CP:  1.23D+00  1.17D+00
 E= -991.430861870448     Delta-E=       -0.000003336008 Rises=F Damp=F
 DIIS: error= 9.75D-06 at cycle   8 NSaved=   8.
 NSaved= 8 IEnMin= 8 EnMin= -991.430861870448     IErMin= 8 ErrMin= 9.75D-06
 ErrMax= 9.75D-06  0.00D+00 EMaxC= 1.00D-01 BMatC= 9.10D-07 BMatP= 3.67D-06
 IDIUse=1 WtCom= 1.00D+00 WtEn= 0.00D+00
 Coeff-Com:  0.668D-03-0.125D-02-0.566D-02-0.149D-01-0.154D-01 0.324D-01
 Coeff-Com:  0.386D+00 0.618D+00
 Coeff:      0.668D-03-0.125D-02-0.566D-02-0.149D-01-0.154D-01 0.324D-01
 Coeff:      0.386D+00 0.618D+00
 Gap=     0.276 Goal=   None    Shift=    0.000
 RMSDP=1.59D-06 MaxDP=4.09D-04 DE=-3.34D-06 OVMax= 2.06D-04

 Cycle   9  Pass 1  IDiag  1:
 RMSU=  1.03D-06    CP:  9.91D-01  1.32D+00  1.07D+00  7.79D-01  1.19D+00
                    CP:  1.25D+00  1.26D+00  1.18D+00
 E= -991.430862578887     Delta-E=       -0.000000708439 Rises=F Damp=F
 DIIS: error= 3.50D-06 at cycle   9 NSaved=   9.
 NSaved= 9 IEnMin= 9 EnMin= -991.430862578887     IErMin= 9 ErrMin= 3.50D-06
 ErrMax= 3.50D-06  0.00D+00 EMaxC= 1.00D-01 BMatC= 1.02D-07 BMatP= 9.10D-07
 IDIUse=1 WtCom= 1.00D+00 WtEn= 0.00D+00
 Coeff-Com:  0.157D-03-0.187D-03-0.119D-02-0.437D-02-0.131D-01-0.195D-01
 Coeff-Com:  0.767D-01 0.285D+00 0.676D+00
 Coeff:      0.157D-03-0.187D-03-0.119D-02-0.437D-02-0.131D-01-0.195D-01
 Coeff:      0.767D-01 0.285D+00 0.676D+00
 Gap=     0.276 Goal=   None    Shift=    0.000
 RMSDP=7.42D-07 MaxDP=1.63D-04 DE=-7.08D-07 OVMax= 7.01D-05

 Cycle  10  Pass 1  IDiag  1:
 RMSU=  4.68D-07    CP:  9.91D-01  1.32D+00  1.07D+00  7.79D-01  1.19D+00
                    CP:  1.26D+00  1.30D+00  1.27D+00  1.24D+00
 E= -991.430862666087     Delta-E=       -0.000000087200 Rises=F Damp=F
 DIIS: error= 1.40D-06 at cycle  10 NSaved=  10.
 NSaved=10 IEnMin=10 EnMin= -991.430862666087     IErMin=10 ErrMin= 1.40D-06
 ErrMax= 1.40D-06  0.00D+00 EMaxC= 1.00D-01 BMatC= 7.20D-09 BMatP= 1.02D-07
 IDIUse=1 WtCom= 1.00D+00 WtEn= 0.00D+00
 Coeff-Com: -0.174D-04 0.719D-04 0.217D-03 0.144D-03-0.284D-02-0.101D-01
 Coeff-Com: -0.117D-01 0.214D-01 0.221D+00 0.781D+00
 Coeff:     -0.174D-04 0.719D-04 0.217D-03 0.144D-03-0.284D-02-0.101D-01
 Coeff:     -0.117D-01 0.214D-01 0.221D+00 0.781D+00
 Gap=     0.276 Goal=   None    Shift=    0.000
 RMSDP=2.91D-07 MaxDP=5.54D-05 DE=-8.72D-08 OVMax= 5.76D-05

 Cycle  11  Pass 1  IDiag  1:
 RMSU=  1.44D-07    CP:  9.91D-01  1.32D+00  1.07D+00  7.80D-01  1.19D+00
                    CP:  1.27D+00  1.32D+00  1.31D+00  1.36D+00  1.20D+00
 E= -991.430862673188     Delta-E=       -0.000000007102 Rises=F Damp=F
 DIIS: error= 9.61D-07 at cycle  11 NSaved=  11.
 NSaved=11 IEnMin=11 EnMin= -991.430862673188     IErMin=11 ErrMin= 9.61D-07
 ErrMax= 9.61D-07  0.00D+00 EMaxC= 1.00D-01 BMatC= 1.94D-09 BMatP= 7.20D-09
 IDIUse=1 WtCom= 1.00D+00 WtEn= 0.00D+00
 Coeff-Com: -0.231D-04 0.489D-04 0.239D-03 0.552D-03-0.140D-03-0.335D-02
 Coeff-Com: -0.148D-01-0.244D-01 0.276D-01 0.388D+00 0.626D+00
 Coeff:     -0.231D-04 0.489D-04 0.239D-03 0.552D-03-0.140D-03-0.335D-02
 Coeff:     -0.148D-01-0.244D-01 0.276D-01 0.388D+00 0.626D+00
 Gap=     0.276 Goal=   None    Shift=    0.000
 RMSDP=9.58D-08 MaxDP=2.31D-05 DE=-7.10D-09 OVMax= 1.17D-05

 Cycle  12  Pass 1  IDiag  1:
 RMSU=  4.71D-08    CP:  9.91D-01  1.32D+00  1.07D+00  7.80D-01  1.19D+00
                    CP:  1.27D+00  1.32D+00  1.32D+00  1.39D+00  1.30D+00
                    CP:  1.16D+00
 E= -991.430862675170     Delta-E=       -0.000000001982 Rises=F Damp=F
 DIIS: error= 1.57D-07 at cycle  12 NSaved=  12.
 NSaved=12 IEnMin=12 EnMin= -991.430862675170     IErMin=12 ErrMin= 1.57D-07
 ErrMax= 1.57D-07  0.00D+00 EMaxC= 1.00D-01 BMatC= 7.48D-11 BMatP= 1.94D-09
 IDIUse=1 WtCom= 1.00D+00 WtEn= 0.00D+00
 Coeff-Com: -0.465D-06-0.197D-05 0.199D-04 0.957D-04 0.317D-03 0.720D-03
 Coeff-Com: -0.105D-02-0.871D-02-0.240D-01-0.995D-02 0.144D+00 0.899D+00
 Coeff:     -0.465D-06-0.197D-05 0.199D-04 0.957D-04 0.317D-03 0.720D-03
 Coeff:     -0.105D-02-0.871D-02-0.240D-01-0.995D-02 0.144D+00 0.899D+00
 Gap=     0.276 Goal=   None    Shift=    0.000
 RMSDP=4.76D-08 MaxDP=1.32D-05 DE=-1.98D-09 OVMax= 6.45D-06

 Cycle  13  Pass 1  IDiag  1:
 RMSU=  2.20D-08    CP:  9.91D-01  1.32D+00  1.07D+00  7.80D-01  1.19D+00
                    CP:  1.27D+00  1.32D+00  1.32D+00  1.41D+00  1.35D+00
                    CP:  1.30D+00  1.33D+00
 E= -991.430862675261     Delta-E=       -0.000000000090 Rises=F Damp=F
 DIIS: error= 5.21D-08 at cycle  13 NSaved=  13.
 NSaved=13 IEnMin=13 EnMin= -991.430862675261     IErMin=13 ErrMin= 5.21D-08
 ErrMax= 5.21D-08  0.00D+00 EMaxC= 1.00D-01 BMatC= 6.65D-12 BMatP= 7.48D-11
 IDIUse=1 WtCom= 1.00D+00 WtEn= 0.00D+00
 Coeff-Com:  0.128D-05-0.344D-05-0.849D-05-0.925D-05 0.822D-04 0.381D-03
 Coeff-Com:  0.648D-03-0.519D-03-0.647D-02-0.261D-01-0.132D-01 0.211D+00
 Coeff-Com:  0.834D+00
 Coeff:      0.128D-05-0.344D-05-0.849D-05-0.925D-05 0.822D-04 0.381D-03
 Coeff:      0.648D-03-0.519D-03-0.647D-02-0.261D-01-0.132D-01 0.211D+00
 Coeff:      0.834D+00
 Gap=     0.276 Goal=   None    Shift=    0.000
 RMSDP=1.21D-08 MaxDP=2.71D-06 DE=-9.04D-11 OVMax= 1.61D-06

 Cycle  14  Pass 1  IDiag  1:
 RMSU=  5.41D-09    CP:  9.91D-01  1.32D+00  1.07D+00  7.80D-01  1.19D+00
                    CP:  1.27D+00  1.32D+00  1.32D+00  1.41D+00  1.36D+00
                    CP:  1.33D+00  1.43D+00  1.21D+00
 E= -991.430862675286     Delta-E=       -0.000000000025 Rises=F Damp=F
 DIIS: error= 2.11D-08 at cycle  14 NSaved=  14.
 NSaved=14 IEnMin=14 EnMin= -991.430862675286     IErMin=14 ErrMin= 2.11D-08
 ErrMax= 2.11D-08  0.00D+00 EMaxC= 1.00D-01 BMatC= 1.42D-12 BMatP= 6.65D-12
 IDIUse=1 WtCom= 1.00D+00 WtEn= 0.00D+00
 Coeff-Com:  0.538D-06-0.982D-06-0.614D-05-0.164D-04-0.871D-05 0.584D-04
 Coeff-Com:  0.397D-03 0.938D-03 0.650D-03-0.946D-02-0.272D-01-0.446D-01
 Coeff-Com:  0.336D+00 0.744D+00
 Coeff:      0.538D-06-0.982D-06-0.614D-05-0.164D-04-0.871D-05 0.584D-04
 Coeff:      0.397D-03 0.938D-03 0.650D-03-0.946D-02-0.272D-01-0.446D-01
 Coeff:      0.336D+00 0.744D+00
 Gap=     0.276 Goal=   None    Shift=    0.000
 RMSDP=4.67D-09 MaxDP=1.38D-06 DE=-2.51D-11 OVMax= 6.50D-07

 Cycle  15  Pass 1  IDiag  1:
 RMSU=  2.12D-09    CP:  9.91D-01  1.32D+00  1.07D+00  7.80D-01  1.19D+00
                    CP:  1.27D+00  1.32D+00  1.32D+00  1.41D+00  1.36D+00
                    CP:  1.35D+00  1.48D+00  1.27D+00  1.11D+00
 E= -991.430862675242     Delta-E=        0.000000000044 Rises=F Damp=F
 DIIS: error= 4.70D-09 at cycle  15 NSaved=  15.
 NSaved=15 IEnMin=14 EnMin= -991.430862675286     IErMin=15 ErrMin= 4.70D-09
 ErrMax= 4.70D-09  0.00D+00 EMaxC= 1.00D-01 BMatC= 6.95D-14 BMatP= 1.42D-12
 IDIUse=1 WtCom= 1.00D+00 WtEn= 0.00D+00
 Coeff-Com: -0.290D-07 0.107D-06-0.681D-06-0.238D-05-0.847D-05-0.187D-04
 Coeff-Com:  0.371D-04 0.242D-03 0.617D-03 0.644D-04-0.442D-02-0.276D-01
 Coeff-Com:  0.886D-02 0.145D+00 0.877D+00
 Coeff:     -0.290D-07 0.107D-06-0.681D-06-0.238D-05-0.847D-05-0.187D-04
 Coeff:      0.371D-04 0.242D-03 0.617D-03 0.644D-04-0.442D-02-0.276D-01
 Coeff:      0.886D-02 0.145D+00 0.877D+00
 Gap=     0.276 Goal=   None    Shift=    0.000
 RMSDP=1.19D-09 MaxDP=3.57D-07 DE= 4.37D-11 OVMax= 2.40D-07

 Error on total polarization charges =  0.03757
 SCF Done:  E(RM062X) =  -991.430862675     A.U. after   15 cycles
            NFock= 15  Conv=0.12D-08     -V/T= 2.0042
 KE= 9.873114871731D+02 PE=-4.340080868125D+03 EE= 1.345837463295D+03
 SMD-CDS (non-electrostatic) energy       (kcal/mol) =      -4.83
 (included in total energy above)
 Leave Link  502 at Sun Jun  9 10:43:28 2024, MaxMem= 10737418240 cpu:          257463.9 elap:            8111.3
 (Enter /public/software/apps/Gaussian/g16/l601.exe)
 Copying SCF densities to generalized density rwf, IOpCl= 0 IROHF=0.

 **********************************************************************

            Population analysis using the SCF Density.

 **********************************************************************

 Orbital symmetries:
       Occupied  (A) (A) (A) (A) (A) (A) (A) (A) (A) (A) (A) (A)
                 (A) (A) (A) (A) (A) (A) (A) (A) (A) (A) (A) (A)
                 (A) (A) (A) (A) (A) (A) (A) (A) (A) (A) (A) (A)
                 (A) (A) (A) (A) (A) (A) (A) (A) (A) (A) (A) (A)
                 (A) (A) (A) (A) (A) (A) (A)
       Virtual   (A) (A) (A) (A) (A) (A) (A) (A) (A) (A) (A) (A)
                 (A) (A) (A) (A) (A) (A) (A) (A) (A) (A) (A) (A)
                 (A) (A) (A) (A) (A) (A) (A) (A) (A) (A) (A) (A)
                 (A) (A) (A) (A) (A) (A) (A) (A) (A) (A) (A) (A)
                 (A) (A) (A) (A) (A) (A) (A) (A) (A) (A) (A) (A)
                 (A) (A) (A) (A) (A) (A) (A) (A) (A) (A) (A) (A)
                 (A) (A) (A) (A) (A) (A) (A) (A) (A) (A) (A) (A)
                 (A) (A) (A) (A) (A) (A) (A) (A) (A) (A) (A) (A)
                 (A) (A) (A) (A) (A) (A) (A) (A) (A) (A) (A) (A)
                 (A) (A) (A) (A) (A) (A) (A) (A) (A) (A) (A) (A)
                 (A) (A) (A) (A) (A) (A) (A) (A) (A) (A) (A) (A)
                 (A) (A) (A) (A) (A) (A) (A) (A) (A) (A) (A) (A)
                 (A) (A) (A) (A) (A) (A) (A) (A) (A) (A) (A) (A)
                 (A) (A) (A) (A) (A) (A) (A) (A) (A) (A) (A) (A)
                 (A) (A) (A) (A) (A) (A) (A) (A) (A) (A) (A) (A)
                 (A) (A) (A) (A) (A) (A) (A) (A) (A) (A) (A) (A)
                 (A) (A) (A) (A) (A) (A) (A) (A) (A) (A) (A) (A)
                 (A) (A) (A) (A) (A) (A) (A) (A) (A) (A) (A) (A)
                 (A) (A) (A) (A) (A) (A) (A) (A) (A) (A) (A) (A)
                 (A) (A) (A) (A) (A) (A) (A) (A) (A) (A) (A) (A)
                 (A) (A) (A) (A) (A) (A) (A) (A) (A) (A) (A) (A)
                 (A) (A) (A) (A) (A) (A) (A) (A) (A) (A) (A) (A)
                 (A) (A) (A) (A) (A) (A) (A) (A) (A) (A) (A) (A)
                 (A) (A) (A) (A) (A) (A) (A) (A) (A) (A) (A) (A)
                 (A) (A) (A) (A) (A) (A) (A) (A) (A) (A) (A) (A)
                 (A) (A) (A) (A) (A) (A) (A) (A) (A) (A) (A) (A)
                 (A) (A) (A) (A) (A) (A) (A) (A) (A) (A) (A) (A)
                 (A) (A) (A) (A) (A) (A) (A) (A) (A) (A) (A) (A)
                 (A) (A) (A) (A) (A) (A) (A) (A) (A) (A) (A) (A)
                 (A) (A) (A) (A) (A) (A) (A) (A) (A) (A) (A) (A)
                 (A) (A) (A) (A) (A) (A) (A) (A) (A) (A) (A) (A)
                 (A) (A) (A) (A) (A) (A) (A) (A) (A) (A) (A) (A)
                 (A) (A) (A) (A) (A) (A) (A) (A) (A) (A) (A) (A)
                 (A) (A) (A) (A) (A) (A) (A) (A) (A) (A) (A) (A)
                 (A) (A) (A) (A) (A) (A) (A) (A) (A) (A) (A) (A)
                 (A) (A) (A) (A) (A) (A) (A) (A) (A) (A) (A) (A)
                 (A) (A) (A) (A) (A) (A) (A) (A) (A) (A) (A) (A)
                 (A) (A) (A) (A) (A) (A) (A) (A) (A) (A) (A) (A)
                 (A) (A) (A) (A) (A) (A) (A) (A) (A) (A) (A) (A)
                 (A) (A) (A) (A) (A) (A) (A) (A) (A) (A) (A) (A)
                 (A) (A) (A) (A) (A) (A) (A) (A) (A) (A) (A) (A)
                 (A) (A) (A) (A) (A) (A) (A) (A) (A) (A) (A) (A)
                 (A) (A) (A) (A) (A) (A) (A) (A) (A) (A) (A) (A)
                 (A) (A) (A) (A) (A) (A) (A) (A) (A) (A) (A) (A)
                 (A) (A) (A) (A) (A) (A) (A) (A) (A) (A) (A) (A)
                 (A) (A) (A) (A) (A) (A) (A) (A) (A) (A) (A) (A)
                 (A) (A) (A) (A) (A) (A) (A) (A) (A) (A) (A) (A)
                 (A) (A) (A) (A) (A) (A) (A) (A) (A) (A) (A) (A)
                 (A) (A) (A) (A) (A) (A) (A) (A) (A) (A) (A) (A)
                 (A) (A) (A) (A) (A) (A) (A) (A) (A) (A) (A) (A)
                 (A) (A) (A) (A) (A) (A) (A) (A) (A) (A) (A) (A)
                 (A) (A) (A) (A) (A) (A) (A) (A) (A) (A) (A) (A)
                 (A) (A) (A) (A) (A) (A) (A) (A) (A) (A) (A) (A)
                 (A) (A) (A) (A) (A) (A) (A) (A) (A) (A) (A) (A)
                 (A) (A) (A) (A) (A) (A) (A) (A) (A) (A) (A) (A)
                 (A) (A) (A) (A) (A) (A) (A) (A) (A) (A) (A) (A)
                 (A) (A) (A) (A) (A) (A) (A) (A) (A) (A) (A) (A)
                 (A) (A) (A) (A) (A) (A) (A) (A) (A) (A) (A) (A)
                 (A) (A) (A) (A) (A) (A) (A) (A) (A) (A) (A) (A)
                 (A) (A) (A) (A) (A) (A) (A) (A) (A) (A) (A) (A)
                 (A) (A) (A) (A) (A) (A) (A) (A) (A) (A) (A) (A)
                 (A) (A) (A) (A) (A) (A) (A) (A) (A) (A) (A) (A)
                 (A) (A) (A) (A) (A) (A) (A) (A) (A) (A) (A) (A)
                 (A) (A) (A) (A) (A) (A) (A) (A) (A) (A) (A) (A)
                 (A) (A) (A) (A) (A) (A) (A) (A) (A) (A) (A) (A)
                 (A) (A) (A) (A) (A) (A) (A) (A) (A) (A) (A) (A)
                 (A) (A) (A) (A) (A) (A) (A) (A) (A) (A) (A) (A)
                 (A) (A) (A) (A) (A) (A) (A) (A) (A) (A) (A) (A)
                 (A) (A) (A) (A) (A) (A) (A) (A) (A) (A) (A) (A)
                 (A) (A) (A) (A) (A) (A) (A) (A) (A) (A) (A) (A)
                 (A) (A) (A) (A) (A) (A) (A) (A) (A) (A) (A) (A)
                 (A) (A) (A) (A) (A) (A) (A) (A) (A) (A) (A) (A)
                 (A) (A) (A) (A) (A) (A) (A) (A) (A) (A) (A) (A)
                 (A) (A) (A) (A) (A) (A) (A) (A) (A) (A) (A) (A)
                 (A) (A) (A) (A) (A) (A) (A) (A) (A) (A) (A) (A)
                 (A) (A) (A) (A) (A) (A) (A) (A) (A) (A) (A) (A)
                 (A) (A) (A) (A) (A) (A) (A) (A) (A) (A) (A) (A)
                 (A) (A) (A) (A) (A) (A) (A) (A) (A) (A) (A) (A)
                 (A) (A) (A) (A) (A) (A) (A) (A) (A) (A) (A) (A)
                 (A) (A) (A) (A) (A) (A) (A) (A) (A) (A) (A) (A)
                 (A) (A) (A) (A) (A) (A) (A) (A) (A) (A) (A) (A)
                 (A) (A) (A) (A) (A) (A) (A) (A) (A) (A) (A) (A)
                 (A) (A) (A) (A) (A) (A) (A) (A) (A) (A) (A) (A)
                 (A) (A) (A) (A) (A) (A) (A) (A) (A) (A) (A) (A)
                 (A) (A) (A) (A) (A) (A) (A) (A) (A) (A) (A) (A)
                 (A) (A) (A) (A) (A) (A) (A) (A) (A) (A) (A) (A)
                 (A) (A) (A) (A) (A) (A) (A) (A) (A) (A) (A) (A)
                 (A) (A) (A) (A) (A) (A) (A) (A) (A) (A) (A) (A)
                 (A) (A) (A) (A) (A) (A) (A) (A) (A) (A) (A) (A)
                 (A) (A) (A) (A) (A) (A) (A) (A) (A) (A) (A) (A)
                 (A) (A) (A) (A) (A) (A) (A) (A) (A) (A) (A) (A)
                 (A) (A) (A) (A) (A) (A) (A) (A) (A) (A) (A) (A)
                 (A) (A) (A) (A) (A) (A) (A) (A) (A) (A) (A) (A)
                 (A) (A) (A) (A) (A) (A) (A) (A) (A) (A) (A) (A)
                 (A) (A) (A) (A) (A) (A) (A) (A) (A) (A) (A) (A)
                 (A) (A) (A) (A) (A) (A) (A) (A) (A) (A) (A) (A)
                 (A) (A) (A) (A) (A) (A) (A) (A) (A) (A) (A) (A)
                 (A) (A) (A) (A) (A) (A) (A) (A) (A) (A) (A) (A)
                 (A) (A) (A) (A) (A) (A) (A) (A) (A) (A) (A) (A)
                 (A) (A) (A) (A) (A) (A) (A) (A) (A) (A) (A) (A)
                 (A) (A) (A) (A) (A) (A) (A) (A) (A) (A) (A) (A)
                 (A) (A) (A) (A) (A) (A) (A) (A) (A) (A) (A) (A)
                 (A) (A) (A) (A) (A) (A) (A) (A) (A) (A) (A) (A)
                 (A) (A) (A) (A) (A) (A) (A) (A) (A) (A) (A) (A)
                 (A) (A) (A) (A) (A) (A) (A) (A) (A) (A) (A) (A)
                 (A) (A) (A) (A) (A) (A) (A) (A) (A) (A) (A) (A)
                 (A) (A) (A) (A) (A) (A) (A) (A) (A) (A) (A) (A)
                 (A) (A) (A) (A) (A) (A) (A) (A) (A) (A) (A) (A)
                 (A) (A) (A) (A) (A) (A) (A) (A) (A) (A) (A) (A)
                 (A) (A) (A) (A) (A) (A) (A) (A) (A) (A) (A) (A)
                 (A) (A) (A) (A) (A) (A) (A) (A) (A) (A) (A) (A)
                 (A) (A) (A) (A) (A) (A) (A) (A) (A) (A) (A) (A)
                 (A) (A) (A) (A) (A) (A) (A) (A) (A) (A) (A) (A)
                 (A) (A) (A) (A) (A) (A) (A) (A) (A) (A) (A) (A)
                 (A) (A) (A) (A) (A) (A) (A) (A) (A) (A) (A) (A)
                 (A) (A) (A) (A) (A) (A) (A) (A) (A) (A) (A) (A)
                 (A) (A) (A) (A) (A) (A) (A) (A) (A) (A) (A) (A)
                 (A) (A) (A) (A) (A) (A) (A) (A) (A) (A) (A) (A)
                 (A) (A) (A) (A) (A) (A) (A) (A) (A) (A) (A) (A)
                 (A) (A) (A) (A) (A) (A) (A) (A) (A) (A) (A) (A)
                 (A) (A) (A) (A) (A) (A) (A) (A) (A) (A) (A) (A)
                 (A) (A) (A) (A) (A) (A) (A) (A) (A) (A) (A) (A)
                 (A) (A) (A) (A) (A) (A) (A) (A) (A) (A) (A) (A)
                 (A) (A) (A) (A) (A) (A) (A) (A) (A) (A) (A) (A)
                 (A) (A) (A) (A) (A) (A) (A) (A) (A) (A) (A) (A)
                 (A) (A) (A) (A) (A) (A) (A) (A) (A) (A) (A) (A)
                 (A) (A) (A) (A) (A) (A) (A) (A) (A) (A) (A) (A)
                 (A) (A) (A) (A) (A) (A) (A) (A) (A) (A) (A) (A)
                 (A) (A) (A) (A) (A) (A) (A) (A) (A) (A) (A) (A)
                 (A) (A) (A) (A) (A) (A) (A) (A) (A) (A) (A) (A)
                 (A) (A) (A) (A) (A) (A) (A) (A) (A) (A) (A) (A)
                 (A) (A) (A) (A) (A) (A) (A) (A) (A) (A) (A) (A)
                 (A) (A) (A) (A) (A) (A) (A) (A) (A) (A) (A) (A)
                 (A) (A) (A) (A) (A) (A) (A) (A) (A) (A) (A) (A)
                 (A)
 The electronic state is 1-A.
 Alpha  occ. eigenvalues --  -90.21483 -19.69702 -19.69627 -14.90818 -10.68958
 Alpha  occ. eigenvalues --  -10.63927 -10.63165 -10.62430 -10.58963 -10.58736
 Alpha  occ. eigenvalues --  -10.57927 -10.57866 -10.57775 -10.57678  -8.51721
 Alpha  occ. eigenvalues --   -6.44099  -6.43722  -6.43716  -1.30188  -1.19833
 Alpha  occ. eigenvalues --   -1.16710  -1.00562  -0.95939  -0.92576  -0.89310
 Alpha  occ. eigenvalues --   -0.88651  -0.82111  -0.77756  -0.76070  -0.73584
 Alpha  occ. eigenvalues --   -0.68803  -0.66681  -0.63355  -0.62284  -0.61240
 Alpha  occ. eigenvalues --   -0.60042  -0.58450  -0.55093  -0.54801  -0.54628
 Alpha  occ. eigenvalues --   -0.54349  -0.53028  -0.52547  -0.51200  -0.48806
 Alpha  occ. eigenvalues --   -0.48355  -0.47748  -0.47160  -0.45988  -0.45782
 Alpha  occ. eigenvalues --   -0.45324  -0.43758  -0.38174  -0.34960  -0.34851
 Alpha virt. eigenvalues --   -0.07267  -0.06347  -0.02580  -0.02028  -0.01546
 Alpha virt. eigenvalues --   -0.01085  -0.00984  -0.00820   0.00424   0.00488
 Alpha virt. eigenvalues --    0.00693   0.01091   0.01311   0.02044   0.02432
 Alpha virt. eigenvalues --    0.02584   0.02739   0.03236   0.03372   0.03782
 Alpha virt. eigenvalues --    0.04368   0.04541   0.04680   0.05208   0.05264
 Alpha virt. eigenvalues --    0.05562   0.05919   0.06262   0.06514   0.06844
 Alpha virt. eigenvalues --    0.07018   0.07118   0.07191   0.07360   0.07594
 Alpha virt. eigenvalues --    0.07809   0.08009   0.08252   0.08596   0.08753
 Alpha virt. eigenvalues --    0.09126   0.09545   0.09755   0.09847   0.10191
 Alpha virt. eigenvalues --    0.10538   0.10690   0.11121   0.11247   0.11710
 Alpha virt. eigenvalues --    0.11783   0.11897   0.12656   0.12880   0.13388
 Alpha virt. eigenvalues --    0.13529   0.13800   0.14121   0.14596   0.15041
 Alpha virt. eigenvalues --    0.15668   0.15956   0.16056   0.16199   0.16904
 Alpha virt. eigenvalues --    0.17005   0.17418   0.17440   0.17760   0.18000
 Alpha virt. eigenvalues --    0.18176   0.18475   0.18811   0.18820   0.18992
 Alpha virt. eigenvalues --    0.19359   0.19795   0.19934   0.19976   0.20125
 Alpha virt. eigenvalues --    0.20476   0.20603   0.20820   0.21133   0.21327
 Alpha virt. eigenvalues --    0.21911   0.22242   0.22310   0.22741   0.23057
 Alpha virt. eigenvalues --    0.23436   0.23775   0.23847   0.24109   0.24174
 Alpha virt. eigenvalues --    0.24557   0.24838   0.25197   0.25486   0.25630
 Alpha virt. eigenvalues --    0.25889   0.26129   0.26256   0.26498   0.26554
 Alpha virt. eigenvalues --    0.26580   0.26847   0.27385   0.27556   0.27843
 Alpha virt. eigenvalues --    0.28289   0.28564   0.28809   0.29043   0.29335
 Alpha virt. eigenvalues --    0.29748   0.29790   0.30447   0.30696   0.30996
 Alpha virt. eigenvalues --    0.31155   0.31292   0.31709   0.31970   0.32289
 Alpha virt. eigenvalues --    0.32579   0.32919   0.33204   0.33233   0.33524
 Alpha virt. eigenvalues --    0.33620   0.33970   0.34181   0.34327   0.34786
 Alpha virt. eigenvalues --    0.35006   0.35214   0.35241   0.35616   0.35953
 Alpha virt. eigenvalues --    0.36310   0.36417   0.36671   0.37264   0.37518
 Alpha virt. eigenvalues --    0.37650   0.37831   0.38161   0.38362   0.38675
 Alpha virt. eigenvalues --    0.38771   0.39011   0.39354   0.39565   0.40001
 Alpha virt. eigenvalues --    0.40345   0.40642   0.40884   0.41054   0.41251
 Alpha virt. eigenvalues --    0.41651   0.41785   0.42037   0.42156   0.42542
 Alpha virt. eigenvalues --    0.42891   0.43292   0.43634   0.43941   0.44260
 Alpha virt. eigenvalues --    0.44394   0.44538   0.45238   0.45544   0.45723
 Alpha virt. eigenvalues --    0.45890   0.46246   0.46791   0.47338   0.47700
 Alpha virt. eigenvalues --    0.48028   0.48160   0.48379   0.48980   0.49294
 Alpha virt. eigenvalues --    0.49563   0.50096   0.50462   0.50741   0.51164
 Alpha virt. eigenvalues --    0.51402   0.51759   0.52106   0.52310   0.52949
 Alpha virt. eigenvalues --    0.53149   0.53218   0.53886   0.54103   0.54324
 Alpha virt. eigenvalues --    0.54978   0.55273   0.55352   0.55560   0.55904
 Alpha virt. eigenvalues --    0.56159   0.56691   0.56997   0.57595   0.58051
 Alpha virt. eigenvalues --    0.58510   0.58943   0.59342   0.59628   0.59960
 Alpha virt. eigenvalues --    0.60315   0.60805   0.61127   0.61273   0.61598
 Alpha virt. eigenvalues --    0.61798   0.62090   0.62550   0.62773   0.62933
 Alpha virt. eigenvalues --    0.63348   0.63732   0.64169   0.64414   0.64931
 Alpha virt. eigenvalues --    0.65215   0.65365   0.65775   0.65899   0.66305
 Alpha virt. eigenvalues --    0.66892   0.66947   0.67145   0.67562   0.68091
 Alpha virt. eigenvalues --    0.68724   0.68872   0.68967   0.69467   0.69639
 Alpha virt. eigenvalues --    0.70180   0.70469   0.70512   0.70695   0.71002
 Alpha virt. eigenvalues --    0.71411   0.72171   0.72314   0.72582   0.72987
 Alpha virt. eigenvalues --    0.73133   0.73358   0.74184   0.74397   0.74755
 Alpha virt. eigenvalues --    0.74863   0.75048   0.75627   0.76078   0.76152
 Alpha virt. eigenvalues --    0.76800   0.77085   0.77649   0.77985   0.78191
 Alpha virt. eigenvalues --    0.78378   0.78766   0.79027   0.79195   0.79326
 Alpha virt. eigenvalues --    0.79790   0.80017   0.80301   0.80793   0.80899
 Alpha virt. eigenvalues --    0.81407   0.81531   0.81926   0.82068   0.82986
 Alpha virt. eigenvalues --    0.83162   0.83560   0.83679   0.83979   0.84724
 Alpha virt. eigenvalues --    0.85278   0.85539   0.85625   0.85917   0.86112
 Alpha virt. eigenvalues --    0.86315   0.86857   0.87191   0.87585   0.87839
 Alpha virt. eigenvalues --    0.88239   0.89021   0.89427   0.89568   0.90030
 Alpha virt. eigenvalues --    0.90192   0.90478   0.90741   0.90948   0.91095
 Alpha virt. eigenvalues --    0.91580   0.92060   0.92315   0.92410   0.92799
 Alpha virt. eigenvalues --    0.93560   0.93652   0.94439   0.94974   0.95482
 Alpha virt. eigenvalues --    0.95811   0.95997   0.96087   0.96600   0.96951
 Alpha virt. eigenvalues --    0.97041   0.97919   0.97939   0.98567   0.98761
 Alpha virt. eigenvalues --    0.99128   0.99784   1.00168   1.00699   1.00877
 Alpha virt. eigenvalues --    1.01075   1.01928   1.02550   1.02732   1.02964
 Alpha virt. eigenvalues --    1.03088   1.03442   1.03767   1.04192   1.04504
 Alpha virt. eigenvalues --    1.04598   1.05080   1.05691   1.05833   1.06551
 Alpha virt. eigenvalues --    1.07039   1.07458   1.07611   1.07767   1.08252
 Alpha virt. eigenvalues --    1.08423   1.09087   1.09321   1.09856   1.10156
 Alpha virt. eigenvalues --    1.10291   1.10609   1.10829   1.11091   1.11541
 Alpha virt. eigenvalues --    1.12366   1.12712   1.12846   1.13366   1.13674
 Alpha virt. eigenvalues --    1.14127   1.14407   1.14834   1.15003   1.15551
 Alpha virt. eigenvalues --    1.15820   1.15939   1.16639   1.16903   1.17162
 Alpha virt. eigenvalues --    1.17625   1.18325   1.18420   1.18554   1.19059
 Alpha virt. eigenvalues --    1.19562   1.20153   1.20672   1.21172   1.21554
 Alpha virt. eigenvalues --    1.21952   1.22204   1.22580   1.23351   1.24043
 Alpha virt. eigenvalues --    1.24196   1.24758   1.25183   1.25546   1.25698
 Alpha virt. eigenvalues --    1.26025   1.26443   1.27003   1.27592   1.27844
 Alpha virt. eigenvalues --    1.28105   1.28441   1.28631   1.29495   1.29977
 Alpha virt. eigenvalues --    1.30740   1.31426   1.31636   1.31904   1.32256
 Alpha virt. eigenvalues --    1.32540   1.33392   1.33649   1.34311   1.35270
 Alpha virt. eigenvalues --    1.35552   1.35745   1.36073   1.36794   1.36940
 Alpha virt. eigenvalues --    1.38012   1.38580   1.38649   1.39062   1.39215
 Alpha virt. eigenvalues --    1.39606   1.40014   1.40434   1.40805   1.41871
 Alpha virt. eigenvalues --    1.42161   1.42523   1.43285   1.43608   1.43865
 Alpha virt. eigenvalues --    1.44335   1.44732   1.45047   1.45638   1.45791
 Alpha virt. eigenvalues --    1.46674   1.46996   1.47221   1.47778   1.47918
 Alpha virt. eigenvalues --    1.48305   1.48654   1.49230   1.49689   1.50540
 Alpha virt. eigenvalues --    1.51066   1.51163   1.51536   1.51859   1.52096
 Alpha virt. eigenvalues --    1.53683   1.54233   1.54520   1.55186   1.55344
 Alpha virt. eigenvalues --    1.55755   1.56546   1.57111   1.57135   1.57622
 Alpha virt. eigenvalues --    1.58443   1.59086   1.59326   1.59423   1.60145
 Alpha virt. eigenvalues --    1.60462   1.61636   1.61699   1.62022   1.62319
 Alpha virt. eigenvalues --    1.62543   1.63211   1.63713   1.64040   1.64684
 Alpha virt. eigenvalues --    1.64791   1.65352   1.65753   1.66142   1.67067
 Alpha virt. eigenvalues --    1.67183   1.68056   1.68227   1.68977   1.69419
 Alpha virt. eigenvalues --    1.69869   1.70826   1.71456   1.71824   1.71959
 Alpha virt. eigenvalues --    1.72246   1.72993   1.73544   1.73812   1.74246
 Alpha virt. eigenvalues --    1.74775   1.75742   1.75908   1.76151   1.76490
 Alpha virt. eigenvalues --    1.77185   1.77319   1.77784   1.78293   1.78999
 Alpha virt. eigenvalues --    1.79562   1.79717   1.80505   1.80781   1.81373
 Alpha virt. eigenvalues --    1.81840   1.82105   1.82930   1.83326   1.83911
 Alpha virt. eigenvalues --    1.84239   1.84499   1.85022   1.85240   1.85480
 Alpha virt. eigenvalues --    1.85698   1.86293   1.86756   1.87438   1.87880
 Alpha virt. eigenvalues --    1.88318   1.88772   1.88916   1.89458   1.89523
 Alpha virt. eigenvalues --    1.90331   1.90509   1.90869   1.91567   1.91847
 Alpha virt. eigenvalues --    1.92198   1.92499   1.92819   1.93256   1.94238
 Alpha virt. eigenvalues --    1.94323   1.94492   1.95298   1.95722   1.95938
 Alpha virt. eigenvalues --    1.96170   1.96524   1.97074   1.97510   1.97783
 Alpha virt. eigenvalues --    1.98046   1.98647   1.98773   1.98981   1.99483
 Alpha virt. eigenvalues --    1.99968   2.00271   2.00484   2.00581   2.00997
 Alpha virt. eigenvalues --    2.01518   2.02108   2.02603   2.02788   2.03079
 Alpha virt. eigenvalues --    2.03537   2.03874   2.04038   2.04219   2.05039
 Alpha virt. eigenvalues --    2.05589   2.05741   2.05992   2.06475   2.06956
 Alpha virt. eigenvalues --    2.07006   2.07814   2.07921   2.08649   2.09012
 Alpha virt. eigenvalues --    2.09396   2.09614   2.10115   2.10655   2.11014
 Alpha virt. eigenvalues --    2.11270   2.11761   2.11987   2.12505   2.12697
 Alpha virt. eigenvalues --    2.13045   2.13834   2.14065   2.14302   2.14553
 Alpha virt. eigenvalues --    2.15088   2.15774   2.15919   2.16287   2.16538
 Alpha virt. eigenvalues --    2.17139   2.17531   2.17677   2.18267   2.18839
 Alpha virt. eigenvalues --    2.19310   2.19584   2.19809   2.20022   2.20606
 Alpha virt. eigenvalues --    2.21049   2.21481   2.21690   2.22308   2.22527
 Alpha virt. eigenvalues --    2.23025   2.23314   2.23748   2.24124   2.24480
 Alpha virt. eigenvalues --    2.24826   2.25174   2.25372   2.26294   2.26677
 Alpha virt. eigenvalues --    2.26724   2.27227   2.27610   2.27822   2.28326
 Alpha virt. eigenvalues --    2.28680   2.28900   2.29127   2.29389   2.29919
 Alpha virt. eigenvalues --    2.30403   2.30709   2.31370   2.31750   2.32289
 Alpha virt. eigenvalues --    2.32835   2.33472   2.33577   2.34368   2.34539
 Alpha virt. eigenvalues --    2.35068   2.35334   2.35819   2.36194   2.36543
 Alpha virt. eigenvalues --    2.36962   2.37207   2.37520   2.38675   2.39248
 Alpha virt. eigenvalues --    2.39748   2.40016   2.40315   2.40698   2.41442
 Alpha virt. eigenvalues --    2.41520   2.42011   2.42221   2.42745   2.43027
 Alpha virt. eigenvalues --    2.44080   2.44344   2.44825   2.45081   2.46072
 Alpha virt. eigenvalues --    2.46305   2.46863   2.47330   2.47790   2.48212
 Alpha virt. eigenvalues --    2.48823   2.49394   2.49505   2.50699   2.51304
 Alpha virt. eigenvalues --    2.51724   2.52308   2.52688   2.53350   2.53647
 Alpha virt. eigenvalues --    2.54165   2.54766   2.54870   2.55529   2.56174
 Alpha virt. eigenvalues --    2.56477   2.56957   2.57374   2.58029   2.58309
 Alpha virt. eigenvalues --    2.58708   2.59330   2.59472   2.59840   2.60898
 Alpha virt. eigenvalues --    2.61305   2.61599   2.61940   2.62784   2.63058
 Alpha virt. eigenvalues --    2.63426   2.64068   2.64246   2.64494   2.64880
 Alpha virt. eigenvalues --    2.66029   2.66484   2.66827   2.67126   2.68223
 Alpha virt. eigenvalues --    2.68619   2.68795   2.69156   2.70129   2.70897
 Alpha virt. eigenvalues --    2.71100   2.71417   2.71990   2.72500   2.72892
 Alpha virt. eigenvalues --    2.73640   2.74394   2.75017   2.75194   2.75922
 Alpha virt. eigenvalues --    2.76954   2.77768   2.78551   2.79260   2.79828
 Alpha virt. eigenvalues --    2.80277   2.80464   2.81476   2.82142   2.82320
 Alpha virt. eigenvalues --    2.82818   2.83132   2.83557   2.84458   2.85107
 Alpha virt. eigenvalues --    2.85358   2.86261   2.86646   2.86938   2.87652
 Alpha virt. eigenvalues --    2.87882   2.88298   2.88512   2.89442   2.90350
 Alpha virt. eigenvalues --    2.90457   2.91181   2.91756   2.92248   2.93163
 Alpha virt. eigenvalues --    2.93829   2.94563   2.94954   2.95840   2.96482
 Alpha virt. eigenvalues --    2.96652   2.97388   2.97782   2.98300   2.98473
 Alpha virt. eigenvalues --    2.99154   2.99378   3.00138   3.01117   3.01726
 Alpha virt. eigenvalues --    3.02739   3.03007   3.03864   3.04468   3.04930
 Alpha virt. eigenvalues --    3.05155   3.06257   3.06850   3.07375   3.08506
 Alpha virt. eigenvalues --    3.09083   3.10215   3.10475   3.10817   3.11299
 Alpha virt. eigenvalues --    3.12805   3.13016   3.14252   3.15013   3.15531
 Alpha virt. eigenvalues --    3.16752   3.17603   3.18757   3.19186   3.19564
 Alpha virt. eigenvalues --    3.20669   3.21256   3.21749   3.22500   3.23008
 Alpha virt. eigenvalues --    3.23993   3.24522   3.26580   3.26995   3.28108
 Alpha virt. eigenvalues --    3.28427   3.29118   3.29574   3.30730   3.31772
 Alpha virt. eigenvalues --    3.31893   3.33182   3.33582   3.33897   3.34266
 Alpha virt. eigenvalues --    3.35387   3.36319   3.38046   3.38223   3.39192
 Alpha virt. eigenvalues --    3.39820   3.40454   3.40814   3.42317   3.43119
 Alpha virt. eigenvalues --    3.43635   3.44025   3.45272   3.45643   3.46019
 Alpha virt. eigenvalues --    3.46766   3.47441   3.48516   3.49321   3.49756
 Alpha virt. eigenvalues --    3.51488   3.51788   3.51915   3.52143   3.52858
 Alpha virt. eigenvalues --    3.54410   3.54934   3.55335   3.56286   3.56956
 Alpha virt. eigenvalues --    3.57864   3.58716   3.59129   3.59904   3.60375
 Alpha virt. eigenvalues --    3.60967   3.62014   3.62387   3.62748   3.62945
 Alpha virt. eigenvalues --    3.64249   3.64825   3.64954   3.66094   3.67265
 Alpha virt. eigenvalues --    3.67525   3.67961   3.68840   3.69406   3.70020
 Alpha virt. eigenvalues --    3.70612   3.70850   3.71652   3.72329   3.72844
 Alpha virt. eigenvalues --    3.73311   3.73647   3.74606   3.75239   3.75318
 Alpha virt. eigenvalues --    3.75785   3.76738   3.77168   3.78385   3.79110
 Alpha virt. eigenvalues --    3.79631   3.80186   3.81036   3.81464   3.82116
 Alpha virt. eigenvalues --    3.82285   3.82990   3.83468   3.83835   3.84292
 Alpha virt. eigenvalues --    3.85249   3.85848   3.86714   3.87065   3.88029
 Alpha virt. eigenvalues --    3.88166   3.88262   3.88983   3.89416   3.91372
 Alpha virt. eigenvalues --    3.91622   3.92001   3.93110   3.93388   3.94201
 Alpha virt. eigenvalues --    3.95026   3.95838   3.96499   3.96753   3.97221
 Alpha virt. eigenvalues --    3.98295   3.98861   3.98942   4.00141   4.00723
 Alpha virt. eigenvalues --    4.01170   4.02439   4.02995   4.03633   4.03906
 Alpha virt. eigenvalues --    4.04500   4.05256   4.05585   4.06052   4.06581
 Alpha virt. eigenvalues --    4.07304   4.07566   4.07827   4.08906   4.09202
 Alpha virt. eigenvalues --    4.10262   4.10631   4.10825   4.11725   4.12527
 Alpha virt. eigenvalues --    4.12650   4.13377   4.13957   4.14235   4.15032
 Alpha virt. eigenvalues --    4.15477   4.16440   4.16607   4.17110   4.17857
 Alpha virt. eigenvalues --    4.18488   4.19208   4.19793   4.20581   4.21530
 Alpha virt. eigenvalues --    4.22217   4.22500   4.22792   4.24132   4.24618
 Alpha virt. eigenvalues --    4.25667   4.25853   4.26845   4.27394   4.27994
 Alpha virt. eigenvalues --    4.28961   4.29676   4.30620   4.31073   4.31409
 Alpha virt. eigenvalues --    4.31653   4.32477   4.33458   4.34745   4.35285
 Alpha virt. eigenvalues --    4.36031   4.36621   4.37006   4.37293   4.38537
 Alpha virt. eigenvalues --    4.39969   4.40366   4.41306   4.41868   4.42558
 Alpha virt. eigenvalues --    4.42861   4.43637   4.44269   4.45450   4.45728
 Alpha virt. eigenvalues --    4.47247   4.47819   4.48410   4.49137   4.50658
 Alpha virt. eigenvalues --    4.51638   4.53927   4.54402   4.55978   4.57015
 Alpha virt. eigenvalues --    4.57496   4.58443   4.59823   4.60482   4.61527
 Alpha virt. eigenvalues --    4.61730   4.62611   4.63944   4.65240   4.65426
 Alpha virt. eigenvalues --    4.67107   4.67654   4.69575   4.70306   4.71213
 Alpha virt. eigenvalues --    4.71932   4.73062   4.73627   4.74171   4.74788
 Alpha virt. eigenvalues --    4.75951   4.76771   4.77748   4.78022   4.79469
 Alpha virt. eigenvalues --    4.80425   4.81228   4.82871   4.84425   4.85203
 Alpha virt. eigenvalues --    4.86156   4.87200   4.88248   4.89055   4.89890
 Alpha virt. eigenvalues --    4.90735   4.91074   4.94369   4.95643   4.97234
 Alpha virt. eigenvalues --    4.97318   4.99485   4.99586   5.00236   5.01989
 Alpha virt. eigenvalues --    5.03850   5.04593   5.05332   5.06875   5.09370
 Alpha virt. eigenvalues --    5.13447   5.15443   5.16642   5.18257   5.19353
 Alpha virt. eigenvalues --    5.21494   5.22440   5.24567   5.25452   5.28865
 Alpha virt. eigenvalues --    5.29994   5.32944   5.36496   5.36640   5.39416
 Alpha virt. eigenvalues --    5.41058   5.42589   5.43665   5.45381   5.48939
 Alpha virt. eigenvalues --    5.51357   5.52442   5.54524   5.55185   5.56157
 Alpha virt. eigenvalues --    5.56849   5.58225   5.58497   5.59861   5.61869
 Alpha virt. eigenvalues --    5.64145   5.64588   5.67098   5.67750   5.69051
 Alpha virt. eigenvalues --    5.70409   5.71974   5.74229   5.75703   5.76227
 Alpha virt. eigenvalues --    5.76445   5.78564   5.79319   5.79417   5.80262
 Alpha virt. eigenvalues --    5.81156   5.81987   5.82670   5.83370   5.83809
 Alpha virt. eigenvalues --    5.85906   5.86242   5.86501   5.87328   5.88051
 Alpha virt. eigenvalues --    5.88910   5.89848   5.90872   5.91475   5.92296
 Alpha virt. eigenvalues --    5.93633   5.94887   5.95836   5.96688   5.97688
 Alpha virt. eigenvalues --    5.98865   6.00325   6.02125   6.02466   6.03613
 Alpha virt. eigenvalues --    6.05361   6.06127   6.06889   6.07875   6.08774
 Alpha virt. eigenvalues --    6.10290   6.11753   6.12693   6.15320   6.16692
 Alpha virt. eigenvalues --    6.17034   6.18530   6.19649   6.19954   6.21998
 Alpha virt. eigenvalues --    6.22043   6.23037   6.24171   6.24382   6.25193
 Alpha virt. eigenvalues --    6.26004   6.27002   6.27525   6.28021   6.28897
 Alpha virt. eigenvalues --    6.29168   6.29657   6.29778   6.31158   6.32383
 Alpha virt. eigenvalues --    6.32738   6.33333   6.34477   6.35258   6.36102
 Alpha virt. eigenvalues --    6.37789   6.38930   6.39190   6.40398   6.40788
 Alpha virt. eigenvalues --    6.41524   6.41929   6.42484   6.43191   6.43557
 Alpha virt. eigenvalues --    6.44714   6.45219   6.45912   6.46375   6.47195
 Alpha virt. eigenvalues --    6.48027   6.48703   6.50098   6.50275   6.50681
 Alpha virt. eigenvalues --    6.51442   6.52712   6.53851   6.54551   6.54847
 Alpha virt. eigenvalues --    6.55791   6.57262   6.58266   6.58461   6.58707
 Alpha virt. eigenvalues --    6.59959   6.60434   6.61099   6.61441   6.62097
 Alpha virt. eigenvalues --    6.62210   6.62879   6.63665   6.63909   6.65317
 Alpha virt. eigenvalues --    6.65850   6.67309   6.67388   6.67576   6.68023
 Alpha virt. eigenvalues --    6.68651   6.69131   6.70204   6.70804   6.72274
 Alpha virt. eigenvalues --    6.72927   6.73441   6.74902   6.75369   6.76081
 Alpha virt. eigenvalues --    6.76705   6.76893   6.77482   6.78221   6.78303
 Alpha virt. eigenvalues --    6.79246   6.79925   6.80586   6.82023   6.82543
 Alpha virt. eigenvalues --    6.83147   6.83699   6.84521   6.85390   6.87064
 Alpha virt. eigenvalues --    6.87565   6.88548   6.90083   6.91492   6.92106
 Alpha virt. eigenvalues --    6.94093   6.95135   6.96319   6.96464   6.97784
 Alpha virt. eigenvalues --    6.98121   6.99017   6.99541   6.99801   7.02488
 Alpha virt. eigenvalues --    7.02869   7.03370   7.03615   7.04939   7.05591
 Alpha virt. eigenvalues --    7.07144   7.08224   7.10762   7.11201   7.13424
 Alpha virt. eigenvalues --    7.15124   7.15892   7.17201   7.17670   7.18577
 Alpha virt. eigenvalues --    7.19902   7.21333   7.21689   7.21950   7.22920
 Alpha virt. eigenvalues --    7.23983   7.25130   7.25174   7.27698   7.28357
 Alpha virt. eigenvalues --    7.28445   7.28792   7.30822   7.31619   7.31934
 Alpha virt. eigenvalues --    7.32657   7.34011   7.35766   7.36696   7.37342
 Alpha virt. eigenvalues --    7.37434   7.39587   7.40185   7.40685   7.41761
 Alpha virt. eigenvalues --    7.42466   7.44197   7.44993   7.45983   7.46099
 Alpha virt. eigenvalues --    7.47835   7.48674   7.49361   7.50173   7.50516
 Alpha virt. eigenvalues --    7.51694   7.52988   7.53278   7.53870   7.54284
 Alpha virt. eigenvalues --    7.57379   7.58430   7.59416   7.60568   7.61255
 Alpha virt. eigenvalues --    7.64101   7.64701   7.65940   7.66633   7.69849
 Alpha virt. eigenvalues --    7.72806   7.73157   7.73512   7.74018   7.77224
 Alpha virt. eigenvalues --    7.78973   7.79967   7.82007   7.83708   7.84335
 Alpha virt. eigenvalues --    7.85262   7.86262   7.87366   7.88470   7.89621
 Alpha virt. eigenvalues --    7.90898   7.92935   7.93416   7.97521   7.98675
 Alpha virt. eigenvalues --    8.00820   8.03018   8.03433   8.05484   8.05828
 Alpha virt. eigenvalues --    8.06929   8.09073   8.10056   8.11724   8.11953
 Alpha virt. eigenvalues --    8.12378   8.12951   8.14096   8.14425   8.15368
 Alpha virt. eigenvalues --    8.15584   8.17759   8.18452   8.18899   8.21379
 Alpha virt. eigenvalues --    8.22145   8.23024   8.23409   8.24580   8.25443
 Alpha virt. eigenvalues --    8.27257   8.27905   8.28001   8.29305   8.29957
 Alpha virt. eigenvalues --    8.33315   8.35643   8.36634   8.38517   8.39428
 Alpha virt. eigenvalues --    8.42021   8.43504   8.45476   8.47305   8.48169
 Alpha virt. eigenvalues --    8.49105   8.51633   8.51846   8.52459   8.53909
 Alpha virt. eigenvalues --    8.55700   8.56051   8.57654   8.58852   8.60100
 Alpha virt. eigenvalues --    8.61339   8.61964   8.63086   8.63610   8.64443
 Alpha virt. eigenvalues --    8.66296   8.66946   8.69239   8.70854   8.74215
 Alpha virt. eigenvalues --    8.75116   8.75753   8.76382   8.77910   8.78303
 Alpha virt. eigenvalues --    8.79597   8.80839   8.81698   8.83404   8.84480
 Alpha virt. eigenvalues --    8.85740   8.86709   8.88845   8.90162   8.90605
 Alpha virt. eigenvalues --    8.91726   8.92734   8.93498   8.94009   8.95484
 Alpha virt. eigenvalues --    8.96573   8.97575   8.98718   8.99040   9.00919
 Alpha virt. eigenvalues --    9.01263   9.02380   9.04104   9.06721   9.07124
 Alpha virt. eigenvalues --    9.08331   9.08617   9.10272   9.10751   9.12135
 Alpha virt. eigenvalues --    9.13367   9.15122   9.16091   9.16148   9.17735
 Alpha virt. eigenvalues --    9.19782   9.20380   9.22733   9.23291   9.26234
 Alpha virt. eigenvalues --    9.26924   9.28335   9.29504   9.32534   9.34092
 Alpha virt. eigenvalues --    9.36701   9.39303   9.40654   9.41363   9.42751
 Alpha virt. eigenvalues --    9.43429   9.44131   9.45585   9.46261   9.48537
 Alpha virt. eigenvalues --    9.49584   9.51795   9.53948   9.54850   9.59434
 Alpha virt. eigenvalues --    9.60316   9.60423   9.61498   9.62147   9.64522
 Alpha virt. eigenvalues --    9.66242   9.66956   9.69327   9.69908   9.70363
 Alpha virt. eigenvalues --    9.70666   9.73295   9.74211   9.74531   9.75414
 Alpha virt. eigenvalues --    9.76095   9.77546   9.78560   9.81614   9.82033
 Alpha virt. eigenvalues --    9.82916   9.83623   9.85117   9.86818   9.88353
 Alpha virt. eigenvalues --    9.89764   9.92772   9.95536   9.96538  10.01899
 Alpha virt. eigenvalues --   10.05758  10.08492  10.10000  10.11761  10.13202
 Alpha virt. eigenvalues --   10.14491  10.15331  10.16397  10.18138  10.18486
 Alpha virt. eigenvalues --   10.19828  10.21890  10.23416  10.25818  10.26368
 Alpha virt. eigenvalues --   10.29396  10.29841  10.32022  10.33382  10.33816
 Alpha virt. eigenvalues --   10.35464  10.36605  10.36922  10.38585  10.39366
 Alpha virt. eigenvalues --   10.40736  10.41123  10.42169  10.43092  10.46114
 Alpha virt. eigenvalues --   10.47010  10.48465  10.50644  10.51793  10.52862
 Alpha virt. eigenvalues --   10.53659  10.54615  10.55947  10.58694  10.59028
 Alpha virt. eigenvalues --   10.60874  10.62866  10.67267  10.68383  10.70435
 Alpha virt. eigenvalues --   10.71971  10.75143  10.76530  10.79234  10.81037
 Alpha virt. eigenvalues --   10.81845  10.85928  10.97972  11.02788  11.04145
 Alpha virt. eigenvalues --   11.04752  11.06093  11.09144  11.12294  11.15397
 Alpha virt. eigenvalues --   11.23448  11.28768  11.33600  11.36886  11.37914
 Alpha virt. eigenvalues --   11.41231  11.43228  11.46635  11.54405  11.56882
 Alpha virt. eigenvalues --   11.58044  11.66622  11.71005  11.71966  12.05166
 Alpha virt. eigenvalues --   12.09339  12.15362  12.19267  12.25658  12.27645
 Alpha virt. eigenvalues --   12.35246  12.48742  12.51065  12.51969  12.54720
 Alpha virt. eigenvalues --   12.57742  12.58826  12.62882  12.66438  12.66878
 Alpha virt. eigenvalues --   12.67997  12.69110  12.69735  12.71179  12.72992
 Alpha virt. eigenvalues --   12.76147  12.77568  12.79876  12.81405  12.87805
 Alpha virt. eigenvalues --   12.89452  12.98744  13.01159  13.39405  13.52336
 Alpha virt. eigenvalues --   24.68222  25.13985  25.31704  25.39671  25.72962
 Alpha virt. eigenvalues --   25.78067  26.00127  26.10195  26.18123  27.76648
 Alpha virt. eigenvalues --   27.86986  33.92230  43.01720  43.04975
          Condensed to atoms (all electrons):
               1          2          3          4          5          6
     1  N    8.857285  -0.231286  -0.081131  -0.035656  -0.279943  -0.022799
     2  S   -0.231286  14.492555   0.090087   0.075307   0.043760  -0.119192
     3  O   -0.081131   0.090087   8.993169  -0.103366   0.024979   0.019600
     4  O   -0.035656   0.075307  -0.103366   8.971674   0.005069   0.006487
     5  C   -0.279943   0.043760   0.024979   0.005069   7.755728   0.212844
     6  H   -0.022799  -0.119192   0.019600   0.006487   0.212844   0.294821
     7  H    0.016797   0.155796  -0.031970  -0.028374   0.158010  -0.123817
     8  H   -0.096214  -0.197274   0.033636   0.012274   0.073813   0.076079
     9  C    0.359593  -0.244483   0.026356  -0.032719  -0.072334   0.013941
    10  C   -0.340857  -0.016637  -0.014057   0.010651  -0.018211  -0.010504
    11  C   -0.095775   0.000135   0.000821   0.014828  -0.003113   0.000089
    12  H   -0.004044  -0.003273  -0.000154  -0.000005  -0.000483   0.000067
    13  H    0.005086  -0.001214   0.000144  -0.000401  -0.000477   0.000120
    14  C   -0.577561  -0.015255  -0.041376   0.074193  -0.039737  -0.028160
    15  C   -0.256515  -0.018968   0.029380  -0.004641  -0.019953  -0.003269
    16  C   -0.356299  -0.094760   0.002430   0.000455   0.032894   0.007274
    17  C   -0.019845  -0.009173  -0.003669   0.003216  -0.004040  -0.000438
    18  H   -0.016174   0.020112  -0.027992  -0.007600   0.007774  -0.000499
    19  C   -0.106511   0.005863   0.003465   0.001837  -0.004254  -0.002481
    20  H    0.029446   0.000599   0.000414   0.000669   0.010171   0.000478
    21  C    0.059084  -0.004285  -0.001532  -0.000075   0.002437   0.000424
    22  H    0.000266  -0.000181   0.001007   0.000038   0.000012  -0.000054
    23  H   -0.004100   0.000059  -0.000150   0.000083   0.000425  -0.000199
    24  H   -0.009902   0.001330   0.000084  -0.000009   0.000998   0.000145
    25  H   -0.015960   0.002355  -0.000585   0.003283   0.005668   0.000319
    26  H    0.011533  -0.001649   0.000886   0.000362  -0.000162  -0.000067
               7          8          9         10         11         12
     1  N    0.016797  -0.096214   0.359593  -0.340857  -0.095775  -0.004044
     2  S    0.155796  -0.197274  -0.244483  -0.016637   0.000135  -0.003273
     3  O   -0.031970   0.033636   0.026356  -0.014057   0.000821  -0.000154
     4  O   -0.028374   0.012274  -0.032719   0.010651   0.014828  -0.000005
     5  C    0.158010   0.073813  -0.072334  -0.018211  -0.003113  -0.000483
     6  H   -0.123817   0.076079   0.013941  -0.010504   0.000089   0.000067
     7  H    0.605518  -0.182531  -0.010025   0.003627  -0.000388  -0.000025
     8  H   -0.182531   0.496151   0.016367  -0.004080  -0.000236  -0.000045
     9  C   -0.010025   0.016367   5.555940   0.356938  -0.247007   0.008387
    10  C    0.003627  -0.004080   0.356938   6.953016   0.074023  -0.036130
    11  C   -0.000388  -0.000236  -0.247007   0.074023   7.832515   0.164087
    12  H   -0.000025  -0.000045   0.008387  -0.036130   0.164087   0.223629
    13  H   -0.000042  -0.000077   0.022690  -0.082398   0.206850   0.023376
    14  C    0.020933  -0.063526  -0.504727  -0.137452  -0.004673   0.011396
    15  C    0.000752  -0.013605  -0.122801  -0.005139  -0.001221   0.000372
    16  C   -0.001014   0.050521  -0.087104  -0.036348  -0.014984  -0.001197
    17  C   -0.000442  -0.000898  -0.045238   0.022702  -0.006827   0.000048
    18  H    0.001746   0.004149  -0.025248  -0.016829   0.001898  -0.000024
    19  C    0.001396  -0.004119  -0.075326  -0.023119   0.001095   0.000128
    20  H    0.003686   0.011856  -0.033765   0.011532   0.000593   0.000179
    21  C    0.000254  -0.008667   0.024175  -0.002220   0.000843   0.000044
    22  H   -0.000015   0.000456   0.000461   0.000692  -0.000566   0.000003
    23  H   -0.000033  -0.002339   0.002494   0.000575   0.000112   0.000030
    24  H    0.000097  -0.000647   0.003235  -0.000138   0.000120   0.000006
    25  H    0.000100   0.001349  -0.018568   0.161935  -0.053708  -0.010924
    26  H    0.000057  -0.000193   0.029638   0.000963   0.152397   0.001595
              13         14         15         16         17         18
     1  N    0.005086  -0.577561  -0.256515  -0.356299  -0.019845  -0.016174
     2  S   -0.001214  -0.015255  -0.018968  -0.094760  -0.009173   0.020112
     3  O    0.000144  -0.041376   0.029380   0.002430  -0.003669  -0.027992
     4  O   -0.000401   0.074193  -0.004641   0.000455   0.003216  -0.007600
     5  C   -0.000477  -0.039737  -0.019953   0.032894  -0.004040   0.007774
     6  H    0.000120  -0.028160  -0.003269   0.007274  -0.000438  -0.000499
     7  H   -0.000042   0.020933   0.000752  -0.001014  -0.000442   0.001746
     8  H   -0.000077  -0.063526  -0.013605   0.050521  -0.000898   0.004149
     9  C    0.022690  -0.504727  -0.122801  -0.087104  -0.045238  -0.025248
    10  C   -0.082398  -0.137452  -0.005139  -0.036348   0.022702  -0.016829
    11  C    0.206850  -0.004673  -0.001221  -0.014984  -0.006827   0.001898
    12  H    0.023376   0.011396   0.000372  -0.001197   0.000048  -0.000024
    13  H    0.219252   0.005813   0.001687  -0.000249  -0.000646   0.000283
    14  C    0.005813   7.824137   0.049023  -0.040147  -0.726915  -0.064547
    15  C    0.001687   0.049023   7.427538  -0.471415   0.458279  -0.049275
    16  C   -0.000249  -0.040147  -0.471415   7.640298   0.183576   0.048651
    17  C   -0.000646  -0.726915   0.458279   0.183576   7.645218  -0.120896
    18  H    0.000283  -0.064547  -0.049275   0.048651  -0.120896   0.621170
    19  C    0.000234  -0.525373   0.145290   0.686359   0.026327   0.011861
    20  H    0.000110  -0.171749   0.013022  -0.043575   0.038559   0.000788
    21  C    0.000063   0.179759  -0.183143  -0.389819  -0.392301  -0.037026
    22  H   -0.000026  -0.011435  -0.150742   0.033343   0.179145   0.015725
    23  H    0.000046   0.003093   0.030019  -0.173607  -0.020594   0.002218
    24  H    0.000016   0.086640  -0.041009  -0.039560  -0.166545  -0.006296
    25  H   -0.013256  -0.032964  -0.002209   0.005797   0.002037  -0.000956
    26  H    0.005296  -0.002489   0.001132   0.000575  -0.000757  -0.001204
              19         20         21         22         23         24
     1  N   -0.106511   0.029446   0.059084   0.000266  -0.004100  -0.009902
     2  S    0.005863   0.000599  -0.004285  -0.000181   0.000059   0.001330
     3  O    0.003465   0.000414  -0.001532   0.001007  -0.000150   0.000084
     4  O    0.001837   0.000669  -0.000075   0.000038   0.000083  -0.000009
     5  C   -0.004254   0.010171   0.002437   0.000012   0.000425   0.000998
     6  H   -0.002481   0.000478   0.000424  -0.000054  -0.000199   0.000145
     7  H    0.001396   0.003686   0.000254  -0.000015  -0.000033   0.000097
     8  H   -0.004119   0.011856  -0.008667   0.000456  -0.002339  -0.000647
     9  C   -0.075326  -0.033765   0.024175   0.000461   0.002494   0.003235
    10  C   -0.023119   0.011532  -0.002220   0.000692   0.000575  -0.000138
    11  C    0.001095   0.000593   0.000843  -0.000566   0.000112   0.000120
    12  H    0.000128   0.000179   0.000044   0.000003   0.000030   0.000006
    13  H    0.000234   0.000110   0.000063  -0.000026   0.000046   0.000016
    14  C   -0.525373  -0.171749   0.179759  -0.011435   0.003093   0.086640
    15  C    0.145290   0.013022  -0.183143  -0.150742   0.030019  -0.041009
    16  C    0.686359  -0.043575  -0.389819   0.033343  -0.173607  -0.039560
    17  C    0.026327   0.038559  -0.392301   0.179145  -0.020594  -0.166545
    18  H    0.011861   0.000788  -0.037026   0.015725   0.002218  -0.006296
    19  C    6.891898  -0.012460  -0.030868   0.002355   0.197507  -0.251139
    20  H   -0.012460   0.521554  -0.060041   0.002855   0.005427  -0.011979
    21  C   -0.030868  -0.060041   7.357561  -0.085560  -0.050018   0.124336
    22  H    0.002355   0.002855  -0.085560   0.346649  -0.003291  -0.011769
    23  H    0.197507   0.005427  -0.050018  -0.003291   0.369410   0.000252
    24  H   -0.251139  -0.011979   0.124336  -0.011769   0.000252   0.544247
    25  H   -0.002246   0.000531  -0.000247   0.000074  -0.000010  -0.000047
    26  H    0.000400  -0.000279   0.000180  -0.000023  -0.000002   0.000039
              25         26
     1  N   -0.015960   0.011533
     2  S    0.002355  -0.001649
     3  O   -0.000585   0.000886
     4  O    0.003283   0.000362
     5  C    0.005668  -0.000162
     6  H    0.000319  -0.000067
     7  H    0.000100   0.000057
     8  H    0.001349  -0.000193
     9  C   -0.018568   0.029638
    10  C    0.161935   0.000963
    11  C   -0.053708   0.152397
    12  H   -0.010924   0.001595
    13  H   -0.013256   0.005296
    14  C   -0.032964  -0.002489
    15  C   -0.002209   0.001132
    16  C    0.005797   0.000575
    17  C    0.002037  -0.000757
    18  H   -0.000956  -0.001204
    19  C   -0.002246   0.000400
    20  H    0.000531  -0.000279
    21  C   -0.000247   0.000180
    22  H    0.000074  -0.000023
    23  H   -0.000010  -0.000002
    24  H   -0.000047   0.000039
    25  H    0.278565   0.005647
    26  H    0.005647   0.240532
 Mulliken charges:
               1
     1  N    0.211483
     2  S    2.069672
     3  O   -0.920477
     4  O   -0.967581
     5  C   -1.891874
     6  H    0.678792
     7  H    0.409910
     8  H    0.797801
     9  C    1.099132
    10  C   -0.852537
    11  C   -2.021907
    12  H    0.622956
    13  H    0.607718
    14  C    0.733099
    15  C   -0.812588
    16  C   -0.942094
    17  C   -1.039881
    18  H    0.638192
    19  C   -0.938120
    20  H    0.681378
    21  C   -0.503358
    22  H    0.680582
    23  H    0.642593
    24  H    0.777496
    25  H    0.684019
    26  H    0.555593
 Sum of Mulliken charges =   1.00000
 Mulliken charges with hydrogens summed into heavy atoms:
               1
     1  N    0.211483
     2  S    2.069672
     3  O   -0.920477
     4  O   -0.967581
     5  C   -0.005370
     9  C    1.099132
    10  C   -0.168518
    11  C   -0.235640
    14  C    0.733099
    15  C   -0.174397
    16  C   -0.260716
    17  C   -0.359299
    19  C   -0.295527
    21  C    0.274139
 Electronic spatial extent (au):  <R**2>=           3178.2606
 Charge=              1.0000 electrons
 Dipole moment (field-independent basis, Debye):
    X=             -0.8016    Y=              3.0448    Z=              5.1644  Tot=              6.0485
 Quadrupole moment (field-independent basis, Debye-Ang):
   XX=            -64.5568   YY=            -65.6198   ZZ=            -73.5437
   XY=            -10.8198   XZ=             -4.9768   YZ=             -7.7227
 Traceless Quadrupole moment (field-independent basis, Debye-Ang):
   XX=              3.3500   YY=              2.2869   ZZ=             -5.6369
   XY=            -10.8198   XZ=             -4.9768   YZ=             -7.7227
 Octapole moment (field-independent basis, Debye-Ang**2):
  XXX=             37.7937  YYY=             -6.4667  ZZZ=             11.6932  XYY=            -64.6505
  XXY=             42.9135  XXZ=              4.8025  XZZ=              0.7786  YZZ=              0.5619
  YYZ=             26.2821  XYZ=              4.6452
 Hexadecapole moment (field-independent basis, Debye-Ang**3):
 XXXX=          -2044.7831 YYYY=          -1040.9841 ZZZZ=           -458.1672 XXXY=            -76.5098
 XXXZ=            -12.3125 YYYX=            -84.3703 YYYZ=            -50.4222 ZZZX=            -20.0101
 ZZZY=             -6.3015 XXYY=           -528.9235 XXZZ=           -415.4754 YYZZ=           -277.5291
 XXYZ=              6.1398 YYXZ=            -18.9822 ZZXY=              0.0751
 N-N= 1.015501054981D+03 E-N=-4.340080869160D+03  KE= 9.873114871731D+02
 No NMR shielding tensors so no spin-rotation constants.
 Leave Link  601 at Sun Jun  9 10:43:31 2024, MaxMem= 10737418240 cpu:              34.0 elap:               1.7
 (Enter /public/software/apps/Gaussian/g16/l9999.exe)
 Unable to Open any file for archive entry.
 1\1\GINC-NODE13\SP\RM062X\Aug-CC-pVQZ\C10H12N1O2S1(1+)\LLG_HG\09-Jun-2
 024\0\\#p scrf=(smd,solvent=chlorobenzene) aug-cc-pvqz em=gd3 m062x\\T
 itle: Yne8-vinyl8-S8-PhCl-1\\1,1\N,0,-1.846914,-0.154055,-0.691572\S,0
 ,-1.38239,-1.768558,0.24926\O,0,-1.985725,-1.597652,1.554475\O,0,0.048
 351,-1.868265,0.048044\C,0,-2.286254,-2.941042,-0.74899\H,0,-1.884506,
 -2.899562,-1.760319\H,0,-2.109882,-3.917981,-0.293712\H,0,-3.342783,-2
 .679704,-0.708966\C,0,-0.942168,0.401886,-1.342184\C,0,0.04512,0.92606
 8,-1.988649\C,0,1.03031,1.893574,-1.402506\H,0,2.033897,1.472263,-1.50
 3656\H,0,0.998496,2.825165,-1.972984\C,0,-3.216528,0.309596,-0.579301\
 C,0,-3.631463,0.894277,0.612186\C,0,-4.070903,0.117785,-1.660824\C,0,-
 4.955067,1.311185,0.712272\H,0,-2.937691,1.017084,1.432855\C,0,-5.3904
 85,0.541841,-1.541711\H,0,-3.70763,-0.35144,-2.566742\C,0,-5.83,1.1351
 47,-0.358886\H,0,-5.300021,1.774686,1.627965\H,0,-6.07304,0.407934,-2.
 371601\H,0,-6.858924,1.462169,-0.271711\H,0,0.142374,0.632266,-3.03323
 2\H,0,0.826187,2.099056,-0.353351\\Version=ES64L-G16RevC.01\State=1-A\
 HF=-991.4308627\RMSD=1.190e-09\Dipole=0.251481,0.1783688,-2.3596139\Qu
 adrupole=4.8262828,2.009391,-6.8356738,5.8723021,-6.6654963,2.9588588\
 PG=C01 [X(C10H12N1O2S1)]\\@
 The archive entry for this job was punched.


 THE SCIENTIFIC THEORIST IS NOT TO BE ENVIED. FOR NATURE, OR MORE
 PRECISELY EXPERIMENT, IS AN INEXORABLE AND NOT VERY FRIENDLY JUDGE OF HIS
 WORK.  IT NEVER SAYS "YES" TO A THEORY. IN THE MOST FAVORABLE CASES
 IT SAYS "MAYBE", AND IN THE GREAT MAJORITY OF CASES SIMPLY "NO"...
 PROBABLY EVERY THEORY WILL SOME DAY EXPERIENCE ITS "NO" - MOST
 THEORIES, SOON AFTER CONCEPTION.  -- A.EINSTEIN, NOV 11, 1922.
 Job cpu time:       2 days 23 hours 38 minutes 18.9 seconds.
 Elapsed time:       0 days  2 hours 15 minutes 26.1 seconds.
 File lengths (MBytes):  RWF=   1529 Int=      0 D2E=      0 Chk=    162 Scr=      1
 Normal termination of Gaussian 16 at Sun Jun  9 10:43:32 2024.
