 Entering Gaussian System, Link 0=g16
 Initial command:
 /public/software/apps/Gaussian/g16/l1.exe "/tmp/Gau-129174.inp" -scrdir="/tmp/"
 Entering Link 1 = /public/software/apps/Gaussian/g16/l1.exe PID=    129220.
  
 Copyright (c) 1988-2019, Gaussian, Inc.  All Rights Reserved.
  
 This is part of the Gaussian(R) 16 program.  It is based on
 the Gaussian(R) 09 system (copyright 2009, Gaussian, Inc.),
 the Gaussian(R) 03 system (copyright 2003, Gaussian, Inc.),
 the Gaussian(R) 98 system (copyright 1998, Gaussian, Inc.),
 the Gaussian(R) 94 system (copyright 1995, Gaussian, Inc.),
 the Gaussian 92(TM) system (copyright 1992, Gaussian, Inc.),
 the Gaussian 90(TM) system (copyright 1990, Gaussian, Inc.),
 the Gaussian 88(TM) system (copyright 1988, Gaussian, Inc.),
 the Gaussian 86(TM) system (copyright 1986, Carnegie Mellon
 University), and the Gaussian 82(TM) system (copyright 1983,
 Carnegie Mellon University). Gaussian is a federally registered
 trademark of Gaussian, Inc.
  
 This software contains proprietary and confidential information,
 including trade secrets, belonging to Gaussian, Inc.
  
 This software is provided under written license and may be
 used, copied, transmitted, or stored only in accord with that
 written license.
  
 The following legend is applicable only to US Government
 contracts under FAR:
  
                    RESTRICTED RIGHTS LEGEND
  
 Use, reproduction and disclosure by the US Government is
 subject to restrictions as set forth in subparagraphs (a)
 and (c) of the Commercial Computer Software - Restricted
 Rights clause in FAR 52.227-19.
  
 Gaussian, Inc.
 340 Quinnipiac St., Bldg. 40, Wallingford CT 06492
  
  
 ---------------------------------------------------------------
 Warning -- This program may not be used in any manner that
 competes with the business of Gaussian, Inc. or will provide
 assistance to any competitor of Gaussian, Inc.  The licensee
 of this program is prohibited from giving any competitor of
 Gaussian, Inc. access to this program.  By using this program,
 the user acknowledges that Gaussian, Inc. is engaged in the
 business of creating and licensing software in the field of
 computational chemistry and represents and warrants to the
 licensee that it is not a competitor of Gaussian, Inc. and that
 it will not use this program in any manner prohibited above.
 ---------------------------------------------------------------
  

 Cite this work as:
 Gaussian 16, Revision C.01,
 M. J. Frisch, G. W. Trucks, H. B. Schlegel, G. E. Scuseria, 
 M. A. Robb, J. R. Cheeseman, G. Scalmani, V. Barone, 
 G. A. Petersson, H. Nakatsuji, X. Li, M. Caricato, A. V. Marenich, 
 J. Bloino, B. G. Janesko, R. Gomperts, B. Mennucci, H. P. Hratchian, 
 J. V. Ortiz, A. F. Izmaylov, J. L. Sonnenberg, D. Williams-Young, 
 F. Ding, F. Lipparini, F. Egidi, J. Goings, B. Peng, A. Petrone, 
 T. Henderson, D. Ranasinghe, V. G. Zakrzewski, J. Gao, N. Rega, 
 G. Zheng, W. Liang, M. Hada, M. Ehara, K. Toyota, R. Fukuda, 
 J. Hasegawa, M. Ishida, T. Nakajima, Y. Honda, O. Kitao, H. Nakai, 
 T. Vreven, K. Throssell, J. A. Montgomery, Jr., J. E. Peralta, 
 F. Ogliaro, M. J. Bearpark, J. J. Heyd, E. N. Brothers, K. N. Kudin, 
 V. N. Staroverov, T. A. Keith, R. Kobayashi, J. Normand, 
 K. Raghavachari, A. P. Rendell, J. C. Burant, S. S. Iyengar, 
 J. Tomasi, M. Cossi, J. M. Millam, M. Klene, C. Adamo, R. Cammi, 
 J. W. Ochterski, R. L. Martin, K. Morokuma, O. Farkas, 
 J. B. Foresman, and D. J. Fox, Gaussian, Inc., Wallingford CT, 2019.
 
 ******************************************
 Gaussian 16:  ES64L-G16RevC.01  3-Jul-2019
                 9-Jun-2024 
 ******************************************
 %nprocshared=32
 Will use up to   32 processors via shared memory.
 %mem=80GB
 ------------------------------------------------------------
 #p scrf=(smd,solvent=chlorobenzene) aug-cc-pvqz em=gd3 m062x
 ------------------------------------------------------------
 1/38=1,172=1/1;
 2/12=2,17=6,18=5,40=1/2;
 3/5=16,6=2,7=10,11=2,25=1,30=1,70=32201,72=14,74=-55,124=31/1,2,3;
 4//1;
 5/5=2,38=5,53=14/2;
 6/7=2,8=2,9=2,10=2,28=1/1;
 99/5=1,9=1/99;
 Leave Link    1 at Sun Jun  9 09:36:15 2024, MaxMem= 10737418240 cpu:              15.4 elap:               1.2
 (Enter /public/software/apps/Gaussian/g16/l101.exe)
 ----------------------------
 Title: Yne9-vinyl9-S9-PhCl-1
 ----------------------------
 Symbolic Z-matrix:
 Charge =  1 Multiplicity = 1
 N                    -2.24836   0.18524  -0.26906 
 S                    -1.53467  -0.40811   1.41788 
 O                    -2.67785  -0.37829   2.30645 
 O                    -0.37156   0.43552   1.59972 
 C                    -1.09183  -2.07807   0.97304 
 H                    -0.35419  -2.03038   0.17362 
 H                    -0.66559  -2.52076   1.87564 
 H                    -1.99867  -2.60197   0.67625 
 C                    -1.59475   1.048    -0.88443 
 C                    -0.87885   1.95871  -1.45428 
 C                    -1.01282   3.42816  -1.17834 
 H                    -0.05402   3.80232  -0.81046 
 H                    -1.24128   3.9472   -2.11246 
 C                    -3.52075  -0.37135  -0.68993 
 C                    -4.68663   0.10777  -0.10306 
 C                    -3.51992  -1.38411  -1.64314 
 C                    -5.89815  -0.44796  -0.50229 
 H                    -4.64376   0.89195   0.64099 
 C                    -4.74112  -1.92671  -2.03043 
 H                    -2.58727  -1.7313   -2.06972 
 C                    -5.92502  -1.46025  -1.46073 
 H                    -6.82002  -0.08713  -0.06388 
 H                    -4.76563  -2.71128  -2.77641 
 H                    -6.87283  -1.88689  -1.76529 
 H                    -0.14394   1.61423  -2.18003 
 H                    -1.78957   3.6352   -0.44461 
 
 ITRead=  0  0  0  0  0  0  0  0  0  0  0  0  0  0  0  0  0  0  0  0
 ITRead=  0  0  0  0  0  0
 MicOpt= -1 -1 -1 -1 -1 -1 -1 -1 -1 -1 -1 -1 -1 -1 -1 -1 -1 -1 -1 -1
 MicOpt= -1 -1 -1 -1 -1 -1
 NAtoms=     26 NQM=       26 NQMF=       0 NMMI=      0 NMMIF=      0
                NMic=       0 NMicF=      0.
                    Isotopes and Nuclear Properties:
 (Nuclear quadrupole moments (NQMom) in fm**2, nuclear magnetic moments (NMagM)
  in nuclear magnetons)

  Atom         1           2           3           4           5           6           7           8           9          10
 IAtWgt=          14          32          16          16          12           1           1           1          12          12
 AtmWgt=  14.0030740  31.9720718  15.9949146  15.9949146  12.0000000   1.0078250   1.0078250   1.0078250  12.0000000  12.0000000
 NucSpn=           2           0           0           0           0           1           1           1           0           0
 AtZEff=  -0.0000000  -0.0000000  -0.0000000  -0.0000000  -0.0000000  -0.0000000  -0.0000000  -0.0000000  -0.0000000  -0.0000000
 NQMom=    2.0440000   0.0000000   0.0000000   0.0000000   0.0000000   0.0000000   0.0000000   0.0000000   0.0000000   0.0000000
 NMagM=    0.4037610   0.0000000   0.0000000   0.0000000   0.0000000   2.7928460   2.7928460   2.7928460   0.0000000   0.0000000
 AtZNuc=   7.0000000  16.0000000   8.0000000   8.0000000   6.0000000   1.0000000   1.0000000   1.0000000   6.0000000   6.0000000

  Atom        11          12          13          14          15          16          17          18          19          20
 IAtWgt=          12           1           1          12          12          12          12           1          12           1
 AtmWgt=  12.0000000   1.0078250   1.0078250  12.0000000  12.0000000  12.0000000  12.0000000   1.0078250  12.0000000   1.0078250
 NucSpn=           0           1           1           0           0           0           0           1           0           1
 AtZEff=  -0.0000000  -0.0000000  -0.0000000  -0.0000000  -0.0000000  -0.0000000  -0.0000000  -0.0000000  -0.0000000  -0.0000000
 NQMom=    0.0000000   0.0000000   0.0000000   0.0000000   0.0000000   0.0000000   0.0000000   0.0000000   0.0000000   0.0000000
 NMagM=    0.0000000   2.7928460   2.7928460   0.0000000   0.0000000   0.0000000   0.0000000   2.7928460   0.0000000   2.7928460
 AtZNuc=   6.0000000   1.0000000   1.0000000   6.0000000   6.0000000   6.0000000   6.0000000   1.0000000   6.0000000   1.0000000

  Atom        21          22          23          24          25          26
 IAtWgt=          12           1           1           1           1           1
 AtmWgt=  12.0000000   1.0078250   1.0078250   1.0078250   1.0078250   1.0078250
 NucSpn=           0           1           1           1           1           1
 AtZEff=  -0.0000000  -0.0000000  -0.0000000  -0.0000000  -0.0000000  -0.0000000
 NQMom=    0.0000000   0.0000000   0.0000000   0.0000000   0.0000000   0.0000000
 NMagM=    0.0000000   2.7928460   2.7928460   2.7928460   2.7928460   2.7928460
 AtZNuc=   6.0000000   1.0000000   1.0000000   1.0000000   1.0000000   1.0000000
 Leave Link  101 at Sun Jun  9 09:36:18 2024, MaxMem= 10737418240 cpu:               9.6 elap:               0.6
 (Enter /public/software/apps/Gaussian/g16/l202.exe)
                          Input orientation:                          
 ---------------------------------------------------------------------
 Center     Atomic      Atomic             Coordinates (Angstroms)
 Number     Number       Type             X           Y           Z
 ---------------------------------------------------------------------
      1          7           0       -2.248355    0.185242   -0.269060
      2         16           0       -1.534671   -0.408105    1.417880
      3          8           0       -2.677847   -0.378294    2.306452
      4          8           0       -0.371555    0.435516    1.599716
      5          6           0       -1.091832   -2.078073    0.973038
      6          1           0       -0.354194   -2.030377    0.173623
      7          1           0       -0.665591   -2.520759    1.875639
      8          1           0       -1.998669   -2.601971    0.676253
      9          6           0       -1.594749    1.047997   -0.884432
     10          6           0       -0.878847    1.958710   -1.454275
     11          6           0       -1.012823    3.428163   -1.178343
     12          1           0       -0.054017    3.802316   -0.810460
     13          1           0       -1.241275    3.947195   -2.112458
     14          6           0       -3.520746   -0.371349   -0.689927
     15          6           0       -4.686634    0.107772   -0.103059
     16          6           0       -3.519919   -1.384114   -1.643140
     17          6           0       -5.898152   -0.447957   -0.502288
     18          1           0       -4.643761    0.891954    0.640990
     19          6           0       -4.741123   -1.926709   -2.030426
     20          1           0       -2.587267   -1.731301   -2.069724
     21          6           0       -5.925021   -1.460245   -1.460734
     22          1           0       -6.820019   -0.087128   -0.063883
     23          1           0       -4.765631   -2.711282   -2.776411
     24          1           0       -6.872834   -1.886886   -1.765291
     25          1           0       -0.143937    1.614232   -2.180026
     26          1           0       -1.789573    3.635202   -0.444613
 ---------------------------------------------------------------------
                    Distance matrix (angstroms):
                    1          2          3          4          5
     1  N    0.000000
     2  S    1.925402   0.000000
     3  O    2.671198   1.448206   0.000000
     4  O    2.660327   1.448309   2.545731   0.000000
     5  C    2.828948   1.784036   2.680053   2.688802   0.000000
     6  H    2.948352   2.360819   3.560576   2.848626   1.088783
     7  H    3.798331   2.329839   2.970678   2.983648   1.091944
     8  H    2.953729   2.361854   2.839643   3.567438   1.088533
     9  C    1.245082   2.724790   3.659118   2.835900   3.670890
    10  C    2.534852   3.779047   4.779232   3.450265   4.715170
    11  C    3.587460   4.661507   5.422658   4.133373   5.912133
    12  H    4.265144   4.988535   5.837561   4.152725   6.231926
    13  H    4.308668   5.614090   6.348256   5.183487   6.771002
    14  C    1.451172   2.896324   3.112686   3.976292   3.402643
    15  C    2.445151   3.537549   3.174465   4.650459   4.342638
    16  C    2.442918   3.776724   4.161735   4.872306   3.636148
    17  C    3.711651   4.767452   4.273668   5.978480   5.285317
    18  H    2.658120   3.458345   2.872649   4.402185   4.641930
    19  C    3.711690   4.947556   5.046108   6.152330   4.728745
    20  H    2.651488   3.875847   4.581457   4.803048   3.408075
    21  C    4.200665   5.354306   5.089838   6.618251   5.446529
    22  H    4.584364   5.498504   4.781303   6.680075   6.152332
    23  H    4.584031   5.773717   5.969688   6.954188   5.287355
    24  H    5.283770   6.388690   6.037620   7.680068   6.399608
    25  H    3.181569   4.355332   5.524432   3.965808   4.947063
    26  H    3.484756   4.458945   4.946265   4.053153   5.927739
                    6          7          8          9         10
     6  H    0.000000
     7  H    1.798416   0.000000
     8  H    1.812086   1.795054   0.000000
     9  C    3.483510   4.606229   3.990132   0.000000
    10  C    4.340291   5.585647   5.156836   1.290982   0.000000
    11  C    5.661913   6.696047   6.385447   2.467835   1.501126
    12  H    5.922739   6.897132   6.856156   3.156834   2.119841
    13  H    6.460994   7.620417   7.158361   3.168334   2.125707
    14  C    3.677655   4.399318   3.026358   2.400383   3.604585
    15  C    4.839243   5.195499   3.895535   3.324804   4.444209
    16  C    3.706764   4.671291   3.029350   3.193287   4.264435
    17  C    5.804858   6.109889   4.608113   4.572001   5.647278
    18  H    5.211414   5.384868   4.382381   3.412878   4.438770
    19  C    4.910573   5.676284   3.911923   4.479045   5.508685
    20  H    3.179413   4.458920   2.940222   3.180331   4.112622
    21  C    5.833548   6.318044   4.613729   5.037326   6.095340
    22  H    6.755703   6.896469   5.487955   5.409737   6.435539
    23  H    5.350431   6.203886   4.425937   5.269370   6.218035
    24  H    6.802400   7.224128   5.498179   6.103084   7.128339
    25  H    4.343621   5.815384   5.419846   2.025843   1.088794
    26  H    5.877186   6.674036   6.340535   2.631545   2.158579
                   11         12         13         14         15
    11  C    0.000000
    12  H    1.092995   0.000000
    13  H    1.092774   1.767985   0.000000
    14  C    4.578703   5.426990   5.086197   0.000000
    15  C    5.067358   5.967513   5.536186   1.390419   0.000000
    16  C    5.446061   6.293242   5.816815   1.390794   2.441065
    17  C    6.272782   7.232821   6.602765   2.386029   1.391400
    18  H    4.788114   5.625181   5.337873   2.151380   1.081845
    19  C    6.580343   7.501934   6.838012   2.388598   2.803003
    20  H    5.467495   6.214822   5.835995   2.150510   3.414279
    21  C    6.935846   7.911137   7.183497   2.749614   2.415691
    22  H    6.879158   7.839894   7.182952   3.370151   2.142627
    23  H    7.370900   8.275943   7.562885   3.373194   3.885887
    24  H    7.933094   8.931684   8.116125   3.832721   3.394281
    25  H    2.246926   2.582926   2.579037   4.191153   5.217213
    26  H    1.088377   1.781551   1.783165   4.371452   4.577377
                   16         17         18         19         20
    16  C    0.000000
    17  C    2.798915   0.000000
    18  H    3.414785   2.162393   0.000000
    19  C    1.391308   2.420874   3.884688   0.000000
    20  H    1.082752   3.881467   4.296348   2.163059   0.000000
    21  C    2.413210   1.394298   3.404660   1.394185   3.403666
    22  H    3.881609   1.082698   2.488282   3.401934   4.964161
    23  H    2.144173   3.402481   4.967574   1.082889   2.490992
    24  H    3.392601   2.148418   4.298942   2.148505   4.299183
    25  H    4.547041   6.338645   5.359872   5.804719   4.144227
    26  H    5.442802   5.792749   4.104916   6.493174   5.663626
                   21         22         23         24         25
    21  C    0.000000
    22  H    2.153524   0.000000
    23  H    2.154132   4.297034   0.000000
    24  H    1.083110   2.477238   2.478366   0.000000
    25  H    6.587163   7.207132   6.358129   7.596571   0.000000
    26  H    6.640633   6.269456   7.387291   7.620839   3.131149
                   26
    26  H    0.000000
 Stoichiometry    C10H12NO2S(1+)
 Framework group  C1[X(C10H12NO2S)]
 Deg. of freedom    72
 Full point group                 C1      NOp   1
 Largest Abelian subgroup         C1      NOp   1
 Largest concise Abelian subgroup C1      NOp   1
                         Standard orientation:                         
 ---------------------------------------------------------------------
 Center     Atomic      Atomic             Coordinates (Angstroms)
 Number     Number       Type             X           Y           Z
 ---------------------------------------------------------------------
      1          7           0       -0.413004    0.271906    0.162830
      2         16           0       -1.246122   -1.424146   -0.206625
      3          8           0       -0.566832   -1.890742   -1.397487
      4          8           0       -2.659952   -1.111519   -0.175847
      5          6           0       -0.724255   -2.324287    1.242577
      6          1           0       -1.125404   -1.816567    2.118220
      7          1           0       -1.150241   -3.324275    1.138168
      8          1           0        0.363507   -2.365229    1.243138
      9          6           0       -1.169751    1.225954    0.422359
     10          6           0       -2.014192    2.173319    0.659114
     11          6           0       -2.653272    3.015400   -0.406652
     12          1           0       -3.737725    2.895477   -0.341710
     13          1           0       -2.418482    4.066155   -0.219724
     14          6           0        1.033325    0.341616    0.067055
     15          6           0        1.617401    0.403734   -1.193208
     16          6           0        1.778812    0.313178    1.240831
     17          6           0        3.005815    0.451144   -1.271012
     18          1           0        1.001892    0.416107   -2.082806
     19          6           0        3.165798    0.362457    1.142941
     20          1           0        1.282326    0.258180    2.201470
     21          6           0        3.775877    0.430189   -0.108845
     22          1           0        3.483511    0.505905   -2.241086
     23          1           0        3.766663    0.348900    2.043733
     24          1           0        4.856058    0.467417   -0.179209
     25          1           0       -2.256577    2.356733    1.704619
     26          1           0       -2.315626    2.736053   -1.402908
 ---------------------------------------------------------------------
 Rotational constants (GHZ):           0.8107665           0.4777009           0.3726497
 Leave Link  202 at Sun Jun  9 09:36:21 2024, MaxMem= 10737418240 cpu:               0.1 elap:               0.3
 (Enter /public/software/apps/Gaussian/g16/l301.exe)
 Standard basis: Aug-CC-pVQZ (5D, 7F)
 Ernie: Thresh=  0.10000D-02 Tol=  0.10000D-05 Strict=F.
 Ernie:  53 primitive shells out of 758 were deleted.
 There are  2134 symmetry adapted cartesian basis functions of A   symmetry.
 There are  1676 symmetry adapted basis functions of A   symmetry.
  1676 basis functions,  2465 primitive gaussians,  2134 cartesian basis functions
    55 alpha electrons       55 beta electrons
       nuclear repulsion energy      1015.5555023908 Hartrees.
 IExCor= 4336 DFT=T Ex+Corr=M062X ExCW=0 ScaHFX=  0.540000
 ScaDFX=  1.000000  1.000000  1.000000  1.000000 ScalE2=  1.000000  1.000000
 IRadAn=      5 IRanWt=     -1 IRanGd=            0 ICorTp=0 IEmpDi=131
 NAtoms=   26 NActive=   26 NUniq=   26 SFac= 1.00D+00 NAtFMM=   60 NAOKFM=F Big=F
 Integral buffers will be    131072 words long.
 Raffenetti 2 integral format.
 Two-electron integral symmetry is turned on.
 R6Disp:  Grimme-D3 Dispersion energy=       -0.0013394162 Hartrees.
 Nuclear repulsion after empirical dispersion term =     1015.5541629746 Hartrees.
 ------------------------------------------------------------------------------
 Polarizable Continuum Model (PCM)
 =================================
 Model                : PCM.
 Atomic radii         : SMD-Coulomb.
 Polarization charges : Total charges.
 Charge compensation  : None.
 Solution method      : On-the-fly selection.
 Cavity type          : VdW (van der Waals Surface) (Alpha=1.000).
 Cavity algorithm     : GePol (No added spheres)
                        Default sphere list used, NSphG=   26.
                        Lebedev-Laikov grids with approx.  5.0 points / Ang**2.
                        Smoothing algorithm: York/Karplus (Gamma=1.0000).
                        Polarization charges: spherical gaussians, with
                                              point-specific exponents (IZeta= 3).
                        Self-potential: point-specific (ISelfS= 7).
                        Self-field    : sphere-specific E.n sum rule (ISelfD= 2).
 Solvent              : ChloroBenzene, Eps=   5.696800 Eps(inf)=   2.322881
 ------------------------------------------------------------------------------
 GePol: Number of generator spheres                  =      26
 GePol: Total number of spheres                      =      26
 GePol: Number of exposed spheres                    =      26 (100.00%)
 GePol: Number of points                             =    2239
 GePol: Average weight of points                     =       0.12
 GePol: Minimum weight of points                     =   0.25D-10
 GePol: Maximum weight of points                     =    0.19692
 GePol: Number of points with low weight             =     117
 GePol: Fraction of low-weight points (<1% of avg)   =       5.23%
 GePol: Cavity surface area                          =    258.469 Ang**2
 GePol: Cavity volume                                =    248.508 Ang**3
 ------------------------------------------------------------------------------
 Atomic radii for non-electrostatic terms: SMD-CDS.
 ------------------------------------------------------------------------------
 PCM non-electrostatic energy =        -0.0077400285 Hartrees.
 Nuclear repulsion after PCM non-electrostatic terms =     1015.5464229461 Hartrees.
 Leave Link  301 at Sun Jun  9 09:36:24 2024, MaxMem= 10737418240 cpu:               3.6 elap:               0.4
 (Enter /public/software/apps/Gaussian/g16/l302.exe)
 NPDir=0 NMtPBC=     1 NCelOv=     1 NCel=       1 NClECP=     1 NCelD=      1
         NCelK=      1 NCelE2=     1 NClLst=     1 CellRange=     0.0.
 One-electron integrals computed using PRISM.
 One-electron integral symmetry used in STVInt
 NBasis=  1676 RedAO= T EigKep=  1.04D-06  NBF=  1676
 NBsUse=  1664 1.00D-06 EigRej=  9.61D-07 NBFU=  1664
 Precomputing XC quadrature grid using
 IXCGrd= 4 IRadAn=           5 IRanWt=          -1 IRanGd=           0 AccXCQ= 0.00D+00.
 Generated NRdTot=       0 NPtTot=           0 NUsed=           0 NTot=          32
 NSgBfM=  2114  2113  2113  2113  2114 MxSgAt=    26 MxSgA2=    26.
 Leave Link  302 at Sun Jun  9 09:36:36 2024, MaxMem= 10737418240 cpu:             206.7 elap:               7.8
 (Enter /public/software/apps/Gaussian/g16/l303.exe)
 DipDrv:  MaxL=1.
 Leave Link  303 at Sun Jun  9 09:37:10 2024, MaxMem= 10737418240 cpu:              18.2 elap:               1.0
 (Enter /public/software/apps/Gaussian/g16/l401.exe)
 ExpMin= 2.36D-02 ExpMax= 7.28D+05 ExpMxC= 2.28D+03 IAcc=3 IRadAn=         5 AccDes= 0.00D+00
 Harris functional with IExCor= 1009 and IRadAn=       5 diagonalized for initial guess.
 HarFok:  IExCor= 1009 AccDes= 0.00D+00 IRadAn=         5 IDoV= 1 UseB2=F ITyADJ=14
 ICtDFT=  3500011 ScaDFX=  1.000000  1.000000  1.000000  1.000000
 FoFCou: FMM=F IPFlag=           0 FMFlag=      100000 FMFlg1=           0
         NFxFlg=           0 DoJE=T BraDBF=F KetDBF=T FulRan=T
         wScrn=  0.000000 ICntrl=       500 IOpCl=  0 I1Cent=   200000004 NGrid=           0
         NMat0=    1 NMatS0=      1 NMatT0=    0 NMatD0=    1 NMtDS0=    0 NMtDT0=    0
 Petite list used in FoFCou.
 Harris En= -991.053061135741    
 JPrj=0 DoOrth=F DoCkMO=F.
 Leave Link  401 at Sun Jun  9 09:37:23 2024, MaxMem= 10737418240 cpu:             347.2 elap:              11.2
 (Enter /public/software/apps/Gaussian/g16/l502.exe)
 Integral symmetry usage will be decided dynamically.
 Closed shell SCF:
 Using DIIS extrapolation, IDIIS=  1040.
 NGot= 10737418240 LenX= 10728225540 LenY= 10723669450
 Requested convergence on RMS density matrix=1.00D-08 within 128 cycles.
 Requested convergence on MAX density matrix=1.00D-06.
 Requested convergence on             energy=1.00D-06.
 No special actions if energy rises.
 Fock matrices will be formed incrementally for  20 cycles.

 Cycle   1  Pass 1  IDiag  1:
 FoFJK:  IHMeth= 1 ICntrl=       0 DoSepK=F KAlg= 0 I1Cent=           0 FoldK=F
 IRaf= 880000000 NMat=       1 IRICut=       1 DoRegI=T DoRafI=F ISym2E= 0 IDoP0=0 IntGTp=1.
 FoFCou: FMM=F IPFlag=           0 FMFlag=      100000 FMFlg1=           0
         NFxFlg=           0 DoJE=F BraDBF=F KetDBF=F FulRan=T
         wScrn=  0.000000 ICntrl=         0 IOpCl=  0 I1Cent=           0 NGrid=           0
         NMat0=    1 NMatS0=      1 NMatT0=    0 NMatD0=    1 NMtDS0=    0 NMtDT0=    0
 Symmetry not used in FoFCou.
 Inv3:  Mode=1 IEnd=    15039363.
 Iteration    1 A*A^-1 deviation from unit magnitude is 3.22D-15 for   2069.
 Iteration    1 A*A^-1 deviation from orthogonality  is 2.91D-15 for    553    456.
 Iteration    1 A^-1*A deviation from unit magnitude is 3.11D-15 for   1777.
 Iteration    1 A^-1*A deviation from orthogonality  is 4.71D-15 for   1112   1070.
 E= -990.854742713223    
 DIIS: error= 1.34D-02 at cycle   1 NSaved=   1.
 NSaved= 1 IEnMin= 1 EnMin= -990.854742713223     IErMin= 1 ErrMin= 1.34D-02
 ErrMax= 1.34D-02  0.00D+00 EMaxC= 1.00D-01 BMatC= 8.25D-01 BMatP= 8.25D-01
 IDIUse=3 WtCom= 8.66D-01 WtEn= 1.34D-01
 Coeff-Com:  0.100D+01
 Coeff-En:   0.100D+01
 Coeff:      0.100D+01
 Gap=     0.391 Goal=   None    Shift=    0.000
 GapD=    0.391 DampG=1.000 DampE=0.500 DampFc=0.5000 IDamp=-1.
 Damping current iteration by 5.00D-01
 RMSDP=1.80D-03 MaxDP=2.89D-01              OVMax= 2.99D-01

 Cycle   2  Pass 1  IDiag  1:
 RMSU=  9.00D-04    CP:  1.02D+00
 E= -991.049943633565     Delta-E=       -0.195200920341 Rises=F Damp=T
 DIIS: error= 3.61D-03 at cycle   2 NSaved=   2.
 NSaved= 2 IEnMin= 2 EnMin= -991.049943633565     IErMin= 2 ErrMin= 3.61D-03
 ErrMax= 3.61D-03  0.00D+00 EMaxC= 1.00D-01 BMatC= 1.08D-01 BMatP= 8.25D-01
 IDIUse=3 WtCom= 9.64D-01 WtEn= 3.61D-02
 Coeff-Com:  0.115D+00 0.885D+00
 Coeff-En:   0.266D+00 0.734D+00
 Coeff:      0.120D+00 0.880D+00
 Gap=     0.292 Goal=   None    Shift=    0.000
 RMSDP=1.04D-03 MaxDP=2.07D-01 DE=-1.95D-01 OVMax= 1.75D-01

 Cycle   3  Pass 1  IDiag  1:
 RMSU=  1.00D-03    CP:  9.84D-01  1.27D+00
 E= -991.380570059390     Delta-E=       -0.330626425826 Rises=F Damp=F
 DIIS: error= 3.62D-03 at cycle   3 NSaved=   3.
 NSaved= 3 IEnMin= 3 EnMin= -991.380570059390     IErMin= 2 ErrMin= 3.61D-03
 ErrMax= 3.62D-03  0.00D+00 EMaxC= 1.00D-01 BMatC= 6.12D-02 BMatP= 1.08D-01
 IDIUse=3 WtCom= 9.64D-01 WtEn= 3.62D-02
 Coeff-Com: -0.568D-01 0.422D+00 0.635D+00
 Coeff-En:   0.000D+00 0.000D+00 0.100D+01
 Coeff:     -0.548D-01 0.406D+00 0.648D+00
 Gap=     0.282 Goal=   None    Shift=    0.000
 RMSDP=3.50D-04 MaxDP=7.12D-02 DE=-3.31D-01 OVMax= 4.55D-02

 Cycle   4  Pass 1  IDiag  1:
 RMSU=  3.22D-04    CP:  9.97D-01  1.31D+00  1.12D+00
 E= -991.424937667580     Delta-E=       -0.044367608189 Rises=F Damp=F
 DIIS: error= 1.25D-03 at cycle   4 NSaved=   4.
 NSaved= 4 IEnMin= 4 EnMin= -991.424937667580     IErMin= 4 ErrMin= 1.25D-03
 ErrMax= 1.25D-03  0.00D+00 EMaxC= 1.00D-01 BMatC= 7.04D-03 BMatP= 6.12D-02
 IDIUse=3 WtCom= 9.88D-01 WtEn= 1.25D-02
 Coeff-Com: -0.370D-01 0.955D-01 0.309D+00 0.633D+00
 Coeff-En:   0.000D+00 0.000D+00 0.412D-01 0.959D+00
 Coeff:     -0.366D-01 0.943D-01 0.306D+00 0.637D+00
 Gap=     0.274 Goal=   None    Shift=    0.000
 RMSDP=9.69D-05 MaxDP=2.50D-02 DE=-4.44D-02 OVMax= 1.37D-02

 Cycle   5  Pass 1  IDiag  1:
 RMSU=  6.98D-05    CP:  9.93D-01  1.33D+00  1.09D+00  8.29D-01
 E= -991.430543686078     Delta-E=       -0.005606018498 Rises=F Damp=F
 DIIS: error= 3.19D-04 at cycle   5 NSaved=   5.
 NSaved= 5 IEnMin= 5 EnMin= -991.430543686078     IErMin= 5 ErrMin= 3.19D-04
 ErrMax= 3.19D-04  0.00D+00 EMaxC= 1.00D-01 BMatC= 3.47D-04 BMatP= 7.04D-03
 IDIUse=3 WtCom= 9.97D-01 WtEn= 3.19D-03
 Coeff-Com: -0.123D-01 0.206D-01 0.944D-01 0.264D+00 0.634D+00
 Coeff-En:   0.000D+00 0.000D+00 0.000D+00 0.000D+00 0.100D+01
 Coeff:     -0.123D-01 0.205D-01 0.941D-01 0.263D+00 0.635D+00
 Gap=     0.275 Goal=   None    Shift=    0.000
 RMSDP=3.78D-05 MaxDP=1.02D-02 DE=-5.61D-03 OVMax= 3.58D-03

 Cycle   6  Pass 1  IDiag  1:
 RMSU=  2.71D-05    CP:  9.89D-01  1.32D+00  1.07D+00  7.81D-01  1.09D+00
 E= -991.430809754342     Delta-E=       -0.000266068265 Rises=F Damp=F
 DIIS: error= 1.02D-04 at cycle   6 NSaved=   6.
 NSaved= 6 IEnMin= 6 EnMin= -991.430809754342     IErMin= 6 ErrMin= 1.02D-04
 ErrMax= 1.02D-04  0.00D+00 EMaxC= 1.00D-01 BMatC= 5.21D-05 BMatP= 3.47D-04
 IDIUse=3 WtCom= 9.99D-01 WtEn= 1.02D-03
 Coeff-Com: -0.194D-02 0.268D-03 0.118D-01 0.530D-01 0.309D+00 0.628D+00
 Coeff-En:   0.000D+00 0.000D+00 0.000D+00 0.000D+00 0.608D-02 0.994D+00
 Coeff:     -0.193D-02 0.268D-03 0.118D-01 0.529D-01 0.308D+00 0.629D+00
 Gap=     0.276 Goal=   None    Shift=    0.000
 RMSDP=1.03D-05 MaxDP=2.99D-03 DE=-2.66D-04 OVMax= 1.14D-03

 Cycle   7  Pass 1  IDiag  1:
 RMSU=  7.58D-06    CP:  9.89D-01  1.32D+00  1.07D+00  7.78D-01  1.15D+00
                    CP:  1.15D+00
 E= -991.430850621886     Delta-E=       -0.000040867544 Rises=F Damp=F
 DIIS: error= 2.51D-05 at cycle   7 NSaved=   7.
 NSaved= 7 IEnMin= 7 EnMin= -991.430850621886     IErMin= 7 ErrMin= 2.51D-05
 ErrMax= 2.51D-05  0.00D+00 EMaxC= 1.00D-01 BMatC= 3.67D-06 BMatP= 5.21D-05
 IDIUse=1 WtCom= 1.00D+00 WtEn= 0.00D+00
 Coeff-Com:  0.990D-03-0.266D-02-0.914D-02-0.178D-01 0.402D-01 0.227D+00
 Coeff-Com:  0.762D+00
 Coeff:      0.990D-03-0.266D-02-0.914D-02-0.178D-01 0.402D-01 0.227D+00
 Coeff:      0.762D+00
 Gap=     0.276 Goal=   None    Shift=    0.000
 RMSDP=5.11D-06 MaxDP=1.42D-03 DE=-4.09D-05 OVMax= 9.19D-04

 Cycle   8  Pass 1  IDiag  1:
 RMSU=  3.25D-06    CP:  9.89D-01  1.32D+00  1.07D+00  7.80D-01  1.19D+00
                    CP:  1.23D+00  1.17D+00
 E= -991.430853964804     Delta-E=       -0.000003342918 Rises=F Damp=F
 DIIS: error= 1.08D-05 at cycle   8 NSaved=   8.
 NSaved= 8 IEnMin= 8 EnMin= -991.430853964804     IErMin= 8 ErrMin= 1.08D-05
 ErrMax= 1.08D-05  0.00D+00 EMaxC= 1.00D-01 BMatC= 9.14D-07 BMatP= 3.67D-06
 IDIUse=1 WtCom= 1.00D+00 WtEn= 0.00D+00
 Coeff-Com:  0.683D-03-0.128D-02-0.562D-02-0.150D-01-0.155D-01 0.319D-01
 Coeff-Com:  0.386D+00 0.619D+00
 Coeff:      0.683D-03-0.128D-02-0.562D-02-0.150D-01-0.155D-01 0.319D-01
 Coeff:      0.386D+00 0.619D+00
 Gap=     0.276 Goal=   None    Shift=    0.000
 RMSDP=1.58D-06 MaxDP=4.06D-04 DE=-3.34D-06 OVMax= 2.05D-04

 Cycle   9  Pass 1  IDiag  1:
 RMSU=  1.02D-06    CP:  9.89D-01  1.32D+00  1.07D+00  7.80D-01  1.20D+00
                    CP:  1.25D+00  1.26D+00  1.18D+00
 E= -991.430854676537     Delta-E=       -0.000000711733 Rises=F Damp=F
 DIIS: error= 3.34D-06 at cycle   9 NSaved=   9.
 NSaved= 9 IEnMin= 9 EnMin= -991.430854676537     IErMin= 9 ErrMin= 3.34D-06
 ErrMax= 3.34D-06  0.00D+00 EMaxC= 1.00D-01 BMatC= 1.02D-07 BMatP= 9.14D-07
 IDIUse=1 WtCom= 1.00D+00 WtEn= 0.00D+00
 Coeff-Com:  0.161D-03-0.196D-03-0.117D-02-0.439D-02-0.132D-01-0.197D-01
 Coeff-Com:  0.772D-01 0.286D+00 0.676D+00
 Coeff:      0.161D-03-0.196D-03-0.117D-02-0.439D-02-0.132D-01-0.197D-01
 Coeff:      0.772D-01 0.286D+00 0.676D+00
 Gap=     0.276 Goal=   None    Shift=    0.000
 RMSDP=7.41D-07 MaxDP=1.58D-04 DE=-7.12D-07 OVMax= 6.98D-05

 Cycle  10  Pass 1  IDiag  1:
 RMSU=  4.68D-07    CP:  9.89D-01  1.32D+00  1.07D+00  7.80D-01  1.20D+00
                    CP:  1.26D+00  1.30D+00  1.27D+00  1.24D+00
 E= -991.430854764324     Delta-E=       -0.000000087787 Rises=F Damp=F
 DIIS: error= 1.38D-06 at cycle  10 NSaved=  10.
 NSaved=10 IEnMin=10 EnMin= -991.430854764324     IErMin=10 ErrMin= 1.38D-06
 ErrMax= 1.38D-06  0.00D+00 EMaxC= 1.00D-01 BMatC= 7.25D-09 BMatP= 1.02D-07
 IDIUse=1 WtCom= 1.00D+00 WtEn= 0.00D+00
 Coeff-Com: -0.178D-04 0.723D-04 0.222D-03 0.157D-03-0.282D-02-0.101D-01
 Coeff-Com: -0.118D-01 0.210D-01 0.221D+00 0.782D+00
 Coeff:     -0.178D-04 0.723D-04 0.222D-03 0.157D-03-0.282D-02-0.101D-01
 Coeff:     -0.118D-01 0.210D-01 0.221D+00 0.782D+00
 Gap=     0.276 Goal=   None    Shift=    0.000
 RMSDP=2.94D-07 MaxDP=5.60D-05 DE=-8.78D-08 OVMax= 5.76D-05

 Cycle  11  Pass 1  IDiag  1:
 RMSU=  1.43D-07    CP:  9.89D-01  1.32D+00  1.07D+00  7.80D-01  1.20D+00
                    CP:  1.27D+00  1.31D+00  1.31D+00  1.36D+00  1.20D+00
 E= -991.430854771494     Delta-E=       -0.000000007170 Rises=F Damp=F
 DIIS: error= 8.69D-07 at cycle  11 NSaved=  11.
 NSaved=11 IEnMin=11 EnMin= -991.430854771494     IErMin=11 ErrMin= 8.69D-07
 ErrMax= 8.69D-07  0.00D+00 EMaxC= 1.00D-01 BMatC= 1.96D-09 BMatP= 7.25D-09
 IDIUse=1 WtCom= 1.00D+00 WtEn= 0.00D+00
 Coeff-Com: -0.237D-04 0.500D-04 0.239D-03 0.558D-03-0.132D-03-0.335D-02
 Coeff-Com: -0.149D-01-0.245D-01 0.277D-01 0.389D+00 0.625D+00
 Coeff:     -0.237D-04 0.500D-04 0.239D-03 0.558D-03-0.132D-03-0.335D-02
 Coeff:     -0.149D-01-0.245D-01 0.277D-01 0.389D+00 0.625D+00
 Gap=     0.276 Goal=   None    Shift=    0.000
 RMSDP=9.56D-08 MaxDP=2.32D-05 DE=-7.17D-09 OVMax= 1.17D-05

 Cycle  12  Pass 1  IDiag  1:
 RMSU=  4.74D-08    CP:  9.89D-01  1.32D+00  1.07D+00  7.80D-01  1.20D+00
                    CP:  1.27D+00  1.32D+00  1.32D+00  1.40D+00  1.30D+00
                    CP:  1.17D+00
 E= -991.430854773386     Delta-E=       -0.000000001893 Rises=F Damp=F
 DIIS: error= 1.68D-07 at cycle  12 NSaved=  12.
 NSaved=12 IEnMin=12 EnMin= -991.430854773386     IErMin=12 ErrMin= 1.68D-07
 ErrMax= 1.68D-07  0.00D+00 EMaxC= 1.00D-01 BMatC= 7.50D-11 BMatP= 1.96D-09
 IDIUse=1 WtCom= 1.00D+00 WtEn= 0.00D+00
 Coeff-Com: -0.528D-06-0.181D-05 0.192D-04 0.954D-04 0.318D-03 0.722D-03
 Coeff-Com: -0.105D-02-0.871D-02-0.239D-01-0.993D-02 0.144D+00 0.899D+00
 Coeff:     -0.528D-06-0.181D-05 0.192D-04 0.954D-04 0.318D-03 0.722D-03
 Coeff:     -0.105D-02-0.871D-02-0.239D-01-0.993D-02 0.144D+00 0.899D+00
 Gap=     0.276 Goal=   None    Shift=    0.000
 RMSDP=4.74D-08 MaxDP=1.31D-05 DE=-1.89D-09 OVMax= 6.36D-06

 Cycle  13  Pass 1  IDiag  1:
 RMSU=  2.22D-08    CP:  9.89D-01  1.32D+00  1.07D+00  7.80D-01  1.20D+00
                    CP:  1.27D+00  1.32D+00  1.32D+00  1.41D+00  1.35D+00
                    CP:  1.30D+00  1.33D+00
 E= -991.430854773523     Delta-E=       -0.000000000137 Rises=F Damp=F
 DIIS: error= 5.21D-08 at cycle  13 NSaved=  13.
 NSaved=13 IEnMin=13 EnMin= -991.430854773523     IErMin=13 ErrMin= 5.21D-08
 ErrMax= 5.21D-08  0.00D+00 EMaxC= 1.00D-01 BMatC= 6.59D-12 BMatP= 7.50D-11
 IDIUse=1 WtCom= 1.00D+00 WtEn= 0.00D+00
 Coeff-Com:  0.129D-05-0.342D-05-0.858D-05-0.960D-05 0.809D-04 0.377D-03
 Coeff-Com:  0.644D-03-0.491D-03-0.638D-02-0.258D-01-0.133D-01 0.209D+00
 Coeff-Com:  0.836D+00
 Coeff:      0.129D-05-0.342D-05-0.858D-05-0.960D-05 0.809D-04 0.377D-03
 Coeff:      0.644D-03-0.491D-03-0.638D-02-0.258D-01-0.133D-01 0.209D+00
 Coeff:      0.836D+00
 Gap=     0.276 Goal=   None    Shift=    0.000
 RMSDP=1.21D-08 MaxDP=2.70D-06 DE=-1.37D-10 OVMax= 1.58D-06

 Cycle  14  Pass 1  IDiag  1:
 RMSU=  5.47D-09    CP:  9.89D-01  1.32D+00  1.07D+00  7.80D-01  1.20D+00
                    CP:  1.27D+00  1.32D+00  1.32D+00  1.41D+00  1.36D+00
                    CP:  1.33D+00  1.43D+00  1.21D+00
 E= -991.430854773539     Delta-E=       -0.000000000016 Rises=F Damp=F
 DIIS: error= 2.31D-08 at cycle  14 NSaved=  14.
 NSaved=14 IEnMin=14 EnMin= -991.430854773539     IErMin=14 ErrMin= 2.31D-08
 ErrMax= 2.31D-08  0.00D+00 EMaxC= 1.00D-01 BMatC= 1.41D-12 BMatP= 6.59D-12
 IDIUse=1 WtCom= 1.00D+00 WtEn= 0.00D+00
 Coeff-Com:  0.548D-06-0.997D-06-0.605D-05-0.164D-04-0.906D-05 0.565D-04
 Coeff-Com:  0.394D-03 0.939D-03 0.654D-03-0.937D-02-0.271D-01-0.452D-01
 Coeff-Com:  0.336D+00 0.744D+00
 Coeff:      0.548D-06-0.997D-06-0.605D-05-0.164D-04-0.906D-05 0.565D-04
 Coeff:      0.394D-03 0.939D-03 0.654D-03-0.937D-02-0.271D-01-0.452D-01
 Coeff:      0.336D+00 0.744D+00
 Gap=     0.276 Goal=   None    Shift=    0.000
 RMSDP=4.71D-09 MaxDP=1.37D-06 DE=-1.59D-11 OVMax= 6.25D-07

 Cycle  15  Pass 1  IDiag  1:
 RMSU=  2.15D-09    CP:  9.89D-01  1.32D+00  1.07D+00  7.80D-01  1.20D+00
                    CP:  1.27D+00  1.32D+00  1.32D+00  1.41D+00  1.37D+00
                    CP:  1.35D+00  1.48D+00  1.27D+00  1.12D+00
 E= -991.430854773578     Delta-E=       -0.000000000039 Rises=F Damp=F
 DIIS: error= 4.95D-09 at cycle  15 NSaved=  15.
 NSaved=15 IEnMin=15 EnMin= -991.430854773578     IErMin=15 ErrMin= 4.95D-09
 ErrMax= 4.95D-09  0.00D+00 EMaxC= 1.00D-01 BMatC= 6.68D-14 BMatP= 1.41D-12
 IDIUse=1 WtCom= 1.00D+00 WtEn= 0.00D+00
 Coeff-Com: -0.312D-07 0.108D-06-0.614D-06-0.222D-05-0.834D-05-0.190D-04
 Coeff-Com:  0.349D-04 0.235D-03 0.605D-03 0.125D-03-0.418D-02-0.272D-01
 Coeff-Com:  0.719D-02 0.139D+00 0.884D+00
 Coeff:     -0.312D-07 0.108D-06-0.614D-06-0.222D-05-0.834D-05-0.190D-04
 Coeff:      0.349D-04 0.235D-03 0.605D-03 0.125D-03-0.418D-02-0.272D-01
 Coeff:      0.719D-02 0.139D+00 0.884D+00
 Gap=     0.276 Goal=   None    Shift=    0.000
 RMSDP=1.21D-09 MaxDP=3.45D-07 DE=-3.90D-11 OVMax= 2.29D-07

 Error on total polarization charges =  0.03753
 SCF Done:  E(RM062X) =  -991.430854774     A.U. after   15 cycles
            NFock= 15  Conv=0.12D-08     -V/T= 2.0042
 KE= 9.873159667208D+02 PE=-4.340185747858D+03 EE= 1.345892503417D+03
 SMD-CDS (non-electrostatic) energy       (kcal/mol) =      -4.86
 (included in total energy above)
 Leave Link  502 at Sun Jun  9 11:46:41 2024, MaxMem= 10737418240 cpu:          247522.3 elap:            7755.7
 (Enter /public/software/apps/Gaussian/g16/l601.exe)
 Copying SCF densities to generalized density rwf, IOpCl= 0 IROHF=0.

 **********************************************************************

            Population analysis using the SCF Density.

 **********************************************************************

 Orbital symmetries:
       Occupied  (A) (A) (A) (A) (A) (A) (A) (A) (A) (A) (A) (A)
                 (A) (A) (A) (A) (A) (A) (A) (A) (A) (A) (A) (A)
                 (A) (A) (A) (A) (A) (A) (A) (A) (A) (A) (A) (A)
                 (A) (A) (A) (A) (A) (A) (A) (A) (A) (A) (A) (A)
                 (A) (A) (A) (A) (A) (A) (A)
       Virtual   (A) (A) (A) (A) (A) (A) (A) (A) (A) (A) (A) (A)
                 (A) (A) (A) (A) (A) (A) (A) (A) (A) (A) (A) (A)
                 (A) (A) (A) (A) (A) (A) (A) (A) (A) (A) (A) (A)
                 (A) (A) (A) (A) (A) (A) (A) (A) (A) (A) (A) (A)
                 (A) (A) (A) (A) (A) (A) (A) (A) (A) (A) (A) (A)
                 (A) (A) (A) (A) (A) (A) (A) (A) (A) (A) (A) (A)
                 (A) (A) (A) (A) (A) (A) (A) (A) (A) (A) (A) (A)
                 (A) (A) (A) (A) (A) (A) (A) (A) (A) (A) (A) (A)
                 (A) (A) (A) (A) (A) (A) (A) (A) (A) (A) (A) (A)
                 (A) (A) (A) (A) (A) (A) (A) (A) (A) (A) (A) (A)
                 (A) (A) (A) (A) (A) (A) (A) (A) (A) (A) (A) (A)
                 (A) (A) (A) (A) (A) (A) (A) (A) (A) (A) (A) (A)
                 (A) (A) (A) (A) (A) (A) (A) (A) (A) (A) (A) (A)
                 (A) (A) (A) (A) (A) (A) (A) (A) (A) (A) (A) (A)
                 (A) (A) (A) (A) (A) (A) (A) (A) (A) (A) (A) (A)
                 (A) (A) (A) (A) (A) (A) (A) (A) (A) (A) (A) (A)
                 (A) (A) (A) (A) (A) (A) (A) (A) (A) (A) (A) (A)
                 (A) (A) (A) (A) (A) (A) (A) (A) (A) (A) (A) (A)
                 (A) (A) (A) (A) (A) (A) (A) (A) (A) (A) (A) (A)
                 (A) (A) (A) (A) (A) (A) (A) (A) (A) (A) (A) (A)
                 (A) (A) (A) (A) (A) (A) (A) (A) (A) (A) (A) (A)
                 (A) (A) (A) (A) (A) (A) (A) (A) (A) (A) (A) (A)
                 (A) (A) (A) (A) (A) (A) (A) (A) (A) (A) (A) (A)
                 (A) (A) (A) (A) (A) (A) (A) (A) (A) (A) (A) (A)
                 (A) (A) (A) (A) (A) (A) (A) (A) (A) (A) (A) (A)
                 (A) (A) (A) (A) (A) (A) (A) (A) (A) (A) (A) (A)
                 (A) (A) (A) (A) (A) (A) (A) (A) (A) (A) (A) (A)
                 (A) (A) (A) (A) (A) (A) (A) (A) (A) (A) (A) (A)
                 (A) (A) (A) (A) (A) (A) (A) (A) (A) (A) (A) (A)
                 (A) (A) (A) (A) (A) (A) (A) (A) (A) (A) (A) (A)
                 (A) (A) (A) (A) (A) (A) (A) (A) (A) (A) (A) (A)
                 (A) (A) (A) (A) (A) (A) (A) (A) (A) (A) (A) (A)
                 (A) (A) (A) (A) (A) (A) (A) (A) (A) (A) (A) (A)
                 (A) (A) (A) (A) (A) (A) (A) (A) (A) (A) (A) (A)
                 (A) (A) (A) (A) (A) (A) (A) (A) (A) (A) (A) (A)
                 (A) (A) (A) (A) (A) (A) (A) (A) (A) (A) (A) (A)
                 (A) (A) (A) (A) (A) (A) (A) (A) (A) (A) (A) (A)
                 (A) (A) (A) (A) (A) (A) (A) (A) (A) (A) (A) (A)
                 (A) (A) (A) (A) (A) (A) (A) (A) (A) (A) (A) (A)
                 (A) (A) (A) (A) (A) (A) (A) (A) (A) (A) (A) (A)
                 (A) (A) (A) (A) (A) (A) (A) (A) (A) (A) (A) (A)
                 (A) (A) (A) (A) (A) (A) (A) (A) (A) (A) (A) (A)
                 (A) (A) (A) (A) (A) (A) (A) (A) (A) (A) (A) (A)
                 (A) (A) (A) (A) (A) (A) (A) (A) (A) (A) (A) (A)
                 (A) (A) (A) (A) (A) (A) (A) (A) (A) (A) (A) (A)
                 (A) (A) (A) (A) (A) (A) (A) (A) (A) (A) (A) (A)
                 (A) (A) (A) (A) (A) (A) (A) (A) (A) (A) (A) (A)
                 (A) (A) (A) (A) (A) (A) (A) (A) (A) (A) (A) (A)
                 (A) (A) (A) (A) (A) (A) (A) (A) (A) (A) (A) (A)
                 (A) (A) (A) (A) (A) (A) (A) (A) (A) (A) (A) (A)
                 (A) (A) (A) (A) (A) (A) (A) (A) (A) (A) (A) (A)
                 (A) (A) (A) (A) (A) (A) (A) (A) (A) (A) (A) (A)
                 (A) (A) (A) (A) (A) (A) (A) (A) (A) (A) (A) (A)
                 (A) (A) (A) (A) (A) (A) (A) (A) (A) (A) (A) (A)
                 (A) (A) (A) (A) (A) (A) (A) (A) (A) (A) (A) (A)
                 (A) (A) (A) (A) (A) (A) (A) (A) (A) (A) (A) (A)
                 (A) (A) (A) (A) (A) (A) (A) (A) (A) (A) (A) (A)
                 (A) (A) (A) (A) (A) (A) (A) (A) (A) (A) (A) (A)
                 (A) (A) (A) (A) (A) (A) (A) (A) (A) (A) (A) (A)
                 (A) (A) (A) (A) (A) (A) (A) (A) (A) (A) (A) (A)
                 (A) (A) (A) (A) (A) (A) (A) (A) (A) (A) (A) (A)
                 (A) (A) (A) (A) (A) (A) (A) (A) (A) (A) (A) (A)
                 (A) (A) (A) (A) (A) (A) (A) (A) (A) (A) (A) (A)
                 (A) (A) (A) (A) (A) (A) (A) (A) (A) (A) (A) (A)
                 (A) (A) (A) (A) (A) (A) (A) (A) (A) (A) (A) (A)
                 (A) (A) (A) (A) (A) (A) (A) (A) (A) (A) (A) (A)
                 (A) (A) (A) (A) (A) (A) (A) (A) (A) (A) (A) (A)
                 (A) (A) (A) (A) (A) (A) (A) (A) (A) (A) (A) (A)
                 (A) (A) (A) (A) (A) (A) (A) (A) (A) (A) (A) (A)
                 (A) (A) (A) (A) (A) (A) (A) (A) (A) (A) (A) (A)
                 (A) (A) (A) (A) (A) (A) (A) (A) (A) (A) (A) (A)
                 (A) (A) (A) (A) (A) (A) (A) (A) (A) (A) (A) (A)
                 (A) (A) (A) (A) (A) (A) (A) (A) (A) (A) (A) (A)
                 (A) (A) (A) (A) (A) (A) (A) (A) (A) (A) (A) (A)
                 (A) (A) (A) (A) (A) (A) (A) (A) (A) (A) (A) (A)
                 (A) (A) (A) (A) (A) (A) (A) (A) (A) (A) (A) (A)
                 (A) (A) (A) (A) (A) (A) (A) (A) (A) (A) (A) (A)
                 (A) (A) (A) (A) (A) (A) (A) (A) (A) (A) (A) (A)
                 (A) (A) (A) (A) (A) (A) (A) (A) (A) (A) (A) (A)
                 (A) (A) (A) (A) (A) (A) (A) (A) (A) (A) (A) (A)
                 (A) (A) (A) (A) (A) (A) (A) (A) (A) (A) (A) (A)
                 (A) (A) (A) (A) (A) (A) (A) (A) (A) (A) (A) (A)
                 (A) (A) (A) (A) (A) (A) (A) (A) (A) (A) (A) (A)
                 (A) (A) (A) (A) (A) (A) (A) (A) (A) (A) (A) (A)
                 (A) (A) (A) (A) (A) (A) (A) (A) (A) (A) (A) (A)
                 (A) (A) (A) (A) (A) (A) (A) (A) (A) (A) (A) (A)
                 (A) (A) (A) (A) (A) (A) (A) (A) (A) (A) (A) (A)
                 (A) (A) (A) (A) (A) (A) (A) (A) (A) (A) (A) (A)
                 (A) (A) (A) (A) (A) (A) (A) (A) (A) (A) (A) (A)
                 (A) (A) (A) (A) (A) (A) (A) (A) (A) (A) (A) (A)
                 (A) (A) (A) (A) (A) (A) (A) (A) (A) (A) (A) (A)
                 (A) (A) (A) (A) (A) (A) (A) (A) (A) (A) (A) (A)
                 (A) (A) (A) (A) (A) (A) (A) (A) (A) (A) (A) (A)
                 (A) (A) (A) (A) (A) (A) (A) (A) (A) (A) (A) (A)
                 (A) (A) (A) (A) (A) (A) (A) (A) (A) (A) (A) (A)
                 (A) (A) (A) (A) (A) (A) (A) (A) (A) (A) (A) (A)
                 (A) (A) (A) (A) (A) (A) (A) (A) (A) (A) (A) (A)
                 (A) (A) (A) (A) (A) (A) (A) (A) (A) (A) (A) (A)
                 (A) (A) (A) (A) (A) (A) (A) (A) (A) (A) (A) (A)
                 (A) (A) (A) (A) (A) (A) (A) (A) (A) (A) (A) (A)
                 (A) (A) (A) (A) (A) (A) (A) (A) (A) (A) (A) (A)
                 (A) (A) (A) (A) (A) (A) (A) (A) (A) (A) (A) (A)
                 (A) (A) (A) (A) (A) (A) (A) (A) (A) (A) (A) (A)
                 (A) (A) (A) (A) (A) (A) (A) (A) (A) (A) (A) (A)
                 (A) (A) (A) (A) (A) (A) (A) (A) (A) (A) (A) (A)
                 (A) (A) (A) (A) (A) (A) (A) (A) (A) (A) (A) (A)
                 (A) (A) (A) (A) (A) (A) (A) (A) (A) (A) (A) (A)
                 (A) (A) (A) (A) (A) (A) (A) (A) (A) (A) (A) (A)
                 (A) (A) (A) (A) (A) (A) (A) (A) (A) (A) (A) (A)
                 (A) (A) (A) (A) (A) (A) (A) (A) (A) (A) (A) (A)
                 (A) (A) (A) (A) (A) (A) (A) (A) (A) (A) (A) (A)
                 (A) (A) (A) (A) (A) (A) (A) (A) (A) (A) (A) (A)
                 (A) (A) (A) (A) (A) (A) (A) (A) (A) (A) (A) (A)
                 (A) (A) (A) (A) (A) (A) (A) (A) (A) (A) (A) (A)
                 (A) (A) (A) (A) (A) (A) (A) (A) (A) (A) (A) (A)
                 (A) (A) (A) (A) (A) (A) (A) (A) (A) (A) (A) (A)
                 (A) (A) (A) (A) (A) (A) (A) (A) (A) (A) (A) (A)
                 (A) (A) (A) (A) (A) (A) (A) (A) (A) (A) (A) (A)
                 (A) (A) (A) (A) (A) (A) (A) (A) (A) (A) (A) (A)
                 (A) (A) (A) (A) (A) (A) (A) (A) (A) (A) (A) (A)
                 (A) (A) (A) (A) (A) (A) (A) (A) (A) (A) (A) (A)
                 (A) (A) (A) (A) (A) (A) (A) (A) (A) (A) (A) (A)
                 (A) (A) (A) (A) (A) (A) (A) (A) (A) (A) (A) (A)
                 (A) (A) (A) (A) (A) (A) (A) (A) (A) (A) (A) (A)
                 (A) (A) (A) (A) (A) (A) (A) (A) (A) (A) (A) (A)
                 (A) (A) (A) (A) (A) (A) (A) (A) (A) (A) (A) (A)
                 (A) (A) (A) (A) (A) (A) (A) (A) (A) (A) (A) (A)
                 (A) (A) (A) (A) (A) (A) (A) (A) (A) (A) (A) (A)
                 (A) (A) (A) (A) (A) (A) (A) (A) (A) (A) (A) (A)
                 (A) (A) (A) (A) (A) (A) (A) (A) (A) (A) (A) (A)
                 (A) (A) (A) (A) (A) (A) (A) (A) (A) (A) (A) (A)
                 (A) (A) (A) (A) (A) (A) (A) (A) (A) (A) (A) (A)
                 (A) (A) (A) (A) (A) (A) (A) (A) (A) (A) (A) (A)
                 (A) (A) (A) (A) (A) (A) (A) (A) (A) (A) (A) (A)
                 (A)
 The electronic state is 1-A.
 Alpha  occ. eigenvalues --  -90.21459 -19.69689 -19.69588 -14.90814 -10.68960
 Alpha  occ. eigenvalues --  -10.63913 -10.63150 -10.62417 -10.58935 -10.58733
 Alpha  occ. eigenvalues --  -10.57950 -10.57857 -10.57767 -10.57667  -8.51699
 Alpha  occ. eigenvalues --   -6.44076  -6.43701  -6.43694  -1.30165  -1.19803
 Alpha  occ. eigenvalues --   -1.16702  -1.00560  -0.95950  -0.92605  -0.89297
 Alpha  occ. eigenvalues --   -0.88635  -0.82078  -0.77733  -0.76062  -0.73586
 Alpha  occ. eigenvalues --   -0.68803  -0.66689  -0.63400  -0.62270  -0.61215
 Alpha  occ. eigenvalues --   -0.60036  -0.58441  -0.55126  -0.54848  -0.54583
 Alpha  occ. eigenvalues --   -0.54329  -0.52998  -0.52533  -0.51138  -0.48858
 Alpha  occ. eigenvalues --   -0.48291  -0.47745  -0.47165  -0.45967  -0.45785
 Alpha  occ. eigenvalues --   -0.45301  -0.43755  -0.38184  -0.34976  -0.34841
 Alpha virt. eigenvalues --   -0.07260  -0.06307  -0.02578  -0.01942  -0.01631
 Alpha virt. eigenvalues --   -0.01095  -0.00989  -0.00795   0.00432   0.00493
 Alpha virt. eigenvalues --    0.00657   0.01106   0.01290   0.02088   0.02427
 Alpha virt. eigenvalues --    0.02594   0.02736   0.03245   0.03370   0.03750
 Alpha virt. eigenvalues --    0.04379   0.04599   0.04679   0.05225   0.05293
 Alpha virt. eigenvalues --    0.05570   0.05893   0.06245   0.06469   0.06843
 Alpha virt. eigenvalues --    0.07055   0.07145   0.07205   0.07352   0.07635
 Alpha virt. eigenvalues --    0.07795   0.08045   0.08193   0.08641   0.08735
 Alpha virt. eigenvalues --    0.09151   0.09541   0.09725   0.09877   0.10096
 Alpha virt. eigenvalues --    0.10537   0.10699   0.11088   0.11288   0.11744
 Alpha virt. eigenvalues --    0.11770   0.11941   0.12632   0.12849   0.13413
 Alpha virt. eigenvalues --    0.13450   0.13823   0.14107   0.14578   0.15055
 Alpha virt. eigenvalues --    0.15663   0.15949   0.16098   0.16282   0.16779
 Alpha virt. eigenvalues --    0.16928   0.17390   0.17408   0.17909   0.17947
 Alpha virt. eigenvalues --    0.18236   0.18528   0.18745   0.18795   0.18875
 Alpha virt. eigenvalues --    0.19451   0.19657   0.19857   0.19943   0.20361
 Alpha virt. eigenvalues --    0.20385   0.20620   0.20927   0.21082   0.21313
 Alpha virt. eigenvalues --    0.21851   0.22333   0.22340   0.22711   0.23099
 Alpha virt. eigenvalues --    0.23526   0.23730   0.23980   0.24049   0.24282
 Alpha virt. eigenvalues --    0.24504   0.24770   0.25115   0.25449   0.25560
 Alpha virt. eigenvalues --    0.25986   0.26133   0.26146   0.26511   0.26590
 Alpha virt. eigenvalues --    0.26630   0.26915   0.27377   0.27677   0.27807
 Alpha virt. eigenvalues --    0.28272   0.28568   0.28728   0.29084   0.29408
 Alpha virt. eigenvalues --    0.29775   0.29816   0.30513   0.30650   0.30931
 Alpha virt. eigenvalues --    0.31032   0.31314   0.31650   0.31935   0.32326
 Alpha virt. eigenvalues --    0.32535   0.32923   0.33091   0.33215   0.33611
 Alpha virt. eigenvalues --    0.33707   0.33915   0.34157   0.34413   0.34749
 Alpha virt. eigenvalues --    0.35012   0.35257   0.35292   0.35674   0.36103
 Alpha virt. eigenvalues --    0.36400   0.36512   0.36721   0.37179   0.37489
 Alpha virt. eigenvalues --    0.37548   0.37731   0.38190   0.38361   0.38559
 Alpha virt. eigenvalues --    0.38743   0.38975   0.39413   0.39588   0.39932
 Alpha virt. eigenvalues --    0.40301   0.40638   0.40964   0.41124   0.41157
 Alpha virt. eigenvalues --    0.41900   0.42032   0.42096   0.42395   0.42426
 Alpha virt. eigenvalues --    0.42806   0.43029   0.43497   0.43977   0.44344
 Alpha virt. eigenvalues --    0.44458   0.44580   0.45355   0.45574   0.45743
 Alpha virt. eigenvalues --    0.45946   0.46302   0.46913   0.47170   0.47610
 Alpha virt. eigenvalues --    0.47883   0.48049   0.48528   0.48914   0.49295
 Alpha virt. eigenvalues --    0.49462   0.50036   0.50236   0.50825   0.51316
 Alpha virt. eigenvalues --    0.51384   0.51705   0.51971   0.52509   0.53092
 Alpha virt. eigenvalues --    0.53149   0.53301   0.53851   0.54121   0.54520
 Alpha virt. eigenvalues --    0.54934   0.55092   0.55316   0.55443   0.55746
 Alpha virt. eigenvalues --    0.56313   0.56822   0.57113   0.57523   0.57928
 Alpha virt. eigenvalues --    0.58607   0.58941   0.59321   0.59872   0.60034
 Alpha virt. eigenvalues --    0.60335   0.60894   0.61028   0.61249   0.61510
 Alpha virt. eigenvalues --    0.61718   0.62277   0.62504   0.62653   0.62786
 Alpha virt. eigenvalues --    0.63484   0.63919   0.64053   0.64531   0.64610
 Alpha virt. eigenvalues --    0.65120   0.65464   0.65800   0.65918   0.66218
 Alpha virt. eigenvalues --    0.66574   0.66961   0.66981   0.67720   0.67987
 Alpha virt. eigenvalues --    0.68665   0.68875   0.68984   0.69300   0.69850
 Alpha virt. eigenvalues --    0.70248   0.70420   0.70734   0.70874   0.71179
 Alpha virt. eigenvalues --    0.71656   0.72009   0.72230   0.72503   0.72868
 Alpha virt. eigenvalues --    0.73032   0.73413   0.74161   0.74310   0.74708
 Alpha virt. eigenvalues --    0.74996   0.75354   0.75809   0.76045   0.76438
 Alpha virt. eigenvalues --    0.76754   0.77092   0.77698   0.77982   0.78214
 Alpha virt. eigenvalues --    0.78345   0.78730   0.79166   0.79202   0.79420
 Alpha virt. eigenvalues --    0.79839   0.79896   0.80268   0.80376   0.80795
 Alpha virt. eigenvalues --    0.81379   0.81729   0.81947   0.82271   0.82648
 Alpha virt. eigenvalues --    0.83067   0.83550   0.83812   0.84356   0.84552
 Alpha virt. eigenvalues --    0.85226   0.85507   0.85656   0.85979   0.85998
 Alpha virt. eigenvalues --    0.86374   0.86835   0.87044   0.87358   0.87930
 Alpha virt. eigenvalues --    0.88516   0.88872   0.89349   0.89633   0.89902
 Alpha virt. eigenvalues --    0.90078   0.90384   0.90771   0.90995   0.91331
 Alpha virt. eigenvalues --    0.91465   0.91982   0.92213   0.92419   0.92771
 Alpha virt. eigenvalues --    0.93551   0.93635   0.94359   0.94665   0.95344
 Alpha virt. eigenvalues --    0.95938   0.96029   0.96199   0.96770   0.96952
 Alpha virt. eigenvalues --    0.97301   0.97942   0.98047   0.98178   0.98672
 Alpha virt. eigenvalues --    0.99000   0.99876   1.00514   1.00641   1.00865
 Alpha virt. eigenvalues --    1.01046   1.01725   1.02529   1.02718   1.03110
 Alpha virt. eigenvalues --    1.03202   1.03374   1.03455   1.04146   1.04525
 Alpha virt. eigenvalues --    1.04906   1.05282   1.05619   1.05679   1.06575
 Alpha virt. eigenvalues --    1.06920   1.07448   1.07559   1.07852   1.08000
 Alpha virt. eigenvalues --    1.08530   1.08857   1.09293   1.09695   1.10131
 Alpha virt. eigenvalues --    1.10301   1.10702   1.10902   1.11060   1.11496
 Alpha virt. eigenvalues --    1.12418   1.12812   1.12943   1.13471   1.13751
 Alpha virt. eigenvalues --    1.13924   1.14175   1.14922   1.15155   1.15574
 Alpha virt. eigenvalues --    1.15771   1.16035   1.16359   1.16808   1.17113
 Alpha virt. eigenvalues --    1.17441   1.18066   1.18425   1.18709   1.19254
 Alpha virt. eigenvalues --    1.19582   1.20344   1.20626   1.21017   1.21531
 Alpha virt. eigenvalues --    1.22087   1.22256   1.22450   1.23386   1.23750
 Alpha virt. eigenvalues --    1.24304   1.24621   1.25181   1.25644   1.25836
 Alpha virt. eigenvalues --    1.25986   1.26876   1.27104   1.27298   1.27752
 Alpha virt. eigenvalues --    1.27868   1.28458   1.28808   1.29476   1.30139
 Alpha virt. eigenvalues --    1.30528   1.31142   1.31325   1.31873   1.32303
 Alpha virt. eigenvalues --    1.32770   1.33515   1.33929   1.34334   1.35026
 Alpha virt. eigenvalues --    1.35305   1.35399   1.35978   1.36749   1.37102
 Alpha virt. eigenvalues --    1.37756   1.38461   1.38475   1.38813   1.39243
 Alpha virt. eigenvalues --    1.39717   1.39915   1.40797   1.40948   1.41744
 Alpha virt. eigenvalues --    1.42215   1.42562   1.43284   1.43811   1.43875
 Alpha virt. eigenvalues --    1.44404   1.44787   1.45012   1.45693   1.45975
 Alpha virt. eigenvalues --    1.46207   1.46763   1.46881   1.47746   1.47810
 Alpha virt. eigenvalues --    1.48102   1.48866   1.49471   1.49980   1.50301
 Alpha virt. eigenvalues --    1.51229   1.51470   1.51602   1.51829   1.52144
 Alpha virt. eigenvalues --    1.53585   1.54314   1.54514   1.55464   1.55650
 Alpha virt. eigenvalues --    1.55987   1.56262   1.56725   1.57434   1.57920
 Alpha virt. eigenvalues --    1.58487   1.58722   1.59260   1.59472   1.59777
 Alpha virt. eigenvalues --    1.60393   1.61262   1.61652   1.61867   1.62128
 Alpha virt. eigenvalues --    1.62839   1.63026   1.63572   1.64229   1.64707
 Alpha virt. eigenvalues --    1.65158   1.65318   1.65907   1.66126   1.66832
 Alpha virt. eigenvalues --    1.67532   1.67716   1.68259   1.68559   1.69323
 Alpha virt. eigenvalues --    1.69816   1.70982   1.71334   1.71847   1.72275
 Alpha virt. eigenvalues --    1.72400   1.72925   1.73646   1.73985   1.74271
 Alpha virt. eigenvalues --    1.74837   1.75389   1.75958   1.76198   1.76680
 Alpha virt. eigenvalues --    1.77259   1.77421   1.77896   1.78468   1.79279
 Alpha virt. eigenvalues --    1.79602   1.79805   1.80341   1.80830   1.81498
 Alpha virt. eigenvalues --    1.81721   1.82050   1.82867   1.83108   1.83722
 Alpha virt. eigenvalues --    1.84100   1.84646   1.85166   1.85342   1.85460
 Alpha virt. eigenvalues --    1.85871   1.86488   1.86661   1.87216   1.88008
 Alpha virt. eigenvalues --    1.88324   1.88369   1.88968   1.89096   1.89190
 Alpha virt. eigenvalues --    1.90213   1.90408   1.91065   1.91597   1.92069
 Alpha virt. eigenvalues --    1.92489   1.92567   1.92849   1.92975   1.93893
 Alpha virt. eigenvalues --    1.94261   1.94503   1.95140   1.95465   1.95824
 Alpha virt. eigenvalues --    1.96208   1.96424   1.96747   1.97324   1.97745
 Alpha virt. eigenvalues --    1.98129   1.98410   1.98652   1.98852   1.99477
 Alpha virt. eigenvalues --    1.99556   1.99946   2.00369   2.00632   2.01043
 Alpha virt. eigenvalues --    2.01513   2.02391   2.02435   2.02946   2.03522
 Alpha virt. eigenvalues --    2.03618   2.04063   2.04256   2.04541   2.05116
 Alpha virt. eigenvalues --    2.05443   2.05683   2.06143   2.06499   2.06812
 Alpha virt. eigenvalues --    2.06980   2.07558   2.08120   2.08422   2.08935
 Alpha virt. eigenvalues --    2.09461   2.09803   2.10080   2.10784   2.10926
 Alpha virt. eigenvalues --    2.11245   2.11887   2.12103   2.12586   2.12776
 Alpha virt. eigenvalues --    2.13033   2.13617   2.13986   2.14322   2.14804
 Alpha virt. eigenvalues --    2.14899   2.15436   2.16049   2.16232   2.16686
 Alpha virt. eigenvalues --    2.17066   2.17380   2.17907   2.18184   2.18774
 Alpha virt. eigenvalues --    2.19612   2.19708   2.19854   2.20461   2.20518
 Alpha virt. eigenvalues --    2.20914   2.21534   2.21747   2.22288   2.22655
 Alpha virt. eigenvalues --    2.23060   2.23624   2.23874   2.24153   2.24443
 Alpha virt. eigenvalues --    2.24797   2.25239   2.25468   2.26375   2.26645
 Alpha virt. eigenvalues --    2.26775   2.27290   2.27680   2.27871   2.28029
 Alpha virt. eigenvalues --    2.28484   2.29051   2.29274   2.29689   2.29747
 Alpha virt. eigenvalues --    2.30513   2.30840   2.31435   2.31879   2.32222
 Alpha virt. eigenvalues --    2.32718   2.33281   2.33638   2.33900   2.34498
 Alpha virt. eigenvalues --    2.34825   2.35475   2.35874   2.36411   2.36796
 Alpha virt. eigenvalues --    2.36959   2.37454   2.37525   2.38422   2.39284
 Alpha virt. eigenvalues --    2.39615   2.39763   2.40403   2.40532   2.40993
 Alpha virt. eigenvalues --    2.41313   2.41729   2.41846   2.42379   2.43173
 Alpha virt. eigenvalues --    2.43946   2.44227   2.44773   2.45550   2.45861
 Alpha virt. eigenvalues --    2.46310   2.46954   2.47203   2.47774   2.48298
 Alpha virt. eigenvalues --    2.49294   2.49473   2.49826   2.50269   2.50919
 Alpha virt. eigenvalues --    2.51715   2.52273   2.52608   2.53107   2.53663
 Alpha virt. eigenvalues --    2.53876   2.54646   2.55173   2.55638   2.55834
 Alpha virt. eigenvalues --    2.56036   2.57187   2.57248   2.57769   2.58074
 Alpha virt. eigenvalues --    2.58606   2.59069   2.59419   2.60132   2.60776
 Alpha virt. eigenvalues --    2.61138   2.61892   2.61970   2.62711   2.63086
 Alpha virt. eigenvalues --    2.63375   2.63664   2.64156   2.64411   2.65040
 Alpha virt. eigenvalues --    2.65866   2.66264   2.67030   2.67451   2.68191
 Alpha virt. eigenvalues --    2.68391   2.68698   2.69277   2.69404   2.70538
 Alpha virt. eigenvalues --    2.71271   2.71387   2.71791   2.72831   2.73036
 Alpha virt. eigenvalues --    2.73711   2.74207   2.75044   2.75230   2.76284
 Alpha virt. eigenvalues --    2.77148   2.77815   2.78208   2.79024   2.79524
 Alpha virt. eigenvalues --    2.80161   2.80985   2.81554   2.82126   2.82572
 Alpha virt. eigenvalues --    2.82924   2.83010   2.83607   2.84465   2.84903
 Alpha virt. eigenvalues --    2.85721   2.86124   2.86663   2.86856   2.87850
 Alpha virt. eigenvalues --    2.87965   2.88127   2.88534   2.89750   2.90416
 Alpha virt. eigenvalues --    2.90905   2.91056   2.91733   2.91927   2.93499
 Alpha virt. eigenvalues --    2.93988   2.94146   2.95520   2.95924   2.96484
 Alpha virt. eigenvalues --    2.96779   2.97481   2.97928   2.98312   2.98551
 Alpha virt. eigenvalues --    2.99020   2.99691   2.99910   3.01064   3.02070
 Alpha virt. eigenvalues --    3.02804   3.03390   3.04141   3.04588   3.05402
 Alpha virt. eigenvalues --    3.05551   3.05847   3.07008   3.07696   3.08197
 Alpha virt. eigenvalues --    3.09353   3.10136   3.10494   3.10852   3.11132
 Alpha virt. eigenvalues --    3.13114   3.13229   3.13839   3.14886   3.15976
 Alpha virt. eigenvalues --    3.17044   3.17772   3.18506   3.18641   3.19406
 Alpha virt. eigenvalues --    3.20454   3.21278   3.21440   3.22772   3.23082
 Alpha virt. eigenvalues --    3.23988   3.24404   3.26864   3.27246   3.27899
 Alpha virt. eigenvalues --    3.28301   3.28829   3.29105   3.30643   3.31102
 Alpha virt. eigenvalues --    3.31945   3.32911   3.33717   3.34058   3.34595
 Alpha virt. eigenvalues --    3.35487   3.36040   3.37725   3.38105   3.38893
 Alpha virt. eigenvalues --    3.39960   3.40908   3.41192   3.42508   3.43211
 Alpha virt. eigenvalues --    3.43610   3.44139   3.45210   3.45660   3.46133
 Alpha virt. eigenvalues --    3.47000   3.47632   3.48480   3.48825   3.49326
 Alpha virt. eigenvalues --    3.51330   3.51924   3.52520   3.52662   3.53153
 Alpha virt. eigenvalues --    3.54517   3.54859   3.55347   3.56504   3.56863
 Alpha virt. eigenvalues --    3.57884   3.58396   3.58899   3.59757   3.60688
 Alpha virt. eigenvalues --    3.61091   3.61481   3.62536   3.62900   3.63174
 Alpha virt. eigenvalues --    3.64234   3.64728   3.65478   3.66560   3.67107
 Alpha virt. eigenvalues --    3.67476   3.68094   3.68746   3.69170   3.70136
 Alpha virt. eigenvalues --    3.70400   3.71273   3.71791   3.72409   3.72961
 Alpha virt. eigenvalues --    3.73210   3.73618   3.74201   3.75222   3.75522
 Alpha virt. eigenvalues --    3.75962   3.76503   3.77309   3.78152   3.79147
 Alpha virt. eigenvalues --    3.79684   3.79906   3.81114   3.81747   3.82059
 Alpha virt. eigenvalues --    3.82280   3.82935   3.83348   3.84011   3.84346
 Alpha virt. eigenvalues --    3.85323   3.85600   3.86401   3.87109   3.87499
 Alpha virt. eigenvalues --    3.88037   3.88339   3.88727   3.89588   3.91227
 Alpha virt. eigenvalues --    3.91393   3.92291   3.92946   3.93437   3.94446
 Alpha virt. eigenvalues --    3.95400   3.96242   3.96492   3.96600   3.97665
 Alpha virt. eigenvalues --    3.98519   3.98611   3.99181   4.00354   4.00698
 Alpha virt. eigenvalues --    4.01250   4.02601   4.02839   4.03853   4.04248
 Alpha virt. eigenvalues --    4.04728   4.05582   4.05873   4.06140   4.06622
 Alpha virt. eigenvalues --    4.07163   4.07426   4.07690   4.08775   4.09166
 Alpha virt. eigenvalues --    4.10235   4.10949   4.11116   4.11498   4.12192
 Alpha virt. eigenvalues --    4.13048   4.13260   4.13910   4.13979   4.14720
 Alpha virt. eigenvalues --    4.15488   4.16278   4.16600   4.16905   4.17867
 Alpha virt. eigenvalues --    4.18620   4.19336   4.20036   4.21058   4.21224
 Alpha virt. eigenvalues --    4.21951   4.22473   4.22585   4.24295   4.24576
 Alpha virt. eigenvalues --    4.25008   4.25379   4.26940   4.27032   4.27956
 Alpha virt. eigenvalues --    4.28920   4.29563   4.30480   4.31043   4.31364
 Alpha virt. eigenvalues --    4.31826   4.32605   4.33760   4.34834   4.35001
 Alpha virt. eigenvalues --    4.36307   4.36744   4.36947   4.37312   4.38745
 Alpha virt. eigenvalues --    4.39765   4.40440   4.41390   4.42005   4.42326
 Alpha virt. eigenvalues --    4.42688   4.43734   4.44061   4.45118   4.45850
 Alpha virt. eigenvalues --    4.47301   4.47882   4.48449   4.48986   4.50893
 Alpha virt. eigenvalues --    4.51443   4.54058   4.54664   4.55899   4.56857
 Alpha virt. eigenvalues --    4.57543   4.58034   4.59936   4.60983   4.61622
 Alpha virt. eigenvalues --    4.61868   4.62687   4.64544   4.65293   4.65652
 Alpha virt. eigenvalues --    4.67119   4.67974   4.68715   4.69763   4.71473
 Alpha virt. eigenvalues --    4.72124   4.72720   4.73513   4.74139   4.75266
 Alpha virt. eigenvalues --    4.75489   4.76433   4.77444   4.78279   4.79325
 Alpha virt. eigenvalues --    4.80532   4.80790   4.82809   4.84381   4.85280
 Alpha virt. eigenvalues --    4.86425   4.87220   4.88049   4.88678   4.90147
 Alpha virt. eigenvalues --    4.90808   4.91108   4.94450   4.95296   4.96914
 Alpha virt. eigenvalues --    4.97324   4.99039   4.99692   4.99750   5.02180
 Alpha virt. eigenvalues --    5.03271   5.04624   5.05147   5.07653   5.09753
 Alpha virt. eigenvalues --    5.13296   5.15028   5.16931   5.18256   5.19499
 Alpha virt. eigenvalues --    5.21757   5.22086   5.24219   5.25592   5.28589
 Alpha virt. eigenvalues --    5.30012   5.32800   5.36345   5.36472   5.39180
 Alpha virt. eigenvalues --    5.40891   5.42394   5.43657   5.44993   5.48683
 Alpha virt. eigenvalues --    5.50994   5.52391   5.54370   5.54966   5.55848
 Alpha virt. eigenvalues --    5.56911   5.57962   5.58448   5.59618   5.61532
 Alpha virt. eigenvalues --    5.63868   5.64296   5.67036   5.67710   5.68839
 Alpha virt. eigenvalues --    5.70346   5.72197   5.74273   5.75362   5.75909
 Alpha virt. eigenvalues --    5.76754   5.78303   5.79303   5.79908   5.80290
 Alpha virt. eigenvalues --    5.81415   5.81918   5.82813   5.83483   5.83951
 Alpha virt. eigenvalues --    5.85667   5.86099   5.86454   5.86866   5.88006
 Alpha virt. eigenvalues --    5.89202   5.89828   5.90335   5.91512   5.92643
 Alpha virt. eigenvalues --    5.93515   5.95369   5.96010   5.96488   5.97471
 Alpha virt. eigenvalues --    5.99250   5.99935   6.01503   6.02066   6.03757
 Alpha virt. eigenvalues --    6.05045   6.05955   6.07410   6.07861   6.08831
 Alpha virt. eigenvalues --    6.09890   6.11522   6.12830   6.14808   6.16530
 Alpha virt. eigenvalues --    6.17169   6.18712   6.19603   6.20396   6.21646
 Alpha virt. eigenvalues --    6.22204   6.23098   6.24075   6.24589   6.25311
 Alpha virt. eigenvalues --    6.26506   6.26933   6.27484   6.28101   6.28746
 Alpha virt. eigenvalues --    6.29048   6.29467   6.29859   6.31167   6.32161
 Alpha virt. eigenvalues --    6.32737   6.33154   6.34361   6.35344   6.36318
 Alpha virt. eigenvalues --    6.37553   6.39158   6.39300   6.40223   6.40609
 Alpha virt. eigenvalues --    6.40982   6.41859   6.42469   6.43047   6.43250
 Alpha virt. eigenvalues --    6.44704   6.44960   6.45679   6.46475   6.47361
 Alpha virt. eigenvalues --    6.48177   6.48391   6.50126   6.50690   6.50878
 Alpha virt. eigenvalues --    6.51821   6.53057   6.53481   6.54670   6.55192
 Alpha virt. eigenvalues --    6.55702   6.57147   6.58240   6.58558   6.58884
 Alpha virt. eigenvalues --    6.60056   6.60250   6.61068   6.61606   6.62028
 Alpha virt. eigenvalues --    6.62235   6.63290   6.63462   6.63935   6.64935
 Alpha virt. eigenvalues --    6.65416   6.66862   6.67371   6.67663   6.68263
 Alpha virt. eigenvalues --    6.68638   6.69011   6.70344   6.71052   6.72434
 Alpha virt. eigenvalues --    6.72496   6.73351   6.74763   6.75704   6.75967
 Alpha virt. eigenvalues --    6.76521   6.76859   6.77429   6.78309   6.78513
 Alpha virt. eigenvalues --    6.78968   6.80078   6.80347   6.82124   6.82486
 Alpha virt. eigenvalues --    6.83403   6.83718   6.84165   6.85263   6.87246
 Alpha virt. eigenvalues --    6.87791   6.89136   6.90435   6.91797   6.92046
 Alpha virt. eigenvalues --    6.93867   6.95192   6.96264   6.96470   6.97298
 Alpha virt. eigenvalues --    6.98276   6.99027   6.99432   7.00404   7.02201
 Alpha virt. eigenvalues --    7.02634   7.03409   7.03641   7.05094   7.05661
 Alpha virt. eigenvalues --    7.06893   7.08545   7.10727   7.10904   7.13358
 Alpha virt. eigenvalues --    7.14855   7.16222   7.17170   7.17482   7.18723
 Alpha virt. eigenvalues --    7.19692   7.20898   7.21556   7.21909   7.22869
 Alpha virt. eigenvalues --    7.24089   7.25087   7.25228   7.27229   7.28218
 Alpha virt. eigenvalues --    7.28496   7.29325   7.31472   7.31584   7.31910
 Alpha virt. eigenvalues --    7.32683   7.34370   7.35732   7.36259   7.37221
 Alpha virt. eigenvalues --    7.37524   7.39638   7.40228   7.40939   7.41863
 Alpha virt. eigenvalues --    7.42422   7.44417   7.44597   7.45883   7.46463
 Alpha virt. eigenvalues --    7.47741   7.48802   7.49199   7.50157   7.50618
 Alpha virt. eigenvalues --    7.51506   7.52552   7.53350   7.54000   7.54263
 Alpha virt. eigenvalues --    7.57459   7.58863   7.59222   7.60330   7.61094
 Alpha virt. eigenvalues --    7.64589   7.65020   7.66058   7.66391   7.69317
 Alpha virt. eigenvalues --    7.72774   7.73157   7.73299   7.73970   7.77442
 Alpha virt. eigenvalues --    7.78824   7.79984   7.82305   7.83693   7.84707
 Alpha virt. eigenvalues --    7.85489   7.86157   7.87494   7.88471   7.89852
 Alpha virt. eigenvalues --    7.90919   7.92835   7.93650   7.97193   7.98705
 Alpha virt. eigenvalues --    8.00674   8.03182   8.03989   8.05360   8.05792
 Alpha virt. eigenvalues --    8.07259   8.08785   8.10096   8.11677   8.11978
 Alpha virt. eigenvalues --    8.12529   8.12979   8.13898   8.14682   8.15434
 Alpha virt. eigenvalues --    8.15564   8.17571   8.18511   8.18984   8.21589
 Alpha virt. eigenvalues --    8.22132   8.22715   8.23143   8.24646   8.25890
 Alpha virt. eigenvalues --    8.27399   8.28027   8.28395   8.29095   8.30120
 Alpha virt. eigenvalues --    8.33448   8.35170   8.36606   8.38161   8.39502
 Alpha virt. eigenvalues --    8.41777   8.43680   8.45414   8.47348   8.48453
 Alpha virt. eigenvalues --    8.48909   8.51681   8.51871   8.52401   8.53975
 Alpha virt. eigenvalues --    8.55834   8.56196   8.57545   8.58557   8.60189
 Alpha virt. eigenvalues --    8.61515   8.61992   8.63284   8.64134   8.64573
 Alpha virt. eigenvalues --    8.66033   8.67142   8.69960   8.70619   8.74278
 Alpha virt. eigenvalues --    8.74455   8.75635   8.76507   8.77643   8.78462
 Alpha virt. eigenvalues --    8.79892   8.80763   8.81718   8.83424   8.84765
 Alpha virt. eigenvalues --    8.85872   8.86639   8.88875   8.90139   8.90533
 Alpha virt. eigenvalues --    8.91557   8.92563   8.93485   8.94360   8.95472
 Alpha virt. eigenvalues --    8.96609   8.97541   8.98948   8.99242   9.01046
 Alpha virt. eigenvalues --    9.01211   9.02307   9.04669   9.06623   9.07442
 Alpha virt. eigenvalues --    9.08359   9.08699   9.10326   9.10983   9.11929
 Alpha virt. eigenvalues --    9.13683   9.15217   9.16155   9.16579   9.17646
 Alpha virt. eigenvalues --    9.19474   9.20009   9.22954   9.23323   9.25757
 Alpha virt. eigenvalues --    9.27210   9.28378   9.29649   9.32414   9.34625
 Alpha virt. eigenvalues --    9.36833   9.39402   9.40589   9.41500   9.42640
 Alpha virt. eigenvalues --    9.43190   9.44033   9.45543   9.46039   9.48363
 Alpha virt. eigenvalues --    9.49642   9.51387   9.54083   9.55113   9.59445
 Alpha virt. eigenvalues --    9.60404   9.60455   9.61467   9.62169   9.64843
 Alpha virt. eigenvalues --    9.66173   9.66741   9.69119   9.69861   9.70737
 Alpha virt. eigenvalues --    9.70833   9.73065   9.74120   9.74423   9.75404
 Alpha virt. eigenvalues --    9.76110   9.77641   9.78892   9.81964   9.82084
 Alpha virt. eigenvalues --    9.83001   9.83673   9.85163   9.86560   9.88102
 Alpha virt. eigenvalues --    9.89677   9.93086   9.95739   9.96673  10.02314
 Alpha virt. eigenvalues --   10.05810  10.08515  10.10407  10.11568  10.13164
 Alpha virt. eigenvalues --   10.13976  10.15572  10.16359  10.18488  10.18891
 Alpha virt. eigenvalues --   10.19529  10.21771  10.23577  10.25941  10.26602
 Alpha virt. eigenvalues --   10.29549  10.30157  10.31997  10.33606  10.33934
 Alpha virt. eigenvalues --   10.35777  10.36674  10.36941  10.38828  10.39346
 Alpha virt. eigenvalues --   10.40316  10.40996  10.41939  10.43314  10.46099
 Alpha virt. eigenvalues --   10.46527  10.48175  10.50351  10.51576  10.52716
 Alpha virt. eigenvalues --   10.53653  10.54502  10.55825  10.58766  10.58996
 Alpha virt. eigenvalues --   10.60868  10.62695  10.67091  10.68289  10.70475
 Alpha virt. eigenvalues --   10.71500  10.75285  10.76666  10.79364  10.81398
 Alpha virt. eigenvalues --   10.82406  10.85844  10.97247  11.02652  11.03953
 Alpha virt. eigenvalues --   11.04774  11.05863  11.09496  11.12293  11.15438
 Alpha virt. eigenvalues --   11.23359  11.28623  11.33829  11.36879  11.37585
 Alpha virt. eigenvalues --   11.40951  11.43254  11.46207  11.54478  11.56798
 Alpha virt. eigenvalues --   11.58159  11.66626  11.70965  11.72429  12.05148
 Alpha virt. eigenvalues --   12.09321  12.15236  12.19364  12.25677  12.27126
 Alpha virt. eigenvalues --   12.34992  12.48784  12.50882  12.52297  12.54974
 Alpha virt. eigenvalues --   12.57950  12.59108  12.62621  12.66285  12.66625
 Alpha virt. eigenvalues --   12.68023  12.69103  12.69581  12.71161  12.72920
 Alpha virt. eigenvalues --   12.76605  12.77548  12.79949  12.81448  12.87744
 Alpha virt. eigenvalues --   12.89289  12.99000  13.01730  13.39357  13.52088
 Alpha virt. eigenvalues --   24.68745  25.13775  25.31905  25.38846  25.72805
 Alpha virt. eigenvalues --   25.77955  26.00455  26.10081  26.18986  27.77511
 Alpha virt. eigenvalues --   27.87133  33.91761  43.01440  43.03433
          Condensed to atoms (all electrons):
               1          2          3          4          5          6
     1  N    8.839224  -0.222286  -0.082086  -0.030382  -0.292369  -0.020838
     2  S   -0.222286  14.508185   0.081209   0.067598   0.026563  -0.118849
     3  O   -0.082086   0.081209   8.992325  -0.099735   0.027553   0.019115
     4  O   -0.030382   0.067598  -0.099735   8.967586   0.007777   0.007279
     5  C   -0.292369   0.026563   0.027553   0.007777   7.757972   0.212672
     6  H   -0.020838  -0.118849   0.019115   0.007279   0.212672   0.292352
     7  H    0.013074   0.156585  -0.029447  -0.030362   0.154922  -0.125980
     8  H   -0.102500  -0.196411   0.033853   0.012746   0.091627   0.075758
     9  C    0.364972  -0.255785   0.023829  -0.032164  -0.073276   0.015670
    10  C   -0.337792  -0.016416  -0.014160   0.009840  -0.020490  -0.011072
    11  C   -0.082263  -0.000879   0.001461   0.014019  -0.003189   0.000035
    12  H   -0.003278  -0.003583  -0.000057   0.000055  -0.000373   0.000076
    13  H    0.008742  -0.000397   0.000157  -0.000517  -0.000353   0.000105
    14  C   -0.547507  -0.010102  -0.037849   0.065232  -0.024330  -0.028644
    15  C   -0.240583  -0.003530   0.035998  -0.004275  -0.015962  -0.003300
    16  C   -0.382268  -0.106163   0.001604   0.001157   0.034589   0.008916
    17  C   -0.017352  -0.006623  -0.005805   0.003412  -0.006322  -0.000517
    18  H   -0.011806   0.016485  -0.023833  -0.006916   0.006938  -0.000620
    19  C   -0.088664   0.004745   0.003531   0.002145  -0.006086  -0.002515
    20  H    0.029049  -0.000167   0.000412   0.000378   0.014094  -0.000025
    21  C    0.047810  -0.005048  -0.001627  -0.000275   0.004286   0.000612
    22  H   -0.001428  -0.000594   0.000361   0.000091  -0.000081  -0.000089
    23  H   -0.004204   0.000284  -0.000153   0.000100   0.000736  -0.000177
    24  H   -0.009461   0.001342   0.000121  -0.000023   0.000827   0.000182
    25  H   -0.026601   0.000562  -0.000760   0.003583   0.003489  -0.000508
    26  H    0.005836  -0.002942   0.000747   0.001982  -0.000382  -0.000107
               7          8          9         10         11         12
     1  N    0.013074  -0.102500   0.364972  -0.337792  -0.082263  -0.003278
     2  S    0.156585  -0.196411  -0.255785  -0.016416  -0.000879  -0.003583
     3  O   -0.029447   0.033853   0.023829  -0.014160   0.001461  -0.000057
     4  O   -0.030362   0.012746  -0.032164   0.009840   0.014019   0.000055
     5  C    0.154922   0.091627  -0.073276  -0.020490  -0.003189  -0.000373
     6  H   -0.125980   0.075758   0.015670  -0.011072   0.000035   0.000076
     7  H    0.609298  -0.181348  -0.010188   0.003628  -0.000383  -0.000025
     8  H   -0.181348   0.490539   0.013909  -0.005613  -0.000226  -0.000035
     9  C   -0.010188   0.013909   5.547655   0.361715  -0.217556   0.007644
    10  C    0.003628  -0.005613   0.361715   7.002746   0.004153  -0.033826
    11  C   -0.000383  -0.000226  -0.217556   0.004153   7.842786   0.165177
    12  H   -0.000025  -0.000035   0.007644  -0.033826   0.165177   0.224052
    13  H   -0.000021  -0.000095   0.020464  -0.086999   0.217769   0.023266
    14  C    0.020903  -0.067499  -0.520272  -0.166740   0.001415   0.009885
    15  C    0.001627  -0.013668  -0.118285  -0.003123  -0.001616   0.000547
    16  C   -0.000808   0.053081  -0.081965  -0.039933  -0.014421  -0.001090
    17  C   -0.000686  -0.000234  -0.051711   0.025371  -0.007019   0.000082
    18  H    0.001682   0.003428  -0.025410  -0.016898   0.002559  -0.000065
    19  C    0.001119  -0.005477  -0.068101  -0.015918  -0.000067   0.000178
    20  H    0.004533   0.011957  -0.033886   0.008912   0.000564   0.000151
    21  C    0.000330  -0.007310   0.024521  -0.005024   0.000988  -0.000002
    22  H   -0.000012   0.000579   0.000028   0.000745  -0.000673   0.000009
    23  H    0.000003  -0.002500   0.003164   0.000537   0.000083   0.000035
    24  H    0.000058  -0.000690   0.003178  -0.000279   0.000131   0.000003
    25  H    0.000005   0.000975  -0.024022   0.177137  -0.060638  -0.011039
    26  H    0.000063  -0.000201   0.030798   0.004603   0.154558   0.001412
              13         14         15         16         17         18
     1  N    0.008742  -0.547507  -0.240583  -0.382268  -0.017352  -0.011806
     2  S   -0.000397  -0.010102  -0.003530  -0.106163  -0.006623   0.016485
     3  O    0.000157  -0.037849   0.035998   0.001604  -0.005805  -0.023833
     4  O   -0.000517   0.065232  -0.004275   0.001157   0.003412  -0.006916
     5  C   -0.000353  -0.024330  -0.015962   0.034589  -0.006322   0.006938
     6  H    0.000105  -0.028644  -0.003300   0.008916  -0.000517  -0.000620
     7  H   -0.000021   0.020903   0.001627  -0.000808  -0.000686   0.001682
     8  H   -0.000095  -0.067499  -0.013668   0.053081  -0.000234   0.003428
     9  C    0.020464  -0.520272  -0.118285  -0.081965  -0.051711  -0.025410
    10  C   -0.086999  -0.166740  -0.003123  -0.039933   0.025371  -0.016898
    11  C    0.217769   0.001415  -0.001616  -0.014421  -0.007019   0.002559
    12  H    0.023266   0.009885   0.000547  -0.001090   0.000082  -0.000065
    13  H    0.217106   0.004881   0.001214  -0.000075  -0.000730   0.000335
    14  C    0.004881   7.829437   0.053062  -0.047382  -0.742749  -0.079265
    15  C    0.001214   0.053062   7.379132  -0.467474   0.554300  -0.066408
    16  C   -0.000075  -0.047382  -0.467474   7.652235   0.135735   0.049958
    17  C   -0.000730  -0.742749   0.554300   0.135735   7.565215  -0.101048
    18  H    0.000335  -0.079265  -0.066408   0.049958  -0.101048   0.608454
    19  C    0.000119  -0.544768   0.113206   0.759187   0.106342   0.008516
    20  H    0.000128  -0.165536   0.012902  -0.048718   0.033870   0.001758
    21  C    0.000098   0.213881  -0.202085  -0.367447  -0.412296  -0.034209
    22  H   -0.000031  -0.006651  -0.160192   0.035590   0.153401   0.021480
    23  H    0.000036   0.009495   0.027459  -0.159138  -0.018814   0.002234
    24  H    0.000019   0.079509  -0.031560  -0.043077  -0.171818  -0.007129
    25  H   -0.014148  -0.028030  -0.000665   0.003475   0.002072  -0.000766
    26  H    0.004152   0.000216   0.000893   0.000480  -0.001447  -0.001088
              19         20         21         22         23         24
     1  N   -0.088664   0.029049   0.047810  -0.001428  -0.004204  -0.009461
     2  S    0.004745  -0.000167  -0.005048  -0.000594   0.000284   0.001342
     3  O    0.003531   0.000412  -0.001627   0.000361  -0.000153   0.000121
     4  O    0.002145   0.000378  -0.000275   0.000091   0.000100  -0.000023
     5  C   -0.006086   0.014094   0.004286  -0.000081   0.000736   0.000827
     6  H   -0.002515  -0.000025   0.000612  -0.000089  -0.000177   0.000182
     7  H    0.001119   0.004533   0.000330  -0.000012   0.000003   0.000058
     8  H   -0.005477   0.011957  -0.007310   0.000579  -0.002500  -0.000690
     9  C   -0.068101  -0.033886   0.024521   0.000028   0.003164   0.003178
    10  C   -0.015918   0.008912  -0.005024   0.000745   0.000537  -0.000279
    11  C   -0.000067   0.000564   0.000988  -0.000673   0.000083   0.000131
    12  H    0.000178   0.000151  -0.000002   0.000009   0.000035   0.000003
    13  H    0.000119   0.000128   0.000098  -0.000031   0.000036   0.000019
    14  C   -0.544768  -0.165536   0.213881  -0.006651   0.009495   0.079509
    15  C    0.113206   0.012902  -0.202085  -0.160192   0.027459  -0.031560
    16  C    0.759187  -0.048718  -0.367447   0.035590  -0.159138  -0.043077
    17  C    0.106342   0.033870  -0.412296   0.153401  -0.018814  -0.171818
    18  H    0.008516   0.001758  -0.034209   0.021480   0.002234  -0.007129
    19  C    6.780897   0.006744  -0.069269   0.002674   0.164517  -0.239255
    20  H    0.006744   0.509552  -0.058475   0.002888   0.005998  -0.012100
    21  C   -0.069269  -0.058475   7.381550  -0.081228  -0.051494   0.130109
    22  H    0.002674   0.002888  -0.081228   0.350561  -0.003367  -0.013475
    23  H    0.164517   0.005998  -0.051494  -0.003367   0.359220   0.001140
    24  H   -0.239255  -0.012100   0.130109  -0.013475   0.001140   0.545931
    25  H   -0.001270   0.000421  -0.000330   0.000071  -0.000007  -0.000044
    26  H    0.000371  -0.000251   0.000333  -0.000053  -0.000025   0.000053
              25         26
     1  N   -0.026601   0.005836
     2  S    0.000562  -0.002942
     3  O   -0.000760   0.000747
     4  O    0.003583   0.001982
     5  C    0.003489  -0.000382
     6  H   -0.000508  -0.000107
     7  H    0.000005   0.000063
     8  H    0.000975  -0.000201
     9  C   -0.024022   0.030798
    10  C    0.177137   0.004603
    11  C   -0.060638   0.154558
    12  H   -0.011039   0.001412
    13  H   -0.014148   0.004152
    14  C   -0.028030   0.000216
    15  C   -0.000665   0.000893
    16  C    0.003475   0.000480
    17  C    0.002072  -0.001447
    18  H   -0.000766  -0.001088
    19  C   -0.001270   0.000371
    20  H    0.000421  -0.000251
    21  C   -0.000330   0.000333
    22  H    0.000071  -0.000053
    23  H   -0.000007  -0.000025
    24  H   -0.000044   0.000053
    25  H    0.284066   0.006815
    26  H    0.006815   0.245456
 Mulliken charges:
               1
     1  N    0.194962
     2  S    2.086218
     3  O   -0.926764
     4  O   -0.960332
     5  C   -1.900833
     6  H    0.680466
     7  H    0.411426
     8  H    0.795356
     9  C    1.095076
    10  C   -0.825105
    11  C   -2.016766
    12  H    0.620800
    13  H    0.604776
    14  C    0.729408
    15  C   -0.847616
    16  C   -0.976050
    17  C   -1.034633
    18  H    0.651635
    19  C   -0.912902
    20  H    0.674846
    21  C   -0.508399
    22  H    0.699399
    23  H    0.664838
    24  H    0.766306
    25  H    0.686155
    26  H    0.547730
 Sum of Mulliken charges =   1.00000
 Mulliken charges with hydrogens summed into heavy atoms:
               1
     1  N    0.194962
     2  S    2.086218
     3  O   -0.926764
     4  O   -0.960332
     5  C   -0.013585
     9  C    1.095076
    10  C   -0.138950
    11  C   -0.243459
    14  C    0.729408
    15  C   -0.195980
    16  C   -0.301204
    17  C   -0.335234
    19  C   -0.248064
    21  C    0.257908
 Electronic spatial extent (au):  <R**2>=           3173.9967
 Charge=              1.0000 electrons
 Dipole moment (field-independent basis, Debye):
    X=             -0.7581    Y=              2.7947    Z=              5.2072  Tot=              5.9582
 Quadrupole moment (field-independent basis, Debye-Ang):
   XX=            -64.9522   YY=            -64.3936   ZZ=            -74.1589
   XY=            -10.4328   XZ=             -5.2974   YZ=             -8.2588
 Traceless Quadrupole moment (field-independent basis, Debye-Ang):
   XX=              2.8827   YY=              3.4413   ZZ=             -6.3240
   XY=            -10.4328   XZ=             -5.2974   YZ=             -8.2588
 Octapole moment (field-independent basis, Debye-Ang**2):
  XXX=             39.5476  YYY=             -8.6819  ZZZ=             11.7979  XYY=            -66.0181
  XXY=             40.4552  XXZ=              6.1032  XZZ=              1.0250  YZZ=              2.1764
  YYZ=             25.0555  XYZ=              0.7140
 Hexadecapole moment (field-independent basis, Debye-Ang**3):
 XXXX=          -2045.2053 YYYY=          -1026.6818 ZZZZ=           -460.2338 XXXY=            -73.5273
 XXXZ=            -12.7665 YYYX=            -79.8704 YYYZ=            -43.7472 ZZZX=            -20.2708
 ZZZY=            -11.0141 XXYY=           -528.7961 XXZZ=           -414.1218 YYZZ=           -279.9833
 XXYZ=             -0.4946 YYXZ=            -23.8723 ZZXY=             -1.0350
 N-N= 1.015546422946D+03 E-N=-4.340185748900D+03  KE= 9.873159667208D+02
 No NMR shielding tensors so no spin-rotation constants.
 Leave Link  601 at Sun Jun  9 11:47:05 2024, MaxMem= 10737418240 cpu:              40.8 elap:               1.9
 (Enter /public/software/apps/Gaussian/g16/l9999.exe)
 Unable to Open any file for archive entry.
 1\1\GINC-NODE14\SP\RM062X\Aug-CC-pVQZ\C10H12N1O2S1(1+)\LLG_HG\09-Jun-2
 024\0\\#p scrf=(smd,solvent=chlorobenzene) aug-cc-pvqz em=gd3 m062x\\T
 itle: Yne9-vinyl9-S9-PhCl-1\\1,1\N,0,-2.248355,0.185242,-0.26906\S,0,-
 1.534671,-0.408105,1.41788\O,0,-2.677847,-0.378294,2.306452\O,0,-0.371
 555,0.435516,1.599716\C,0,-1.091832,-2.078073,0.973038\H,0,-0.354194,-
 2.030377,0.173623\H,0,-0.665591,-2.520759,1.875639\H,0,-1.998669,-2.60
 1971,0.676253\C,0,-1.594749,1.047997,-0.884432\C,0,-0.878847,1.95871,-
 1.454275\C,0,-1.012823,3.428163,-1.178343\H,0,-0.054017,3.802316,-0.81
 046\H,0,-1.241275,3.947195,-2.112458\C,0,-3.520746,-0.371349,-0.689927
 \C,0,-4.686634,0.107772,-0.103059\C,0,-3.519919,-1.384114,-1.64314\C,0
 ,-5.898152,-0.447957,-0.502288\H,0,-4.643761,0.891954,0.64099\C,0,-4.7
 41123,-1.926709,-2.030426\H,0,-2.587267,-1.731301,-2.069724\C,0,-5.925
 021,-1.460245,-1.460734\H,0,-6.820019,-0.087128,-0.063883\H,0,-4.76563
 1,-2.711282,-2.776411\H,0,-6.872834,-1.886886,-1.765291\H,0,-0.143937,
 1.614232,-2.180026\H,0,-1.789573,3.635202,-0.444613\\Version=ES64L-G16
 RevC.01\State=1-A\HF=-991.4308548\RMSD=1.208e-09\Dipole=1.1998472,-0.2
 4125,-1.9992972\Quadrupole=2.9197376,7.8812515,-10.8009891,2.4895208,-
 2.2075688,-5.0278713\PG=C01 [X(C10H12N1O2S1)]\\@
 The archive entry for this job was punched.


 ... FOR AFTERWARDS A MAN FINDS PLEASURE IN HIS PAINS,
 WHEN HE HAS SUFFERED LONG AND WANDERED FAR.

                                    -- HOMER
 Job cpu time:       2 days 20 hours 57 minutes 36.1 seconds.
 Elapsed time:       0 days  2 hours  9 minutes 43.3 seconds.
 File lengths (MBytes):  RWF=   1528 Int=      0 D2E=      0 Chk=    162 Scr=      1
 Normal termination of Gaussian 16 at Sun Jun  9 11:50:31 2024.
