      -----------------------------------------------------------      
     |                   =====================                   |     
     |                           x T B                           |     
     |                   =====================                   |     
     |                         S. Grimme                         |     
     |          Mulliken Center for Theoretical Chemistry        |     
     |                    University of Bonn                     |     
      -----------------------------------------------------------      

   * xtb version 6.6.1 (8d0f1dd) compiled by 'conda@1efc2f54142f' on 2023-08-01

   xtb is free software: you can redistribute it and/or modify it under
   the terms of the GNU Lesser General Public License as published by
   the Free Software Foundation, either version 3 of the License, or
   (at your option) any later version.
   
   xtb is distributed in the hope that it will be useful,
   but WITHOUT ANY WARRANTY; without even the implied warranty of
   MERCHANTABILITY or FITNESS FOR A PARTICULAR PURPOSE.  See the
   GNU Lesser General Public License for more details.
   
   Cite this work as:
   * C. Bannwarth, E. Caldeweyher, S. Ehlert, A. Hansen, P. Pracht,
     J. Seibert, S. Spicher, S. Grimme, WIREs Comput. Mol. Sci., 2020, 11,
     e01493. DOI: 10.1002/wcms.1493
   
   for GFN2-xTB:
   * C. Bannwarth, S. Ehlert and S. Grimme., J. Chem. Theory Comput., 2019,
     15, 1652-1671. DOI: 10.1021/acs.jctc.8b01176
   for GFN1-xTB:
   * S. Grimme, C. Bannwarth, P. Shushkov, J. Chem. Theory Comput., 2017,
     13, 1989-2009. DOI: 10.1021/acs.jctc.7b00118
   for GFN0-xTB:
   * P. Pracht, E. Caldeweyher, S. Ehlert, S. Grimme, ChemRxiv, 2019, preprint.
     DOI: 10.26434/chemrxiv.8326202.v1
   for GFN-FF:
   * S. Spicher and S. Grimme, Angew. Chem. Int. Ed., 2020, 59, 15665-15673.
     DOI: 10.1002/anie.202004239
   
   for ALPB and GBSA implicit solvation:
   * S. Ehlert, M. Stahn, S. Spicher, S. Grimme, J. Chem. Theory Comput.,
     2021, 17, 4250-4261. DOI: 10.1021/acs.jctc.1c00471
   
   for DFT-D4:
   * E. Caldeweyher, C. Bannwarth and S. Grimme, J. Chem. Phys., 2017,
     147, 034112. DOI: 10.1063/1.4993215
   * E. Caldeweyher, S. Ehlert, A. Hansen, H. Neugebauer, S. Spicher,
     C. Bannwarth and S. Grimme, J. Chem. Phys., 2019, 150, 154122.
     DOI: 10.1063/1.5090222
   * E. Caldeweyher, J.-M. Mewes, S. Ehlert and S. Grimme, Phys. Chem. Chem. Phys.
     2020, 22, 8499-8512. DOI: 10.1039/D0CP00502A
   
   for sTDA-xTB:
   * S. Grimme and C. Bannwarth, J. Chem. Phys., 2016, 145, 054103.
     DOI: 10.1063/1.4959605
   
   in the mass-spec context:
   * V. Asgeirsson, C. Bauer and S. Grimme, Chem. Sci., 2017, 8, 4879.
     DOI: 10.1039/c7sc00601b
   * J. Koopman and S. Grimme, ACS Omega 2019, 4, 12, 15120-15133.
     DOI: 10.1021/acsomega.9b02011
   
   for metadynamics refer to:
   * S. Grimme, J. Chem. Theory Comput., 2019, 155, 2847-2862
     DOI: 10.1021/acs.jctc.9b00143
   
   for SPH calculations refer to:
   * S. Spicher and S. Grimme, J. Chem. Theory Comput., 2021, 17, 1701-1714
     DOI: 10.1021/acs.jctc.0c01306
   
   with help from (in alphabetical order)
   P. Atkinson, C. Bannwarth, F. Bohle, G. Brandenburg, E. Caldeweyher
   M. Checinski, S. Dohm, S. Ehlert, S. Ehrlich, I. Gerasimov, C. Hölzer
   A. Katbashev, J. Koopman, C. Lavigne, S. Lehtola, F. März, M. Müller,
   F. Musil, H. Neugebauer, J. Pisarek, C. Plett, P. Pracht, F. Pultar,
   J. Seibert, P. Shushkov, S. Spicher, M. Stahn, M. Steiner, T. Strunk,
   J. Stückrath, T. Rose, and J. Unsleber
   
 * started run on 2024/03/18 at 20:06:41.054     

           -------------------------------------------------
          |                Calculation Setup                |
           -------------------------------------------------

          program call               : xtb test.xyz --ohess --opt --charge 0 --gbsa water
          coordinate file            : test.xyz
          omp threads                :                    28

   ID    Z sym.   atoms
    1    6 C      1-3, 10-12, 19, 21, 25, 30-33, 35, 37, 38, 40, 42, 43,
                  47-49, 57, 58
    2    1 H      4-7, 13-16, 22-24, 26-28, 34, 36, 39, 41, 44-46, 50-55,
                  59-64
    3    7 N      8, 17, 56
    4    8 O      9, 18
    5   29 Cu     20
    6   17 Cl     29

           -------------------------------------------------
          |                 G F N 2 - x T B                 |
           -------------------------------------------------

        Reference                      10.1021/acs.jctc.8b01176
      * Hamiltonian:
        H0-scaling (s, p, d)           1.850000    2.230000    2.230000
        zeta-weighting                 0.500000
      * Dispersion:
        s8                             2.700000
        a1                             0.520000
        a2                             5.000000
        s9                             5.000000
      * Repulsion:
        kExp                           1.500000    1.000000
        rExp                           1.000000
      * Coulomb:
        alpha                          2.000000
        third order                    shell-resolved
        anisotropic                    true
        a3                             3.000000
        a5                             4.000000
        cn-shift                       1.200000
        cn-exp                         4.000000
        max-rad                        5.000000

      * Solvation model:               GBSA
        Solvent                        water
        Parameter file                 internal GFN2-xTB/GBSA
        Dielectric constant                8.0200E+01
        Reference state                gsolv [1 M gas/solution]
        Free energy shift                  1.8574E-03 Eh       1.1656E+00 kcal/mol
        Temperature                        2.9815E+02 K
        Density                            1.0000E+00 kg/L
        Solvent mass                       1.8000E+01 g/mol
        Interaction kernel             Still
        Born radius scaling (c1)           1.5524E+00
        Born radii integrator          GBOBC
        Born offset                        2.4628E-02 a0       4.6540E-02 AA
        H-bond correction              true
        Ion screening                  false
        Surface tension                    1.0000E-05 Eh       1.5569E+01 dyn/cm
        Grid points                               230 per atom
q/qsh data taken from xtbrestart
CAMM data taken from xtbrestart

          ...................................................
          :                      SETUP                      :
          :.................................................:
          :  # basis functions                 169          :
          :  # atomic orbitals                 167          :
          :  # shells                           97          :
          :  # electrons                       174          :
          :  max. iterations                   250          :
          :  Hamiltonian                  GFN2-xTB          :
          :  restarted?                       true          :
          :  GBSA solvation                   true          :
          :  PC potential                    false          :
          :  electronic temp.          300.0000000     K    :
          :  accuracy                    1.0000000          :
          :  -> integral cutoff          0.2500000E+02      :
          :  -> integral neglect         0.1000000E-07      :
          :  -> SCF convergence          0.1000000E-05 Eh   :
          :  -> wf. convergence          0.1000000E-03 e    :
          :  Broyden damping             0.4000000          :
          ...................................................

 iter      E             dE          RMSdq      gap      omega  full diag
   1    -94.4972623 -0.944973E+02  0.100E-04    0.90       0.0  T
   2    -94.4972623 -0.456879E-10  0.857E-05    0.90     145.8  T
   3    -94.4972623 -0.112578E-09  0.685E-05    0.90     182.5  T

   *** convergence criteria satisfied after 3 iterations ***

         #    Occupation            Energy/Eh            Energy/eV
      -------------------------------------------------------------
         1        2.0000           -1.0056948             -27.3663
       ...           ...                  ...                  ...
        81        2.0000           -0.3560205              -9.6878
        82        2.0000           -0.3511405              -9.5550
        83        2.0000           -0.3494083              -9.5079
        84        2.0000           -0.3407549              -9.2724
        85        2.0000           -0.3300144              -8.9801
        86        2.0000           -0.3179270              -8.6512
        87        2.0000           -0.3126023              -8.5063 (HOMO)
        88                         -0.2793730              -7.6021 (LUMO)
        89                         -0.2568383              -6.9889
        90                         -0.2542915              -6.9196
        91                         -0.2351918              -6.3999
        92                         -0.2056788              -5.5968
       ...                                ...                  ...
       167                          0.7712212              20.9860
      -------------------------------------------------------------
                  HL-Gap            0.0332294 Eh            0.9042 eV
             Fermi-level           -0.2959859 Eh           -8.0542 eV

 SCC (total)                   0 d,  0 h,  0 min,  0.022 sec
 SCC setup                      ...        0 min,  0.001 sec (  5.657%)
 Dispersion                     ...        0 min,  0.001 sec (  4.842%)
 classical contributions        ...        0 min,  0.002 sec (  7.655%)
 integral evaluation            ...        0 min,  0.002 sec (  8.281%)
 iterations                     ...        0 min,  0.011 sec ( 48.976%)
 molecular gradient             ...        0 min,  0.005 sec ( 22.858%)
 printout                       ...        0 min,  0.000 sec (  1.647%)

         :::::::::::::::::::::::::::::::::::::::::::::::::::::
         ::                     SUMMARY                     ::
         :::::::::::::::::::::::::::::::::::::::::::::::::::::
         :: total energy             -93.340097105026 Eh    ::
         :: total w/o Gsasa/hb       -93.332170119207 Eh    ::
         :: gradient norm              0.260221960441 Eh/a0 ::
         :: HOMO-LUMO gap              0.904216828309 eV    ::
         ::.................................................::
         :: SCC energy               -94.497262257465 Eh    ::
         :: -> isotropic ES            0.118905664618 Eh    ::
         :: -> anisotropic ES          0.008661498634 Eh    ::
         :: -> anisotropic XC          0.041085264409 Eh    ::
         :: -> dispersion             -0.086018998022 Eh    ::
         :: -> Gsolv                  -0.029330742018 Eh    ::
         ::    -> Gelec               -0.021403756199 Eh    ::
         ::    -> Gsasa               -0.007042264740 Eh    ::
         ::    -> Ghb                 -0.002742164206 Eh    ::
         ::    -> Gshift               0.001857443127 Eh    ::
         :: repulsion energy           1.153887785760 Eh    ::
         :: add. restraining           0.000000000000 Eh    ::
         :: total charge               0.000000000187 e     ::
         :::::::::::::::::::::::::::::::::::::::::::::::::::::

      ----------------------------------------------------------- 
     |                   =====================                   |
     |                        A N C O P T                        |
     |                   =====================                   |
     |               Approximate Normal Coordinate               |
     |                Rational Function Optimizer                |
      ----------------------------------------------------------- 

          ...................................................
          :                      SETUP                      :
          :.................................................:
          :   optimization level            normal          :
          :   max. optcycles                   200          :
          :   ANC micro-cycles                  20          :
          :   degrees of freedom               186          :
          :.................................................:
          :   RF solver                   davidson          :
          :   write xtbopt.log                true          :
          :   linear?                        false          :
          :   energy convergence         0.5000000E-05 Eh   :
          :   grad. convergence          0.1000000E-02 Eh/α :
          :   maxmium RF displ.          1.0000000          :
          :   Hlow (freq-cutoff)         0.1000000E-01      :
          :   Hmax (freq-cutoff)         5.0000000          :
          :   S6 in model hess.         20.0000000          :
          ...................................................

generating ANC from model Hessian ...
Using Lindh-Hessian (1995)
 Shifting diagonal of input Hessian by    1.2088786825757064E-002
 Lowest  eigenvalues of input Hessian
    0.010000    0.000000    0.000000    0.000000    0.000000    0.000000
    0.000000    0.012169    0.012377    0.012658    0.012836    0.013185
    0.013600    0.014133    0.014265    0.014708    0.014852    0.015846
 Highest eigenvalues
    1.788263    1.884231    1.937848    2.016161    2.042290    2.065385


........................................................................
.............................. CYCLE    1 ..............................
........................................................................

 iter      E             dE          RMSdq      gap      omega  full diag
   1    -94.4972623 -0.944973E+02  0.718E-05    0.90       0.0  T
   2    -94.4972623  0.567113E-09  0.993E-05    0.90     125.8  T
   3    -94.4972623 -0.815618E-09  0.402E-05    0.90     310.9  T
     SCC iter.                  ...        0 min,  0.011 sec
     gradient                   ...        0 min,  0.005 sec
 * total energy  :   -93.3400971 Eh     change       -0.1088267E-09 Eh
   gradient norm :     0.2602224 Eh/α   predicted     0.0000000E+00 (-100.00%)
   displ. norm   :     0.6904627 α      lambda       -0.1457317E+00
   maximum displ.:     0.2053944 α      in ANC's #66, #68, #95, ...

........................................................................
.............................. CYCLE    2 ..............................
........................................................................

 iter      E             dE          RMSdq      gap      omega  full diag
   1    -94.6452809 -0.946453E+02  0.400E-01    1.12       0.0  T
   2    -94.6462430 -0.962026E-03  0.243E-01    1.09       1.0  T
   3    -94.6460511  0.191886E-03  0.152E-01    1.09       1.0  T
   4    -94.6467221 -0.670981E-03  0.511E-02    1.10       1.0  T
   5    -94.6467414 -0.192978E-04  0.371E-02    1.10       1.0  T
   6    -94.6467606 -0.192802E-04  0.240E-02    1.10       1.0  T
   7    -94.6467595  0.109841E-05  0.217E-02    1.10       1.0  T
   8    -94.6467761 -0.165744E-04  0.124E-02    1.10       1.0  T
   9    -94.6467790 -0.290297E-05  0.762E-03    1.10       1.6  T
  10    -94.6467802 -0.115403E-05  0.513E-03    1.10       2.4  T
  11    -94.6467806 -0.406294E-06  0.346E-03    1.10       3.6  T
  12    -94.6467807 -0.144882E-06  0.212E-03    1.10       5.9  T
  13    -94.6467808 -0.839948E-07  0.102E-03    1.10      12.2  T
  14    -94.6467808 -0.205174E-07  0.547E-04    1.10      22.8  T
  15    -94.6467808 -0.910617E-09  0.301E-04    1.10      41.5  T
     SCC iter.                  ...        0 min,  0.073 sec
     gradient                   ...        0 min,  0.006 sec
 * total energy  :   -93.4499299 Eh     change       -0.1098328E+00 Eh
   gradient norm :     0.1398667 Eh/α   predicted    -0.1076177E+00 (  -2.02%)
   displ. norm   :     0.6348701 α      lambda       -0.7223465E-01
   maximum displ.:     0.1807471 α      in ANC's #16, #36, #1, ...

........................................................................
.............................. CYCLE    3 ..............................
........................................................................

 iter      E             dE          RMSdq      gap      omega  full diag
   1    -94.7302778 -0.947303E+02  0.342E-01    1.31       0.0  T
   2    -94.7311338 -0.856084E-03  0.207E-01    1.23       1.0  T
   3    -94.7311843 -0.504653E-04  0.134E-01    1.28       1.0  T
   4    -94.7315596 -0.375290E-03  0.448E-02    1.27       1.0  T
   5    -94.7315975 -0.378521E-04  0.288E-02    1.26       1.0  T
   6    -94.7316022 -0.478476E-05  0.197E-02    1.27       1.0  T
   7    -94.7316052 -0.294569E-05  0.128E-02    1.27       1.0  T
   8    -94.7316094 -0.421477E-05  0.798E-03    1.27       1.6  T
   9    -94.7316111 -0.165766E-05  0.413E-03    1.27       3.0  T
  10    -94.7316114 -0.388617E-06  0.261E-03    1.27       4.8  T
  11    -94.7316115 -0.830046E-07  0.179E-03    1.27       7.0  T
  12    -94.7316116 -0.647295E-07  0.117E-03    1.27      10.7  T
  13    -94.7316116 -0.225237E-07  0.707E-04    1.27      17.7  T
  14    -94.7316116 -0.101589E-07  0.380E-04    1.27      32.9  T
     SCC iter.                  ...        0 min,  0.070 sec
     gradient                   ...        0 min,  0.005 sec
 * total energy  :   -93.5049402 Eh     change       -0.5501030E-01 Eh
   gradient norm :     0.0716108 Eh/α   predicted    -0.5067488E-01 (  -7.88%)
   displ. norm   :     0.7003150 α      lambda       -0.4126798E-01
   maximum displ.:     0.2633061 α      in ANC's #16, #36, #37, ...

........................................................................
.............................. CYCLE    4 ..............................
........................................................................

 iter      E             dE          RMSdq      gap      omega  full diag
   1    -94.7604772 -0.947605E+02  0.273E-01    1.46       0.0  T
   2    -94.7610008 -0.523585E-03  0.161E-01    1.36       1.0  T
   3    -94.7609602  0.405784E-04  0.939E-02    1.42       1.0  T
   4    -94.7611462 -0.186013E-03  0.380E-02    1.40       1.0  T
   5    -94.7611638 -0.176216E-04  0.259E-02    1.40       1.0  T
   6    -94.7611648 -0.984465E-06  0.154E-02    1.40       1.0  T
   7    -94.7611684 -0.356837E-05  0.827E-03    1.40       1.5  T
   8    -94.7611688 -0.447972E-06  0.507E-03    1.40       2.5  T
   9    -94.7611691 -0.298757E-06  0.306E-03    1.40       4.1  T
  10    -94.7611693 -0.144808E-06  0.207E-03    1.40       6.0  T
  11    -94.7611693 -0.669881E-07  0.110E-03    1.40      11.4  T
  12    -94.7611693 -0.152234E-07  0.572E-04    1.40      21.9  T
  13    -94.7611693 -0.140504E-08  0.335E-04    1.40      37.3  T
     SCC iter.                  ...        0 min,  0.085 sec
     gradient                   ...        0 min,  0.017 sec
 * total energy  :   -93.5393079 Eh     change       -0.3436773E-01 Eh
   gradient norm :     0.0556162 Eh/α   predicted    -0.3075402E-01 ( -10.51%)
   displ. norm   :     0.7883278 α      lambda       -0.3347878E-01
   maximum displ.:     0.3259609 α      in ANC's #16, #36, #37, ...

........................................................................
.............................. CYCLE    5 ..............................
........................................................................

 iter      E             dE          RMSdq      gap      omega  full diag
   1    -94.7785292 -0.947785E+02  0.281E-01    1.60       0.0  T
   2    -94.7789552 -0.426040E-03  0.176E-01    1.49       1.0  T
   3    -94.7788131  0.142066E-03  0.102E-01    1.54       1.0  T
   4    -94.7790693 -0.256182E-03  0.556E-02    1.52       1.0  T
   5    -94.7791168 -0.474490E-04  0.388E-02    1.52       1.0  T
   6    -94.7791174 -0.610663E-06  0.271E-02    1.53       1.0  T
   7    -94.7791291 -0.117696E-04  0.116E-02    1.53       1.1  T
   8    -94.7791315 -0.231369E-05  0.779E-03    1.53       1.6  T
   9    -94.7791320 -0.523863E-06  0.442E-03    1.53       2.8  T
  10    -94.7791322 -0.242357E-06  0.227E-03    1.53       5.5  T
  11    -94.7791323 -0.349521E-07  0.138E-03    1.53       9.1  T
  12    -94.7791323 -0.165262E-07  0.588E-04    1.53      21.3  T
  13    -94.7791323 -0.350830E-08  0.398E-04    1.53      31.4  T
     SCC iter.                  ...        0 min,  0.065 sec
     gradient                   ...        0 min,  0.012 sec
 * total energy  :   -93.5681524 Eh     change       -0.2884453E-01 Eh
   gradient norm :     0.0485004 Eh/α   predicted    -0.2714229E-01 (  -5.90%)
   displ. norm   :     0.8132587 α      lambda       -0.2622801E-01
   maximum displ.:     0.3768836 α      in ANC's #16, #31, #15, ...

........................................................................
.............................. CYCLE    6 ..............................
........................................................................

 iter      E             dE          RMSdq      gap      omega  full diag
   1    -94.7910283 -0.947910E+02  0.237E-01    1.64       0.0  T
   2    -94.7912592 -0.230871E-03  0.157E-01    1.57       1.0  T
   3    -94.7910938  0.165381E-03  0.880E-02    1.60       1.0  T
   4    -94.7913588 -0.265051E-03  0.492E-02    1.59       1.0  T
   5    -94.7913892 -0.304042E-04  0.351E-02    1.58       1.0  T
   6    -94.7913923 -0.300988E-05  0.228E-02    1.59       1.0  T
   7    -94.7914005 -0.821710E-05  0.986E-03    1.59       1.3  T
   8    -94.7914025 -0.199261E-05  0.639E-03    1.59       2.0  T
   9    -94.7914028 -0.307426E-06  0.365E-03    1.59       3.4  T
  10    -94.7914029 -0.127872E-06  0.188E-03    1.59       6.6  T
  11    -94.7914029 -0.318030E-07  0.116E-03    1.59      10.8  T
  12    -94.7914029 -0.111287E-07  0.496E-04    1.59      25.2  T
  13    -94.7914029 -0.184626E-08  0.349E-04    1.59      35.9  T
     SCC iter.                  ...        0 min,  0.060 sec
     gradient                   ...        0 min,  0.006 sec
 * total energy  :   -93.5887931 Eh     change       -0.2064067E-01 Eh
   gradient norm :     0.0444496 Eh/α   predicted    -0.2178752E-01 (   5.56%)
   displ. norm   :     0.7143625 α      lambda       -0.1675894E-01
   maximum displ.:     0.3793646 α      in ANC's #16, #31, #15, ...

........................................................................
.............................. CYCLE    7 ..............................
........................................................................

 iter      E             dE          RMSdq      gap      omega  full diag
   1    -94.8070543 -0.948071E+02  0.169E-01    1.63       0.0  T
   2    -94.8071090 -0.547696E-04  0.998E-02    1.60       1.0  T
   3    -94.8069916  0.117480E-03  0.527E-02    1.62       1.0  T
   4    -94.8071297 -0.138109E-03  0.153E-02    1.60       1.0  T
   5    -94.8071342 -0.457955E-05  0.111E-02    1.60       1.1  T
   6    -94.8071349 -0.649419E-06  0.748E-03    1.61       1.7  T
   7    -94.8071353 -0.442451E-06  0.306E-03    1.61       4.1  T
   8    -94.8071354 -0.706352E-07  0.194E-03    1.61       6.4  T
   9    -94.8071354 -0.311964E-07  0.108E-03    1.61      11.6  T
  10    -94.8071355 -0.194577E-07  0.613E-04    1.61      20.4  T
  11    -94.8071355 -0.286252E-08  0.411E-04    1.61      30.4  T
     SCC iter.                  ...        0 min,  0.038 sec
     gradient                   ...        0 min,  0.006 sec
 * total energy  :   -93.6028119 Eh     change       -0.1401881E-01 Eh
   gradient norm :     0.0357983 Eh/α   predicted    -0.1265563E-01 (  -9.72%)
   displ. norm   :     0.7455942 α      lambda       -0.1410524E-01
   maximum displ.:     0.3746595 α      in ANC's #16, #31, #15, ...

........................................................................
.............................. CYCLE    8 ..............................
........................................................................

 iter      E             dE          RMSdq      gap      omega  full diag
   1    -94.8244910 -0.948245E+02  0.176E-01    1.66       0.0  T
   2    -94.8245591 -0.681009E-04  0.105E-01    1.64       1.0  T
   3    -94.8245198  0.392741E-04  0.361E-02    1.65       1.0  T
   4    -94.8245695 -0.496592E-04  0.139E-02    1.64       1.0  T
   5    -94.8245731 -0.359822E-05  0.104E-02    1.65       1.2  T
   6    -94.8245740 -0.881534E-06  0.711E-03    1.64       1.8  T
   7    -94.8245744 -0.482071E-06  0.281E-03    1.65       4.4  T
   8    -94.8245745 -0.861008E-07  0.166E-03    1.64       7.5  T
   9    -94.8245746 -0.191527E-07  0.102E-03    1.64      12.2  T
  10    -94.8245746 -0.159106E-07  0.578E-04    1.64      21.6  T
  11    -94.8245746 -0.348776E-08  0.361E-04    1.64      34.7  T
     SCC iter.                  ...        0 min,  0.137 sec
     gradient                   ...        0 min,  0.005 sec
 * total energy  :   -93.6145117 Eh     change       -0.1169975E-01 Eh
   gradient norm :     0.0250794 Eh/α   predicted    -0.1097327E-01 (  -6.21%)
   displ. norm   :     0.7615868 α      lambda       -0.1024436E-01
   maximum displ.:     0.3587288 α      in ANC's #16, #31, #15, ...

........................................................................
.............................. CYCLE    9 ..............................
........................................................................

 iter      E             dE          RMSdq      gap      omega  full diag
   1    -94.8366384 -0.948366E+02  0.165E-01    1.70       0.0  T
   2    -94.8366959 -0.574565E-04  0.994E-02    1.67       1.0  T
   3    -94.8366677  0.281569E-04  0.344E-02    1.68       1.0  T
   4    -94.8367072 -0.394637E-04  0.143E-02    1.67       1.0  T
   5    -94.8367091 -0.186133E-05  0.107E-02    1.67       1.2  T
   6    -94.8367090  0.398896E-07  0.674E-03    1.67       1.9  T
   7    -94.8367100 -0.987977E-06  0.226E-03    1.67       5.5  T
   8    -94.8367101 -0.771616E-07  0.125E-03    1.67      10.0  T
   9    -94.8367101 -0.976478E-08  0.752E-04    1.67      16.6  T
  10    -94.8367101 -0.512466E-08  0.434E-04    1.67      28.8  T
     SCC iter.                  ...        0 min,  0.033 sec
     gradient                   ...        0 min,  0.005 sec
 * total energy  :   -93.6230308 Eh     change       -0.8519140E-02 Eh
   gradient norm :     0.0199726 Eh/α   predicted    -0.8093124E-02 (  -5.00%)
   displ. norm   :     0.7506367 α      lambda       -0.7485356E-02
   maximum displ.:     0.3155102 α      in ANC's #16, #15, #31, ...

........................................................................
.............................. CYCLE   10 ..............................
........................................................................

 iter      E             dE          RMSdq      gap      omega  full diag
   1    -94.8450425 -0.948450E+02  0.151E-01    1.73       0.0  T
   2    -94.8450790 -0.365159E-04  0.906E-02    1.70       1.0  T
   3    -94.8450608  0.181926E-04  0.293E-02    1.71       1.0  T
   4    -94.8450870 -0.261516E-04  0.127E-02    1.70       1.0  T
   5    -94.8450882 -0.126416E-05  0.912E-03    1.71       1.4  T
   6    -94.8450883 -0.236855E-07  0.483E-03    1.71       2.6  T
   7    -94.8450888 -0.497252E-06  0.188E-03    1.71       6.7  T
   8    -94.8450888 -0.693135E-07  0.867E-04    1.71      14.4  T
   9    -94.8450888 -0.295775E-08  0.513E-04    1.71      24.4  T
     SCC iter.                  ...        0 min,  0.033 sec
     gradient                   ...        0 min,  0.005 sec
 * total energy  :   -93.6292377 Eh     change       -0.6206858E-02 Eh
   gradient norm :     0.0176117 Eh/α   predicted    -0.5851516E-02 (  -5.72%)
   displ. norm   :     0.7658945 α      lambda       -0.5946238E-02
   maximum displ.:     0.2539480 α      in ANC's #15, #10, #16, ...

........................................................................
.............................. CYCLE   11 ..............................
........................................................................

 iter      E             dE          RMSdq      gap      omega  full diag
   1    -94.8478318 -0.948478E+02  0.144E-01    1.77       0.0  T
   2    -94.8478737 -0.418413E-04  0.871E-02    1.74       1.0  T
   3    -94.8478334  0.402815E-04  0.350E-02    1.74       1.0  T
   4    -94.8478856 -0.522236E-04  0.149E-02    1.74       1.0  T
   5    -94.8478888 -0.318283E-05  0.104E-02    1.74       1.2  T
   6    -94.8478894 -0.576878E-06  0.621E-03    1.74       2.0  T
   7    -94.8478898 -0.430759E-06  0.198E-03    1.74       6.3  T
   8    -94.8478899 -0.564169E-07  0.113E-03    1.74      11.1  T
   9    -94.8478899 -0.199178E-07  0.626E-04    1.74      20.0  T
  10    -94.8478899 -0.387372E-08  0.316E-04    1.74      39.6  T
     SCC iter.                  ...        0 min,  0.033 sec
     gradient                   ...        0 min,  0.006 sec
 * total energy  :   -93.6340688 Eh     change       -0.4831135E-02 Eh
   gradient norm :     0.0193536 Eh/α   predicted    -0.4717134E-02 (  -2.36%)
   displ. norm   :     0.7636712 α      lambda       -0.5414468E-02
   maximum displ.:     0.2777727 α      in ANC's #10, #15, #16, ...

........................................................................
.............................. CYCLE   12 ..............................
........................................................................

 iter      E             dE          RMSdq      gap      omega  full diag
   1    -94.8565632 -0.948566E+02  0.136E-01    1.78       0.0  T
   2    -94.8565941 -0.308468E-04  0.811E-02    1.76       1.0  T
   3    -94.8565591  0.350276E-04  0.323E-02    1.76       1.0  T
   4    -94.8566020 -0.429304E-04  0.142E-02    1.76       1.0  T
   5    -94.8566054 -0.340007E-05  0.960E-03    1.76       1.3  T
   6    -94.8566055 -0.144635E-06  0.528E-03    1.76       2.4  T
   7    -94.8566060 -0.441544E-06  0.193E-03    1.76       6.5  T
   8    -94.8566060 -0.152492E-07  0.108E-03    1.76      11.6  T
   9    -94.8566060 -0.248326E-07  0.567E-04    1.76      22.1  T
  10    -94.8566060 -0.423863E-08  0.290E-04    1.76      43.1  T
     SCC iter.                  ...        0 min,  0.032 sec
     gradient                   ...        0 min,  0.006 sec
 * total energy  :   -93.6382552 Eh     change       -0.4186447E-02 Eh
   gradient norm :     0.0186654 Eh/α   predicted    -0.4286078E-02 (   2.38%)
   displ. norm   :     0.7619723 α      lambda       -0.4497182E-02
   maximum displ.:     0.3244894 α      in ANC's #10, #4, #15, ...

........................................................................
.............................. CYCLE   13 ..............................
........................................................................

 iter      E             dE          RMSdq      gap      omega  full diag
   1    -94.8576493 -0.948576E+02  0.131E-01    1.82       0.0  T
   2    -94.8576816 -0.322554E-04  0.783E-02    1.80       1.0  T
   3    -94.8576218  0.598242E-04  0.411E-02    1.79       1.0  T
   4    -94.8577001 -0.783670E-04  0.126E-02    1.79       1.0  T
   5    -94.8577027 -0.256445E-05  0.874E-03    1.79       1.4  T
   6    -94.8577031 -0.364017E-06  0.480E-03    1.79       2.6  T
   7    -94.8577032 -0.182846E-06  0.190E-03    1.79       6.6  T
   8    -94.8577033 -0.381929E-07  0.115E-03    1.79      10.9  T
   9    -94.8577033 -0.221076E-07  0.643E-04    1.79      19.4  T
  10    -94.8577033 -0.409950E-08  0.341E-04    1.79      36.7  T
     SCC iter.                  ...        0 min,  0.031 sec
     gradient                   ...        0 min,  0.005 sec
 * total energy  :   -93.6419846 Eh     change       -0.3729385E-02 Eh
   gradient norm :     0.0189294 Eh/α   predicted    -0.3554131E-02 (  -4.70%)
   displ. norm   :     0.7656909 α      lambda       -0.4256758E-02
   maximum displ.:     0.3419257 α      in ANC's #10, #4, #3, ...

........................................................................
.............................. CYCLE   14 ..............................
........................................................................

 iter      E             dE          RMSdq      gap      omega  full diag
   1    -94.8646876 -0.948647E+02  0.132E-01    1.82       0.0  T
   2    -94.8647138 -0.262041E-04  0.817E-02    1.80       1.0  T
   3    -94.8646459  0.678552E-04  0.380E-02    1.80       1.0  T
   4    -94.8647318 -0.859257E-04  0.136E-02    1.80       1.0  T
   5    -94.8647338 -0.198146E-05  0.966E-03    1.80       1.3  T
   6    -94.8647344 -0.586655E-06  0.346E-03    1.80       3.6  T
   7    -94.8647345 -0.111585E-06  0.177E-03    1.80       7.1  T
   8    -94.8647346 -0.536175E-07  0.115E-03    1.80      10.9  T
   9    -94.8647346 -0.141915E-07  0.640E-04    1.80      19.5  T
  10    -94.8647346 -0.476840E-08  0.386E-04    1.80      32.4  T
     SCC iter.                  ...        0 min,  0.034 sec
     gradient                   ...        0 min,  0.005 sec
 * total energy  :   -93.6456677 Eh     change       -0.3683127E-02 Eh
   gradient norm :     0.0190107 Eh/α   predicted    -0.3376214E-02 (  -8.33%)
   displ. norm   :     0.8009284 α      lambda       -0.4166424E-02
   maximum displ.:     0.3582078 α      in ANC's #10, #4, #3, ...

........................................................................
.............................. CYCLE   15 ..............................
........................................................................

 iter      E             dE          RMSdq      gap      omega  full diag
   1    -94.8686649 -0.948687E+02  0.146E-01    1.81       0.0  T
   2    -94.8686860 -0.210601E-04  0.893E-02    1.81       1.0  T
   3    -94.8686092  0.767743E-04  0.393E-02    1.80       1.0  T
   4    -94.8687027 -0.935584E-04  0.141E-02    1.81       1.0  T
   5    -94.8687041 -0.131886E-05  0.102E-02    1.81       1.2  T
   6    -94.8687048 -0.759651E-06  0.353E-03    1.81       3.5  T
   7    -94.8687050 -0.165961E-06  0.201E-03    1.81       6.2  T
   8    -94.8687050 -0.582396E-07  0.130E-03    1.81       9.6  T
   9    -94.8687051 -0.187125E-07  0.728E-04    1.81      17.2  T
  10    -94.8687051 -0.483995E-08  0.467E-04    1.81      26.8  T
     SCC iter.                  ...        0 min,  0.034 sec
     gradient                   ...        0 min,  0.005 sec
 * total energy  :   -93.6493353 Eh     change       -0.3667575E-02 Eh
   gradient norm :     0.0143965 Eh/α   predicted    -0.3419564E-02 (  -6.76%)
   displ. norm   :     0.8274285 α      lambda       -0.3976519E-02
   maximum displ.:     0.3689974 α      in ANC's #10, #4, #3, ...

........................................................................
.............................. CYCLE   16 ..............................
........................................................................

 iter      E             dE          RMSdq      gap      omega  full diag
   1    -94.8731333 -0.948731E+02  0.156E-01    1.80       0.0  T
   2    -94.8731464 -0.131350E-04  0.956E-02    1.80       1.0  T
   3    -94.8731052  0.412099E-04  0.296E-02    1.80       1.0  T
   4    -94.8731553 -0.501447E-04  0.160E-02    1.81       1.0  T
   5    -94.8731563 -0.968204E-06  0.976E-03    1.80       1.3  T
   6    -94.8731575 -0.115116E-05  0.340E-03    1.80       3.7  T
   7    -94.8731576 -0.144065E-06  0.210E-03    1.80       6.0  T
   8    -94.8731576 -0.436975E-07  0.139E-03    1.80       9.0  T
   9    -94.8731577 -0.283580E-07  0.812E-04    1.80      15.4  T
  10    -94.8731577 -0.615765E-08  0.526E-04    1.80      23.8  T
     SCC iter.                  ...        0 min,  0.031 sec
     gradient                   ...        0 min,  0.005 sec
 * total energy  :   -93.6527415 Eh     change       -0.3406184E-02 Eh
   gradient norm :     0.0170839 Eh/α   predicted    -0.3349500E-02 (  -1.66%)
   displ. norm   :     0.8054261 α      lambda       -0.3794665E-02
   maximum displ.:     0.3508329 α      in ANC's #4, #10, #3, ...

........................................................................
.............................. CYCLE   17 ..............................
........................................................................

 iter      E             dE          RMSdq      gap      omega  full diag
   1    -94.8705217 -0.948705E+02  0.156E-01    1.78       0.0  T
   2    -94.8705389 -0.171754E-04  0.955E-02    1.78       1.0  T
   3    -94.8704971  0.417476E-04  0.307E-02    1.78       1.0  T
   4    -94.8705477 -0.505306E-04  0.156E-02    1.79       1.0  T
   5    -94.8705493 -0.163916E-05  0.102E-02    1.79       1.2  T
   6    -94.8705497 -0.363167E-06  0.431E-03    1.79       2.9  T
   7    -94.8705501 -0.464638E-06  0.209E-03    1.79       6.0  T
   8    -94.8705502 -0.372830E-07  0.136E-03    1.79       9.2  T
   9    -94.8705502 -0.343531E-07  0.849E-04    1.79      14.7  T
  10    -94.8705502 -0.804796E-08  0.533E-04    1.79      23.5  T
     SCC iter.                  ...        0 min,  0.032 sec
     gradient                   ...        0 min,  0.007 sec
 * total energy  :   -93.6558304 Eh     change       -0.3088858E-02 Eh
   gradient norm :     0.0185411 Eh/α   predicted    -0.3128158E-02 (   1.27%)
   displ. norm   :     0.7797214 α      lambda       -0.3422775E-02
   maximum displ.:     0.3316084 α      in ANC's #10, #3, #4, ...

........................................................................
.............................. CYCLE   18 ..............................
........................................................................

 iter      E             dE          RMSdq      gap      omega  full diag
   1    -94.8722424 -0.948722E+02  0.148E-01    1.78       0.0  T
   2    -94.8722535 -0.111445E-04  0.909E-02    1.79       1.0  T
   3    -94.8722171  0.364666E-04  0.315E-02    1.79       1.0  T
   4    -94.8722613 -0.442575E-04  0.156E-02    1.80       1.0  T
   5    -94.8722623 -0.957803E-06  0.983E-03    1.79       1.3  T
   6    -94.8722628 -0.563208E-06  0.402E-03    1.79       3.1  T
   7    -94.8722632 -0.389408E-06  0.194E-03    1.79       6.5  T
   8    -94.8722633 -0.315465E-07  0.122E-03    1.79      10.2  T
   9    -94.8722633 -0.174071E-07  0.830E-04    1.79      15.1  T
  10    -94.8722633 -0.925570E-08  0.479E-04    1.79      26.1  T
     SCC iter.                  ...        0 min,  0.062 sec
     gradient                   ...        0 min,  0.010 sec
 * total energy  :   -93.6587156 Eh     change       -0.2885245E-02 Eh
   gradient norm :     0.0167234 Eh/α   predicted    -0.2751853E-02 (  -4.62%)
   displ. norm   :     0.7398514 α      lambda       -0.3397868E-02
   maximum displ.:     0.3261915 α      in ANC's #3, #10, #4, ...

........................................................................
.............................. CYCLE   19 ..............................
........................................................................

 iter      E             dE          RMSdq      gap      omega  full diag
   1    -94.8856248 -0.948856E+02  0.146E-01    1.78       0.0  T
   2    -94.8856441 -0.193025E-04  0.885E-02    1.79       1.0  T
   3    -94.8856199  0.242247E-04  0.278E-02    1.80       1.0  T
   4    -94.8856504 -0.304316E-04  0.142E-02    1.80       1.0  T
   5    -94.8856520 -0.161176E-05  0.983E-03    1.80       1.3  T
   6    -94.8856523 -0.312503E-06  0.489E-03    1.80       2.6  T
   7    -94.8856528 -0.494270E-06  0.222E-03    1.80       5.6  T
   8    -94.8856528 -0.552626E-07  0.141E-03    1.80       8.9  T
   9    -94.8856528 -0.206387E-07  0.935E-04    1.80      13.4  T
  10    -94.8856529 -0.108577E-07  0.597E-04    1.80      20.9  T
     SCC iter.                  ...        0 min,  0.035 sec
     gradient                   ...        0 min,  0.007 sec
 * total energy  :   -93.6612345 Eh     change       -0.2518932E-02 Eh
   gradient norm :     0.0176665 Eh/α   predicted    -0.2628898E-02 (   4.37%)
   displ. norm   :     0.7967030 α      lambda       -0.3575048E-02
   maximum displ.:     0.3462262 α      in ANC's #10, #4, #3, ...

........................................................................
.............................. CYCLE   20 ..............................
........................................................................

 iter      E             dE          RMSdq      gap      omega  full diag
   1    -94.8715391 -0.948715E+02  0.157E-01    1.80       0.0  T
   2    -94.8715717 -0.325436E-04  0.925E-02    1.80       1.0  T
   3    -94.8715607  0.109926E-04  0.225E-02    1.80       1.0  T
   4    -94.8715747 -0.140047E-04  0.122E-02    1.81       1.0  T
   5    -94.8715777 -0.301262E-05  0.791E-03    1.81       1.6  T
   6    -94.8715778 -0.116175E-06  0.361E-03    1.81       3.5  T
   7    -94.8715780 -0.218659E-06  0.190E-03    1.81       6.6  T
   8    -94.8715781 -0.379420E-07  0.103E-03    1.81      12.1  T
   9    -94.8715781 -0.184215E-07  0.539E-04    1.81      23.2  T
  10    -94.8715781 -0.499151E-08  0.332E-04    1.81      37.6  T
     SCC iter.                  ...        0 min,  0.038 sec
     gradient                   ...        0 min,  0.006 sec
 * total energy  :   -93.6631285 Eh     change       -0.1893996E-02 Eh
   gradient norm :     0.0274565 Eh/α   predicted    -0.2922128E-02 (  54.28%)
   displ. norm   :     0.5856121 α      lambda       -0.3192504E-02
   maximum displ.:     0.2613058 α      in ANC's #4, #3, #10, ...
 * RMSD in coord.:     1.4522101 α      energy gain  -0.3230314E+00 Eh

generating ANC from model Hessian ...
Using Lindh-Hessian (1995)
 Shifting diagonal of input Hessian by    1.1742645213740948E-002
 Lowest  eigenvalues of input Hessian
    0.010000    0.010875    0.000000    0.000000    0.000000    0.000000
    0.000000    0.000000    0.011749    0.011897    0.011968    0.012235
    0.012389    0.012578    0.012752    0.013334    0.013400    0.014126
 Highest eigenvalues
    1.866034    1.928473    1.999427    2.095553    2.111466    2.149556


........................................................................
.............................. CYCLE   21 ..............................
........................................................................

 iter      E             dE          RMSdq      gap      omega  full diag
   1    -94.8743431 -0.948743E+02  0.133E-01    1.81       0.0  T
   2    -94.8743633 -0.202393E-04  0.791E-02    1.82       1.0  T
   3    -94.8743463  0.170171E-04  0.222E-02    1.81       1.0  T
   4    -94.8743671 -0.207910E-04  0.100E-02    1.82       1.2  T
   5    -94.8743688 -0.165963E-05  0.677E-03    1.82       1.8  T
   6    -94.8743688 -0.449434E-08  0.351E-03    1.82       3.6  T
   7    -94.8743690 -0.226389E-06  0.154E-03    1.82       8.1  T
   8    -94.8743690 -0.170430E-07  0.879E-04    1.82      14.2  T
   9    -94.8743690 -0.106736E-07  0.346E-04    1.82      36.2  T
     SCC iter.                  ...        0 min,  0.123 sec
     gradient                   ...        0 min,  0.005 sec
 * total energy  :   -93.6651934 Eh     change       -0.2064822E-02 Eh
   gradient norm :     0.0217159 Eh/α   predicted     0.0000000E+00 (-100.00%)
   displ. norm   :     0.2238666 α      lambda       -0.1727994E-02
   maximum displ.:     0.0979442 α      in ANC's #4, #10, #5, ...

........................................................................
.............................. CYCLE   22 ..............................
........................................................................

 iter      E             dE          RMSdq      gap      omega  full diag
   1    -94.8856026 -0.948856E+02  0.742E-02    1.83       0.0  T
   2    -94.8856090 -0.647248E-05  0.452E-02    1.82       1.0  T
   3    -94.8855986  0.104028E-04  0.178E-02    1.81       1.0  T
   4    -94.8856118 -0.131698E-04  0.852E-03    1.81       1.5  T
   5    -94.8856121 -0.337486E-06  0.606E-03    1.82       2.1  T
   6    -94.8856123 -0.131500E-06  0.262E-03    1.82       4.8  T
   7    -94.8856124 -0.145120E-06  0.105E-03    1.82      11.9  T
   8    -94.8856124 -0.186306E-07  0.573E-04    1.82      21.8  T
   9    -94.8856124 -0.532343E-08  0.299E-04    1.82      41.7  T
     SCC iter.                  ...        0 min,  0.029 sec
     gradient                   ...        0 min,  0.006 sec
 * total energy  :   -93.6665091 Eh     change       -0.1315709E-02 Eh
   gradient norm :     0.0084360 Eh/α   predicted    -0.9073163E-03 ( -31.04%)
   displ. norm   :     0.4419317 α      lambda       -0.1721151E-02
   maximum displ.:     0.2214923 α      in ANC's #4, #10, #5, ...

........................................................................
.............................. CYCLE   23 ..............................
........................................................................

 iter      E             dE          RMSdq      gap      omega  full diag
   1    -94.8951661 -0.948952E+02  0.109E-01    1.83       0.0  T
   2    -94.8951790 -0.128433E-04  0.681E-02    1.82       1.0  T
   3    -94.8951535  0.254116E-04  0.296E-02    1.81       1.0  T
   4    -94.8951861 -0.325788E-04  0.154E-02    1.81       1.0  T
   5    -94.8951868 -0.667850E-06  0.981E-03    1.82       1.3  T
   6    -94.8951874 -0.652888E-06  0.353E-03    1.82       3.5  T
   7    -94.8951878 -0.317836E-06  0.151E-03    1.82       8.3  T
   8    -94.8951878 -0.446699E-07  0.834E-04    1.82      15.0  T
   9    -94.8951878 -0.105133E-07  0.496E-04    1.82      25.2  T
     SCC iter.                  ...        0 min,  0.032 sec
     gradient                   ...        0 min,  0.005 sec
 * total energy  :   -93.6678591 Eh     change       -0.1350032E-02 Eh
   gradient norm :     0.0101074 Eh/α   predicted    -0.1028811E-02 ( -23.79%)
   displ. norm   :     0.6328676 α      lambda       -0.1812603E-02
   maximum displ.:     0.3268961 α      in ANC's #4, #10, #5, ...

........................................................................
.............................. CYCLE   24 ..............................
........................................................................

 iter      E             dE          RMSdq      gap      omega  full diag
   1    -94.8990157 -0.948990E+02  0.138E-01    1.83       0.0  T
   2    -94.8990357 -0.200488E-04  0.873E-02    1.82       1.0  T
   3    -94.8989942  0.415489E-04  0.392E-02    1.81       1.0  T
   4    -94.8990478 -0.536141E-04  0.206E-02    1.81       1.0  T
   5    -94.8990489 -0.114868E-05  0.125E-02    1.82       1.0  T
   6    -94.8990500 -0.106281E-05  0.438E-03    1.82       2.9  T
   7    -94.8990505 -0.549351E-06  0.183E-03    1.82       6.8  T
   8    -94.8990506 -0.612655E-07  0.101E-03    1.82      12.4  T
   9    -94.8990506 -0.156564E-07  0.621E-04    1.82      20.1  T
  10    -94.8990506 -0.166379E-08  0.322E-04    1.82      38.9  T
     SCC iter.                  ...        0 min,  0.041 sec
     gradient                   ...        0 min,  0.006 sec
 * total energy  :   -93.6694939 Eh     change       -0.1634784E-02 Eh
   gradient norm :     0.0159515 Eh/α   predicted    -0.1269418E-02 ( -22.35%)
   displ. norm   :     0.8164687 α      lambda       -0.2404500E-02
   maximum displ.:     0.4210098 α      in ANC's #4, #10, #5, ...

........................................................................
.............................. CYCLE   25 ..............................
........................................................................

 iter      E             dE          RMSdq      gap      omega  full diag
   1    -94.8969631 -0.948970E+02  0.174E-01    1.82       0.0  T
   2    -94.8969942 -0.311162E-04  0.111E-01    1.82       1.0  T
   3    -94.8969400  0.542085E-04  0.483E-02    1.81       1.0  T
   4    -94.8970111 -0.710780E-04  0.262E-02    1.82       1.0  T
   5    -94.8970132 -0.205119E-05  0.157E-02    1.82       1.0  T
   6    -94.8970145 -0.138943E-05  0.561E-03    1.82       2.2  T
   7    -94.8970155 -0.958884E-06  0.227E-03    1.82       5.5  T
   8    -94.8970156 -0.705641E-07  0.130E-03    1.82       9.6  T
   9    -94.8970156 -0.224859E-07  0.827E-04    1.82      15.1  T
  10    -94.8970156 -0.397895E-08  0.393E-04    1.82      31.8  T
     SCC iter.                  ...        0 min,  0.061 sec
     gradient                   ...        0 min,  0.006 sec
 * total energy  :   -93.6716898 Eh     change       -0.2195868E-02 Eh
   gradient norm :     0.0153105 Eh/α   predicted    -0.2003696E-02 (  -8.75%)
   displ. norm   :     0.8024483 α      lambda       -0.2425756E-02
   maximum displ.:     0.4174685 α      in ANC's #4, #10, #5, ...

........................................................................
.............................. CYCLE   26 ..............................
........................................................................

 iter      E             dE          RMSdq      gap      omega  full diag
   1    -94.8932193 -0.948932E+02  0.165E-01    1.81       0.0  T
   2    -94.8932465 -0.272002E-04  0.104E-01    1.82       1.0  T
   3    -94.8932036  0.429693E-04  0.435E-02    1.81       1.0  T
   4    -94.8932601 -0.565796E-04  0.232E-02    1.82       1.0  T
   5    -94.8932618 -0.163794E-05  0.143E-02    1.82       1.0  T
   6    -94.8932628 -0.105760E-05  0.537E-03    1.82       2.3  T
   7    -94.8932637 -0.850969E-06  0.218E-03    1.82       5.7  T
   8    -94.8932637 -0.479238E-07  0.133E-03    1.82       9.4  T
   9    -94.8932637 -0.168541E-07  0.890E-04    1.82      14.0  T
  10    -94.8932638 -0.809362E-08  0.410E-04    1.82      30.5  T
     SCC iter.                  ...        0 min,  0.063 sec
     gradient                   ...        0 min,  0.005 sec
 * total energy  :   -93.6737495 Eh     change       -0.2059796E-02 Eh
   gradient norm :     0.0125598 Eh/α   predicted    -0.1993881E-02 (  -3.20%)
   displ. norm   :     0.7533738 α      lambda       -0.1976972E-02
   maximum displ.:     0.4101109 α      in ANC's #4, #10, #5, ...

........................................................................
.............................. CYCLE   27 ..............................
........................................................................

 iter      E             dE          RMSdq      gap      omega  full diag
   1    -94.8913166 -0.948913E+02  0.142E-01    1.79       0.0  T
   2    -94.8913345 -0.179464E-04  0.887E-02    1.81       1.0  T
   3    -94.8913122  0.223866E-04  0.323E-02    1.80       1.0  T
   4    -94.8913427 -0.305603E-04  0.179E-02    1.81       1.0  T
   5    -94.8913435 -0.786565E-06  0.112E-02    1.81       1.1  T
   6    -94.8913444 -0.919281E-06  0.444E-03    1.80       2.8  T
   7    -94.8913449 -0.492794E-06  0.204E-03    1.80       6.1  T
   8    -94.8913450 -0.398741E-07  0.134E-03    1.80       9.3  T
   9    -94.8913450 -0.136743E-07  0.912E-04    1.80      13.7  T
  10    -94.8913450 -0.127871E-07  0.442E-04    1.80      28.3  T
     SCC iter.                  ...        0 min,  0.048 sec
     gradient                   ...        0 min,  0.008 sec
 * total energy  :   -93.6754433 Eh     change       -0.1693764E-02 Eh
   gradient norm :     0.0137449 Eh/α   predicted    -0.1549523E-02 (  -8.52%)
   displ. norm   :     0.7314811 α      lambda       -0.1853400E-02
   maximum displ.:     0.4166676 α      in ANC's #4, #10, #5, ...

........................................................................
.............................. CYCLE   28 ..............................
........................................................................

 iter      E             dE          RMSdq      gap      omega  full diag
   1    -94.8936108 -0.948936E+02  0.125E-01    1.79       0.0  T
   2    -94.8936210 -0.101847E-04  0.762E-02    1.80       1.0  T
   3    -94.8936042  0.167991E-04  0.243E-02    1.80       1.0  T
   4    -94.8936259 -0.217201E-04  0.128E-02    1.80       1.0  T
   5    -94.8936264 -0.511049E-06  0.831E-03    1.80       1.5  T
   6    -94.8936270 -0.581105E-06  0.318E-03    1.80       3.9  T
   7    -94.8936272 -0.195772E-06  0.157E-03    1.80       8.0  T
   8    -94.8936272 -0.184877E-07  0.106E-03    1.80      11.7  T
   9    -94.8936272 -0.953675E-08  0.696E-04    1.80      18.0  T
  10    -94.8936272 -0.735847E-08  0.351E-04    1.80      35.6  T
     SCC iter.                  ...        0 min,  0.040 sec
     gradient                   ...        0 min,  0.005 sec
 * total energy  :   -93.6770423 Eh     change       -0.1599029E-02 Eh
   gradient norm :     0.0127133 Eh/α   predicted    -0.1422545E-02 ( -11.04%)
   displ. norm   :     0.7527066 α      lambda       -0.1799029E-02
   maximum displ.:     0.4425818 α      in ANC's #4, #10, #5, ...

........................................................................
.............................. CYCLE   29 ..............................
........................................................................

 iter      E             dE          RMSdq      gap      omega  full diag
   1    -94.8977891 -0.948978E+02  0.125E-01    1.79       0.0  T
   2    -94.8977966 -0.753380E-05  0.748E-02    1.80       1.0  T
   3    -94.8977835  0.131608E-04  0.191E-02    1.80       1.0  T
   4    -94.8978002 -0.167539E-04  0.938E-03    1.80       1.3  T
   5    -94.8978004 -0.208014E-06  0.650E-03    1.80       1.9  T
   6    -94.8978008 -0.396845E-06  0.244E-03    1.80       5.1  T
   7    -94.8978009 -0.776918E-07  0.128E-03    1.80       9.8  T
   8    -94.8978009 -0.121970E-07  0.827E-04    1.80      15.1  T
   9    -94.8978009 -0.727529E-08  0.502E-04    1.80      24.9  T
     SCC iter.                  ...        0 min,  0.047 sec
     gradient                   ...        0 min,  0.006 sec
 * total energy  :   -93.6785988 Eh     change       -0.1556437E-02 Eh
   gradient norm :     0.0100679 Eh/α   predicted    -0.1409152E-02 (  -9.46%)
   displ. norm   :     0.7832385 α      lambda       -0.1693207E-02
   maximum displ.:     0.4713011 α      in ANC's #4, #10, #5, ...

........................................................................
.............................. CYCLE   30 ..............................
........................................................................

 iter      E             dE          RMSdq      gap      omega  full diag
   1    -94.9017901 -0.949018E+02  0.130E-01    1.81       0.0  T
   2    -94.9017959 -0.581267E-05  0.770E-02    1.81       1.0  T
   3    -94.9017760  0.198443E-04  0.214E-02    1.81       1.0  T
   4    -94.9018000 -0.239114E-04  0.791E-03    1.81       1.6  T
   5    -94.9018001 -0.971772E-07  0.563E-03    1.81       2.2  T
   6    -94.9018003 -0.274812E-06  0.205E-03    1.81       6.1  T
   7    -94.9018004 -0.532458E-07  0.104E-03    1.81      12.1  T
   8    -94.9018004 -0.610082E-08  0.584E-04    1.81      21.4  T
   9    -94.9018004 -0.447547E-08  0.315E-04    1.81      39.7  T
     SCC iter.                  ...        0 min,  0.051 sec
     gradient                   ...        0 min,  0.006 sec
 * total energy  :   -93.6801049 Eh     change       -0.1506115E-02 Eh
   gradient norm :     0.0082716 Eh/α   predicted    -0.1365963E-02 (  -9.31%)
   displ. norm   :     0.8011031 α      lambda       -0.1650360E-02
   maximum displ.:     0.4878873 α      in ANC's #4, #10, #5, ...

........................................................................
.............................. CYCLE   31 ..............................
........................................................................

 iter      E             dE          RMSdq      gap      omega  full diag
   1    -94.9076839 -0.949077E+02  0.131E-01    1.82       0.0  T
   2    -94.9076902 -0.628152E-05  0.774E-02    1.82       1.0  T
   3    -94.9076702  0.199521E-04  0.209E-02    1.82       1.0  T
   4    -94.9076944 -0.241514E-04  0.663E-03    1.82       1.9  T
   5    -94.9076946 -0.173985E-06  0.493E-03    1.82       2.5  T
   6    -94.9076948 -0.202575E-06  0.245E-03    1.82       5.1  T
   7    -94.9076949 -0.801295E-07  0.129E-03    1.82       9.7  T
   8    -94.9076949 -0.160207E-07  0.778E-04    1.82      16.1  T
   9    -94.9076949 -0.909814E-08  0.506E-04    1.82      24.7  T
     SCC iter.                  ...        0 min,  0.050 sec
     gradient                   ...        0 min,  0.006 sec
 * total energy  :   -93.6815868 Eh     change       -0.1481910E-02 Eh
   gradient norm :     0.0063293 Eh/α   predicted    -0.1354758E-02 (  -8.58%)
   displ. norm   :     0.8735289 α      lambda       -0.1616379E-02
   maximum displ.:     0.5200292 α      in ANC's #4, #10, #5, ...

........................................................................
.............................. CYCLE   32 ..............................
........................................................................

 iter      E             dE          RMSdq      gap      omega  full diag
   1    -94.9013583 -0.949014E+02  0.155E-01    1.82       0.0  T
   2    -94.9013681 -0.980848E-05  0.922E-02    1.83       1.0  T
   3    -94.9013451  0.230160E-04  0.242E-02    1.82       1.0  T
   4    -94.9013737 -0.285689E-04  0.989E-03    1.83       1.3  T
   5    -94.9013740 -0.338073E-06  0.730E-03    1.83       1.7  T
   6    -94.9013744 -0.333876E-06  0.318E-03    1.82       3.9  T
   7    -94.9013745 -0.168326E-06  0.154E-03    1.82       8.1  T
   8    -94.9013745 -0.146077E-07  0.876E-04    1.83      14.3  T
   9    -94.9013746 -0.123816E-07  0.542E-04    1.83      23.0  T
     SCC iter.                  ...        0 min,  0.051 sec
     gradient                   ...        0 min,  0.006 sec
 * total energy  :   -93.6829913 Eh     change       -0.1404505E-02 Eh
   gradient norm :     0.0101789 Eh/α   predicted    -0.1424883E-02 (   1.45%)
   displ. norm   :     0.7902789 α      lambda       -0.1883098E-02
   maximum displ.:     0.4656200 α      in ANC's #4, #10, #2, ...

........................................................................
.............................. CYCLE   33 ..............................
........................................................................

 iter      E             dE          RMSdq      gap      omega  full diag
   1    -94.9162666 -0.949163E+02  0.137E-01    1.85       0.0  T
   2    -94.9162803 -0.136900E-04  0.812E-02    1.85       1.0  T
   3    -94.9162635  0.167768E-04  0.213E-02    1.85       1.0  T
   4    -94.9162852 -0.217333E-04  0.822E-03    1.85       1.5  T
   5    -94.9162859 -0.659884E-06  0.589E-03    1.85       2.1  T
   6    -94.9162861 -0.180995E-06  0.344E-03    1.85       3.6  T
   7    -94.9162863 -0.196883E-06  0.191E-03    1.85       6.5  T
   8    -94.9162863 -0.511252E-07  0.117E-03    1.85      10.7  T
   9    -94.9162863 -0.182895E-07  0.815E-04    1.85      15.3  T
  10    -94.9162864 -0.122250E-07  0.485E-04    1.85      25.8  T
     SCC iter.                  ...        0 min,  0.046 sec
     gradient                   ...        0 min,  0.005 sec
 * total energy  :   -93.6841822 Eh     change       -0.1190933E-02 Eh
   gradient norm :     0.0145551 Eh/α   predicted    -0.1529583E-02 (  28.44%)
   displ. norm   :     0.7600604 α      lambda       -0.1760898E-02
   maximum displ.:     0.4507906 α      in ANC's #4, #10, #2, ...

........................................................................
.............................. CYCLE   34 ..............................
........................................................................

 iter      E             dE          RMSdq      gap      omega  full diag
   1    -94.9095393 -0.949095E+02  0.127E-01    1.84       0.0  T
   2    -94.9095599 -0.205792E-04  0.747E-02    1.85       1.0  T
   3    -94.9095489  0.109196E-04  0.187E-02    1.84       1.0  T
   4    -94.9095633 -0.143922E-04  0.757E-03    1.85       1.7  T
   5    -94.9095644 -0.107676E-05  0.500E-03    1.85       2.5  T
   6    -94.9095644  0.829874E-08  0.280E-03    1.85       4.5  T
   7    -94.9095646 -0.147778E-06  0.133E-03    1.85       9.4  T
   8    -94.9095646 -0.851502E-08  0.670E-04    1.85      18.7  T
   9    -94.9095646 -0.488714E-08  0.379E-04    1.85      33.0  T
     SCC iter.                  ...        0 min,  0.031 sec
     gradient                   ...        0 min,  0.005 sec
 * total energy  :   -93.6854130 Eh     change       -0.1230776E-02 Eh
   gradient norm :     0.0143306 Eh/α   predicted    -0.1389079E-02 (  12.86%)
   displ. norm   :     0.7530497 α      lambda       -0.1431419E-02
   maximum displ.:     0.4499578 α      in ANC's #4, #10, #5, ...

........................................................................
.............................. CYCLE   35 ..............................
........................................................................

 iter      E             dE          RMSdq      gap      omega  full diag
   1    -94.8981604 -0.948982E+02  0.134E-01    1.81       0.0  T
   2    -94.8981711 -0.107176E-04  0.804E-02    1.82       1.0  T
   3    -94.8981563  0.147985E-04  0.198E-02    1.82       1.0  T
   4    -94.8981753 -0.190484E-04  0.829E-03    1.83       1.5  T
   5    -94.8981756 -0.260118E-06  0.558E-03    1.83       2.2  T
   6    -94.8981757 -0.121145E-06  0.244E-03    1.82       5.1  T
   7    -94.8981758 -0.122542E-06  0.124E-03    1.82      10.1  T
   8    -94.8981759 -0.125723E-07  0.775E-04    1.82      16.1  T
   9    -94.8981759 -0.601834E-08  0.487E-04    1.82      25.6  T
     SCC iter.                  ...        0 min,  0.028 sec
     gradient                   ...        0 min,  0.005 sec
 * total energy  :   -93.6864799 Eh     change       -0.1066930E-02 Eh
   gradient norm :     0.0144060 Eh/α   predicted    -0.1121583E-02 (   5.12%)
   displ. norm   :     0.6153983 α      lambda       -0.1494471E-02
   maximum displ.:     0.3576345 α      in ANC's #4, #10, #2, ...

........................................................................
.............................. CYCLE   36 ..............................
........................................................................

 iter      E             dE          RMSdq      gap      omega  full diag
   1    -94.9036127 -0.949036E+02  0.986E-02    1.79       0.0  T
   2    -94.9036203 -0.762366E-05  0.588E-02    1.81       1.0  T
   3    -94.9036173  0.306508E-05  0.140E-02    1.81       1.0  T
   4    -94.9036231 -0.587524E-05  0.739E-03    1.81       1.7  T
   5    -94.9036234 -0.260843E-06  0.467E-03    1.81       2.7  T
   6    -94.9036235 -0.152719E-06  0.230E-03    1.81       5.4  T
   7    -94.9036237 -0.125757E-06  0.136E-03    1.81       9.2  T
   8    -94.9036237 -0.242356E-07  0.970E-04    1.81      12.9  T
   9    -94.9036237 -0.121269E-07  0.695E-04    1.81      18.0  T
     SCC iter.                  ...        0 min,  0.031 sec
     gradient                   ...        0 min,  0.006 sec
 * total energy  :   -93.6876851 Eh     change       -0.1205167E-02 Eh
   gradient norm :     0.0122617 Eh/α   predicted    -0.1030227E-02 ( -14.52%)
   displ. norm   :     0.7776914 α      lambda       -0.1714472E-02
   maximum displ.:     0.4349678 α      in ANC's #4, #10, #6, ...

........................................................................
.............................. CYCLE   37 ..............................
........................................................................

 iter      E             dE          RMSdq      gap      omega  full diag
   1    -94.9141459 -0.949141E+02  0.129E-01    1.79       0.0  T
   2    -94.9141604 -0.145199E-04  0.777E-02    1.82       1.0  T
   3    -94.9141587  0.163182E-05  0.172E-02    1.83       1.0  T
   4    -94.9141646 -0.584763E-05  0.116E-02    1.83       1.1  T
   5    -94.9141651 -0.467821E-06  0.718E-03    1.82       1.7  T
   6    -94.9141653 -0.245296E-06  0.328E-03    1.82       3.8  T
   7    -94.9141656 -0.241775E-06  0.156E-03    1.83       8.0  T
   8    -94.9141656 -0.237806E-07  0.955E-04    1.83      13.1  T
   9    -94.9141656 -0.405124E-08  0.589E-04    1.83      21.2  T
     SCC iter.                  ...        0 min,  0.028 sec
     gradient                   ...        0 min,  0.006 sec
 * total energy  :   -93.6891142 Eh     change       -0.1429079E-02 Eh
   gradient norm :     0.0105327 Eh/α   predicted    -0.1375696E-02 (  -3.74%)
   displ. norm   :     0.8586126 α      lambda       -0.1813890E-02
   maximum displ.:     0.4645495 α      in ANC's #4, #10, #6, ...

........................................................................
.............................. CYCLE   38 ..............................
........................................................................

 iter      E             dE          RMSdq      gap      omega  full diag
   1    -94.9157194 -0.949157E+02  0.150E-01    1.83       0.0  T
   2    -94.9157601 -0.406574E-04  0.907E-02    1.88       1.0  T
   3    -94.9157461  0.139523E-04  0.329E-02    1.90       1.0  T
   4    -94.9157715 -0.253798E-04  0.201E-02    1.90       1.0  T
   5    -94.9157736 -0.210025E-05  0.128E-02    1.89       1.0  T
   6    -94.9157743 -0.650866E-06  0.529E-03    1.89       2.4  T
   7    -94.9157748 -0.550164E-06  0.242E-03    1.89       5.2  T
   8    -94.9157749 -0.889920E-07  0.150E-03    1.89       8.4  T
   9    -94.9157749 -0.731615E-08  0.960E-04    1.89      13.0  T
  10    -94.9157749 -0.119979E-07  0.495E-04    1.89      25.3  T
     SCC iter.                  ...        0 min,  0.035 sec
     gradient                   ...        0 min,  0.005 sec
 * total energy  :   -93.6906676 Eh     change       -0.1553426E-02 Eh
   gradient norm :     0.0145167 Eh/α   predicted    -0.1575562E-02 (   1.43%)
   displ. norm   :     0.7936547 α      lambda       -0.1857815E-02
   maximum displ.:     0.4062482 α      in ANC's #4, #10, #6, ...

........................................................................
.............................. CYCLE   39 ..............................
........................................................................

 iter      E             dE          RMSdq      gap      omega  full diag
   1    -94.9168476 -0.949168E+02  0.169E-01    1.91       0.0  T
   2    -94.9169550 -0.107381E-03  0.102E-01    2.00       1.0  T
   3    -94.9169449  0.100071E-04  0.515E-02    1.99       1.0  T
   4    -94.9169782 -0.332137E-04  0.304E-02    2.00       1.0  T
   5    -94.9169827 -0.450991E-05  0.192E-02    2.00       1.0  T
   6    -94.9169851 -0.239665E-05  0.903E-03    2.00       1.4  T
   7    -94.9169867 -0.158757E-05  0.335E-03    2.00       3.7  T
   8    -94.9169868 -0.156228E-06  0.212E-03    2.00       5.9  T
   9    -94.9169868 -0.235151E-07  0.135E-03    2.00       9.3  T
  10    -94.9169868 -0.142214E-07  0.620E-04    2.00      20.2  T
  11    -94.9169869 -0.450927E-08  0.345E-04    2.00      36.2  T
     SCC iter.                  ...        0 min,  0.034 sec
     gradient                   ...        0 min,  0.005 sec
 * total energy  :   -93.6920853 Eh     change       -0.1417692E-02 Eh
   gradient norm :     0.0163570 Eh/α   predicted    -0.1514014E-02 (   6.79%)
   displ. norm   :     0.7555570 α      lambda       -0.2002302E-02
   maximum displ.:     0.3722813 α      in ANC's #4, #6, #10, ...

........................................................................
.............................. CYCLE   40 ..............................
........................................................................

 iter      E             dE          RMSdq      gap      omega  full diag
   1    -94.9217292 -0.949217E+02  0.201E-01    1.98       0.0  T
   2    -94.9220313 -0.302062E-03  0.120E-01    1.99       1.0  T
   3    -94.9220293  0.195609E-05  0.775E-02    1.97       1.0  T
   4    -94.9220788 -0.494821E-04  0.432E-02    1.98       1.0  T
   5    -94.9220916 -0.127787E-04  0.269E-02    1.98       1.0  T
   6    -94.9220951 -0.349152E-05  0.139E-02    1.98       1.0  T
   7    -94.9220988 -0.370654E-05  0.475E-03    1.98       2.6  T
   8    -94.9220992 -0.396877E-06  0.281E-03    1.98       4.5  T
   9    -94.9220992 -0.416102E-07  0.179E-03    1.98       7.0  T
  10    -94.9220992 -0.174695E-07  0.899E-04    1.98      13.9  T
  11    -94.9220992 -0.115741E-07  0.446E-04    1.98      28.0  T
     SCC iter.                  ...        0 min,  0.043 sec
     gradient                   ...        0 min,  0.014 sec
 * total energy  :   -93.6932536 Eh     change       -0.1168306E-02 Eh
   gradient norm :     0.0196626 Eh/α   predicted    -0.1572680E-02 (  34.61%)
   displ. norm   :     0.7048782 α      lambda       -0.1850064E-02
   maximum displ.:     0.4289745 α      in ANC's #4, #10, #2, ...

........................................................................
.............................. CYCLE   41 ..............................
........................................................................

 iter      E             dE          RMSdq      gap      omega  full diag
   1    -94.8973216 -0.948973E+02  0.137E-01    2.02       0.0  T
   2    -94.8974010 -0.793298E-04  0.811E-02    2.01       1.0  T
   3    -94.8973788  0.221317E-04  0.438E-02    2.00       1.0  T
   4    -94.8974234 -0.445782E-04  0.173E-02    2.01       1.0  T
   5    -94.8974248 -0.135511E-05  0.126E-02    2.01       1.0  T
   6    -94.8974252 -0.473775E-06  0.622E-03    2.01       2.0  T
   7    -94.8974259 -0.634395E-06  0.288E-03    2.01       4.3  T
   8    -94.8974260 -0.118276E-06  0.154E-03    2.01       8.1  T
   9    -94.8974260 -0.186448E-07  0.920E-04    2.01      13.6  T
  10    -94.8974260 -0.786093E-08  0.447E-04    2.01      28.0  T
     SCC iter.                  ...        0 min,  0.053 sec
     gradient                   ...        0 min,  0.006 sec
 * total energy  :   -93.6936087 Eh     change       -0.3551050E-03 Eh
   gradient norm :     0.0251626 Eh/α   predicted    -0.1384638E-02 ( 289.92%)
   displ. norm   :     0.2228750 α      lambda       -0.1897149E-02
   maximum displ.:     0.0703390 α      in ANC's #8, #10, #25, ...

........................................................................
.............................. CYCLE   42 ..............................
........................................................................

 iter      E             dE          RMSdq      gap      omega  full diag
   1    -94.9154813 -0.949155E+02  0.940E-02    2.05       0.0  T
   2    -94.9155126 -0.312789E-04  0.563E-02    2.03       1.0  T
   3    -94.9155050  0.758901E-05  0.229E-02    2.04       1.0  T
   4    -94.9155197 -0.147407E-04  0.104E-02    2.03       1.2  T
   5    -94.9155212 -0.150839E-05  0.816E-03    2.04       1.5  T
   6    -94.9155219 -0.637588E-06  0.598E-03    2.03       2.1  T
   7    -94.9155226 -0.697857E-06  0.332E-03    2.03       3.8  T
   8    -94.9155227 -0.124619E-06  0.222E-03    2.03       5.6  T
   9    -94.9155228 -0.726046E-07  0.106E-03    2.03      11.8  T
  10    -94.9155228 -0.122824E-07  0.580E-04    2.03      21.5  T
  11    -94.9155228 -0.852012E-09  0.325E-04    2.03      38.5  T
     SCC iter.                  ...        0 min,  0.038 sec
     gradient                   ...        0 min,  0.012 sec
 * total energy  :   -93.6939027 Eh     change       -0.2939971E-03 Eh
   gradient norm :     0.0297330 Eh/α   predicted    -0.9956952E-03 ( 238.68%)
   displ. norm   :     0.3239729 α      lambda       -0.2110641E-02
   maximum displ.:     0.1645129 α      in ANC's #4, #6, #10, ...
 * RMSD in coord.:     1.7067453 α      energy gain  -0.3077418E-01 Eh

generating ANC from model Hessian ...
Using Lindh-Hessian (1995)
 Shifting diagonal of input Hessian by    1.0928835414741806E-002
 Lowest  eigenvalues of input Hessian
    0.010000    0.000000    0.000000    0.000000    0.000000    0.000000
    0.000000    0.010955    0.011071    0.011172    0.011457    0.011484
    0.011973    0.012241    0.012477    0.012640    0.012990    0.013818
 Highest eigenvalues
    1.877610    1.940620    2.022456    2.107080    2.107851    2.158581


........................................................................
.............................. CYCLE   43 ..............................
........................................................................

 iter      E             dE          RMSdq      gap      omega  full diag
   1    -94.9269681 -0.949270E+02  0.109E-01    2.00       0.0  T
   2    -94.9270321 -0.639909E-04  0.678E-02    2.02       1.0  T
   3    -94.9270252  0.693116E-05  0.407E-02    2.02       1.0  T
   4    -94.9270480 -0.228238E-04  0.209E-02    2.02       1.0  T
   5    -94.9270505 -0.255428E-05  0.137E-02    2.02       1.0  T
   6    -94.9270509 -0.361381E-06  0.731E-03    2.02       1.7  T
   7    -94.9270518 -0.871021E-06  0.246E-03    2.02       5.1  T
   8    -94.9270519 -0.100703E-06  0.156E-03    2.02       8.0  T
   9    -94.9270519 -0.190711E-07  0.970E-04    2.02      12.9  T
  10    -94.9270519 -0.835502E-08  0.545E-04    2.02      22.9  T
     SCC iter.                  ...        0 min,  0.064 sec
     gradient                   ...        0 min,  0.006 sec
 * total energy  :   -93.6944867 Eh     change       -0.5840118E-03 Eh
   gradient norm :     0.0191823 Eh/α   predicted     0.0000000E+00 (-100.00%)
   displ. norm   :     0.1376155 α      lambda       -0.8599078E-03
   maximum displ.:     0.0629575 α      in ANC's #5, #8, #10, ...

........................................................................
.............................. CYCLE   44 ..............................
........................................................................

 iter      E             dE          RMSdq      gap      omega  full diag
   1    -94.9218960 -0.949219E+02  0.419E-02    2.02       0.0  T
   2    -94.9219002 -0.423954E-05  0.251E-02    2.02       1.0  T
   3    -94.9218978  0.242481E-05  0.114E-02    2.02       1.1  T
   4    -94.9219019 -0.408230E-05  0.429E-03    2.02       2.9  T
   5    -94.9219020 -0.770611E-07  0.302E-03    2.02       4.1  T
   6    -94.9219020 -0.266066E-07  0.162E-03    2.02       7.7  T
   7    -94.9219020 -0.381657E-07  0.775E-04    2.02      16.1  T
   8    -94.9219020 -0.377237E-08  0.438E-04    2.02      28.5  T
     SCC iter.                  ...        0 min,  0.031 sec
     gradient                   ...        0 min,  0.009 sec
 * total energy  :   -93.6951079 Eh     change       -0.6211805E-03 Eh
   gradient norm :     0.0067284 Eh/α   predicted    -0.4381011E-03 ( -29.47%)
   displ. norm   :     0.2623172 α      lambda       -0.6365324E-03
   maximum displ.:     0.1328405 α      in ANC's #5, #8, #13, ...

........................................................................
.............................. CYCLE   45 ..............................
........................................................................

 iter      E             dE          RMSdq      gap      omega  full diag
   1    -94.9176223 -0.949176E+02  0.525E-02    2.02       0.0  T
   2    -94.9176299 -0.760605E-05  0.317E-02    2.02       1.0  T
   3    -94.9176264  0.352119E-05  0.151E-02    2.03       1.0  T
   4    -94.9176329 -0.646918E-05  0.705E-03    2.02       1.8  T
   5    -94.9176331 -0.177142E-06  0.479E-03    2.02       2.6  T
   6    -94.9176332 -0.102564E-06  0.252E-03    2.02       5.0  T
   7    -94.9176333 -0.110192E-06  0.113E-03    2.02      11.1  T
   8    -94.9176333 -0.101922E-07  0.637E-04    2.02      19.6  T
   9    -94.9176333 -0.303706E-08  0.312E-04    2.02      40.0  T
     SCC iter.                  ...        0 min,  0.034 sec
     gradient                   ...        0 min,  0.006 sec
 * total energy  :   -93.6955755 Eh     change       -0.4675648E-03 Eh
   gradient norm :     0.0072867 Eh/α   predicted    -0.3402067E-03 ( -27.24%)
   displ. norm   :     0.3939697 α      lambda       -0.6088868E-03
   maximum displ.:     0.2032268 α      in ANC's #5, #8, #13, ...

........................................................................
.............................. CYCLE   46 ..............................
........................................................................

 iter      E             dE          RMSdq      gap      omega  full diag
   1    -94.9146156 -0.949146E+02  0.688E-02    2.03       0.0  T
   2    -94.9146268 -0.112157E-04  0.411E-02    2.02       1.0  T
   3    -94.9146211  0.568503E-05  0.182E-02    2.03       1.0  T
   4    -94.9146311 -0.997100E-05  0.909E-03    2.03       1.4  T
   5    -94.9146314 -0.272839E-06  0.626E-03    2.03       2.0  T
   6    -94.9146316 -0.236687E-06  0.320E-03    2.03       3.9  T
   7    -94.9146318 -0.182230E-06  0.137E-03    2.03       9.1  T
   8    -94.9146318 -0.145289E-07  0.780E-04    2.03      16.0  T
   9    -94.9146318 -0.498160E-08  0.376E-04    2.03      33.2  T
     SCC iter.                  ...        0 min,  0.032 sec
     gradient                   ...        0 min,  0.006 sec
 * total energy  :   -93.6960702 Eh     change       -0.4946916E-03 Eh
   gradient norm :     0.0134491 Eh/α   predicted    -0.3517193E-03 ( -28.90%)
   displ. norm   :     0.5457465 α      lambda       -0.8147923E-03
   maximum displ.:     0.2749951 α      in ANC's #5, #8, #13, ...

........................................................................
.............................. CYCLE   47 ..............................
........................................................................

 iter      E             dE          RMSdq      gap      omega  full diag
   1    -94.9130348 -0.949130E+02  0.895E-02    2.04       0.0  T
   2    -94.9130507 -0.158768E-04  0.530E-02    2.03       1.0  T
   3    -94.9130420  0.871577E-05  0.216E-02    2.03       1.0  T
   4    -94.9130569 -0.149012E-04  0.114E-02    2.03       1.1  T
   5    -94.9130573 -0.401639E-06  0.796E-03    2.03       1.6  T
   6    -94.9130577 -0.462620E-06  0.391E-03    2.03       3.2  T
   7    -94.9130580 -0.277089E-06  0.163E-03    2.03       7.7  T
   8    -94.9130580 -0.195501E-07  0.922E-04    2.03      13.6  T
   9    -94.9130580 -0.852981E-08  0.453E-04    2.03      27.6  T
     SCC iter.                  ...        0 min,  0.041 sec
     gradient                   ...        0 min,  0.005 sec
 * total energy  :   -93.6967738 Eh     change       -0.7036725E-03 Eh
   gradient norm :     0.0157539 Eh/α   predicted    -0.5287356E-03 ( -24.86%)
   displ. norm   :     0.6475341 α      lambda       -0.1124139E-02
   maximum displ.:     0.3229008 α      in ANC's #5, #8, #7, ...

........................................................................
.............................. CYCLE   48 ..............................
........................................................................

 iter      E             dE          RMSdq      gap      omega  full diag
   1    -94.9148067 -0.949148E+02  0.102E-01    2.05       0.0  T
   2    -94.9148231 -0.163881E-04  0.600E-02    2.04       1.0  T
   3    -94.9148137  0.939026E-05  0.222E-02    2.04       1.0  T
   4    -94.9148297 -0.160103E-04  0.122E-02    2.04       1.0  T
   5    -94.9148302 -0.432798E-06  0.861E-03    2.04       1.5  T
   6    -94.9148308 -0.588701E-06  0.400E-03    2.04       3.1  T
   7    -94.9148311 -0.302154E-06  0.162E-03    2.04       7.7  T
   8    -94.9148311 -0.191479E-07  0.903E-04    2.04      13.8  T
   9    -94.9148311 -0.106433E-07  0.463E-04    2.04      27.0  T
     SCC iter.                  ...        0 min,  0.062 sec
     gradient                   ...        0 min,  0.007 sec
 * total energy  :   -93.6977479 Eh     change       -0.9740344E-03 Eh
   gradient norm :     0.0124764 Eh/α   predicted    -0.7977469E-03 ( -18.10%)
   displ. norm   :     0.6585976 α      lambda       -0.1278689E-02
   maximum displ.:     0.3227865 α      in ANC's #5, #8, #7, ...

........................................................................
[...]
    10   6 C       13   1 H                                       1.0918698
    12   6 C       14   1 H                                       1.0910596
    12   6 C       15   1 H                                       1.0909948
    10   6 C       16   1 H                                       1.0913789
    11   6 C       17   7 N                                       1.2731120
    12   6 C       17   7 N                                       1.4526132
    10   6 C       18   8 O                                       1.4321050
    11   6 C       18   8 O                                       1.3353878
    19   6 C       21   6 C                                       1.5284133
    21   6 C       22   1 H                                       1.0864642
    21   6 C       23   1 H                                       1.0860244
    21   6 C       24   1 H                                       1.0860128
    19   6 C       25   6 C                                       1.5377310
    25   6 C       26   1 H                                       1.0861131
    25   6 C       27   1 H                                       1.0861729
    25   6 C       28   1 H                                       1.0857301
    30   6 C       31   6 C                                       1.3670388
    30   6 C       32   6 C                                       1.4230248
    31   6 C       33   6 C                                       1.4154461
    31   6 C       34   1 H                                       1.0791157 (min)
    32   6 C       35   6 C                                       1.3899530
    32   6 C       36   1 H                                       1.0800042
    33   6 C       37   6 C                                       1.4090238
    33   6 C       38   6 C                                       1.4164115
    35   6 C       38   6 C                                       1.4231019
    35   6 C       39   1 H                                       1.0812213
    37   6 C       40   6 C                                       1.3688825
    37   6 C       41   1 H                                       1.0809202
    38   6 C       42   6 C                                       1.4069819
    40   6 C       43   6 C                                       1.4018565
    42   6 C       43   6 C                                       1.3695160
    40   6 C       44   1 H                                       1.0798845
    42   6 C       45   1 H                                       1.0796956
    43   6 C       46   1 H                                       1.0798046
    47   6 C       48   6 C                                       1.5373982
    47   6 C       49   6 C                                       1.5373076
    48   6 C       50   1 H                                       1.0869716
    48   6 C       51   1 H                                       1.0877112
    48   6 C       52   1 H                                       1.0855381
    49   6 C       53   1 H                                       1.0877610
    49   6 C       54   1 H                                       1.0871585
    49   6 C       55   1 H                                       1.0871625
    47   6 C       56   7 N                                       1.4730268
    56   7 N       57   6 C                                       1.4497242
    56   7 N       58   6 C                                       1.4477075
    57   6 C       59   1 H                                       1.0904434
    57   6 C       60   1 H                                       1.1006235
    57   6 C       61   1 H                                       1.0875939
    58   6 C       62   1 H                                       1.0901589
    58   6 C       63   1 H                                       1.1011250
    58   6 C       64   1 H                                       1.0855204

 * 4 distinct bonds (by element types)

   Z      Z             #   av. dist./Å        max./Å        min./Å
   1 H    6 C          33     1.0874719     1.1011250     1.0791157
   6 C    6 C          17     1.4483578     1.5451005     1.3670388
   6 C    7 N           7     1.4029738     1.4730268     1.2729079
   6 C    8 O           4     1.3834649     1.4323471     1.3340197

           -------------------------------------------------
          |               Frequency Printout                |
           -------------------------------------------------
 projected vibrational frequencies (cm⁻¹)
eigval :       -0.00    -0.00    -0.00     0.00     0.00     0.00
eigval :        9.06    25.36    30.57    36.43    40.62    43.76
eigval :       52.54    56.74    65.34    71.97    74.81    91.18
eigval :      100.33   109.72   126.09   145.67   152.73   153.57
eigval :      159.01   175.23   177.93   184.52   191.87   195.24
eigval :      197.23   201.70   220.52   223.91   235.55   253.21
eigval :      255.34   274.12   281.37   299.73   309.88   315.32
eigval :      318.13   329.34   333.92   355.74   360.24   373.87
eigval :      393.26   417.38   455.82   456.38   463.93   487.56
eigval :      501.06   531.11   537.81   546.12   587.56   610.53
eigval :      642.30   664.87   707.07   720.65   725.37   750.18
eigval :      753.00   759.56   782.48   799.25   824.40   842.33
eigval :      847.89   865.56   868.67   877.29   896.73   904.74
eigval :      913.41   924.00   925.65   950.66   952.17   956.50
eigval :      965.03   972.22   991.08   995.56  1000.54  1013.91
eigval :     1017.91  1027.71  1030.75  1041.61  1064.37  1068.12
eigval :     1076.82  1078.11  1078.26  1080.31  1102.08  1127.28
eigval :     1128.65  1144.95  1145.27  1146.48  1155.23  1159.94
eigval :     1162.57  1172.68  1173.44  1174.67  1177.80  1204.46
eigval :     1211.49  1215.93  1226.83  1248.22  1251.63  1259.48
eigval :     1261.96  1267.57  1281.26  1282.79  1303.42  1306.02
eigval :     1318.12  1360.68  1382.01  1387.74  1395.68  1404.21
eigval :     1404.99  1411.15  1412.13  1423.48  1444.91  1449.14
eigval :     1450.67  1461.34  1466.55  1469.49  1471.46  1474.87
eigval :     1479.90  1485.36  1486.26  1486.47  1491.77  1495.51
eigval :     1506.52  1509.84  1513.58  1520.56  1552.12  1587.62
eigval :     1603.80  1650.95  1672.21  2839.91  2849.13  2961.11
eigval :     2962.14  2972.60  2975.35  2980.16  2980.56  2988.21
eigval :     2991.36  2991.78  2998.99  3025.70  3028.75  3032.68
eigval :     3033.61  3040.11  3048.32  3049.66  3051.52  3053.03
eigval :     3055.20  3055.38  3055.72  3057.56  3061.57  3064.26
eigval :     3065.73  3076.24  3082.71  3083.42  3092.96  3096.22
 reduced masses (amu)
   1: 13.87   2: 19.18   3: 16.56   4: 14.28   5: 12.37   6: 20.17   7: 13.70   8: 19.13
   9: 16.21  10: 13.36  11: 25.58  12: 11.45  13: 19.03  14: 15.83  15: 12.66  16: 15.85
  17: 15.74  18: 23.13  19: 29.29  20: 23.78  21: 17.69  22: 26.54  23: 21.23  24: 13.24
  25: 21.76  26: 10.45  27: 11.44  28: 17.88  29: 16.86  30:  2.82  31: 18.89  32:  5.86
  33:  5.40  34:  2.03  35: 17.48  36:  8.76  37:  9.38  38:  6.90  39:  6.58  40: 10.52
  41:  7.12  42:  3.66  43:  9.49  44: 12.88  45:  9.42  46: 11.61  47:  8.69  48:  8.64
  49:  9.76  50:  9.63  51: 10.81  52:  8.77  53:  9.18  54:  9.61  55: 11.12  56: 10.23
  57: 10.21  58: 10.55  59: 11.14  60: 11.93  61: 10.18  62: 10.15  63: 11.54  64: 11.31
  65: 10.31  66: 12.36  67: 11.62  68:  3.64  69:  9.90  70:  9.83  71:  4.50  72:  2.90
  73:  2.89  74:  9.97  75:  3.54  76:  3.84  77:  5.73  78: 11.60  79:  4.22  80:  6.39
  81:  3.44  82:  4.80  83: 11.77  84:  7.01  85:  4.53  86:  9.78  87: 10.83  88: 10.25
  89:  5.67  90:  4.83  91:  5.33  92: 10.86  93:  9.91  94:  4.01  95: 11.06  96: 11.25
  97:  5.70  98:  5.88  99:  3.52 100:  6.68 101:  6.38 102:  5.39 103:  8.58 104:  3.35
 105:  5.42 106:  3.02 107:  5.81 108:  4.77 109:  8.54 110:  1.98 111:  2.22 112:  8.75
 113:  1.71 114:  7.45 115: 10.04 116:  5.37 117:  8.88 118:  7.16 119:  6.44 120:  6.93
 121:  7.96 122:  9.32 123:  5.14 124:  4.93 125:  8.88 126:  9.27 127:  7.24 128: 10.53
 129:  3.01 130:  3.46 131:  8.51 132: 10.26 133:  2.90 134:  2.88 135:  3.06 136:  2.73
 137:  9.86 138:  2.03 139:  1.96 140:  1.64 141:  1.66 142:  1.89 143:  1.93 144:  1.59
 145:  1.56 146:  6.33 147:  1.83 148:  5.42 149:  1.59 150:  1.73 151:  1.60 152:  1.61
 153:  1.59 154:  1.61 155: 11.52 156: 11.45 157: 11.42 158: 12.58 159: 12.59 160:  1.71
 161:  1.71 162:  1.99 163:  1.98 164:  2.03 165:  1.99 166:  1.49 167:  1.50 168:  1.48
 169:  1.52 170:  1.69 171:  1.67 172:  1.92 173:  1.85 174:  1.83 175:  1.78 176:  1.26
 177:  1.67 178:  1.71 179:  1.86 180:  1.80 181:  1.67 182:  1.77 183:  1.65 184:  1.96
 185:  1.31 186:  1.71 187:  1.78 188:  1.77 189:  1.85 190:  1.84 191:  1.89 192:  1.83
 IR intensities (km·mol⁻¹)
   1:  0.46   2:  0.09   3:  0.00   4:  0.49   5:  0.61   6:  0.09   7:  2.20   8:  0.60
   9:  2.03  10:  2.57  11: 14.43  12:  0.34  13:  4.29  14:  1.04  15:  1.98  16:  4.32
  17:  4.40  18:  3.15  19:  9.23  20:  7.81  21:  1.22  22:  6.41  23: 11.32  24:  3.17
  25:  1.84  26:  1.81  27:  5.16  28: 18.15  29: 13.08  30:  1.31  31: 11.51  32:  3.53
  33:  2.62  34:  0.78  35:  6.52  36:  4.52  37:  7.48  38:  0.98  39:  1.09  40:  2.60
  41:  1.62  42:  1.93  43: 11.54  44: 18.64  45:  0.71  46:  1.41  47:  1.49  48:  1.33
  49:  0.29  50:  8.82  51: 28.67  52:  1.62  53:  5.62  54:  1.57  55:  0.87  56:  6.12
  57:  0.82  58: 17.73  59:  2.65  60: 17.49  61:  2.17  62:  1.60  63: 16.98  64:  0.58
  65:  0.87  66: 22.44  67:  0.35  68: 11.96  69:  2.71  70:  1.97  71: 13.28  72:  0.99
  73:  0.22  74:  2.97  75:  7.70  76:  0.92  77: 10.43  78: 16.43  79:  1.74  80:  3.93
  81:  0.51  82:  1.79  83:  3.32  84:  2.37  85:  3.09  86: 46.96  87: 40.36  88:  5.82
  89: 22.11  90:  1.71  91: 27.64  92: 64.56  93: 26.88  94:  7.23  95: 83.43  96: 96.16
  97:  0.31  98:  0.43  99:  4.65 100:  4.14 101: 23.58 102: 10.81 103:174.29 104:  5.18
 105:  2.32 106: 29.85 107: 23.41 108: 25.27 109:140.95 110:  0.41 111:  1.30 112: 40.37
 113:  0.21 114: 23.26 115: 37.46 116:  4.84 117: 16.05 118: 92.78 119: 34.09 120: 27.72
 121: 21.81 122: 19.43 123:  5.60 124:  2.93 125:256.98 126:162.90 127:  0.48 128:  1.39
 129: 19.20 130:  2.36 131:  2.15 132:  1.48 133:  7.70 134:  8.08 135:  4.18 136:  0.68
 137:  0.43 138:  0.37 139:  0.45 140:  0.83 141:  1.53 142:  4.09 143:  7.16 144: 10.06
 145:  3.96 146:  4.03 147: 17.63 148:  1.60 149:  2.72 150:  1.89 151:  2.53 152:  2.16
 153:  5.23 154:  3.38 155:  5.95 156: 18.99 157:  0.50 158:  1.76 159:533.71 160: 78.09
 161:207.79 162:  1.38 163:  6.37 164: 31.96 165: 32.96 166: 16.64 167: 27.54 168: 16.69
 169: 18.06 170: 40.22 171:105.70 172: 20.03 173:115.24 174: 14.07 175: 85.66 176: 37.82
 177: 28.29 178:  4.51 179:  8.62 180: 53.56 181: 35.85 182: 28.79 183: 29.10 184: 22.15
 185:  9.14 186: 21.12 187: 43.90 188: 11.88 189:123.07 190: 46.48 191:126.51 192: 64.43
 Raman intensities (amu)
   1:  0.00   2:  0.00   3:  0.00   4:  0.00   5:  0.00   6:  0.00   7:  0.00   8:  0.00
   9:  0.00  10:  0.00  11:  0.00  12:  0.00  13:  0.00  14:  0.00  15:  0.00  16:  0.00
  17:  0.00  18:  0.00  19:  0.00  20:  0.00  21:  0.00  22:  0.00  23:  0.00  24:  0.00
Refinement of some symmetry elements was terminated before convergence was reached.
Some symmetry elements may remain unidentified.
Molecule has no symmetry elements
It seems to be the C1 point group
  25:  0.00  26:  0.00  27:  0.00  28:  0.00  29:  0.00  30:  0.00  31:  0.00  32:  0.00
  33:  0.00  34:  0.00  35:  0.00  36:  0.00  37:  0.00  38:  0.00  39:  0.00  40:  0.00
  41:  0.00  42:  0.00  43:  0.00  44:  0.00  45:  0.00  46:  0.00  47:  0.00  48:  0.00
  49:  0.00  50:  0.00  51:  0.00  52:  0.00  53:  0.00  54:  0.00  55:  0.00  56:  0.00
  57:  0.00  58:  0.00  59:  0.00  60:  0.00  61:  0.00  62:  0.00  63:  0.00  64:  0.00
  65:  0.00  66:  0.00  67:  0.00  68:  0.00  69:  0.00  70:  0.00  71:  0.00  72:  0.00
  73:  0.00  74:  0.00  75:  0.00  76:  0.00  77:  0.00  78:  0.00  79:  0.00  80:  0.00
  81:  0.00  82:  0.00  83:  0.00  84:  0.00  85:  0.00  86:  0.00  87:  0.00  88:  0.00
  89:  0.00  90:  0.00  91:  0.00  92:  0.00  93:  0.00  94:  0.00  95:  0.00  96:  0.00
  97:  0.00  98:  0.00  99:  0.00 100:  0.00 101:  0.00 102:  0.00 103:  0.00 104:  0.00
 105:  0.00 106:  0.00 107:  0.00 108:  0.00 109:  0.00 110:  0.00 111:  0.00 112:  0.00
 113:  0.00 114:  0.00 115:  0.00 116:  0.00 117:  0.00 118:  0.00 119:  0.00 120:  0.00
 121:  0.00 122:  0.00 123:  0.00 124:  0.00 125:  0.00 126:  0.00 127:  0.00 128:  0.00
 129:  0.00 130:  0.00 131:  0.00 132:  0.00 133:  0.00 134:  0.00 135:  0.00 136:  0.00
 137:  0.00 138:  0.00 139:  0.00 140:  0.00 141:  0.00 142:  0.00 143:  0.00 144:  0.00
 145:  0.00 146:  0.00 147:  0.00 148:  0.00 149:  0.00 150:  0.00 151:  0.00 152:  0.00
 153:  0.00 154:  0.00 155:  0.00 156:  0.00 157:  0.00 158:  0.00 159:  0.00 160:  0.00
 161:  0.00 162:  0.00 163:  0.00 164:  0.00 165:  0.00 166:  0.00 167:  0.00 168:  0.00
 169:  0.00 170:  0.00 171:  0.00 172:  0.00 173:  0.00 174:  0.00 175:  0.00 176:  0.00
 177:  0.00 178:  0.00 179:  0.00 180:  0.00 181:  0.00 182:  0.00 183:  0.00 184:  0.00
 185:  0.00 186:  0.00 187:  0.00 188:  0.00 189:  0.00 190:  0.00 191:  0.00 192:  0.00
 output can be read by thermo (or use thermo option).
 writing <g98.out> molden fake output.
 recommended (thermochemical) frequency scaling factor: 1.0
           -------------------------------------------------
          |             Thermodynamic Functions             |
           -------------------------------------------------

c1  symmetry found (for desy threshold:  0.10E+00) used in thermo

          ...................................................
          :                      SETUP                      :
          :.................................................:
          :  # frequencies                         186      :
          :  # imaginary freq.                       0      :
          :  linear?                             false      :
          :  only rotor calc.                    false      :
          :  symmetry                               c1      :
          :  rotational number                       1      :
          :  scaling factor                  1.0000000      :
          :  rotor cutoff                   50.0000000 cm⁻¹ :
          :  imag. cutoff                  -20.0000000 cm⁻¹ :
          :.................................................:

    mode    ω/cm⁻¹     T·S(HO)/kcal·mol⁻¹    T·S(FR)/kcal·mol⁻¹   T·S(vib)
   ------------------------------------------------------------------------
       1      9.06    -2.44667 (  0.11%)    -1.56230 ( 99.89%)    -1.56325
       2     25.36    -1.83751 (  6.20%)    -1.25764 ( 93.80%)    -1.29362
       3     30.57    -1.72695 ( 12.26%)    -1.20228 ( 87.74%)    -1.26659
       4     36.43    -1.62325 ( 21.98%)    -1.15033 ( 78.02%)    -1.25429
       5     40.62    -1.55893 ( 30.34%)    -1.11808 ( 69.66%)    -1.25183
       6     43.76    -1.51493 ( 36.98%)    -1.09600 ( 63.02%)    -1.25092
       7     52.54    -1.40709 ( 54.94%)    -1.04185 ( 45.06%)    -1.24251
       8     56.74    -1.36180 ( 62.38%)    -1.01907 ( 37.62%)    -1.23287
       9     65.34    -1.27882 ( 74.46%)    -0.97728 ( 25.54%)    -1.20181
      10     71.97    -1.22207 ( 81.10%)    -0.94865 ( 18.90%)    -1.17040
      11     74.81    -1.19934 ( 83.36%)    -0.93717 ( 16.64%)    -1.15573
      12     91.18    -1.08366 ( 91.71%)    -0.87855 (  8.29%)    -1.06665
      13    100.33    -1.02797 ( 94.19%)    -0.85021 (  5.81%)    -1.01764
      14    109.72    -0.97609 ( 95.87%)    -0.82372 (  4.13%)    -0.96979
      15    126.09    -0.89587 ( 97.59%)    -0.78252 (  2.41%)    -0.89314
      16    145.67    -0.81335 ( 98.63%)    -0.73976 (  1.37%)    -0.81234
      17    152.73    -0.78649 ( 98.86%)    -0.72574 (  1.14%)    -0.78580
      18    153.57    -0.78339 ( 98.89%)    -0.72412 (  1.11%)    -0.78273
      19    159.01    -0.76372 ( 99.03%)    -0.71381 (  0.97%)    -0.76324
      20    175.23    -0.70920 ( 99.34%)    -0.68504 (  0.66%)    -0.70904
      21    177.93    -0.70066 ( 99.38%)    -0.68050 (  0.62%)    -0.70053
      22    184.52    -0.68044 ( 99.46%)    -0.66973 (  0.54%)    -0.68038
      23    191.87    -0.65881 ( 99.54%)    -0.65816 (  0.46%)    -0.65881
      24    195.24    -0.64921 ( 99.57%)    -0.65299 (  0.43%)    -0.64922
      25    197.23    -0.64364 ( 99.59%)    -0.65000 (  0.41%)    -0.64366
      26    201.70    -0.63133 ( 99.62%)    -0.64335 (  0.38%)    -0.63137
      27    220.52    -0.58284 ( 99.74%)    -0.61694 (  0.26%)    -0.58293
      28    223.91    -0.57462 ( 99.75%)    -0.61242 (  0.25%)    -0.57471
      29    235.55    -0.54748 ( 99.80%)    -0.59740 (  0.20%)    -0.54758
      30    253.21    -0.50929 ( 99.85%)    -0.57599 (  0.15%)    -0.50939
      31    255.34    -0.50489 ( 99.85%)    -0.57350 (  0.15%)    -0.50499
      32    274.12    -0.46812 ( 99.89%)    -0.55247 (  0.11%)    -0.46821
      33    281.37    -0.45477 ( 99.90%)    -0.54474 (  0.10%)    -0.45486
      34    299.73    -0.42289 ( 99.92%)    -0.52602 (  0.08%)    -0.42297
   ------------------------------------------------------------------------

   temp. (K)  partition function   enthalpy   heat capacity  entropy
                                   cal/mol     cal/K/mol   cal/K/mol   J/K/mol
 298.15  VIB  0.263E+16            19658.318    113.938    125.322
         ROT  0.193E+08              888.752      2.981     36.322
         INT  0.509E+23            20547.070    116.919    161.644
         TR   0.106E+29             1481.254      4.968     44.462
         TOT                       22028.3238   121.8874   206.1066   862.3498

       T/K    H(0)-H(T)+PV         H(T)/Eh          T*S/Eh         G(T)/Eh
   ------------------------------------------------------------------------
    298.15    0.351044E-01    0.558126E+00    0.979279E-01    0.460198E+00
   ------------------------------------------------------------------------

         :::::::::::::::::::::::::::::::::::::::::::::::::::::
         ::                  THERMODYNAMIC                  ::
         :::::::::::::::::::::::::::::::::::::::::::::::::::::
         :: total free energy         -93.250157363204 Eh   ::
         ::.................................................::
         :: total energy              -93.710355339972 Eh   ::
         :: zero point energy           0.523021484799 Eh   ::
         :: G(RRHO) w/o ZPVE           -0.062823508031 Eh   ::
         :: G(RRHO) contrib.            0.460197976768 Eh   ::
         :::::::::::::::::::::::::::::::::::::::::::::::::::::

optimized geometry written to: xtbopt.xyz


           -------------------------------------------------
          | TOTAL ENERGY              -93.710355339972 Eh   |
          | TOTAL ENTHALPY            -93.152229486741 Eh   |
          | TOTAL FREE ENERGY         -93.250157363204 Eh   |
          | GRADIENT NORM               0.000245791981 Eh/α |
          | HOMO-LUMO GAP               2.160139938446 eV   |
           -------------------------------------------------

------------------------------------------------------------------------
 * finished run on 2024/03/18 at 20:06:47.490     
------------------------------------------------------------------------
 total:
 * wall-time:     0 d,  0 h,  0 min,  6.435 sec
 *  cpu-time:     0 d,  0 h,  2 min, 55.669 sec
 * ratio c/w:    27.298 speedup
 SCF:
 * wall-time:     0 d,  0 h,  0 min,  0.022 sec
 *  cpu-time:     0 d,  0 h,  0 min,  0.601 sec
 * ratio c/w:    26.722 speedup
 ANC optimizer:
 * wall-time:     0 d,  0 h,  0 min,  4.903 sec
 *  cpu-time:     0 d,  0 h,  2 min, 16.291 sec
 * ratio c/w:    27.795 speedup
 analytical hessian:
 * wall-time:     0 d,  0 h,  0 min,  1.459 sec
 *  cpu-time:     0 d,  0 h,  0 min, 37.751 sec
 * ratio c/w:    25.871 speedup

