      -----------------------------------------------------------      
     |                   =====================                   |     
     |                           x T B                           |     
     |                   =====================                   |     
     |                         S. Grimme                         |     
     |          Mulliken Center for Theoretical Chemistry        |     
     |                    University of Bonn                     |     
      -----------------------------------------------------------      

   * xtb version 6.6.1 (8d0f1dd) compiled by 'conda@1efc2f54142f' on 2023-08-01

   xtb is free software: you can redistribute it and/or modify it under
   the terms of the GNU Lesser General Public License as published by
   the Free Software Foundation, either version 3 of the License, or
   (at your option) any later version.
   
   xtb is distributed in the hope that it will be useful,
   but WITHOUT ANY WARRANTY; without even the implied warranty of
   MERCHANTABILITY or FITNESS FOR A PARTICULAR PURPOSE.  See the
   GNU Lesser General Public License for more details.
   
   Cite this work as:
   * C. Bannwarth, E. Caldeweyher, S. Ehlert, A. Hansen, P. Pracht,
     J. Seibert, S. Spicher, S. Grimme, WIREs Comput. Mol. Sci., 2020, 11,
     e01493. DOI: 10.1002/wcms.1493
   
   for GFN2-xTB:
   * C. Bannwarth, S. Ehlert and S. Grimme., J. Chem. Theory Comput., 2019,
     15, 1652-1671. DOI: 10.1021/acs.jctc.8b01176
   for GFN1-xTB:
   * S. Grimme, C. Bannwarth, P. Shushkov, J. Chem. Theory Comput., 2017,
     13, 1989-2009. DOI: 10.1021/acs.jctc.7b00118
   for GFN0-xTB:
   * P. Pracht, E. Caldeweyher, S. Ehlert, S. Grimme, ChemRxiv, 2019, preprint.
     DOI: 10.26434/chemrxiv.8326202.v1
   for GFN-FF:
   * S. Spicher and S. Grimme, Angew. Chem. Int. Ed., 2020, 59, 15665-15673.
     DOI: 10.1002/anie.202004239
   
   for ALPB and GBSA implicit solvation:
   * S. Ehlert, M. Stahn, S. Spicher, S. Grimme, J. Chem. Theory Comput.,
     2021, 17, 4250-4261. DOI: 10.1021/acs.jctc.1c00471
   
   for DFT-D4:
   * E. Caldeweyher, C. Bannwarth and S. Grimme, J. Chem. Phys., 2017,
     147, 034112. DOI: 10.1063/1.4993215
   * E. Caldeweyher, S. Ehlert, A. Hansen, H. Neugebauer, S. Spicher,
     C. Bannwarth and S. Grimme, J. Chem. Phys., 2019, 150, 154122.
     DOI: 10.1063/1.5090222
   * E. Caldeweyher, J.-M. Mewes, S. Ehlert and S. Grimme, Phys. Chem. Chem. Phys.
     2020, 22, 8499-8512. DOI: 10.1039/D0CP00502A
   
   for sTDA-xTB:
   * S. Grimme and C. Bannwarth, J. Chem. Phys., 2016, 145, 054103.
     DOI: 10.1063/1.4959605
   
   in the mass-spec context:
   * V. Asgeirsson, C. Bauer and S. Grimme, Chem. Sci., 2017, 8, 4879.
     DOI: 10.1039/c7sc00601b
   * J. Koopman and S. Grimme, ACS Omega 2019, 4, 12, 15120-15133.
     DOI: 10.1021/acsomega.9b02011
   
   for metadynamics refer to:
   * S. Grimme, J. Chem. Theory Comput., 2019, 155, 2847-2862
     DOI: 10.1021/acs.jctc.9b00143
   
   for SPH calculations refer to:
   * S. Spicher and S. Grimme, J. Chem. Theory Comput., 2021, 17, 1701-1714
     DOI: 10.1021/acs.jctc.0c01306
   
   with help from (in alphabetical order)
   P. Atkinson, C. Bannwarth, F. Bohle, G. Brandenburg, E. Caldeweyher
   M. Checinski, S. Dohm, S. Ehlert, S. Ehrlich, I. Gerasimov, C. Hölzer
   A. Katbashev, J. Koopman, C. Lavigne, S. Lehtola, F. März, M. Müller,
   F. Musil, H. Neugebauer, J. Pisarek, C. Plett, P. Pracht, F. Pultar,
   J. Seibert, P. Shushkov, S. Spicher, M. Stahn, M. Steiner, T. Strunk,
   J. Stückrath, T. Rose, and J. Unsleber
   
 * started run on 2024/03/12 at 20:08:08.070     

           -------------------------------------------------
          |                Calculation Setup                |
           -------------------------------------------------

          program call               : xtb test.xyz --ohess --opt --charge 1
          coordinate file            : test.xyz
          omp threads                :                    28

   ID    Z sym.   atoms
    1    6 C      1, 3-6
    2    7 N      2, 7
    3    8 O      8, 9
    4    1 H      10-14

           -------------------------------------------------
          |                 G F N 2 - x T B                 |
           -------------------------------------------------

        Reference                      10.1021/acs.jctc.8b01176
      * Hamiltonian:
        H0-scaling (s, p, d)           1.850000    2.230000    2.230000
        zeta-weighting                 0.500000
      * Dispersion:
        s8                             2.700000
        a1                             0.520000
        a2                             5.000000
        s9                             5.000000
      * Repulsion:
        kExp                           1.500000    1.000000
        rExp                           1.000000
      * Coulomb:
        alpha                          2.000000
        third order                    shell-resolved
        anisotropic                    true
        a3                             3.000000
        a5                             4.000000
        cn-shift                       1.200000
        cn-exp                         4.000000
        max-rad                        5.000000

q/qsh data taken from xtbrestart
CAMM data taken from xtbrestart

          ...................................................
          :                      SETUP                      :
          :.................................................:
          :  # basis functions                  41          :
          :  # atomic orbitals                  41          :
          :  # shells                           23          :
          :  # electrons                        46          :
          :  max. iterations                   250          :
          :  Hamiltonian                  GFN2-xTB          :
          :  restarted?                       true          :
          :  GBSA solvation                  false          :
          :  PC potential                    false          :
          :  electronic temp.          300.0000000     K    :
          :  accuracy                    1.0000000          :
          :  -> integral cutoff          0.2500000E+02      :
          :  -> integral neglect         0.1000000E-07      :
          :  -> SCF convergence          0.1000000E-05 Eh   :
          :  -> wf. convergence          0.1000000E-03 e    :
          :  Broyden damping             0.4000000          :
          ...................................................

 iter      E             dE          RMSdq      gap      omega  full diag
   1    -26.7665102 -0.267665E+02  0.172E+00    0.34       0.0  T
   2    -26.6445100  0.122000E+00  0.267E+00    0.82       1.0  T
   3    -26.7959305 -0.151421E+00  0.902E-01    0.16       1.0  T
   4    -26.7965479 -0.617402E-03  0.716E-01    0.41       1.0  T
   5    -26.7238939  0.726540E-01  0.178E+00    0.25       1.0  T
   6    -26.8008103 -0.769164E-01  0.323E-01    0.32       1.0  T
   7    -26.7990565  0.175381E-02  0.385E-01    0.31       1.0  T
   8    -26.8006069 -0.155044E-02  0.269E-01    0.30       1.0  T
   9    -26.8019160 -0.130902E-02  0.117E-01    0.29       1.0  T
  10    -26.8020103 -0.943086E-04  0.931E-02    0.29       1.0  T
  11    -26.8021904 -0.180170E-03  0.140E-02    0.28       1.9  T
  12    -26.8021851  0.531586E-05  0.207E-02    0.28       1.3  T
  13    -26.8021931 -0.795928E-05  0.869E-03    0.28       3.1  T
  14    -26.8021943 -0.125752E-05  0.440E-03    0.28       6.1  T
  15    -26.8021947 -0.377531E-06  0.165E-03    0.28      16.2  T
  16    -26.8021948 -0.602217E-07  0.357E-05    0.28     749.5  T
  17    -26.8021948  0.975753E-10  0.729E-05    0.28     366.5  T

   *** convergence criteria satisfied after 17 iterations ***

         #    Occupation            Energy/Eh            Energy/eV
      -------------------------------------------------------------
         1        2.0000           -0.9762601             -26.5654
       ...           ...                  ...                  ...
        17        2.0000           -0.6978347             -18.9890
        18        2.0000           -0.6750390             -18.3687
        19        2.0000           -0.6706004             -18.2480
        20        2.0000           -0.6592509             -17.9391
        21        2.0000           -0.6476705             -17.6240
        22        2.0000           -0.6450490             -17.5527
        23        1.9917           -0.6400911             -17.4178 (HOMO)
        24        0.0084           -0.6296927             -17.1348 (LUMO)
        25                         -0.5211181             -14.1803
        26                         -0.4540515             -12.3554
        27                         -0.3947037             -10.7404
        28                         -0.2479915              -6.7482
       ...                                ...                  ...
        41                          0.3814414              10.3795
      -------------------------------------------------------------
                  HL-Gap            0.0103983 Eh            0.2830 eV
             Fermi-level           -0.6348891 Eh          -17.2762 eV

 SCC (total)                   0 d,  0 h,  0 min,  0.014 sec
 SCC setup                      ...        0 min,  0.000 sec (  0.400%)
 Dispersion                     ...        0 min,  0.003 sec ( 23.416%)
 classical contributions        ...        0 min,  0.000 sec (  3.045%)
 integral evaluation            ...        0 min,  0.001 sec (  4.367%)
 iterations                     ...        0 min,  0.008 sec ( 57.788%)
 molecular gradient             ...        0 min,  0.001 sec (  9.343%)
 printout                       ...        0 min,  0.000 sec (  1.525%)

         :::::::::::::::::::::::::::::::::::::::::::::::::::::
         ::                     SUMMARY                     ::
         :::::::::::::::::::::::::::::::::::::::::::::::::::::
         :: total energy             -26.517918329332 Eh    ::
         :: gradient norm              0.142176654779 Eh/a0 ::
         :: HOMO-LUMO gap              0.282953308592 eV    ::
         ::.................................................::
         :: SCC energy               -26.802194786802 Eh    ::
         :: -> isotropic ES            0.140251374317 Eh    ::
         :: -> anisotropic ES         -0.000382377135 Eh    ::
         :: -> anisotropic XC          0.007300957132 Eh    ::
         :: -> dispersion             -0.009430105260 Eh    ::
         :: repulsion energy           0.284273813348 Eh    ::
         :: add. restraining           0.000000000000 Eh    ::
         :: total charge               1.000000000137 e     ::
         :::::::::::::::::::::::::::::::::::::::::::::::::::::

      ----------------------------------------------------------- 
     |                   =====================                   |
     |                        A N C O P T                        |
     |                   =====================                   |
     |               Approximate Normal Coordinate               |
     |                Rational Function Optimizer                |
      ----------------------------------------------------------- 

          ...................................................
          :                      SETUP                      :
          :.................................................:
          :   optimization level            normal          :
          :   max. optcycles                   200          :
          :   ANC micro-cycles                  20          :
          :   degrees of freedom                36          :
          :.................................................:
          :   RF solver                   davidson          :
          :   write xtbopt.log                true          :
          :   linear?                        false          :
          :   energy convergence         0.5000000E-05 Eh   :
          :   grad. convergence          0.1000000E-02 Eh/α :
          :   maxmium RF displ.          1.0000000          :
          :   Hlow (freq-cutoff)         0.1000000E-01      :
          :   Hmax (freq-cutoff)         5.0000000          :
          :   S6 in model hess.         20.0000000          :
          ...................................................

generating ANC from model Hessian ...
Using Lindh-Hessian (1995)
 Shifting diagonal of input Hessian by    5.0821872007085524E-003
 Lowest  eigenvalues of input Hessian
    0.000000    0.000000    0.000000    0.000000    0.000000    0.000000
    0.010000    0.014607    0.021065    0.021765    0.026149    0.040937
    0.047057    0.059389    0.064387    0.085654    0.094458    0.097648
 Highest eigenvalues
    1.582575    1.782788    1.896920    1.942388    2.180490    2.551735


........................................................................
.............................. CYCLE    1 ..............................
........................................................................

 iter      E             dE          RMSdq      gap      omega  full diag
   1    -26.8021948 -0.268022E+02  0.125E-05    0.28       0.0  T
   2    -26.8021948  0.651958E-10  0.525E-05    0.28     509.5  T
   3    -26.8021948 -0.605489E-10  0.180E-05    0.28    1481.3  T
     SCC iter.                  ...        0 min,  0.001 sec
     gradient                   ...        0 min,  0.001 sec
 * total energy  :   -26.5179183 Eh     change       -0.1011777E-09 Eh
   gradient norm :     0.1421772 Eh/α   predicted     0.0000000E+00 (-100.00%)
   displ. norm   :     0.2461704 α      lambda       -0.2464926E-01
   maximum displ.:     0.1278386 α      in ANC's #17, #21, #23, ...

........................................................................
.............................. CYCLE    2 ..............................
........................................................................

 iter      E             dE          RMSdq      gap      omega  full diag
   1    -26.8362252 -0.268362E+02  0.620E-01    0.75       0.0  T
   2    -26.8177517  0.184735E-01  0.985E-01    0.68       1.0  T
   3    -26.8314728 -0.137210E-01  0.574E-01    0.86       1.0  T
   4    -26.8373459 -0.587309E-02  0.188E-01    0.75       1.0  T
   5    -26.8376374 -0.291534E-03  0.610E-02    0.78       1.0  T
   6    -26.8376797 -0.423504E-04  0.231E-02    0.78       1.2  T
   7    -26.8376870 -0.725940E-05  0.885E-03    0.78       3.0  T
   8    -26.8376870 -0.364645E-07  0.499E-03    0.78       5.4  T
   9    -26.8376873 -0.255524E-06  0.162E-03    0.78      16.5  T
  10    -26.8376873 -0.372090E-07  0.702E-04    0.78      38.1  T
  11    -26.8376873 -0.682275E-08  0.207E-04    0.78     129.2  T
     SCC iter.                  ...        0 min,  0.003 sec
     gradient                   ...        0 min,  0.001 sec
 * total energy  :   -26.5363771 Eh     change       -0.1845874E-01 Eh
   gradient norm :     0.0822318 Eh/α   predicted    -0.1307150E-01 ( -29.19%)
   displ. norm   :     0.2386173 α      lambda       -0.1318803E-01
   maximum displ.:     0.1091572 α      in ANC's #17, #21, #6, ...

........................................................................
.............................. CYCLE    3 ..............................
........................................................................

 iter      E             dE          RMSdq      gap      omega  full diag
   1    -26.8611029 -0.268611E+02  0.581E-01    1.25       0.0  T
   2    -26.8571498  0.395310E-02  0.598E-01    1.17       1.0  T
   3    -26.8588091 -0.165934E-02  0.444E-01    1.31       1.0  T
   4    -26.8616296 -0.282050E-02  0.214E-01    1.19       1.0  T
   5    -26.8622857 -0.656042E-03  0.373E-02    1.25       1.0  T
   6    -26.8622995 -0.137722E-04  0.170E-02    1.25       1.6  T
   7    -26.8623024 -0.294193E-05  0.737E-03    1.25       3.6  T
   8    -26.8623028 -0.375101E-06  0.249E-03    1.25      10.7  T
   9    -26.8623028 -0.173295E-07  0.656E-04    1.25      40.8  T
  10    -26.8623028 -0.576555E-08  0.243E-04    1.25     110.1  T
     SCC iter.                  ...        0 min,  0.002 sec
     gradient                   ...        0 min,  0.001 sec
 * total energy  :   -26.5439021 Eh     change       -0.7525031E-02 Eh
   gradient norm :     0.0307353 Eh/α   predicted    -0.6969469E-02 (  -7.38%)
   displ. norm   :     0.0897855 α      lambda       -0.1151790E-02
   maximum displ.:     0.0627639 α      in ANC's #6, #8, #11, ...

........................................................................
.............................. CYCLE    4 ..............................
........................................................................

 iter      E             dE          RMSdq      gap      omega  full diag
   1    -26.8625978 -0.268626E+02  0.140E-01    1.36       0.0  T
   2    -26.8622432  0.354600E-03  0.164E-01    1.32       1.0  T
   3    -26.8625775 -0.334290E-03  0.873E-02    1.37       1.0  T
   4    -26.8626475 -0.700395E-04  0.448E-02    1.34       1.0  T
   5    -26.8626794 -0.319196E-04  0.678E-03    1.35       3.9  T
   6    -26.8626800 -0.567773E-06  0.281E-03    1.35       9.5  T
   7    -26.8626800 -0.398759E-07  0.153E-03    1.35      17.5  T
   8    -26.8626801 -0.201687E-07  0.320E-04    1.35      83.5  T
   9    -26.8626801 -0.126960E-08  0.120E-04    1.35     222.0  T
     SCC iter.                  ...        0 min,  0.002 sec
     gradient                   ...        0 min,  0.001 sec
 * total energy  :   -26.5446846 Eh     change       -0.7825206E-03 Eh
   gradient norm :     0.0165967 Eh/α   predicted    -0.5805378E-03 ( -25.81%)
   displ. norm   :     0.0888917 α      lambda       -0.6037250E-03
   maximum displ.:     0.0533610 α      in ANC's #6, #7, #11, ...

........................................................................
.............................. CYCLE    5 ..............................
........................................................................

 iter      E             dE          RMSdq      gap      omega  full diag
   1    -26.8620218 -0.268620E+02  0.117E-01    1.42       0.0  T
   2    -26.8619125  0.109293E-03  0.103E-01    1.38       1.0  T
   3    -26.8619134 -0.946752E-06  0.928E-02    1.43       1.0  T
   4    -26.8620549 -0.141517E-03  0.239E-02    1.40       1.1  T
   5    -26.8620618 -0.686242E-05  0.771E-03    1.41       3.5  T
   6    -26.8620626 -0.826465E-06  0.181E-03    1.41      14.8  T
   7    -26.8620626 -0.994909E-08  0.893E-04    1.41      29.9  T
   8    -26.8620626 -0.128209E-08  0.278E-04    1.41      96.2  T
     SCC iter.                  ...        0 min,  0.002 sec
     gradient                   ...        0 min,  0.001 sec
 * total energy  :   -26.5448561 Eh     change       -0.1714837E-03 Eh
   gradient norm :     0.0094019 Eh/α   predicted    -0.3042458E-03 (  77.42%)
   displ. norm   :     0.0601286 α      lambda       -0.3677719E-03
   maximum displ.:     0.0319612 α      in ANC's #7, #1, #12, ...

........................................................................
.............................. CYCLE    6 ..............................
........................................................................

 iter      E             dE          RMSdq      gap      omega  full diag
   1    -26.8622382 -0.268622E+02  0.644E-02    1.42       0.0  T
   2    -26.8622440 -0.574523E-05  0.367E-02    1.41       1.0  T
   3    -26.8622440 -0.876657E-08  0.188E-02    1.42       1.4  T
   4    -26.8622452 -0.124360E-05  0.464E-03    1.42       5.8  T
   5    -26.8622451  0.161770E-06  0.441E-03    1.42       6.1  T
   6    -26.8622455 -0.415223E-06  0.159E-03    1.42      16.8  T
   7    -26.8622455 -0.233363E-07  0.599E-04    1.42      44.6  T
   8    -26.8622455 -0.269353E-08  0.136E-04    1.42     196.5  T
     SCC iter.                  ...        0 min,  0.002 sec
     gradient                   ...        0 min,  0.000 sec
 * total energy  :   -26.5449580 Eh     change       -0.1019055E-03 Eh
   gradient norm :     0.0065244 Eh/α   predicted    -0.1845521E-03 (  81.10%)
   displ. norm   :     0.0245472 α      lambda       -0.8049842E-04
   maximum displ.:     0.0147441 α      in ANC's #6, #7, #12, ...

........................................................................
.............................. CYCLE    7 ..............................
........................................................................

 iter      E             dE          RMSdq      gap      omega  full diag
   1    -26.8624467 -0.268624E+02  0.311E-02    1.40       0.0  T
   2    -26.8624403  0.632988E-05  0.266E-02    1.41       1.0  T
   3    -26.8624392  0.109820E-05  0.241E-02    1.40       1.1  T
   4    -26.8624487 -0.951142E-05  0.800E-03    1.40       3.3  T
   5    -26.8624497 -0.914239E-06  0.229E-03    1.40      11.6  T
   6    -26.8624497 -0.700593E-07  0.512E-04    1.40      52.2  T
   7    -26.8624497 -0.325809E-09  0.298E-04    1.40      89.6  T
     SCC iter.                  ...        0 min,  0.002 sec
     gradient                   ...        0 min,  0.000 sec
 * total energy  :   -26.5450019 Eh     change       -0.4387079E-04 Eh
   gradient norm :     0.0022288 Eh/α   predicted    -0.4027264E-04 (  -8.20%)
   displ. norm   :     0.0104579 α      lambda       -0.6681640E-05
   maximum displ.:     0.0082032 α      in ANC's #2, #1, #5, ...

........................................................................
.............................. CYCLE    8 ..............................
........................................................................

 iter      E             dE          RMSdq      gap      omega  full diag
   1    -26.8624602 -0.268625E+02  0.830E-03    1.40       0.0  T
   2    -26.8624601  0.120066E-06  0.584E-03    1.40       4.6  T
   3    -26.8624597  0.444251E-06  0.634E-03    1.40       4.2  T
   4    -26.8624602 -0.587477E-06  0.301E-03    1.40       8.9  T
   5    -26.8624604 -0.168904E-06  0.265E-04    1.40     100.8  T
   6    -26.8624604 -0.353456E-09  0.148E-04    1.40     181.0  T
     SCC iter.                  ...        0 min,  0.001 sec
     gradient                   ...        0 min,  0.001 sec
 * total energy  :   -26.5450072 Eh     change       -0.5266926E-05 Eh
   gradient norm :     0.0013420 Eh/α   predicted    -0.3341342E-05 ( -36.56%)
   displ. norm   :     0.0388039 α      lambda       -0.8173739E-05
   maximum displ.:     0.0326878 α      in ANC's #2, #1, #5, ...

........................................................................
.............................. CYCLE    9 ..............................
........................................................................

 iter      E             dE          RMSdq      gap      omega  full diag
   1    -26.8625251 -0.268625E+02  0.234E-02    1.40       0.0  T
   2    -26.8625217  0.339925E-05  0.200E-02    1.41       1.3  T
   3    -26.8625214  0.337048E-06  0.177E-02    1.40       1.5  T
   4    -26.8625262 -0.479892E-05  0.683E-03    1.41       3.9  T
   5    -26.8625270 -0.804158E-06  0.682E-04    1.40      39.2  T
   6    -26.8625270 -0.816012E-09  0.426E-04    1.41      62.7  T
     SCC iter.                  ...        0 min,  0.002 sec
     gradient                   ...        0 min,  0.001 sec
 * total energy  :   -26.5450122 Eh     change       -0.5045429E-05 Eh
   gradient norm :     0.0011646 Eh/α   predicted    -0.4089290E-05 ( -18.95%)
   displ. norm   :     0.0116143 α      lambda       -0.1979168E-05
   maximum displ.:     0.0105385 α      in ANC's #2, #5, #1, ...

........................................................................
.............................. CYCLE   10 ..............................
........................................................................

 iter      E             dE          RMSdq      gap      omega  full diag
   1    -26.8625339 -0.268625E+02  0.509E-03    1.40       0.0  T
   2    -26.8625337  0.168385E-06  0.403E-03    1.41       6.6  T
   3    -26.8625336  0.150242E-06  0.468E-03    1.40       5.7  T
   4    -26.8625339 -0.391143E-06  0.108E-03    1.41      24.7  T
   5    -26.8625340 -0.656412E-08  0.180E-04    1.41     148.2  T
   6    -26.8625340 -0.128608E-09  0.773E-05    1.41     345.6  T
     SCC iter.                  ...        0 min,  0.002 sec
     gradient                   ...        0 min,  0.001 sec
 * total energy  :   -26.5450148 Eh     change       -0.2628735E-05 Eh
   gradient norm :     0.0007631 Eh/α   predicted    -0.9883845E-06 ( -62.40%)
   displ. norm   :     0.0401619 α      lambda       -0.4753174E-05
   maximum displ.:     0.0349502 α      in ANC's #2, #5, #1, ...

   *** GEOMETRY OPTIMIZATION CONVERGED AFTER 10 ITERATIONS ***

------------------------------------------------------------------------
 total energy gain   :        -0.0270965 Eh      -17.0033 kcal/mol
 total RMSD          :         0.1537423 a0        0.0814 Å
 total power (kW/mol):        -7.1141842 (step)-2144.2558 (real)
------------------------------------------------------------------------

 ANCopt (total)                0 d,  0 h,  0 min,  0.033 sec
 optimizer setup                ...        0 min,  0.000 sec (  0.264%)
 model hessian                  ...        0 min,  0.001 sec (  2.907%)
 ANC generation                 ...        0 min,  0.000 sec (  0.550%)
 coordinate transformation      ...        0 min,  0.000 sec (  0.060%)
 single point calculation       ...        0 min,  0.030 sec ( 90.182%)
 optimization log               ...        0 min,  0.001 sec (  2.919%)
 hessian update                 ...        0 min,  0.000 sec (  0.579%)
 rational function              ...        0 min,  0.001 sec (  1.570%)

================
 final structure:
================
14
 xtb: 6.6.1 (8d0f1dd)
C           -3.10606236117921       -0.60523257980555        0.01457308946387
N           -1.76424014608694       -0.09370960440360       -0.00394709154540
C           -1.31409071762197        1.15072924140920        0.01583987982118
C           -0.05354220587780        1.52911133256596        0.00198419416163
C            0.43839159502827        0.17382488138727       -0.00351037090996
C           -0.59021156663719       -0.76844623702735       -0.00733150943758
N            1.86077303553569       -0.18922986302715       -0.00428854342720
O            2.67012233579356        0.67134912634801        0.00995157902667
O            1.97242123048404       -1.38213993789621       -0.02283639193830
H           -3.53832267816559       -0.50842891112193        1.01326010663760
H           -3.73050343713738       -0.05741192501173       -0.69192811848173
H           -3.08936313266909       -1.65773399943400       -0.26236088236293
H            0.49709046765690        2.44640637879757        0.00708996033324
H           -0.50974241912329       -1.84188790278049       -0.01167590134109

 Bond Distances (Angstroems)
 ---------------------------
C1-N2=1.4361         C1-H10=1.0925        C1-H11=1.0905        C1-H12=1.0885        N2-C1=1.4361         N2-C3=1.3235         
N2-C6=1.3541         C3-N2=1.3235         C3-C4=1.3162         C4-C3=1.3162         C4-C5=1.4418         C4-H13=1.0699        
C5-C4=1.4418         C5-C6=1.3950         C5-N7=1.4680         C6-N2=1.3541         C6-C5=1.3950         C6-H14=1.0765        
N7-C5=1.4680         N7-O8=1.1815         N7-O9=1.1983         O8-N7=1.1815         O9-N7=1.1983         H10-C1=1.0925        
H11-C1=1.0905        H12-C1=1.0885        H13-C4=1.0699        H14-C6=1.0765        
 C  H  Rav=1.0836 sigma=0.0088  Rmin=1.0699  Rmax=1.0925     5
 C  C  Rav=1.3843 sigma=0.0518  Rmin=1.3162  Rmax=1.4418     3
 N  C  Rav=1.3954 sigma=0.0587  Rmin=1.3235  Rmax=1.4680     4
 O  N  Rav=1.1899 sigma=0.0084  Rmin=1.1815  Rmax=1.1983     2

 selected bond angles (degree)
 --------------------
H10-C1-N2=110.48               H11-C1-N2=110.35               H11-C1-H10=108.73              H12-C1-N2=109.07               
H12-C1-H10=108.92              H12-C1-H11=109.25              C3-N2-C1=130.73                C6-N2-C1=129.24                
C6-N2-C3=100.00                C4-C3-N2=126.58                C5-C4-C3= 93.24                H13-C4-C3=137.68               
H13-C4-C5=129.08               C6-C5-C4=112.54                N7-C5-C4=124.27                N7-C5-C6=123.19                
C5-C6-N2=107.62                H14-C6-N2=124.17               H14-C6-C5=128.21               O8-N7-C5=118.92                
O9-N7-C5=109.66                O9-N7-O8=131.41                

 selected dihedral angles (degree)
 ---------------------------------
C3-N2-C1-H10=285.58           C3-N2-C1-H11= 45.86           C3-N2-C1-H12=165.88           C6-N2-C1-H10=103.40           
C6-N2-C1-H11=223.68           C6-N2-C1-H12=343.70           C4-C3-N2-C1=179.67            C4-C3-N2-C6=  1.39            
C5-C4-C3-N2=358.67            H13-C4-C3-N2=179.55           C6-C5-C4-C3=  0.67            C6-C5-C4-H13=179.90           
N7-C5-C4-C3=180.70            N7-C5-C4-H13=359.94           C5-C6-N2-C1=181.05            C5-C6-N2-C3=359.37            
H14-C6-N2-C1=  1.02           H14-C6-N2-C3=179.34           N2-C6-C5-C4=359.97            N2-C6-C5-N7=179.94            
H14-C6-C5-C4=180.00           H14-C6-C5-N7=359.97           O8-N7-C5-C4=  0.56            O8-N7-C5-C6=180.60            
O9-N7-C5-C4=180.69            O9-N7-C5-C6=  0.72            
           -------------------------------------------------
          |                Final Singlepoint                |
           -------------------------------------------------

          ...................................................
          :                      SETUP                      :
          :.................................................:
          :  # basis functions                  41          :
          :  # atomic orbitals                  41          :
          :  # shells                           23          :
          :  # electrons                        46          :
          :  max. iterations                   250          :
          :  Hamiltonian                  GFN2-xTB          :
          :  restarted?                      false          :
          :  GBSA solvation                  false          :
          :  PC potential                    false          :
          :  electronic temp.          300.0000000     K    :
          :  accuracy                    1.0000000          :
          :  -> integral cutoff          0.2500000E+02      :
          :  -> integral neglect         0.1000000E-07      :
          :  -> SCF convergence          0.1000000E-05 Eh   :
          :  -> wf. convergence          0.1000000E-03 e    :
          :  Broyden damping             0.4000000          :
          ...................................................

 iter      E             dE          RMSdq      gap      omega  full diag
   1    -26.8625340 -0.268625E+02  0.273E-05    1.41       0.0  T
   2    -26.8625340 -0.125411E-11  0.221E-05    1.41    1209.3  T
   3    -26.8625340 -0.641265E-11  0.913E-06    1.41    2926.1  T

   *** convergence criteria satisfied after 3 iterations ***

         #    Occupation            Energy/Eh            Energy/eV
      -------------------------------------------------------------
         1        2.0000           -0.9804851             -26.6804
       ...           ...                  ...                  ...
        17        2.0000           -0.7005570             -19.0631
        18        2.0000           -0.6772168             -18.4280
        19        2.0000           -0.6717656             -18.2797
        20        2.0000           -0.6581242             -17.9085
        21        2.0000           -0.6429468             -17.4955
        22        2.0000           -0.6390540             -17.3895
        23        2.0000           -0.6379114             -17.3585 (HOMO)
        24                         -0.5862689             -15.9532 (LUMO)
        25                         -0.5028941             -13.6844
        26                         -0.4356628             -11.8550
        27                         -0.3975815             -10.8187
        28                         -0.2447367              -6.6596
       ...                                ...                  ...
        41                          0.4913432              13.3701
      -------------------------------------------------------------
                  HL-Gap            0.0516425 Eh            1.4053 eV
             Fermi-level           -0.6119644 Eh          -16.6524 eV

 SCC (total)                   0 d,  0 h,  0 min,  0.002 sec
 SCC setup                      ...        0 min,  0.000 sec (  8.712%)
 Dispersion                     ...        0 min,  0.000 sec (  6.998%)
 classical contributions        ...        0 min,  0.000 sec (  3.019%)
 integral evaluation            ...        0 min,  0.000 sec ( 12.362%)
 iterations                     ...        0 min,  0.001 sec ( 41.462%)
 molecular gradient             ...        0 min,  0.000 sec ( 25.158%)
 printout                       ...        0 min,  0.000 sec (  1.853%)

         :::::::::::::::::::::::::::::::::::::::::::::::::::::
         ::                     SUMMARY                     ::
         :::::::::::::::::::::::::::::::::::::::::::::::::::::
         :: total energy             -26.545014825861 Eh    ::
         :: gradient norm              0.000762776137 Eh/a0 ::
         :: HOMO-LUMO gap              1.405263789471 eV    ::
         ::.................................................::
         :: SCC energy               -26.862533953193 Eh    ::
         :: -> isotropic ES            0.140616605333 Eh    ::
         :: -> anisotropic ES          0.001441007209 Eh    ::
         :: -> anisotropic XC          0.007463279635 Eh    ::
         :: -> dispersion             -0.009174663718 Eh    ::
         :: repulsion energy           0.317517484467 Eh    ::
         :: add. restraining           0.000000000000 Eh    ::
         :: total charge               1.000000000001 e     ::
         :::::::::::::::::::::::::::::::::::::::::::::::::::::

           ------------------------------------------------- 
          |                Numerical Hessian                |
           ------------------------------------------------- 
step length          :   0.00500
SCC accuracy         :   0.30000
Hessian scale factor :   1.00000
frozen atoms in %    :   0.00000    0
RMS gradient         :   0.00076
estimated CPU  time      0.04 min
estimated wall time      0.00 min

writing file <hessian>.

 projected vibrational frequencies (cm⁻¹)
eigval :       -0.00    -0.00    -0.00     0.00     0.00     0.00
eigval :       54.07    65.13   158.32   158.94   191.90   308.66
eigval :      326.09   380.58   519.52   568.34   597.33   705.51
eigval :      735.62   766.00   768.58   833.82   912.69   989.76
eigval :     1037.43  1062.08  1082.92  1152.66  1281.04  1302.93
eigval :     1377.04  1400.93  1415.64  1423.24  1465.00  1695.44
eigval :     1778.64  3002.41  3029.86  3055.88  3122.02  3180.08
           -------------------------------------------------
          |                Property Printout                |
           -------------------------------------------------

    * Orbital Energies and Occupations

         #    Occupation            Energy/Eh            Energy/eV
      -------------------------------------------------------------
         1        2.0000           -0.9804853             -26.6804
       ...           ...                  ...                  ...
        11        2.0000           -0.7933359             -21.5878
        12        2.0000           -0.7890148             -21.4702
        13        2.0000           -0.7702492             -20.9595
        14        2.0000           -0.7483327             -20.3632
        15        2.0000           -0.7302073             -19.8700
        16        2.0000           -0.7068502             -19.2344
        17        2.0000           -0.7005569             -19.0631
        18        2.0000           -0.6772167             -18.4280
        19        2.0000           -0.6717658             -18.2797
        20        2.0000           -0.6581244             -17.9085
        21        2.0000           -0.6429467             -17.4955
        22        2.0000           -0.6390540             -17.3895
        23        2.0000           -0.6379115             -17.3585 (HOMO)
        24                         -0.5862686             -15.9532 (LUMO)
        25                         -0.5028943             -13.6845
        26                         -0.4356626             -11.8550
        27                         -0.3975815             -10.8187
        28                         -0.2447367              -6.6596
        29                         -0.1821406              -4.9563
        30                         -0.1122736              -3.0551
        31                         -0.0972231              -2.6456
        32                         -0.0344912              -0.9386
        33                         -0.0141828              -0.3859
        34                          0.0193984               0.5279
       ...                                ...                  ...
        41                          0.4913433              13.3701
      -------------------------------------------------------------
                  HL-Gap            0.0516429 Eh            1.4053 eV
             Fermi-level           -0.6119643 Eh          -16.6524 eV

     #   Z          covCN         q      C6AA      α(0)
     1   6 C        3.688    -0.090    22.427     6.779
     2   7 N        2.802     0.121    19.172     6.503
     3   6 C        2.757     0.141    24.910     8.173
     4   6 C        2.926    -0.002    28.073     8.689
     5   6 C        3.430    -0.001    23.502     7.394
     6   6 C        3.233     0.006    27.035     8.440
     7   7 N        2.753     0.619    12.760     5.305
     8   8 O        0.928    -0.253    18.921     5.834
     9   8 O        0.944    -0.261    19.054     5.854
    10   1 H        0.924     0.127     1.561     1.954
    11   1 H        0.924     0.125     1.577     1.964
    12   1 H        0.925     0.126     1.565     1.956
    13   1 H        0.927     0.181     1.201     1.714
    14   1 H        0.926     0.161     1.319     1.796

 Mol. C6AA /au·bohr⁶  :       2268.069178
 Mol. C8AA /au·bohr⁸  :      53672.097458
 Mol. α(0) /au        :         72.353495


Wiberg/Mayer (AO) data.
largest (>0.10) Wiberg bond orders for each atom

 ---------------------------------------------------------------------------
     #   Z sym  total        # sym  WBO       # sym  WBO       # sym  WBO
 ---------------------------------------------------------------------------
     1   6 C    3.904 --     2 N    0.976    12 H    0.966    11 H    0.959
                            10 H    0.949
     2   7 N    3.709 --     3 C    1.288     6 C    1.233     1 C    0.976
     3   6 C    3.705 --     4 C    1.694     2 N    1.288     5 C    0.226
                             9 O    0.195     6 C    0.133
     4   6 C    3.938 --     3 C    1.694     5 C    1.095    13 H    0.935
     5   6 C    3.872 --     6 C    1.447     4 C    1.095     7 N    0.873
                             3 C    0.226
     6   6 C    3.919 --     5 C    1.447     2 N    1.233    14 H    0.929
                             3 C    0.133
     7   7 N    3.937 --     8 O    1.541     9 O    1.456     5 C    0.873
     8   8 O    2.109 --     7 N    1.541     9 O    0.368
     9   8 O    2.172 --     7 N    1.456     8 O    0.368     3 C    0.195
    10   1 H    0.982 --     1 C    0.949
    11   1 H    0.982 --     1 C    0.959
    12   1 H    0.984 --     1 C    0.966
    13   1 H    0.967 --     4 C    0.935
    14   1 H    0.974 --     6 C    0.929
 ---------------------------------------------------------------------------

Topologies differ in total number of bonds
Writing topology from bond orders to xtbtopo.mol

molecular dipole:
                 x           y           z       tot (Debye)
 q only:       -2.749       0.258       0.018
   full:       -2.976       0.455       0.025       7.653
molecular quadrupole (traceless):
                xx          xy          yy          xz          yz          zz
 q only:       10.016       5.097      -1.327      -0.141      -0.026      -8.688
  q+dip:        9.126       4.207      -0.895      -0.168      -0.080      -8.231
   full:        8.793       3.238      -1.840      -0.165      -0.091      -6.954

           -------------------------------------------------
          |                Geometry Summary                 |
           -------------------------------------------------

      molecular mass/u    :      125.1055995
   center of mass at/Å    :        0.0769031       0.0064624      -0.0000626
  moments of inertia/u·Å² :        0.1083158E+03   0.4491915E+03   0.5543203E+03
rotational constants/cm⁻¹ :        0.1556340E+00   0.3752883E-01   0.3041136E-01

 * 13 selected distances

     #   Z          #   Z                                           value/Å
     1   6 C        2   7 N                                       1.4361358
     2   7 N        3   6 C                                       1.3235008
     3   6 C        4   6 C                                       1.3161869
     4   6 C        5   6 C                                       1.4418151 (max)
     2   7 N        6   6 C                                       1.3541139
     5   6 C        6   6 C                                       1.3949603
     7   7 N        8   8 O                                       1.1814591
     7   7 N        9   8 O                                       1.1982671
     1   6 C       10   1 H                                       1.0925182
     1   6 C       11   1 H                                       1.0904945
     1   6 C       12   1 H                                       1.0884534
     4   6 C       13   1 H                                       1.0698845 (min)
     6   6 C       14   1 H                                       1.0764624

 * 4 distinct bonds (by element types)

   Z      Z             #   av. dist./Å        max./Å        min./Å
   1 H    6 C           5     1.0835626     1.0925182     1.0698845
   6 C    6 C           3     1.3843208     1.4418151     1.3161869
   6 C    7 N           3     1.3712502     1.4361358     1.3235008
   7 N    8 O           2     1.1898631     1.1982671     1.1814591

           -------------------------------------------------
          |               Frequency Printout                |
           -------------------------------------------------
 projected vibrational frequencies (cm⁻¹)
eigval :       -0.00    -0.00    -0.00     0.00     0.00     0.00
eigval :       54.07    65.13   158.32   158.94   191.90   308.66
eigval :      326.09   380.58   519.52   568.34   597.33   705.51
eigval :      735.62   766.00   768.58   833.82   912.69   989.76
eigval :     1037.43  1062.08  1082.92  1152.66  1281.04  1302.93
eigval :     1377.04  1400.93  1415.64  1423.24  1465.00  1695.44
eigval :     1778.64  3002.41  3029.86  3055.88  3122.02  3180.08
 reduced masses (amu)
   1: 11.93   2: 14.09   3: 13.33   4: 11.71   5: 12.47   6: 13.26   7:  4.42   8: 10.75
   9: 10.59  10: 12.16  11: 11.89  12: 12.33  13: 10.36  14: 13.74  15: 13.15  16: 10.85
Molecule has no symmetry elements
It seems to be the C1 point group
  17: 11.46  18: 13.52  19: 13.33  20:  3.34  21:  3.48  22: 12.49  23:  7.36  24:  7.98
  25:  3.44  26:  6.94  27:  3.87  28:  8.67  29: 12.71  30: 13.78  31: 10.52  32:  4.16
  33:  1.63  34:  2.04  35: 11.88  36: 11.88  37: 14.69  38:  1.82  39:  1.64  40:  1.73
  41:  1.90  42:  2.02
 IR intensities (km·mol⁻¹)
   1:  3.97   2:  1.52   3:  7.28   4: 15.11   5:  8.51   6:  4.83   7:  1.03   8:  2.35
   9:  1.12  10:  2.44  11:  0.88  12: 10.35  13:  3.12  14:  9.10  15: 14.98  16:  5.43
  17: 28.42  18: 65.72  19: 50.38  20: 42.12  21:  0.91  22:176.79  23:143.87  24: 14.21
  25: 54.51  26: 90.91  27:  4.52  28: 92.70  29: 82.32  30:266.57  31: 12.57  32: 29.14
  33: 33.21  34: 21.30  35: 35.58  36: 20.69  37:413.88  38:  3.36  39:  7.87  40:  4.46
  41: 61.42  42:128.78
 Raman intensities (amu)
   1:  0.00   2:  0.00   3:  0.00   4:  0.00   5:  0.00   6:  0.00   7:  0.00   8:  0.00
   9:  0.00  10:  0.00  11:  0.00  12:  0.00  13:  0.00  14:  0.00  15:  0.00  16:  0.00
  17:  0.00  18:  0.00  19:  0.00  20:  0.00  21:  0.00  22:  0.00  23:  0.00  24:  0.00
  25:  0.00  26:  0.00  27:  0.00  28:  0.00  29:  0.00  30:  0.00  31:  0.00  32:  0.00
  33:  0.00  34:  0.00  35:  0.00  36:  0.00  37:  0.00  38:  0.00  39:  0.00  40:  0.00
  41:  0.00  42:  0.00
 output can be read by thermo (or use thermo option).
 writing <g98.out> molden fake output.
 recommended (thermochemical) frequency scaling factor: 1.0
           -------------------------------------------------
          |             Thermodynamic Functions             |
           -------------------------------------------------

c1  symmetry found (for desy threshold:  0.10E+00) used in thermo

          ...................................................
          :                      SETUP                      :
          :.................................................:
          :  # frequencies                          36      :
          :  # imaginary freq.                       0      :
          :  linear?                             false      :
          :  only rotor calc.                    false      :
          :  symmetry                               c1      :
          :  rotational number                       1      :
          :  scaling factor                  1.0000000      :
          :  rotor cutoff                   50.0000000 cm⁻¹ :
          :  imag. cutoff                  -20.0000000 cm⁻¹ :
          :.................................................:

    mode    ω/cm⁻¹     T·S(HO)/kcal·mol⁻¹    T·S(FR)/kcal·mol⁻¹   T·S(vib)
   ------------------------------------------------------------------------
       1     54.07    -1.39020 ( 57.76%)    -1.03313 ( 42.24%)    -1.23937
       2     65.13    -1.28063 ( 74.23%)    -0.97801 ( 25.77%)    -1.20263
       3    158.32    -0.76617 ( 99.02%)    -0.71502 (  0.98%)    -0.76567
       4    158.94    -0.76398 ( 99.03%)    -0.71387 (  0.97%)    -0.76350
       5    191.90    -0.65873 ( 99.54%)    -0.65805 (  0.46%)    -0.65872
   ------------------------------------------------------------------------

   temp. (K)  partition function   enthalpy   heat capacity  entropy
                                   cal/mol     cal/K/mol   cal/K/mol   J/K/mol
 298.15  VIB   268.                 3672.109     23.550     22.658
         ROT  0.397E+06              888.752      2.981     28.599
         INT  0.106E+09             4560.862     26.531     51.256
         TR   0.135E+28             1481.254      4.968     40.367
         TOT                        6042.1157    31.4991    91.6238   383.3539

       T/K    H(0)-H(T)+PV         H(T)/Eh          T*S/Eh         G(T)/Eh
   ------------------------------------------------------------------------
    298.15    0.962872E-02    0.105098E+00    0.435334E-01    0.615644E-01
   ------------------------------------------------------------------------

         :::::::::::::::::::::::::::::::::::::::::::::::::::::
         ::                  THERMODYNAMIC                  ::
         :::::::::::::::::::::::::::::::::::::::::::::::::::::
         :: total free energy         -26.483450412274 Eh   ::
         ::.................................................::
         :: total energy              -26.545014825835 Eh   ::
         :: zero point energy           0.095469100685 Eh   ::
         :: G(RRHO) w/o ZPVE           -0.033904687124 Eh   ::
         :: G(RRHO) contrib.            0.061564413562 Eh   ::
         :::::::::::::::::::::::::::::::::::::::::::::::::::::

optimized geometry written to: xtbopt.xyz


           -------------------------------------------------
          | TOTAL ENERGY              -26.545014825835 Eh   |
          | TOTAL ENTHALPY            -26.439917000919 Eh   |
          | TOTAL FREE ENERGY         -26.483450412274 Eh   |
          | GRADIENT NORM               0.000763245314 Eh/α |
          | HOMO-LUMO GAP               1.405274239126 eV   |
           -------------------------------------------------

------------------------------------------------------------------------
 * finished run on 2024/03/12 at 20:08:08.196     
------------------------------------------------------------------------
 total:
 * wall-time:     0 d,  0 h,  0 min,  0.126 sec
 *  cpu-time:     0 d,  0 h,  0 min,  2.582 sec
 * ratio c/w:    20.440 speedup
 SCF:
 * wall-time:     0 d,  0 h,  0 min,  0.014 sec
 *  cpu-time:     0 d,  0 h,  0 min,  0.378 sec
 * ratio c/w:    27.587 speedup
 ANC optimizer:
 * wall-time:     0 d,  0 h,  0 min,  0.036 sec
 *  cpu-time:     0 d,  0 h,  0 min,  0.999 sec
 * ratio c/w:    27.966 speedup
 analytical hessian:
 * wall-time:     0 d,  0 h,  0 min,  0.063 sec
 *  cpu-time:     0 d,  0 h,  0 min,  1.023 sec
 * ratio c/w:    16.224 speedup

