      -----------------------------------------------------------      
     |                   =====================                   |     
     |                           x T B                           |     
     |                   =====================                   |     
     |                         S. Grimme                         |     
     |          Mulliken Center for Theoretical Chemistry        |     
     |                    University of Bonn                     |     
      -----------------------------------------------------------      

   * xtb version 6.6.1 (8d0f1dd) compiled by 'conda@1efc2f54142f' on 2023-08-01

   xtb is free software: you can redistribute it and/or modify it under
   the terms of the GNU Lesser General Public License as published by
   the Free Software Foundation, either version 3 of the License, or
   (at your option) any later version.
   
   xtb is distributed in the hope that it will be useful,
   but WITHOUT ANY WARRANTY; without even the implied warranty of
   MERCHANTABILITY or FITNESS FOR A PARTICULAR PURPOSE.  See the
   GNU Lesser General Public License for more details.
   
   Cite this work as:
   * C. Bannwarth, E. Caldeweyher, S. Ehlert, A. Hansen, P. Pracht,
     J. Seibert, S. Spicher, S. Grimme, WIREs Comput. Mol. Sci., 2020, 11,
     e01493. DOI: 10.1002/wcms.1493
   
   for GFN2-xTB:
   * C. Bannwarth, S. Ehlert and S. Grimme., J. Chem. Theory Comput., 2019,
     15, 1652-1671. DOI: 10.1021/acs.jctc.8b01176
   for GFN1-xTB:
   * S. Grimme, C. Bannwarth, P. Shushkov, J. Chem. Theory Comput., 2017,
     13, 1989-2009. DOI: 10.1021/acs.jctc.7b00118
   for GFN0-xTB:
   * P. Pracht, E. Caldeweyher, S. Ehlert, S. Grimme, ChemRxiv, 2019, preprint.
     DOI: 10.26434/chemrxiv.8326202.v1
   for GFN-FF:
   * S. Spicher and S. Grimme, Angew. Chem. Int. Ed., 2020, 59, 15665-15673.
     DOI: 10.1002/anie.202004239
   
   for ALPB and GBSA implicit solvation:
   * S. Ehlert, M. Stahn, S. Spicher, S. Grimme, J. Chem. Theory Comput.,
     2021, 17, 4250-4261. DOI: 10.1021/acs.jctc.1c00471
   
   for DFT-D4:
   * E. Caldeweyher, C. Bannwarth and S. Grimme, J. Chem. Phys., 2017,
     147, 034112. DOI: 10.1063/1.4993215
   * E. Caldeweyher, S. Ehlert, A. Hansen, H. Neugebauer, S. Spicher,
     C. Bannwarth and S. Grimme, J. Chem. Phys., 2019, 150, 154122.
     DOI: 10.1063/1.5090222
   * E. Caldeweyher, J.-M. Mewes, S. Ehlert and S. Grimme, Phys. Chem. Chem. Phys.
     2020, 22, 8499-8512. DOI: 10.1039/D0CP00502A
   
   for sTDA-xTB:
   * S. Grimme and C. Bannwarth, J. Chem. Phys., 2016, 145, 054103.
     DOI: 10.1063/1.4959605
   
   in the mass-spec context:
   * V. Asgeirsson, C. Bauer and S. Grimme, Chem. Sci., 2017, 8, 4879.
     DOI: 10.1039/c7sc00601b
   * J. Koopman and S. Grimme, ACS Omega 2019, 4, 12, 15120-15133.
     DOI: 10.1021/acsomega.9b02011
   
   for metadynamics refer to:
   * S. Grimme, J. Chem. Theory Comput., 2019, 155, 2847-2862
     DOI: 10.1021/acs.jctc.9b00143
   
   for SPH calculations refer to:
   * S. Spicher and S. Grimme, J. Chem. Theory Comput., 2021, 17, 1701-1714
     DOI: 10.1021/acs.jctc.0c01306
   
   with help from (in alphabetical order)
   P. Atkinson, C. Bannwarth, F. Bohle, G. Brandenburg, E. Caldeweyher
   M. Checinski, S. Dohm, S. Ehlert, S. Ehrlich, I. Gerasimov, C. Hölzer
   A. Katbashev, J. Koopman, C. Lavigne, S. Lehtola, F. März, M. Müller,
   F. Musil, H. Neugebauer, J. Pisarek, C. Plett, P. Pracht, F. Pultar,
   J. Seibert, P. Shushkov, S. Spicher, M. Stahn, M. Steiner, T. Strunk,
   J. Stückrath, T. Rose, and J. Unsleber
   
 * started run on 2024/06/26 at 22:14:43.214     

           -------------------------------------------------
          |                Calculation Setup                |
           -------------------------------------------------

          program call               : xtb tests/test_files/xyz/dsgdb9nsd_123127-1/1.xyz --ohess -u 1 --opt
          coordinate file            : tests/test_files/xyz/dsgdb9nsd_123127-1/1.xyz
          omp threads                :                    28

   ID    Z sym.   atoms
    1    7 N      1
    2    1 H      2, 3, 12-19
    3    6 C      4-6, 8, 9
    4    8 O      7, 10, 11

           -------------------------------------------------
          |                 G F N 2 - x T B                 |
           -------------------------------------------------

        Reference                      10.1021/acs.jctc.8b01176
      * Hamiltonian:
        H0-scaling (s, p, d)           1.850000    2.230000    2.230000
        zeta-weighting                 0.500000
      * Dispersion:
        s8                             2.700000
        a1                             0.520000
        a2                             5.000000
        s9                             5.000000
      * Repulsion:
        kExp                           1.500000    1.000000
        rExp                           1.000000
      * Coulomb:
        alpha                          2.000000
        third order                    shell-resolved
        anisotropic                    true
        a3                             3.000000
        a5                             4.000000
        cn-shift                       1.200000
        cn-exp                         4.000000
        max-rad                        5.000000

q/qsh data taken from xtbrestart
CAMM data taken from xtbrestart

          ...................................................
          :                      SETUP                      :
          :.................................................:
          :  # basis functions                  46          :
          :  # atomic orbitals                  46          :
          :  # shells                           28          :
          :  # electrons                        53          :
          :  max. iterations                   250          :
          :  Hamiltonian                  GFN2-xTB          :
          :  restarted?                       true          :
          :  GBSA solvation                  false          :
          :  PC potential                    false          :
          :  electronic temp.          300.0000000     K    :
          :  accuracy                    1.0000000          :
          :  -> integral cutoff          0.2500000E+02      :
          :  -> integral neglect         0.1000000E-07      :
          :  -> SCF convergence          0.1000000E-05 Eh   :
          :  -> wf. convergence          0.1000000E-03 e    :
          :  Broyden damping             0.4000000          :
          ...................................................

 iter      E             dE          RMSdq      gap      omega  full diag
   1    -30.5944320 -0.305944E+02  0.445E+00    5.92       0.0  T
   2    -30.8554948 -0.261063E+00  0.271E+00    3.24       1.0  T
   3    -30.8649169 -0.942216E-02  0.163E+00    3.11       1.0  T
   4    -30.8672045 -0.228759E-02  0.389E-01    2.65       1.0  T
   5    -30.8677084 -0.503914E-03  0.184E-01    2.81       1.0  T
   6    -30.8677681 -0.596182E-04  0.519E-02    2.86       1.0  T
   7    -30.8677727 -0.466552E-05  0.218E-02    2.87       1.1  T
   8    -30.8677736 -0.892551E-06  0.595E-03    2.87       3.9  T
   9    -30.8677737 -0.718023E-07  0.163E-03    2.87      14.1  T
  10    -30.8677737 -0.561113E-08  0.621E-04    2.87      36.9  T
  11    -30.8677737 -0.614911E-09  0.209E-04    2.87     109.8  T

   *** convergence criteria satisfied after 11 iterations ***

         #    Occupation            Energy/Eh            Energy/eV
      -------------------------------------------------------------
         1        2.0000           -0.8272142             -22.5096
       ...           ...                  ...                  ...
        21        2.0000           -0.4476649             -12.1816
        22        2.0000           -0.4339679             -11.8089
        23        2.0000           -0.4119683             -11.2102
        24        2.0000           -0.3979013             -10.8274
        25        2.0000           -0.3894450             -10.5973
        26        2.0000           -0.3445297              -9.3751
        27        1.0000           -0.1702853              -4.6337 (HOMO)
        28                         -0.0648510              -1.7647 (LUMO)
        29                         -0.0025863              -0.0704
        30                          0.0259073               0.7050
        31                          0.0501690               1.3652
        32                          0.0768417               2.0910
       ...                                ...                  ...
        46                          0.7609743              20.7072
      -------------------------------------------------------------
                  HL-Gap            0.1054343 Eh            2.8690 eV
             Fermi-level           -0.1874878 Eh           -5.1018 eV

 SCC (total)                   0 d,  0 h,  0 min,  0.013 sec
 SCC setup                      ...        0 min,  0.000 sec (  0.861%)
 Dispersion                     ...        0 min,  0.001 sec (  6.381%)
 classical contributions        ...        0 min,  0.000 sec (  2.619%)
 integral evaluation            ...        0 min,  0.003 sec ( 24.940%)
 iterations                     ...        0 min,  0.007 sec ( 56.841%)
 molecular gradient             ...        0 min,  0.001 sec (  6.118%)
 printout                       ...        0 min,  0.000 sec (  1.224%)

         :::::::::::::::::::::::::::::::::::::::::::::::::::::
         ::                     SUMMARY                     ::
         :::::::::::::::::::::::::::::::::::::::::::::::::::::
         :: total energy             -30.556407684814 Eh    ::
         :: gradient norm              0.593215649286 Eh/a0 ::
         :: HOMO-LUMO gap              2.869013141088 eV    ::
         ::.................................................::
         :: SCC energy               -30.867773693934 Eh    ::
         :: -> isotropic ES            0.104224671663 Eh    ::
         :: -> anisotropic ES          0.012407798424 Eh    ::
         :: -> anisotropic XC         -0.006602123727 Eh    ::
         :: -> dispersion             -0.014786331096 Eh    ::
         :: repulsion energy           0.311315300277 Eh    ::
         :: add. restraining           0.000000000000 Eh    ::
         :: total charge               0.000000000000 e     ::
         :::::::::::::::::::::::::::::::::::::::::::::::::::::

      ----------------------------------------------------------- 
     |                   =====================                   |
     |                        A N C O P T                        |
     |                   =====================                   |
     |               Approximate Normal Coordinate               |
     |                Rational Function Optimizer                |
      ----------------------------------------------------------- 

          ...................................................
          :                      SETUP                      :
          :.................................................:
          :   optimization level            normal          :
          :   max. optcycles                   200          :
          :   ANC micro-cycles                  20          :
          :   degrees of freedom                51          :
          :.................................................:
          :   RF solver                   davidson          :
          :   write xtbopt.log                true          :
          :   linear?                        false          :
          :   energy convergence         0.5000000E-05 Eh   :
          :   grad. convergence          0.1000000E-02 Eh/α :
          :   maxmium RF displ.          1.0000000          :
          :   Hlow (freq-cutoff)         0.1000000E-01      :
          :   Hmax (freq-cutoff)         5.0000000          :
          :   S6 in model hess.         20.0000000          :
          ...................................................

generating ANC from model Hessian ...
Using Lindh-Hessian (1995)
 Shifting diagonal of input Hessian by    1.8850905812702792E-003
 Lowest  eigenvalues of input Hessian
    0.000000    0.000000    0.000000    0.000000    0.000000    0.000000
    0.010000    0.016394    0.017977    0.025653    0.027512    0.030674
    0.041595    0.051229    0.055493    0.061043    0.064247    0.065577
 Highest eigenvalues
    1.461694    1.496982    1.708698    1.933199    2.397942    2.987987


........................................................................
.............................. CYCLE    1 ..............................
........................................................................

 iter      E             dE          RMSdq      gap      omega  full diag
   1    -30.8677737 -0.308678E+02  0.536E-05    2.87       0.0  T
   2    -30.8677737 -0.497025E-11  0.306E-05    2.87     750.4  T
   3    -30.8677737 -0.699885E-12  0.105E-05    2.87    2189.0  T
     SCC iter.                  ...        0 min,  0.002 sec
     gradient                   ...        0 min,  0.001 sec
 * total energy  :   -30.5564077 Eh     change       -0.6900436E-10 Eh
   gradient norm :     0.5932142 Eh/α   predicted     0.0000000E+00 (-100.00%)
   displ. norm   :     0.3907638 α      lambda       -0.1898552E+00
   maximum displ.:     0.1481190 α      in ANC's #47, #34, #51, ...

........................................................................
.............................. CYCLE    2 ..............................
........................................................................

 iter      E             dE          RMSdq      gap      omega  full diag
   1    -30.9512808 -0.309513E+02  0.743E-01    2.86       0.0  T
   2    -30.9534452 -0.216441E-02  0.451E-01    2.98       1.0  T
   3    -30.9536539 -0.208699E-03  0.181E-01    3.00       1.0  T
   4    -30.9536992 -0.453154E-04  0.561E-02    2.98       1.0  T
   5    -30.9537056 -0.635861E-05  0.266E-02    2.98       1.0  T
   6    -30.9537071 -0.147341E-05  0.878E-03    2.97       2.6  T
   7    -30.9537073 -0.182179E-06  0.341E-03    2.97       6.7  T
   8    -30.9537073 -0.342836E-07  0.991E-04    2.97      23.2  T
   9    -30.9537073 -0.202241E-08  0.303E-04    2.97      75.7  T
     SCC iter.                  ...        0 min,  0.003 sec
     gradient                   ...        0 min,  0.001 sec
 * total energy  :   -30.6846671 Eh     change       -0.1282594E+00 Eh
   gradient norm :     0.2321077 Eh/α   predicted    -0.1094230E+00 ( -14.69%)
   displ. norm   :     0.4115775 α      lambda       -0.6694694E-01
   maximum displ.:     0.1533267 α      in ANC's #28, #14, #24, ...

........................................................................
.............................. CYCLE    3 ..............................
........................................................................

 iter      E             dE          RMSdq      gap      omega  full diag
   1    -30.9855176 -0.309855E+02  0.535E-01    2.54       0.0  T
   2    -30.9876519 -0.213425E-02  0.309E-01    2.83       1.0  T
   3    -30.9877745 -0.122630E-03  0.172E-01    2.78       1.0  T
   4    -30.9878085 -0.340316E-04  0.474E-02    2.81       1.0  T
   5    -30.9878262 -0.176457E-04  0.236E-02    2.80       1.0  T
   6    -30.9878272 -0.107567E-05  0.586E-03    2.80       3.9  T
   7    -30.9878273 -0.517781E-07  0.184E-03    2.80      12.5  T
   8    -30.9878273 -0.917910E-08  0.549E-04    2.80      41.8  T
   9    -30.9878273 -0.935707E-09  0.192E-04    2.80     119.2  T
     SCC iter.                  ...        0 min,  0.004 sec
     gradient                   ...        0 min,  0.001 sec
 * total energy  :   -30.7329969 Eh     change       -0.4832981E-01 Eh
   gradient norm :     0.1123351 Eh/α   predicted    -0.3914374E-01 ( -19.01%)
   displ. norm   :     0.4649248 α      lambda       -0.3088426E-01
   maximum displ.:     0.1784636 α      in ANC's #6, #28, #4, ...

........................................................................
.............................. CYCLE    4 ..............................
........................................................................

 iter      E             dE          RMSdq      gap      omega  full diag
   1    -30.9943085 -0.309943E+02  0.711E-01    1.95       0.0  T
   2    -31.0006568 -0.634836E-02  0.468E-01    2.38       1.0  T
   3    -31.0035793 -0.292252E-02  0.200E-01    2.20       1.0  T
   4    -31.0036022 -0.228628E-04  0.753E-02    2.19       1.0  T
   5    -31.0036300 -0.278203E-04  0.255E-02    2.19       1.0  T
   6    -31.0036319 -0.187369E-05  0.972E-03    2.20       2.4  T
   7    -31.0036325 -0.569573E-06  0.303E-03    2.19       7.6  T
   8    -31.0036325 -0.532458E-07  0.121E-03    2.19      19.0  T
   9    -31.0036325 -0.452954E-08  0.346E-04    2.19      66.4  T
  10    -31.0036325 -0.169594E-08  0.117E-04    2.19     196.9  T
     SCC iter.                  ...        0 min,  0.004 sec
     gradient                   ...        0 min,  0.001 sec
 * total energy  :   -30.7554711 Eh     change       -0.2247420E-01 Eh
   gradient norm :     0.0850937 Eh/α   predicted    -0.1878008E-01 ( -16.44%)
   displ. norm   :     0.5014433 α      lambda       -0.1818310E-01
   maximum displ.:     0.2412831 α      in ANC's #6, #3, #4, ...

........................................................................
.............................. CYCLE    5 ..............................
........................................................................

 iter      E             dE          RMSdq      gap      omega  full diag
   1    -30.9858796 -0.309859E+02  0.122E+00    1.94       0.0  T
   2    -30.9960918 -0.102121E-01  0.108E+00    2.04       1.0  T
   3    -31.0197176 -0.236258E-01  0.248E-01    1.80       1.0  T
   4    -31.0197692 -0.516195E-04  0.104E-01    1.79       1.0  T
   5    -31.0198056 -0.363338E-04  0.305E-02    1.79       1.0  T
   6    -31.0198090 -0.346321E-05  0.126E-02    1.79       1.8  T
   7    -31.0198096 -0.563438E-06  0.453E-03    1.79       5.1  T
   8    -31.0198097 -0.801802E-07  0.179E-03    1.79      12.8  T
   9    -31.0198097 -0.880285E-08  0.433E-04    1.79      53.0  T
  10    -31.0198097 -0.583082E-09  0.187E-04    1.79     122.6  T
     SCC iter.                  ...        0 min,  0.004 sec
     gradient                   ...        0 min,  0.001 sec
 * total energy  :   -30.7709785 Eh     change       -0.1550738E-01 Eh
   gradient norm :     0.1217016 Eh/α   predicted    -0.1137758E-01 ( -26.63%)
   displ. norm   :     0.6790276 α      lambda       -0.2944859E-01
   maximum displ.:     0.3277035 α      in ANC's #6, #3, #28, ...

........................................................................
.............................. CYCLE    6 ..............................
........................................................................

 iter      E             dE          RMSdq      gap      omega  full diag
   1    -31.0209643 -0.310210E+02  0.133E+00    3.40       0.0  T
   2    -31.0504289 -0.294646E-01  0.734E-01    1.97       1.0  T
   3    -31.0560891 -0.566020E-02  0.373E-01    2.24       1.0  T
   4    -31.0562027 -0.113617E-03  0.162E-01    2.13       1.0  T
   5    -31.0563426 -0.139887E-03  0.325E-02    2.16       1.0  T
   6    -31.0563433 -0.678353E-06  0.127E-02    2.17       1.8  T
   7    -31.0563447 -0.145068E-05  0.455E-03    2.17       5.0  T
   8    -31.0563448 -0.778344E-07  0.145E-03    2.17      15.8  T
   9    -31.0563448 -0.671391E-08  0.504E-04    2.17      45.5  T
  10    -31.0563448 -0.737050E-09  0.107E-04    2.17     214.4  T
     SCC iter.                  ...        0 min,  0.003 sec
     gradient                   ...        0 min,  0.001 sec
 * total energy  :   -30.7955628 Eh     change       -0.2458436E-01 Eh
   gradient norm :     0.1543320 Eh/α   predicted    -0.2151340E-01 ( -12.49%)
   displ. norm   :     0.5106787 α      lambda       -0.2725514E-01
   maximum displ.:     0.2305551 α      in ANC's #6, #3, #51, ...

........................................................................
.............................. CYCLE    7 ..............................
........................................................................

 iter      E             dE          RMSdq      gap      omega  full diag
   1    -31.0896903 -0.310897E+02  0.505E-01    4.16       0.0  T
   2    -31.0927550 -0.306472E-02  0.261E-01    3.66       1.0  T
   3    -31.0930441 -0.289132E-03  0.154E-01    3.74       1.0  T
   4    -31.0930617 -0.175940E-04  0.411E-02    3.72       1.0  T
   5    -31.0930670 -0.533155E-05  0.137E-02    3.72       1.7  T
   6    -31.0930671 -0.397218E-07  0.611E-03    3.72       3.8  T
   7    -31.0930674 -0.271671E-06  0.176E-03    3.72      13.0  T
   8    -31.0930674 -0.972618E-08  0.623E-04    3.72      36.8  T
   9    -31.0930674 -0.102044E-08  0.222E-04    3.72     103.2  T
     SCC iter.                  ...        0 min,  0.003 sec
     gradient                   ...        0 min,  0.001 sec
 * total energy  :   -30.8092437 Eh     change       -0.1368090E-01 Eh
   gradient norm :     0.1624455 Eh/α   predicted    -0.1718160E-01 (  25.59%)
   displ. norm   :     0.2448927 α      lambda       -0.1611948E-01
   maximum displ.:     0.1326969 α      in ANC's #3, #5, #28, ...

........................................................................
.............................. CYCLE    8 ..............................
........................................................................

 iter      E             dE          RMSdq      gap      omega  full diag
   1    -31.1003593 -0.311004E+02  0.270E-01    3.81       0.0  T
   2    -31.1009456 -0.586327E-03  0.171E-01    3.92       1.0  T
   3    -31.1010545 -0.108830E-03  0.999E-02    3.93       1.0  T
   4    -31.1010573 -0.279320E-05  0.326E-02    3.92       1.0  T
   5    -31.1010674 -0.101064E-04  0.572E-03    3.93       4.0  T
   6    -31.1010675 -0.152207E-06  0.260E-03    3.92       8.8  T
   7    -31.1010675 -0.193443E-07  0.112E-03    3.92      20.5  T
   8    -31.1010676 -0.237425E-08  0.358E-04    3.92      64.0  T
   9    -31.1010676 -0.697010E-09  0.112E-04    3.92     205.7  T
     SCC iter.                  ...        0 min,  0.003 sec
     gradient                   ...        0 min,  0.001 sec
 * total energy  :   -30.8217919 Eh     change       -0.1254819E-01 Eh
   gradient norm :     0.0941877 Eh/α   predicted    -0.8543670E-02 ( -31.91%)
   displ. norm   :     0.3831165 α      lambda       -0.1940119E-01
   maximum displ.:     0.1396301 α      in ANC's #28, #3, #14, ...

........................................................................
.............................. CYCLE    9 ..............................
........................................................................

 iter      E             dE          RMSdq      gap      omega  full diag
   1    -31.1192383 -0.311192E+02  0.557E-01    4.31       0.0  T
   2    -31.1191320  0.106336E-03  0.436E-01    4.13       1.0  T
   3    -31.1223539 -0.322193E-02  0.217E-01    4.30       1.0  T
   4    -31.1225564 -0.202468E-03  0.695E-02    4.25       1.0  T
   5    -31.1226483 -0.919281E-04  0.192E-02    4.27       1.2  T
   6    -31.1226529 -0.456063E-05  0.549E-03    4.27       4.2  T
   7    -31.1226530 -0.135928E-06  0.180E-03    4.27      12.7  T
   8    -31.1226530 -0.103752E-07  0.561E-04    4.27      40.9  T
   9    -31.1226530 -0.510020E-09  0.161E-04    4.27     142.4  T
     SCC iter.                  ...        0 min,  0.004 sec
     gradient                   ...        0 min,  0.001 sec
 * total energy  :   -30.8332946 Eh     change       -0.1150267E-01 Eh
   gradient norm :     0.0443924 Eh/α   predicted    -0.1112547E-01 (  -3.28%)
   displ. norm   :     0.2523852 α      lambda       -0.3901776E-02
   maximum displ.:     0.1409747 α      in ANC's #3, #6, #4, ...

........................................................................
.............................. CYCLE   10 ..............................
........................................................................

 iter      E             dE          RMSdq      gap      omega  full diag
   1    -31.1188169 -0.311188E+02  0.520E-01    4.48       0.0  T
   2    -31.1108681  0.794877E-02  0.752E-01    4.09       1.0  T
   3    -31.1249465 -0.140783E-01  0.114E-01    4.37       1.0  T
   4    -31.1251211 -0.174657E-03  0.750E-02    4.40       1.0  T
   5    -31.1251509 -0.298273E-04  0.434E-02    4.40       1.0  T
   6    -31.1251867 -0.357080E-04  0.660E-03    4.39       3.5  T
   7    -31.1251872 -0.540881E-06  0.206E-03    4.39      11.1  T
   8    -31.1251872 -0.545036E-08  0.137E-03    4.39      16.8  T
   9    -31.1251872 -0.348555E-07  0.351E-04    4.39      65.4  T
  10    -31.1251872 -0.171330E-08  0.876E-05    4.39     261.8  T
     SCC iter.                  ...        0 min,  0.005 sec
     gradient                   ...        0 min,  0.005 sec
 * total energy  :   -30.8363344 Eh     change       -0.3039822E-02 Eh
   gradient norm :     0.0398142 Eh/α   predicted    -0.2075122E-02 ( -31.74%)
   displ. norm   :     0.3392830 α      lambda       -0.4779733E-02
   maximum displ.:     0.1571862 α      in ANC's #3, #6, #4, ...

........................................................................
.............................. CYCLE   11 ..............................
........................................................................

 iter      E             dE          RMSdq      gap      omega  full diag
   1    -31.1068013 -0.311068E+02  0.997E-01    4.62       0.0  T
   2    -31.0664698  0.403315E-01  0.162E+00    3.82       1.0  T
   3    -31.1295628 -0.630930E-01  0.336E-01    4.48       1.0  T
   4    -31.1321448 -0.258199E-02  0.950E-02    4.52       1.0  T
   5    -31.1320786  0.661506E-04  0.732E-02    4.53       1.0  T
   6    -31.1321543 -0.756454E-04  0.260E-02    4.51       1.0  T
   7    -31.1321548 -0.485544E-06  0.228E-02    4.52       1.0  T
   8    -31.1321662 -0.114457E-04  0.101E-02    4.52       2.3  T
   9    -31.1321689 -0.267466E-05  0.244E-03    4.52       9.4  T
  10    -31.1321689 -0.649793E-07  0.163E-03    4.52      14.1  T
  11    -31.1321690 -0.687802E-07  0.295E-04    4.52      77.7  T
  12    -31.1321690 -0.145127E-08  0.181E-04    4.52     126.8  T
     SCC iter.                  ...        0 min,  0.010 sec
     gradient                   ...        0 min,  0.001 sec
 * total energy  :   -30.8395442 Eh     change       -0.3209805E-02 Eh
   gradient norm :     0.0325422 Eh/α   predicted    -0.2664804E-02 ( -16.98%)
   displ. norm   :     0.2846113 α      lambda       -0.2374846E-02
   maximum displ.:     0.1718650 α      in ANC's #3, #4, #51, ...

........................................................................
.............................. CYCLE   12 ..............................
........................................................................

 iter      E             dE          RMSdq      gap      omega  full diag
   1    -31.1169422 -0.311169E+02  0.847E-01    4.68       0.0  T
   2    -31.0453830  0.715593E-01  0.188E+00    3.95       1.0  T
   3    -31.1340286 -0.886456E-01  0.298E-01    4.61       1.0  T
   4    -31.1359088 -0.188020E-02  0.841E-02    4.62       1.0  T
   5    -31.1359563 -0.474606E-04  0.340E-02    4.62       1.0  T
   6    -31.1359602 -0.392862E-05  0.121E-02    4.62       1.9  T
   7    -31.1359617 -0.148365E-05  0.378E-03    4.62       6.1  T
   8    -31.1359617  0.457679E-07  0.291E-03    4.62       7.9  T
   9    -31.1359617 -0.737366E-07  0.220E-03    4.62      10.4  T
  10    -31.1359618 -0.518407E-07  0.175E-03    4.62      13.1  T
  11    -31.1359618 -0.514995E-07  0.110E-03    4.62      20.9  T
  12    -31.1359619 -0.340730E-07  0.968E-05    4.62     237.0  T
  13    -31.1359619 -0.224020E-09  0.249E-05    4.62     923.0  T
     SCC iter.                  ...        0 min,  0.005 sec
     gradient                   ...        0 min,  0.001 sec
 * total energy  :   -30.8413445 Eh     change       -0.1800318E-02 Eh
   gradient norm :     0.0256413 Eh/α   predicted    -0.1283553E-02 ( -28.70%)
   displ. norm   :     0.3409674 α      lambda       -0.2697016E-02
   maximum displ.:     0.1928792 α      in ANC's #3, #4, #51, ...

........................................................................
.............................. CYCLE   13 ..............................
........................................................................

 iter      E             dE          RMSdq      gap      omega  full diag
   1    -31.1251705 -0.311252E+02  0.917E-01    4.71       0.0  T
   2    -31.0122084  0.112962E+00  0.228E+00    3.92       1.0  T
   3    -31.1428151 -0.130607E+00  0.392E-01    4.71       1.0  T
   4    -31.1452237 -0.240856E-02  0.169E-01    4.70       1.0  T
   5    -31.1455971 -0.373419E-03  0.569E-02    4.68       1.0  T
   6    -31.1452644  0.332647E-03  0.119E-01    4.69       1.0  T
   7    -31.1449013  0.363076E-03  0.163E-01    4.68       1.0  T
   8    -31.1456576 -0.756221E-03  0.142E-02    4.69       1.6  T
   9    -31.1456608 -0.324317E-05  0.898E-03    4.68       2.6  T
  10    -31.1456598  0.965501E-06  0.107E-02    4.69       2.2  T
  11    -31.1456629 -0.300415E-05  0.304E-03    4.69       7.6  T
  12    -31.1456631 -0.229618E-06  0.105E-03    4.69      21.8  T
  13    -31.1456631 -0.317336E-07  0.475E-05    4.69     483.2  T
  14    -31.1456631 -0.346851E-10  0.147E-05    4.69    1562.2  T
     SCC iter.                  ...        0 min,  0.005 sec
     gradient                   ...        0 min,  0.001 sec
 * total energy  :   -30.8433619 Eh     change       -0.2017353E-02 Eh
   gradient norm :     0.0159244 Eh/α   predicted    -0.1505170E-02 ( -25.39%)
   displ. norm   :     0.4738998 α      lambda       -0.2344259E-02
   maximum displ.:     0.2895428 α      in ANC's #3, #4, #51, ...

........................................................................
.............................. CYCLE   14 ..............................
........................................................................

 iter      E             dE          RMSdq      gap      omega  full diag
   1    -31.1344168 -0.311344E+02  0.818E-01    4.69       0.0  T
   2    -30.9842637  0.150153E+00  0.251E+00    3.96       1.0  T
   3    -31.1398248 -0.155561E+00  0.608E-01    4.70       1.0  T
   4    -31.1478499 -0.802511E-02  0.215E-01    4.71       1.0  T
   5    -31.1329382  0.149117E-01  0.741E-01    4.68       1.0  T
   6    -31.1443887 -0.114505E-01  0.394E-01    4.70       1.0  T
   7    -31.1483228 -0.393413E-02  0.128E-01    4.70       1.0  T
   8    -31.1486660 -0.343153E-03  0.702E-02    4.70       1.0  T
   9    -31.1487999 -0.133906E-03  0.147E-02    4.70       1.6  T
  10    -31.1488055 -0.560722E-05  0.346E-03    4.70       6.6  T
  11    -31.1488058 -0.275959E-06  0.151E-03    4.70      15.2  T
  12    -31.1488058 -0.548000E-07  0.586E-04    4.70      39.1  T
  13    -31.1488058 -0.976221E-08  0.673E-05    4.70     340.8  T
     SCC iter.                  ...        0 min,  0.004 sec
     gradient                   ...        0 min,  0.001 sec
 * total energy  :   -30.8452329 Eh     change       -0.1870992E-02 Eh
   gradient norm :     0.0166818 Eh/α   predicted    -0.1435230E-02 ( -23.29%)
   displ. norm   :     0.6847024 α      lambda       -0.3240707E-02
   maximum displ.:     0.3794676 α      in ANC's #3, #4, #51, ...

........................................................................
.............................. CYCLE   15 ..............................
........................................................................

 iter      E             dE          RMSdq      gap      omega  full diag
   1    -31.1475066 -0.311475E+02  0.719E-01    4.51       0.0  T
   2    -30.9632600  0.184247E+00  0.262E+00    4.09       1.0  T
   3    -31.1481317 -0.184872E+00  0.601E-01    4.47       1.0  T
   4    -31.1496784 -0.154676E-02  0.499E-01    4.50       1.0  T
   5    -31.1554669 -0.578843E-02  0.728E-02    4.49       1.0  T
   6    -31.1555528 -0.858967E-04  0.336E-02    4.50       1.0  T
   7    -31.1555623 -0.954015E-05  0.113E-02    4.51       2.0  T
   8    -31.1555635 -0.123177E-05  0.463E-03    4.50       5.0  T
   9    -31.1555621  0.143932E-05  0.820E-03    4.50       2.8  T
  10    -31.1555606  0.151290E-05  0.109E-02    4.50       2.1  T
  11    -31.1555640 -0.342598E-05  0.216E-04    4.50     106.2  T
  12    -31.1555640 -0.238188E-09  0.104E-04    4.50     221.2  T
  13    -31.1555640  0.769404E-09  0.174E-04    4.50     131.7  T
     SCC iter.                  ...        0 min,  0.030 sec
     gradient                   ...        0 min,  0.001 sec
 * total energy  :   -30.8477851 Eh     change       -0.2552188E-02 Eh
   gradient norm :     0.0310808 Eh/α   predicted    -0.2379572E-02 (  -6.76%)
   displ. norm   :     0.4414508 α      lambda       -0.1972391E-02
   maximum displ.:     0.2057993 α      in ANC's #3, #4, #51, ...

........................................................................
.............................. CYCLE   16 ..............................
........................................................................

 iter      E             dE          RMSdq      gap      omega  full diag
   1    -31.1590439 -0.311590E+02  0.447E-01    4.50       0.0  T
   2    -30.9677423  0.191302E+00  0.260E+00    4.20       1.0  T
   3    -31.1592293 -0.191487E+00  0.383E-01    4.40       1.0  T
   4    -31.1603135 -0.108413E-02  0.297E-01    4.41       1.0  T
   5    -31.1617278 -0.141434E-02  0.173E-01    4.40       1.0  T
   6    -31.1622645 -0.536629E-03  0.980E-02    4.40       1.0  T
   7    -31.1625206 -0.256111E-03  0.953E-03    4.41       2.4  T
   8    -31.1625202  0.402366E-06  0.564E-03    4.41       4.1  T
   9    -31.1625200  0.137397E-06  0.572E-03    4.41       4.0  T
  10    -31.1625209 -0.892110E-06  0.444E-04    4.41      51.7  T
  11    -31.1625209 -0.102522E-08  0.261E-04    4.41      87.8  T
     SCC iter.                  ...        0 min,  0.003 sec
     gradient                   ...        0 min,  0.001 sec
 * total energy  :   -30.8490711 Eh     change       -0.1286006E-02 Eh
   gradient norm :     0.0337824 Eh/α   predicted    -0.1178282E-02 (  -8.38%)
   displ. norm   :     0.3000801 α      lambda       -0.2196579E-02
   maximum displ.:     0.1582017 α      in ANC's #6, #3, #4, ...

........................................................................
.............................. CYCLE   17 ..............................
........................................................................

 iter      E             dE          RMSdq      gap      omega  full diag
   1    -31.1702145 -0.311702E+02  0.263E-01    4.46       0.0  T
   2    -31.0576183  0.112596E+00  0.196E+00    4.33       1.0  T
   3    -31.1700572 -0.112439E+00  0.239E-01    4.38       1.0  T
   4    -31.1704523 -0.395101E-03  0.188E-01    4.39       1.0  T
   5    -31.1708977 -0.445398E-03  0.127E-01    4.38       1.0  T
   6    -31.1711415 -0.243827E-03  0.836E-02    4.38       1.0  T
   7    -31.1712691 -0.127612E-03  0.482E-02    4.38       1.0  T
   8    -31.1713323 -0.631763E-04  0.197E-03    4.38      11.7  T
   9    -31.1713319  0.440950E-06  0.401E-03    4.38       5.7  T
  10    -31.1713323 -0.445127E-06  0.382E-04    4.38      60.0  T
  11    -31.1713323 -0.232714E-08  0.202E-04    4.38     113.3  T
     SCC iter.                  ...        0 min,  0.005 sec
     gradient                   ...        0 min,  0.001 sec
 * total energy  :   -30.8505393 Eh     change       -0.1468195E-02 Eh
   gradient norm :     0.0226449 Eh/α   predicted    -0.1197172E-02 ( -18.46%)
   displ. norm   :     0.5218272 α      lambda       -0.2367933E-02
   maximum displ.:     0.2704782 α      in ANC's #4, #3, #6, ...

........................................................................
.............................. CYCLE   18 ..............................
........................................................................

 iter      E             dE          RMSdq      gap      omega  full diag
   1    -31.1644752 -0.311645E+02  0.358E-01    4.31       0.0  T
   2    -31.1505356  0.139396E-01  0.738E-01    4.22       1.0  T
   3    -31.1646151 -0.140795E-01  0.245E-01    4.19       1.0  T
   4    -31.1653680 -0.752898E-03  0.124E-01    4.19       1.0  T
   5    -31.1656695 -0.301510E-03  0.220E-02    4.18       1.0  T
   6    -31.1656771 -0.766582E-05  0.722E-03    4.19       3.2  T
   7    -31.1656774 -0.249774E-06  0.239E-03    4.19       9.6  T
   8    -31.1656774 -0.125635E-07  0.125E-03    4.19      18.4  T
   9    -31.1656774 -0.260603E-07  0.235E-04    4.19      97.6  T
  10    -31.1656774  0.118021E-10  0.112E-04    4.19     204.2  T
     SCC iter.                  ...        0 min,  0.004 sec
     gradient                   ...        0 min,  0.001 sec
 * total energy  :   -30.8516204 Eh     change       -0.1081188E-02 Eh
   gradient norm :     0.0423371 Eh/α   predicted    -0.1506322E-02 (  39.32%)
   displ. norm   :     0.2991801 α      lambda       -0.2023993E-02
   maximum displ.:     0.1301258 α      in ANC's #4, #51, #6, ...

........................................................................
.............................. CYCLE   19 ..............................
........................................................................

 iter      E             dE          RMSdq      gap      omega  full diag
   1    -31.1706329 -0.311706E+02  0.244E-01    4.21       0.0  T
   2    -31.1705902  0.427168E-04  0.199E-01    4.14       1.0  T
   3    -31.1710738 -0.483660E-03  0.129E-01    4.10       1.0  T
   4    -31.1713754 -0.301543E-03  0.465E-02    4.12       1.0  T
   5    -31.1713616  0.137492E-04  0.272E-02    4.11       1.0  T
   6    -31.1713800 -0.184411E-04  0.520E-03    4.11       4.4  T
   7    -31.1713799  0.153392E-06  0.339E-03    4.11       6.8  T
   8    -31.1713801 -0.248695E-06  0.567E-04    4.11      40.5  T
   9    -31.1713801 -0.231763E-08  0.236E-04    4.11      97.2  T
     SCC iter.                  ...        0 min,  0.003 sec
     gradient                   ...        0 min,  0.007 sec
 * total energy  :   -30.8525879 Eh     change       -0.9674897E-03 Eh
   gradient norm :     0.0352450 Eh/α   predicted    -0.1102565E-02 (  13.96%)
   displ. norm   :     0.2159977 α      lambda       -0.1439136E-02
   maximum displ.:     0.1071592 α      in ANC's #3, #4, #51, ...

........................................................................
.............................. CYCLE   20 ..............................
........................................................................

 iter      E             dE          RMSdq      gap      omega  full diag
   1    -31.1750414 -0.311750E+02  0.152E-01    4.07       0.0  T
   2    -31.1750651 -0.236454E-04  0.965E-02    4.06       1.0  T
   3    -31.1751166 -0.514690E-04  0.749E-02    4.03       1.0  T
   4    -31.1751932 -0.766762E-04  0.179E-02    4.04       1.3  T
   5    -31.1751950 -0.182117E-05  0.426E-03    4.03       5.4  T
   6    -31.1751951 -0.506039E-07  0.174E-03    4.03      13.2  T
   7    -31.1751951 -0.146161E-07  0.618E-04    4.03      37.1  T
   8    -31.1751951 -0.223179E-08  0.266E-04    4.03      86.3  T
     SCC iter.                  ...        0 min,  0.003 sec
     gradient                   ...        0 min,  0.006 sec
 * total energy  :   -30.8535194 Eh     change       -0.9314490E-03 Eh
   gradient norm :     0.0181682 Eh/α   predicted    -0.7531391E-03 ( -19.14%)
   displ. norm   :     0.2627225 α      lambda       -0.1152587E-02
   maximum displ.:     0.1014582 α      in ANC's #4, #3, #51, ...
 * RMSD in coord.:     1.4769599 α      energy gain  -0.2971117E+00 Eh

generating ANC from model Hessian ...
Using Lindh-Hessian (1995)
 Shifting diagonal of input Hessian by    9.3268064516914204E-003
 Lowest  eigenvalues of input Hessian
    0.000000    0.000000    0.000000    0.000000    0.000000    0.000000
    0.010000    0.010877    0.012152    0.012677    0.014339    0.018242
    0.021134    0.023495    0.025447    0.026265    0.030889    0.033116
 Highest eigenvalues
    1.362060    1.391545    1.417293    1.499360    1.756980    2.982625


........................................................................
.............................. CYCLE   21 ..............................
........................................................................

 iter      E             dE          RMSdq      gap      omega  full diag
   1    -31.1794140 -0.311794E+02  0.151E-01    4.06       0.0  T
   2    -31.1795087 -0.947146E-04  0.887E-02    4.03       1.0  T
   3    -31.1795147 -0.595510E-05  0.385E-02    4.01       1.0  T
   4    -31.1795207 -0.598810E-05  0.120E-02    4.01       1.9  T
   5    -31.1795218 -0.111418E-05  0.602E-03    4.01       3.8  T
   6    -31.1795222 -0.364014E-06  0.186E-03    4.01      12.3  T
   7    -31.1795222 -0.978848E-08  0.458E-04    4.01      50.1  T
   8    -31.1795222 -0.581924E-09  0.225E-04    4.01     102.2  T
     SCC iter.                  ...        0 min,  0.003 sec
     gradient                   ...        0 min,  0.002 sec
 * total energy  :   -30.8541319 Eh     change       -0.6124968E-03 Eh
   gradient norm :     0.0186657 Eh/α   predicted     0.0000000E+00 (-100.00%)
   displ. norm   :     0.2576303 α      lambda       -0.1658502E-02
   maximum displ.:     0.1868864 α      in ANC's #3, #7, #1, ...

........................................................................
.............................. CYCLE   22 ..............................
........................................................................

 iter      E             dE          RMSdq      gap      omega  full diag
   1    -31.1775451 -0.311775E+02  0.116E-01    3.95       0.0  T
   2    -31.1775650 -0.199002E-04  0.689E-02    3.99       1.0  T
   3    -31.1775632  0.179783E-05  0.279E-02    3.98       1.0  T
   4    -31.1775682 -0.493414E-05  0.539E-03    3.99       4.3  T
   5    -31.1775685 -0.323629E-06  0.242E-03    3.98       9.5  T
   6    -31.1775685 -0.516313E-07  0.118E-03    3.98      19.5  T
   7    -31.1775685 -0.524034E-08  0.277E-04    3.98      82.8  T
   8    -31.1775685 -0.182865E-09  0.116E-04    3.98     197.1  T
     SCC iter.                  ...        0 min,  0.002 sec
     gradient                   ...        0 min,  0.001 sec
 * total energy  :   -30.8553126 Eh     change       -0.1180701E-02 Eh
   gradient norm :     0.0083030 Eh/α   predicted    -0.8843453E-03 ( -25.10%)
   displ. norm   :     0.4397517 α      lambda       -0.1802423E-02
   maximum displ.:     0.3486146 α      in ANC's #3, #10, #7, ...

........................................................................
.............................. CYCLE   23 ..............................
........................................................................

 iter      E             dE          RMSdq      gap      omega  full diag
   1    -31.1695520 -0.311696E+02  0.247E-01    3.81       0.0  T
   2    -31.1696179 -0.658518E-04  0.149E-01    3.89       1.0  T
   3    -31.1695823  0.355898E-04  0.714E-02    3.86       1.0  T
   4    -31.1696403 -0.580268E-04  0.118E-02    3.89       1.9  T
   5    -31.1696416 -0.125249E-05  0.473E-03    3.89       4.9  T
   6    -31.1696417 -0.102319E-06  0.235E-03    3.89       9.8  T
   7    -31.1696417 -0.243379E-07  0.633E-04    3.89      36.2  T
   8    -31.1696417 -0.125819E-08  0.237E-04    3.89      96.9  T
     SCC iter.                  ...        0 min,  0.003 sec
     gradient                   ...        0 min,  0.001 sec
 * total energy  :   -30.8544515 Eh     change        0.8610780E-03 Eh
   gradient norm :     0.0327294 Eh/α   predicted    -0.1075522E-02 (-224.90%)
   displ. norm   :     0.2400010 α      lambda       -0.4229250E-02
   maximum displ.:     0.1372573 α      in ANC's #7, #3, #10, ...

........................................................................
.............................. CYCLE   24 ..............................
........................................................................

 iter      E             dE          RMSdq      gap      omega  full diag
   1    -31.1744042 -0.311744E+02  0.195E-01    4.07       0.0  T
   2    -31.1744153 -0.111467E-04  0.117E-01    4.06       1.0  T
   3    -31.1744094  0.591961E-05  0.271E-02    4.08       1.0  T
   4    -31.1744178 -0.836507E-05  0.530E-03    4.06       4.3  T
   5    -31.1744180 -0.249021E-06  0.307E-03    4.06       7.5  T
   6    -31.1744181 -0.808541E-07  0.930E-04    4.06      24.7  T
   7    -31.1744181 -0.110791E-08  0.269E-04    4.06      85.4  T
     SCC iter.                  ...        0 min,  0.002 sec
     gradient                   ...        0 min,  0.001 sec
 * total energy  :   -30.8564940 Eh     change       -0.2042480E-02 Eh
   gradient norm :     0.0135031 Eh/α   predicted    -0.2236427E-02 (   9.50%)
   displ. norm   :     0.1576505 α      lambda       -0.7170167E-03
   maximum displ.:     0.0926397 α      in ANC's #3, #8, #5, ...

........................................................................
.............................. CYCLE   25 ..............................
........................................................................

 iter      E             dE          RMSdq      gap      omega  full diag
   1    -31.1767626 -0.311768E+02  0.882E-02    4.07       0.0  T
   2    -31.1767655 -0.289459E-05  0.510E-02    4.09       1.0  T
   3    -31.1767578  0.772236E-05  0.215E-02    4.08       1.1  T
   4    -31.1767672 -0.939902E-05  0.279E-03    4.09       8.2  T
   5    -31.1767672 -0.399973E-07  0.111E-03    4.09      20.6  T
   6    -31.1767672 -0.188782E-08  0.397E-04    4.09      57.7  T
   7    -31.1767672 -0.215088E-09  0.171E-04    4.09     134.1  T
     SCC iter.                  ...        0 min,  0.002 sec
     gradient                   ...        0 min,  0.001 sec
 * total energy  :   -30.8570540 Eh     change       -0.5599921E-03 Eh
   gradient norm :     0.0078798 Eh/α   predicted    -0.3674336E-03 ( -34.39%)
   displ. norm   :     0.5510993 α      lambda       -0.1423718E-02
   maximum displ.:     0.4073435 α      in ANC's #3, #5, #11, ...

........................................................................
.............................. CYCLE   26 ..............................
........................................................................

 iter      E             dE          RMSdq      gap      omega  full diag
   1    -31.1749769 -0.311750E+02  0.230E-01    4.10       0.0  T
   2    -31.1750180 -0.411200E-04  0.133E-01    4.16       1.0  T
   3    -31.1749826  0.353733E-04  0.494E-02    4.15       1.0  T
   4    -31.1750226 -0.399517E-04  0.161E-02    4.17       1.4  T
   5    -31.1750272 -0.465111E-05  0.513E-03    4.16       4.5  T
   6    -31.1750275 -0.276749E-06  0.221E-03    4.16      10.4  T
   7    -31.1750275 -0.294877E-07  0.646E-04    4.16      35.5  T
   8    -31.1750275 -0.454982E-09  0.283E-04    4.16      81.1  T
     SCC iter.                  ...        0 min,  0.003 sec
     gradient                   ...        0 min,  0.001 sec
 * total energy  :   -30.8581484 Eh     change       -0.1094459E-02 Eh
   gradient norm :     0.0137204 Eh/α   predicted    -0.9280656E-03 ( -15.20%)
   displ. norm   :     0.5378201 α      lambda       -0.1127340E-02
   maximum displ.:     0.3869600 α      in ANC's #3, #5, #11, ...

........................................................................
.............................. CYCLE   27 ..............................
........................................................................

 iter      E             dE          RMSdq      gap      omega  full diag
   1    -31.1708715 -0.311709E+02  0.245E-01    4.16       0.0  T
   2    -31.1708790 -0.747047E-05  0.149E-01    4.21       1.0  T
   3    -31.1700144  0.864580E-03  0.199E-01    4.23       1.0  T
   4    -31.1709395 -0.925102E-03  0.563E-02    4.21       1.0  T
   5    -31.1710003 -0.608346E-04  0.249E-02    4.22       1.0  T
   6    -31.1710151 -0.148224E-04  0.602E-03    4.22       3.8  T
   7    -31.1710150  0.128095E-06  0.469E-03    4.22       4.9  T
   8    -31.1710156 -0.560820E-06  0.663E-04    4.22      34.6  T
   9    -31.1710156 -0.140404E-08  0.307E-04    4.22      74.7  T
     SCC iter.                  ...        0 min,  0.003 sec
     gradient                   ...        0 min,  0.001 sec
 * total energy  :   -30.8589820 Eh     change       -0.8335644E-03 Eh
   gradient norm :     0.0220271 Eh/α   predicted    -0.7267163E-03 ( -12.82%)
   displ. norm   :     0.4258245 α      lambda       -0.1308357E-02
   maximum displ.:     0.2603434 α      in ANC's #3, #11, #1, ...

........................................................................
.............................. CYCLE   28 ..............................
........................................................................

 iter      E             dE          RMSdq      gap      omega  full diag
   1    -31.1714615 -0.311715E+02  0.264E-01    4.27       0.0  T
   2    -31.1712559  0.205584E-03  0.238E-01    4.28       1.0  T
   3    -31.1722488 -0.992850E-03  0.961E-02    4.32       1.0  T
   4    -31.1720602  0.188545E-03  0.972E-02    4.31       1.0  T
   5    -31.1722669 -0.206674E-03  0.248E-02    4.32       1.0  T
   6    -31.1722819 -0.150100E-04  0.350E-03    4.31       6.5  T
   7    -31.1722819 -0.348683E-07  0.154E-03    4.31      14.9  T
   8    -31.1722820 -0.242399E-07  0.530E-04    4.31      43.2  T
   9    -31.1722819  0.132786E-07  0.742E-04    4.31      30.9  T
     SCC iter.                  ...        0 min,  0.003 sec
     gradient                   ...        0 min,  0.001 sec
 * total energy  :   -30.8600495 Eh     change       -0.1067548E-02 Eh
   gradient norm :     0.0200502 Eh/α   predicted    -0.7728002E-03 ( -27.61%)
   displ. norm   :     0.5119639 α      lambda       -0.1877351E-02
   maximum displ.:     0.2508430 α      in ANC's #3, #11, #1, ...

........................................................................
.............................. CYCLE   29 ..............................
........................................................................

 iter      E             dE          RMSdq      gap      omega  full diag
   1    -31.1638868 -0.311639E+02  0.620E-01    4.32       0.0  T
   2    -31.1670417 -0.315486E-02  0.578E-01    4.30       1.0  T
   3    -31.1713347 -0.429305E-02  0.312E-01    4.39       1.0  T
   4    -31.1727471 -0.141235E-02  0.144E-01    4.39       1.0  T
   5    -31.1650948  0.765223E-02  0.520E-01    4.39       1.0  T
   6    -31.1726401 -0.754528E-02  0.141E-01    4.39       1.0  T
   7    -31.1728051 -0.165002E-03  0.113E-01    4.39       1.0  T
   8    -31.1729836 -0.178480E-03  0.763E-02    4.39       1.0  T
   9    -31.1730881 -0.104474E-03  0.429E-02    4.39       1.0  T
  10    -31.1731373 -0.492798E-04  0.438E-03    4.39       5.2  T
  11    -31.1731378 -0.478370E-06  0.120E-03    4.39      19.1  T
  12    -31.1731379 -0.345596E-07  0.392E-04    4.39      58.6  T
  13    -31.1731379  0.119150E-08  0.432E-04    4.39      53.1  T
     SCC iter.                  ...        0 min,  0.004 sec
     gradient                   ...        0 min,  0.003 sec
 * total energy  :   -30.8614199 Eh     change       -0.1370317E-02 Eh
   gradient norm :     0.0119298 Eh/α   predicted    -0.1184714E-02 ( -13.54%)
   displ. norm   :     0.6414787 α      lambda       -0.1482268E-02
   maximum displ.:     0.2982020 α      in ANC's #11, #1, #3, ...

........................................................................
.............................. CYCLE   30 ..............................
........................................................................

 iter      E             dE          RMSdq      gap      omega  full diag
   1    -31.1521534 -0.311522E+02  0.796E-01    4.38       0.0  T
   2    -31.1580410 -0.588763E-02  0.752E-01    4.37       1.0  T
   3    -31.1650229 -0.698180E-02  0.419E-01    4.47       1.0  T
   4    -31.1671721 -0.214929E-02  0.231E-01    4.46       1.0  T
   5    -31.1587164  0.845575E-02  0.570E-01    4.45       1.0  T
   6    -31.1672838 -0.856736E-02  0.206E-01    4.46       1.0  T
   7    -31.1676206 -0.336801E-03  0.168E-01    4.47       1.0  T
   8    -31.1680511 -0.430525E-03  0.107E-01    4.47       1.0  T
   9    -31.1682244 -0.173341E-03  0.700E-02    4.47       1.0  T
  10    -31.1683573 -0.132891E-03  0.571E-03    4.47       4.0  T
  11    -31.1683572  0.671749E-07  0.587E-03    4.46       3.9  T
  12    -31.1683582 -0.956241E-06  0.543E-04    4.46      42.3  T
  13    -31.1683582  0.237365E-08  0.595E-04    4.46      38.5  T
     SCC iter.                  ...        0 min,  0.005 sec
     gradient                   ...        0 min,  0.001 sec
 * total energy  :   -30.8625232 Eh     change       -0.1103295E-02 Eh
   gradient norm :     0.0187880 Eh/α   predicted    -0.1046109E-02 (  -5.18%)
   displ. norm   :     0.4889416 α      lambda       -0.1440761E-02
   maximum displ.:     0.2792524 α      in ANC's #1, #11, #4, ...

........................................................................
.............................. CYCLE   31 ..............................
........................................................................

 iter      E             dE          RMSdq      gap      omega  full diag
   1    -31.1766737 -0.311767E+02  0.297E-01    4.62       0.0  T
   2    -31.1749880  0.168565E-02  0.382E-01    4.63       1.0  T
   3    -31.1778447 -0.285673E-02  0.153E-01    4.65       1.0  T
   4    -31.1770994  0.745284E-03  0.205E-01    4.64       1.0  T
   5    -31.1780364 -0.936932E-03  0.875E-02    4.65       1.0  T
   6    -31.1782338 -0.197412E-03  0.260E-02    4.65       1.0  T
   7    -31.1782518 -0.179872E-04  0.189E-03    4.65      12.1  T
   8    -31.1782518 -0.359055E-07  0.700E-04    4.65      32.8  T
   9    -31.1782518  0.907839E-08  0.687E-04    4.65      33.4  T
     SCC iter.                  ...        0 min,  0.004 sec
     gradient                   ...        0 min,  0.001 sec
 * total energy  :   -30.8630756 Eh     change       -0.5524056E-03 Eh
   gradient norm :     0.0236784 Eh/α   predicted    -0.8925981E-03 (  61.58%)
   displ. norm   :     0.5323837 α      lambda       -0.1676034E-02
   maximum displ.:     0.2750897 α      in ANC's #3, #5, #1, ...

........................................................................
.............................. CYCLE   32 ..............................
........................................................................

 iter      E             dE          RMSdq      gap      omega  full diag
   1    -31.1486792 -0.311487E+02  0.761E-01    4.40       0.0  T
   2    -31.1514795 -0.280023E-02  0.756E-01    4.49       1.0  T
   3    -31.1591172 -0.763772E-02  0.424E-01    4.53       1.0  T
   4    -31.1623056 -0.318838E-02  0.190E-01    4.51       1.0  T
   5    -31.1516788  0.106268E-01  0.623E-01    4.48       1.0  T
   6    -31.1621740 -0.104952E-01  0.192E-01    4.51       1.0  T
   7    -31.1625841 -0.410074E-03  0.145E-01    4.51       1.0  T
   8    -31.1630074 -0.423293E-03  0.729E-02    4.51       1.0  T
   9    -31.1631458 -0.138414E-03  0.174E-02    4.51       1.3  T
  10    -31.1631541 -0.830162E-05  0.169E-03    4.51      13.6  T
  11    -31.1631541  0.100328E-08  0.162E-03    4.51      14.2  T
  12    -31.1631541 -0.536785E-07  0.833E-04    4.51      27.5  T
  13    -31.1631541 -0.189971E-07  0.192E-04    4.51     119.4  T
     SCC iter.                  ...        0 min,  0.005 sec
     gradient                   ...        0 min,  0.001 sec
 * total energy  :   -30.8635749 Eh     change       -0.4993323E-03 Eh
   gradient norm :     0.0333836 Eh/α   predicted    -0.1075539E-02 ( 115.40%)
   displ. norm   :     0.1194463 α      lambda       -0.1175317E-02
   maximum displ.:     0.0808837 α      in ANC's #11, #3, #6, ...

........................................................................
.............................. CYCLE   33 ..............................
........................................................................

 iter      E             dE          RMSdq      gap      omega  full diag
   1    -31.1699735 -0.311700E+02  0.139E-01    4.51       0.0  T
   2    -31.1648037  0.516978E-02  0.411E-01    4.49       1.0  T
   3    -31.1697328 -0.492907E-02  0.142E-01    4.50       1.0  T
   4    -31.1699943 -0.261545E-03  0.807E-02    4.50       1.0  T
   5    -31.1701085 -0.114191E-03  0.407E-02    4.50       1.0  T
   6    -31.1701366 -0.280401E-04  0.247E-02    4.50       1.0  T
   7    -31.1701528 -0.162280E-04  0.147E-03    4.50      15.6  T
   8    -31.1701528 -0.156588E-07  0.825E-04    4.50      27.8  T
   9    -31.1701528  0.324936E-07  0.134E-03    4.50      17.1  T
  10    -31.1701528 -0.485949E-07  0.238E-04    4.50      96.3  T
     SCC iter.                  ...        0 min,  0.004 sec
     gradient                   ...        0 min,  0.002 sec
 * total energy  :   -30.8639743 Eh     change       -0.3994123E-03 Eh
   gradient norm :     0.0225316 Eh/α   predicted    -0.5960452E-03 (  49.23%)
   displ. norm   :     0.2300401 α      lambda       -0.1354040E-02
   maximum displ.:     0.1102876 α      in ANC's #1, #4, #5, ...

........................................................................
.............................. CYCLE   34 ..............................
........................................................................

 iter      E             dE          RMSdq      gap      omega  full diag
   1    -31.1747171 -0.311747E+02  0.198E-01    4.77       0.0  T
   2    -31.1542065  0.205106E-01  0.856E-01    4.68       1.0  T
   3    -31.1753245 -0.211180E-01  0.101E-01    4.71       1.0  T
   4    -31.1753460 -0.215756E-04  0.599E-02    4.72       1.0  T
   5    -31.1752621  0.839342E-04  0.642E-02    4.71       1.0  T
   6    -31.1753507 -0.886421E-04  0.302E-02    4.71       1.0  T
   7    -31.1753729 -0.221369E-04  0.106E-02    4.71       2.2  T
   8    -31.1753755 -0.265111E-05  0.317E-03    4.71       7.2  T
   9    -31.1753758 -0.238738E-06  0.580E-04    4.71      39.5  T
  10    -31.1753758 -0.755778E-08  0.141E-04    4.71     162.5  T
     SCC iter.                  ...        0 min,  0.004 sec
     gradient                   ...        0 min,  0.001 sec
 * total energy  :   -30.8638816 Eh     change        0.9265846E-04 Eh
   gradient norm :     0.0297778 Eh/α   predicted    -0.7128487E-03 (-869.33%)
   displ. norm   :     0.2636064 α      lambda       -0.1747192E-02
   maximum displ.:     0.1371272 α      in ANC's #1, #2, #3, ...

........................................................................
.............................. CYCLE   35 ..............................
........................................................................

 iter      E             dE          RMSdq      gap      omega  full diag
   1    -31.1783888 -0.311784E+02  0.154E-01    4.55       0.0  T
   2    -31.1779526  0.436233E-03  0.188E-01    4.59       1.0  T
   3    -31.1785074 -0.554868E-03  0.930E-02    4.59       1.0  T
   4    -31.1785146 -0.722772E-05  0.737E-02    4.58       1.0  T
   5    -31.1786183 -0.103678E-03  0.933E-03    4.59       2.5  T
   6    -31.1786201 -0.180231E-05  0.266E-03    4.59       8.6  T
   7    -31.1786201 -0.230395E-07  0.133E-03    4.59      17.3  T
   8    -31.1786202 -0.668766E-08  0.290E-04    4.59      79.0  T
   9    -31.1786202 -0.659117E-09  0.138E-04    4.59     166.5  T
     SCC iter.                  ...        0 min,  0.003 sec
     gradient                   ...        0 min,  0.001 sec
 * total energy  :   -30.8644108 Eh     change       -0.5291853E-03 Eh
   gradient norm :     0.0232016 Eh/α   predicted    -0.9343038E-03 (  76.56%)
   displ. norm   :     0.3422083 α      lambda       -0.1361592E-02
   maximum displ.:     0.1950828 α      in ANC's #5, #4, #1, ...

........................................................................
.............................. CYCLE   36 ..............................
........................................................................

 iter      E             dE          RMSdq      gap      omega  full diag
   1    -31.1651139 -0.311651E+02  0.286E-01    4.45       0.0  T
   2    -31.1628828  0.223114E-02  0.399E-01    4.50       1.0  T
   3    -31.1663752 -0.349244E-02  0.144E-01    4.50       1.0  T
   4    -31.1661560  0.219184E-03  0.154E-01    4.49       1.0  T
   5    -31.1667081 -0.552103E-03  0.508E-02    4.49       1.0  T
   6    -31.1667616 -0.534391E-04  0.217E-02    4.49       1.1  T
   7    -31.1667728 -0.112385E-04  0.441E-03    4.49       5.2  T
   8    -31.1667734 -0.533856E-06  0.829E-04    4.49      27.7  T
   9    -31.1667734 -0.421928E-08  0.283E-04    4.49      81.1  T
     SCC iter.                  ...        0 min,  0.003 sec
     gradient                   ...        0 min,  0.001 sec
 * total energy  :   -30.8647382 Eh     change       -0.3273778E-03 Eh
   gradient norm :     0.0258742 Eh/α   predicted    -0.7605239E-03 ( 132.31%)
   displ. norm   :     0.1066093 α      lambda       -0.7665118E-03
   maximum displ.:     0.0580504 α      in ANC's #6, #5, #1, ...

........................................................................
.............................. CYCLE   37 ..............................
........................................................................

 iter      E             dE          RMSdq      gap      omega  full diag
   1    -31.1729330 -0.311729E+02  0.146E-01    4.58       0.0  T
   2    -31.1582828  0.146502E-01  0.710E-01    4.52       1.0  T
   3    -31.1733285 -0.150457E-01  0.801E-02    4.54       1.0  T
   4    -31.1734244 -0.958584E-04  0.409E-02    4.55       1.0  T
   5    -31.1734520 -0.276509E-04  0.161E-02    4.55       1.4  T
   6    -31.1734563 -0.432969E-05  0.924E-03    4.55       2.5  T
   7    -31.1734586 -0.222973E-05  0.224E-03    4.55      10.2  T
   8    -31.1734587 -0.115782E-06  0.351E-04    4.55      65.3  T
   9    -31.1734587 -0.634973E-09  0.157E-04    4.55     146.5  T
     SCC iter.                  ...        0 min,  0.003 sec
     gradient                   ...        0 min,  0.001 sec
 * total energy  :   -30.8651522 Eh     change       -0.4139807E-03 Eh
   gradient norm :     0.0100162 Eh/α   predicted    -0.3876132E-03 (  -6.37%)
   displ. norm   :     0.3349327 α      lambda       -0.4945685E-03
   maximum displ.:     0.2324818 α      in ANC's #1, #2, #11, ...

........................................................................
.............................. CYCLE   38 ..............................
........................................................................

 iter      E             dE          RMSdq      gap      omega  full diag
   1    -31.1723353 -0.311723E+02  0.128E-01    4.61       0.0  T
   2    -31.1723365 -0.118804E-05  0.808E-02    4.60       1.0  T
   3    -31.1719152  0.421333E-03  0.128E-01    4.60       1.0  T
   4    -31.1722791 -0.363900E-03  0.551E-02    4.60       1.0  T
   5    -31.1723577 -0.785959E-04  0.931E-03    4.60       2.5  T
   6    -31.1723600 -0.231844E-05  0.147E-03    4.60      15.6  T
   7    -31.1723599  0.687422E-07  0.167E-03    4.60      13.7  T
   8    -31.1723600 -0.714949E-07  0.150E-04    4.60     152.6  T
   9    -31.1723600  0.210669E-09  0.110E-04    4.60     207.8  T
     SCC iter.                  ...        0 min,  0.031 sec
     gradient                   ...        0 min,  0.001 sec
 * total energy  :   -30.8653015 Eh     change       -0.1493261E-03 Eh
   gradient norm :     0.0142725 Eh/α   predicted    -0.2750263E-03 (  84.18%)
   displ. norm   :     0.1520619 α      lambda       -0.4650466E-03
   maximum displ.:     0.0792599 α      in ANC's #1, #2, #5, ...

........................................................................
.............................. CYCLE   39 ..............................
........................................................................

 iter      E             dE          RMSdq      gap      omega  full diag
   1    -31.1757574 -0.311758E+02  0.120E-01    4.57       0.0  T
   2    -31.1719015  0.385581E-02  0.370E-01    4.55       1.0  T
   3    -31.1759292 -0.402763E-02  0.664E-02    4.56       1.0  T
   4    -31.1760111 -0.818778E-04  0.697E-03    4.56       3.3  T
   5    -31.1760110  0.221633E-07  0.425E-03    4.56       5.4  T
   6    -31.1760114 -0.351114E-06  0.155E-03    4.56      14.8  T
   7    -31.1760114  0.165312E-08  0.112E-03    4.56      20.4  T
   8    -31.1760114 -0.238337E-07  0.567E-04    4.56      40.5  T
   9    -31.1760114 -0.833592E-08  0.708E-05    4.56     323.9  T
     SCC iter.                  ...        0 min,  0.005 sec
     gradient                   ...        0 min,  0.001 sec
 * total energy  :   -30.8655739 Eh     change       -0.2723698E-03 Eh
   gradient norm :     0.0080259 Eh/α   predicted    -0.2379012E-03 ( -12.66%)
   displ. norm   :     0.2715259 α      lambda       -0.3878026E-03
   maximum displ.:     0.1781091 α      in ANC's #1, #2, #5, ...

........................................................................
.............................. CYCLE   40 ..............................
........................................................................

 iter      E             dE          RMSdq      gap      omega  full diag
   1    -31.1735763 -0.311736E+02  0.111E-01    4.49       0.0  T
   2    -31.1731607  0.415608E-03  0.136E-01    4.49       1.0  T
   3    -31.1735083 -0.347637E-03  0.860E-02    4.49       1.0  T
   4    -31.1736352 -0.126894E-03  0.247E-02    4.49       1.0  T
   5    -31.1736435 -0.828178E-05  0.676E-03    4.49       3.4  T
   6    -31.1736445 -0.101824E-05  0.155E-03    4.49      14.8  T
   7    -31.1736445  0.765761E-08  0.827E-04    4.49      27.8  T
   8    -31.1736445 -0.121422E-07  0.256E-04    4.49      89.7  T
     SCC iter.                  ...        0 min,  0.028 sec
     gradient                   ...        0 min,  0.001 sec
 * total energy  :   -30.8656666 Eh     change       -0.9267793E-04 Eh
   gradient norm :     0.0138837 Eh/α   predicted    -0.2082008E-03 ( 124.65%)
   displ. norm   :     0.0956397 α      lambda       -0.2718928E-03
   maximum displ.:     0.0641657 α      in ANC's #2, #8, #1, ...

........................................................................
.............................. CYCLE   41 ..............................
........................................................................

 iter      E             dE          RMSdq      gap      omega  full diag
   1    -31.1753457 -0.311753E+02  0.595E-02    4.53       0.0  T
   2    -31.1750335  0.312166E-03  0.115E-01    4.51       1.0  T
   3    -31.1753902 -0.356710E-03  0.274E-02    4.51       1.0  T
   4    -31.1753959 -0.566206E-05  0.104E-02    4.52       2.2  T
   5    -31.1753967 -0.766749E-06  0.295E-03    4.51       7.8  T
   6    -31.1753968 -0.160459E-06  0.913E-04    4.51      25.1  T
   7    -31.1753968 -0.722771E-08  0.357E-04    4.51      64.3  T
     SCC iter.                  ...        0 min,  0.012 sec
     gradient                   ...        0 min,  0.001 sec
 * total energy  :   -30.8658383 Eh     change       -0.1717265E-03 Eh
   gradient norm :     0.0070514 Eh/α   predicted    -0.1371916E-03 ( -20.11%)
   displ. norm   :     0.1508351 α      lambda       -0.1706460E-03
   maximum displ.:     0.1111340 α      in ANC's #2, #1, #3, ...

........................................................................
.............................. CYCLE   42 ..............................
........................................................................

 iter      E             dE          RMSdq      gap      omega  full diag
   1    -31.1762853 -0.311763E+02  0.756E-02    4.53       0.0  T
   2    -31.1760408  0.244546E-03  0.110E-01    4.52       1.0  T
   3    -31.1763223 -0.281590E-03  0.425E-02    4.52       1.0  T
   4    -31.1763475 -0.251349E-04  0.164E-02    4.52       1.4  T
   5    -31.1763492 -0.172939E-05  0.342E-03    4.52       6.7  T
   6    -31.1763494 -0.229921E-06  0.847E-04    4.52      27.1  T
   7    -31.1763494 -0.267961E-08  0.294E-04    4.52      78.1  T
     SCC iter.                  ...        0 min,  0.003 sec
     gradient                   ...        0 min,  0.001 sec
 * total energy  :   -30.8659519 Eh     change       -0.1135694E-03 Eh
   gradient norm :     0.0064229 Eh/α   predicted    -0.8726580E-04 ( -23.16%)
   displ. norm   :     0.2317427 α      lambda       -0.2180888E-03
   maximum displ.:     0.1725078 α      in ANC's #2, #4, #8, ...
 * RMSD in coord.:     1.1469091 α      energy gain  -0.1243248E-01 Eh

generating ANC from model Hessian ...
Using Lindh-Hessian (1995)
 Shifting diagonal of input Hessian by    8.9889592735959770E-003
 Lowest  eigenvalues of input Hessian
    0.000000    0.000000    0.000000    0.000000    0.000000    0.000000
    0.010000    0.011005    0.012167    0.013306    0.016727    0.019616
    0.024564    0.027597    0.030521    0.032504    0.034723    0.046462
 Highest eigenvalues
    1.338556    1.386902    1.492789    1.498967    1.720598    2.781069


........................................................................
.............................. CYCLE   43 ..............................
........................................................................

 iter      E             dE          RMSdq      gap      omega  full diag
   1    -31.1787287 -0.311787E+02  0.129E-01    4.53       0.0  T
   2    -31.1779792  0.749480E-03  0.182E-01    4.50       1.0  T
   3    -31.1788123 -0.833033E-03  0.759E-02    4.50       1.0  T
   4    -31.1788989 -0.866691E-04  0.145E-02    4.50       1.6  T
   5    -31.1789015 -0.257737E-05  0.312E-03    4.50       7.4  T
   6    -31.1789015 -0.443527E-07  0.148E-03    4.50      15.4  T
   7    -31.1789016 -0.440054E-08  0.573E-04    4.50      40.0  T
   8    -31.1789016 -0.836369E-09  0.227E-04    4.50     101.0  T
     SCC iter.                  ...        0 min,  0.003 sec
     gradient                   ...        0 min,  0.001 sec
 * total energy  :   -30.8660965 Eh     change       -0.1446631E-03 Eh
   gradient norm :     0.0078033 Eh/α   predicted     0.0000000E+00 (-100.00%)
   displ. norm   :     0.1049251 α      lambda       -0.2584228E-03
   maximum displ.:     0.0657098 α      in ANC's #3, #5, #4, ...

........................................................................
.............................. CYCLE   44 ..............................
........................................................................

 iter      E             dE          RMSdq      gap      omega  full diag
   1    -31.1780165 -0.311780E+02  0.781E-02    4.49       0.0  T
   2    -31.1780042  0.122673E-04  0.521E-02    4.50       1.0  T
   3    -31.1779067  0.974675E-04  0.689E-02    4.50       1.0  T
   4    -31.1780223 -0.115533E-03  0.136E-02    4.50       1.7  T
   5    -31.1780263 -0.402002E-05  0.291E-03    4.50       7.9  T
   6    -31.1780264 -0.163115E-06  0.793E-04    4.50      28.9  T
   7    -31.1780264  0.486991E-08  0.512E-04    4.50      44.8  T
     SCC iter.                  ...        0 min,  0.003 sec
     gradient                   ...        0 min,  0.001 sec
 * total energy  :   -30.8662981 Eh     change       -0.2015696E-03 Eh
   gradient norm :     0.0035422 Eh/α   predicted    -0.1306352E-03 ( -35.19%)
   displ. norm   :     0.2648849 α      lambda       -0.3986451E-03
   maximum displ.:     0.1923906 α      in ANC's #3, #5, #1, ...

........................................................................
.............................. CYCLE   45 ..............................
........................................................................

 iter      E             dE          RMSdq      gap      omega  full diag
   1    -31.1745217 -0.311745E+02  0.200E-01    4.44       0.0  T
   2    -31.1743029  0.218781E-03  0.157E-01    4.45       1.0  T
   3    -31.1740943  0.208643E-03  0.157E-01    4.45       1.0  T
   4    -31.1746064 -0.512114E-03  0.378E-02    4.45       1.0  T
   5    -31.1746350 -0.285726E-04  0.162E-02    4.45       1.4  T
   6    -31.1746414 -0.639767E-05  0.274E-03    4.45       8.4  T
   7    -31.1746415 -0.741933E-07  0.813E-04    4.45      28.2  T
   8    -31.1746414  0.556197E-08  0.653E-04    4.45      35.1  T
     SCC iter.                  ...        0 min,  0.010 sec
     gradient                   ...        0 min,  0.009 sec
 * total energy  :   -30.8664796 Eh     change       -0.1814747E-03 Eh
   gradient norm :     0.0114145 Eh/α   predicted    -0.2133085E-03 (  17.54%)
   displ. norm   :     0.1672225 α      lambda       -0.3394346E-03
   maximum displ.:     0.1258367 α      in ANC's #3, #5, #7, ...

........................................................................
.............................. CYCLE   46 ..............................
........................................................................

 iter      E             dE          RMSdq      gap      omega  full diag
   1    -31.1735709 -0.311736E+02  0.144E-01    4.43       0.0  T
   2    -31.1733429  0.227971E-03  0.138E-01    4.44       1.0  T
   3    -31.1736119 -0.268931E-03  0.824E-02    4.44       1.0  T
   4    -31.1736907 -0.787958E-04  0.293E-02    4.44       1.0  T
   5    -31.1737078 -0.171281E-04  0.288E-03    4.44       8.0  T
   6    -31.1737078 -0.152673E-07  0.142E-03    4.44      16.1  T
   7    -31.1737078 -0.214566E-08  0.507E-04    4.44      45.2  T
   8    -31.1737078 -0.121727E-08  0.153E-04    4.44     149.9  T
     SCC iter.                  ...        0 min,  0.003 sec
     gradient                   ...        0 min,  0.001 sec
 * total energy  :   -30.8665335 Eh     change       -0.5391182E-04 Eh
   gradient norm :     0.0180206 Eh/α   predicted    -0.1744650E-03 ( 223.61%)
   displ. norm   :     0.0589716 α      lambda       -0.3757461E-03
   maximum displ.:     0.0401101 α      in ANC's #4, #5, #12, ...

........................................................................
.............................. CYCLE   47 ..............................
........................................................................

 iter      E             dE          RMSdq      gap      omega  full diag
   1    -31.1782967 -0.311783E+02  0.619E-02    4.54       0.0  T
   2    -31.1782073  0.893372E-04  0.746E-02    4.52       1.0  T
   3    -31.1783206 -0.113280E-03  0.364E-02    4.52       1.0  T
   4    -31.1783402 -0.195996E-04  0.147E-02    4.52       1.6  T
   5    -31.1783411 -0.889398E-06  0.207E-03    4.52      11.1  T
   6    -31.1783411 -0.283402E-07  0.101E-03    4.52      22.7  T
   7    -31.1783412 -0.953372E-08  0.418E-04    4.52      54.8  T
   8    -31.1783412 -0.549324E-09  0.125E-04    4.52     183.2  T
     SCC iter.                  ...        0 min,  0.003 sec
     gradient                   ...        0 min,  0.001 sec
 * total energy  :   -30.8667455 Eh     change       -0.2120375E-03 Eh
   gradient norm :     0.0055451 Eh/α   predicted    -0.1885308E-03 ( -11.09%)
   displ. norm   :     0.2040621 α      lambda       -0.2635765E-03
   maximum displ.:     0.1463862 α      in ANC's #3, #5, #7, ...

........................................................................
.............................. CYCLE   48 ..............................
........................................................................

 iter      E             dE          RMSdq      gap      omega  full diag
   1    -31.1767964 -0.311768E+02  0.156E-01    4.48       0.0  T
   2    -31.1766432  0.153239E-03  0.127E-01    4.50       1.0  T
   3    -31.1765896  0.535531E-04  0.119E-01    4.49       1.0  T
   4    -31.1768605 -0.270911E-03  0.388E-02    4.49       1.0  T
   5    -31.1768914 -0.308699E-04  0.918E-03    4.50       2.5  T
   6    -31.1768934 -0.203412E-05  0.184E-03    4.50      12.5  T
   7    -31.1768934  0.155529E-07  0.111E-03    4.49      20.6  T
   8    -31.1768934 -0.264354E-07  0.329E-04    4.50      69.7  T
   9    -31.1768934 -0.537323E-09  0.498E-05    4.50     460.8  T
     SCC iter.                  ...        0 min,  0.003 sec
     gradient                   ...        0 min,  0.001 sec
 * total energy  :   -30.8669052 Eh     change       -0.1596623E-03 Eh
   gradient norm :     0.0101540 Eh/α   predicted    -0.1372774E-03 ( -14.02%)
   displ. norm   :     0.2002094 α      lambda       -0.1892667E-03
   maximum displ.:     0.1484611 α      in ANC's #3, #5, #1, ...

........................................................................
.............................. CYCLE   49 ..............................
........................................................................

 iter      E             dE          RMSdq      gap      omega  full diag
   1    -31.1761106 -0.311761E+02  0.141E-01    4.48       0.0  T
   2    -31.1759640  0.146545E-03  0.114E-01    4.49       1.0  T
   3    -31.1758542  0.109829E-03  0.117E-01    4.49       1.0  T
   4    -31.1761515 -0.297305E-03  0.238E-02    4.49       1.0  T
   5    -31.1761647 -0.131990E-04  0.767E-03    4.49       3.0  T
   6    -31.1761662 -0.146757E-05  0.167E-03    4.49      13.7  T
   7    -31.1761662 -0.204534E-07  0.594E-04    4.49      38.6  T
   8    -31.1761662 -0.415442E-08  0.238E-04    4.49      96.4  T
     SCC iter.                  ...        0 min,  0.003 sec
     gradient                   ...        0 min,  0.001 sec
 * total energy  :   -30.8670478 Eh     change       -0.1425956E-03 Eh
   gradient norm :     0.0126454 Eh/α   predicted    -0.9842910E-04 ( -30.97%)
   displ. norm   :     0.2418578 α      lambda       -0.3202133E-03
   maximum displ.:     0.1673528 α      in ANC's #3, #1, #5, ...

........................................................................
.............................. CYCLE   50 ..............................
........................................................................

 iter      E             dE          RMSdq      gap      omega  full diag
   1    -31.1775567 -0.311776E+02  0.146E-01    4.53       0.0  T
   2    -31.1775437  0.129162E-04  0.915E-02    4.53       1.0  T
   3    -31.1769720  0.571745E-03  0.147E-01    4.53       1.0  T
   4    -31.1775389 -0.566946E-03  0.356E-02    4.53       1.0  T
   5    -31.1775721 -0.331255E-04  0.904E-03    4.53       2.5  T
   6    -31.1775742 -0.210652E-05  0.192E-03    4.53      12.0  T
   7    -31.1775742 -0.183448E-07  0.122E-03    4.53      18.8  T
   8    -31.1775742 -0.303197E-07  0.356E-04    4.53      64.5  T
   9    -31.1775742 -0.262407E-08  0.103E-04    4.53     222.6  T
     SCC iter.                  ...        0 min,  0.003 sec
     gradient                   ...        0 min,  0.001 sec
 * total energy  :   -30.8672359 Eh     change       -0.1881465E-03 Eh
   gradient norm :     0.0067453 Eh/α   predicted    -0.1694758E-03 (  -9.92%)
   displ. norm   :     0.2285040 α      lambda       -0.1626080E-03
   maximum displ.:     0.1421402 α      in ANC's #3, #5, #1, ...

........................................................................
.............................. CYCLE   51 ..............................
........................................................................

 iter      E             dE          RMSdq      gap      omega  full diag
   1    -31.1753789 -0.311754E+02  0.153E-01    4.49       0.0  T
   2    -31.1752284  0.150524E-03  0.121E-01    4.51       1.0  T
   3    -31.1749420  0.286450E-03  0.143E-01    4.50       1.0  T
[...]

         #    Occupation            Energy/Eh            Energy/eV
      -------------------------------------------------------------
         1        2.0000           -0.7537236             -20.5099
       ...           ...                  ...                  ...
        21        2.0000           -0.4823103             -13.1243
        22        2.0000           -0.4712606             -12.8237
        23        2.0000           -0.4633785             -12.6092
        24        2.0000           -0.4534065             -12.3378
        25        2.0000           -0.4470262             -12.1642
        26        1.9991           -0.3835676             -10.4374
        27        1.0009           -0.3701455             -10.0722 (HOMO)
        28                         -0.1987657              -5.4087 (LUMO)
        29                         -0.0747212              -2.0333
        30                         -0.0055141              -0.1500
        31                          0.0413139               1.1242
        32                          0.0647467               1.7618
       ...                                ...                  ...
        46                          0.9044391              24.6110
      -------------------------------------------------------------
                  HL-Gap            0.1713797 Eh            4.6635 eV
             Fermi-level           -0.3306561 Eh           -8.9976 eV

 SCC (total)                   0 d,  0 h,  0 min,  0.006 sec
 SCC setup                      ...        0 min,  0.000 sec (  1.485%)
 Dispersion                     ...        0 min,  0.000 sec (  0.966%)
 classical contributions        ...        0 min,  0.000 sec (  0.193%)
 integral evaluation            ...        0 min,  0.000 sec (  4.092%)
 iterations                     ...        0 min,  0.003 sec ( 55.149%)
 molecular gradient             ...        0 min,  0.002 sec ( 36.614%)
 printout                       ...        0 min,  0.000 sec (  1.318%)

         :::::::::::::::::::::::::::::::::::::::::::::::::::::
         ::                     SUMMARY                     ::
         :::::::::::::::::::::::::::::::::::::::::::::::::::::
         :: total energy             -30.868328573498 Eh    ::
         :: gradient norm              0.000211230002 Eh/a0 ::
         :: HOMO-LUMO gap              4.663480112317 eV    ::
         ::.................................................::
         :: SCC energy               -31.178394610144 Eh    ::
         :: -> isotropic ES            0.070049335246 Eh    ::
         :: -> anisotropic ES          0.001514923293 Eh    ::
         :: -> anisotropic XC          0.007723852266 Eh    ::
         :: -> dispersion             -0.012805442568 Eh    ::
         :: repulsion energy           0.310005779874 Eh    ::
         :: add. restraining           0.000000000000 Eh    ::
         :: total charge               0.000000000000 e     ::
         :::::::::::::::::::::::::::::::::::::::::::::::::::::

           ------------------------------------------------- 
          |                Numerical Hessian                |
           ------------------------------------------------- 
step length          :   0.00500
SCC accuracy         :   0.30000
Hessian scale factor :   1.00000
frozen atoms in %    :   0.00000    0
RMS gradient         :   0.00021
estimated CPU  time      0.11 min
estimated wall time      0.01 min

writing file <hessian>.

 projected vibrational frequencies (cm⁻¹)
eigval :       -0.00    -0.00     0.00     0.00     0.00     0.00
eigval :       43.73    81.10    95.35   121.62   154.92   273.94
eigval :      276.53   294.94   314.89   364.90   383.70   461.89
eigval :      531.96   580.13   621.72   827.01   837.76   864.97
eigval :      885.36   926.70   974.65  1004.01  1080.27  1094.38
eigval :     1124.94  1138.67  1174.81  1194.46  1219.40  1225.55
eigval :     1292.97  1299.04  1317.22  1321.71  1343.32  1397.42
eigval :     1439.92  1455.79  1474.05  1537.11  2052.47  2882.82
eigval :     2920.65  2939.95  2955.11  2979.05  2995.79  3005.94
eigval :     3035.90  3384.81  3437.70
           -------------------------------------------------
          |                Property Printout                |
           -------------------------------------------------

    * Orbital Energies and Occupations

         #    Occupation            Energy/Eh            Energy/eV
      -------------------------------------------------------------
         1        2.0000           -0.7537234             -20.5099
       ...           ...                  ...                  ...
        15        2.0000           -0.5415339             -14.7359
        16        2.0000           -0.5374178             -14.6239
        17        2.0000           -0.5211158             -14.1803
        18        2.0000           -0.5089954             -13.8505
        19        2.0000           -0.5004347             -13.6175
        20        2.0000           -0.4868817             -13.2487
        21        2.0000           -0.4823104             -13.1243
        22        2.0000           -0.4712605             -12.8237
        23        2.0000           -0.4633782             -12.6092
        24        2.0000           -0.4534063             -12.3378
        25        2.0000           -0.4470263             -12.1642
        26        1.9991           -0.3835679             -10.4374
        27        1.0009           -0.3701452             -10.0722 (HOMO)
        28                         -0.1987653              -5.4087 (LUMO)
        29                         -0.0747208              -2.0333
        30                         -0.0055140              -0.1500
        31                          0.0413137               1.1242
        32                          0.0647465               1.7618
        33                          0.0816155               2.2209
        34                          0.1078508               2.9348
        35                          0.1136672               3.0930
        36                          0.1294324               3.5220
        37                          0.1423157               3.8726
        38                          0.1725235               4.6946
       ...                                ...                  ...
        46                          0.9044395              24.6111
      -------------------------------------------------------------
                  HL-Gap            0.1713799 Eh            4.6635 eV
             Fermi-level           -0.3306559 Eh           -8.9976 eV

     #   Z          covCN         q      C6AA      α(0)
     1   7 N        2.629    -0.303    27.804     7.831
     2   1 H        0.860     0.154     1.374     1.836
     3   1 H        0.860     0.188     1.168     1.693
     4   6 C        3.732     0.011    20.489     6.461
     5   6 C        3.799    -0.076    21.961     6.672
     6   6 C        3.701     0.073    19.514     6.317
     7   8 O        1.703    -0.216    17.581     5.661
     8   6 C        3.587     0.054    20.311     6.535
     9   6 C        2.567     0.406    20.192     7.346
    10   8 O        0.856    -0.391    21.503     6.217
    11   8 O        0.856    -0.374    21.163     6.168
    12   1 H        0.924     0.049     2.327     2.386
    13   1 H        0.924     0.051     2.303     2.373
    14   1 H        0.924     0.059     2.210     2.325
    15   1 H        0.925     0.051     2.305     2.374
    16   1 H        0.923     0.045     2.381     2.413
    17   1 H        0.924     0.073     2.055     2.242
    18   1 H        0.925     0.086     1.917     2.165
    19   1 H        0.924     0.058     2.224     2.332

 Mol. C6AA /au·bohr⁶  :       3062.362143
 Mol. C8AA /au·bohr⁸  :      65228.357943
 Mol. α(0) /au        :         81.347160


Wiberg/Mayer (AO) data.
largest (>0.10) Wiberg bond orders for each atom

 ---------------------------------------------------------------------------
     #   Z sym  total        # sym  WBO       # sym  WBO       # sym  WBO
 ---------------------------------------------------------------------------
     1   7 N    3.167 --     4 C    1.047     2 H    0.960     3 H    0.929
     2   1 H    0.976 --     1 N    0.960
     3   1 H    0.965 --     1 N    0.929
     4   6 C    3.984 --     1 N    1.047     5 C    0.977    13 H    0.974
                            12 H    0.966
     5   6 C    3.988 --     6 C    1.008     4 C    0.977    14 H    0.973
                            15 H    0.973
     6   6 C    3.930 --     5 C    1.008     7 O    0.958    16 H    0.956
                            17 H    0.950
     7   8 O    2.309 --     8 C    1.173     6 C    0.958
     8   6 C    3.846 --     7 O    1.173    18 H    0.961    19 H    0.958
                             9 C    0.512
     9   6 C    3.937 --    11 O    1.711    10 O    1.667     8 C    0.512
    10   8 O    2.148 --     9 C    1.667    11 O    0.304
    11   8 O    2.160 --     9 C    1.711    10 O    0.304
    12   1 H    0.995 --     4 C    0.966
    13   1 H    0.997 --     4 C    0.974
    14   1 H    0.996 --     5 C    0.973
    15   1 H    0.997 --     5 C    0.973
    16   1 H    0.998 --     6 C    0.956
    17   1 H    0.994 --     6 C    0.950
    18   1 H    0.992 --     8 C    0.961
    19   1 H    0.996 --     8 C    0.958
 ---------------------------------------------------------------------------

Topologies differ in total number of bonds
Writing topology from bond orders to xtbtopo.mol

molecular dipole:
                 x           y           z       tot (Debye)
 q only:       -0.214       1.789      -1.165
   full:        0.316       1.971      -1.149       5.855
molecular quadrupole (traceless):
                xx          xy          yy          xz          yz          zz
 q only:        3.944       2.095      -1.289      -1.661       8.250      -2.654
  q+dip:        1.701       3.255      -1.790      -2.308       9.376       0.089
   full:        1.294       3.195      -1.127      -2.144       9.533      -0.168

           -------------------------------------------------
          |                Geometry Summary                 |
           -------------------------------------------------

      molecular mass/u    :      132.1380050
   center of mass at/Å    :        0.0624801      -0.2738958       0.3448684
  moments of inertia/u·Å² :        0.1680386E+03   0.5081189E+03   0.5991428E+03
rotational constants/cm⁻¹ :        0.1003200E+00   0.3317655E-01   0.2813625E-01

 * 16 selected distances

     #   Z          #   Z                                           value/Å
     1   7 N        2   1 H                                       1.0123385 (min)
     1   7 N        3   1 H                                       1.0143273
     1   7 N        4   6 C                                       1.4389046
     5   6 C        6   6 C                                       1.5225492 (max)
     6   6 C        7   8 O                                       1.4191859
     7   8 O        8   6 C                                       1.3499505
     9   6 C       10   8 O                                       1.1986352
     9   6 C       11   8 O                                       1.1915455
     4   6 C       12   1 H                                       1.0951917
     4   6 C       13   1 H                                       1.0922405
Molecule has no symmetry elements
It seems to be the C1 point group
     5   6 C       14   1 H                                       1.0915996
     5   6 C       15   1 H                                       1.0896865
     6   6 C       16   1 H                                       1.0991518
     6   6 C       17   1 H                                       1.0971562
     8   6 C       18   1 H                                       1.0858392
     8   6 C       19   1 H                                       1.0912340

 * 5 distinct bonds (by element types)

   Z      Z             #   av. dist./Å        max./Å        min./Å
   1 H    6 C           8     1.0927624     1.0991518     1.0858392
   6 C    6 C           1     1.5225492     1.5225492     1.5225492
   1 H    7 N           2     1.0133329     1.0143273     1.0123385
   6 C    7 N           1     1.4389046     1.4389046     1.4389046
   6 C    8 O           4     1.2898293     1.4191859     1.1915455

           -------------------------------------------------
          |               Frequency Printout                |
           -------------------------------------------------
 projected vibrational frequencies (cm⁻¹)
eigval :       -0.00    -0.00     0.00     0.00     0.00     0.00
eigval :       43.73    81.10    95.35   121.62   154.92   273.94
eigval :      276.53   294.94   314.89   364.90   383.70   461.89
eigval :      531.96   580.13   621.72   827.01   837.76   864.97
eigval :      885.36   926.70   974.65  1004.01  1080.27  1094.38
eigval :     1124.94  1138.67  1174.81  1194.46  1219.40  1225.55
eigval :     1292.97  1299.04  1317.22  1321.71  1343.32  1397.42
eigval :     1439.92  1455.79  1474.05  1537.11  2052.47  2882.82
eigval :     2920.65  2939.95  2955.11  2979.05  2995.79  3005.94
eigval :     3035.90  3384.81  3437.70
 reduced masses (amu)
   1: 12.99   2: 13.37   3: 11.54   4: 11.79   5: 13.34   6: 12.10   7: 14.78   8: 10.94
   9: 11.90  10: 10.22  11: 10.61  12: 12.47  13:  9.01  14: 12.26  15: 10.31  16:  3.11
  17: 10.18  18: 10.06  19:  7.73  20: 11.75  21: 12.38  22:  7.28  23:  5.51  24:  5.42
  25:  5.35  26:  6.61  27:  7.85  28:  4.23  29:  7.51  30:  4.25  31:  9.22  32:  4.84
  33:  6.15  34:  9.81  35:  5.10  36:  3.73  37: 14.24  38:  4.01  39:  3.67  40:  3.28
  41:  4.53  42:  2.57  43:  1.84  44:  1.96  45:  1.94  46:  2.00  47: 13.20  48:  1.85
  49:  1.58  50:  1.77  51:  1.64  52:  1.68  53:  1.83  54:  1.67  55:  1.86  56:  1.58
  57:  2.03
 IR intensities (km·mol⁻¹)
   1:  0.47   2:  1.13   3:  1.09   4:  4.73   5:  1.87   6:  2.07   7:  1.10   8:  0.63
   9:  1.46  10: 21.55  11:  5.42  12: 31.83  13:  7.78  14:  6.83  15:  5.61  16: 13.37
  17:178.93  18: 11.30  19: 23.25  20:123.00  21:140.61  22: 16.03  23: 19.14  24:244.48
  25: 32.28  26:206.94  27: 10.63  28: 41.28  29: 25.84  30: 91.11  31:  4.20  32:  9.06
  33: 20.12  34: 32.67  35: 18.09  36: 10.18  37:199.92  38:  5.66  39:  7.68  40:  3.08
  41:  1.39  42:  7.94  43:  4.11  44:  2.19  45: 21.04  46: 32.60  47:420.44  48: 31.67
  49:  6.03  50: 49.73  51:  7.37  52:  8.18  53: 42.86  54: 32.79  55:  6.80  56: 43.01
  57:  2.41
 Raman intensities (amu)
   1:  0.00   2:  0.00   3:  0.00   4:  0.00   5:  0.00   6:  0.00   7:  0.00   8:  0.00
   9:  0.00  10:  0.00  11:  0.00  12:  0.00  13:  0.00  14:  0.00  15:  0.00  16:  0.00
  17:  0.00  18:  0.00  19:  0.00  20:  0.00  21:  0.00  22:  0.00  23:  0.00  24:  0.00
  25:  0.00  26:  0.00  27:  0.00  28:  0.00  29:  0.00  30:  0.00  31:  0.00  32:  0.00
  33:  0.00  34:  0.00  35:  0.00  36:  0.00  37:  0.00  38:  0.00  39:  0.00  40:  0.00
  41:  0.00  42:  0.00  43:  0.00  44:  0.00  45:  0.00  46:  0.00  47:  0.00  48:  0.00
  49:  0.00  50:  0.00  51:  0.00  52:  0.00  53:  0.00  54:  0.00  55:  0.00  56:  0.00
  57:  0.00
 output can be read by thermo (or use thermo option).
 writing <g98.out> molden fake output.
 recommended (thermochemical) frequency scaling factor: 1.0
           -------------------------------------------------
          |             Thermodynamic Functions             |
           -------------------------------------------------

c1  symmetry found (for desy threshold:  0.10E+00) used in thermo

          ...................................................
          :                      SETUP                      :
          :.................................................:
          :  # frequencies                          51      :
          :  # imaginary freq.                       0      :
          :  linear?                             false      :
          :  only rotor calc.                    false      :
          :  symmetry                               c1      :
          :  rotational number                       1      :
          :  scaling factor                  1.0000000      :
          :  rotor cutoff                   50.0000000 cm⁻¹ :
          :  imag. cutoff                  -20.0000000 cm⁻¹ :
          :.................................................:

    mode    ω/cm⁻¹     T·S(HO)/kcal·mol⁻¹    T·S(FR)/kcal·mol⁻¹   T·S(vib)
   ------------------------------------------------------------------------
       1     43.73    -1.51538 ( 36.91%)    -1.09599 ( 63.09%)    -1.25078
       2     81.10    -1.15208 ( 87.38%)    -0.91313 ( 12.62%)    -1.12192
       3     95.35    -1.05762 ( 92.97%)    -0.86520 (  7.03%)    -1.04409
       4    121.62    -0.91666 ( 97.22%)    -0.79314 (  2.78%)    -0.91323
       5    154.92    -0.77843 ( 98.93%)    -0.72145 (  1.07%)    -0.77782
       6    273.94    -0.46846 ( 99.89%)    -0.55263 (  0.11%)    -0.46855
       7    276.53    -0.46363 ( 99.89%)    -0.54984 (  0.11%)    -0.46372
       8    294.94    -0.43097 ( 99.92%)    -0.53076 (  0.08%)    -0.43105
   ------------------------------------------------------------------------

   temp. (K)  partition function   enthalpy   heat capacity  entropy
                                   cal/mol     cal/K/mol   cal/K/mol   J/K/mol
 298.15  VIB  0.132E+04             4705.864     29.828     29.010
         ROT  0.546E+06              888.752      2.981     29.235
         INT  0.719E+09             5594.616     32.809     58.245
         TR   0.147E+28             1481.254      4.968     40.530
         TOT                        7075.8704    37.7767    98.7753   413.2758

       T/K    H(0)-H(T)+PV         H(T)/Eh          T*S/Eh         G(T)/Eh
   ------------------------------------------------------------------------
    298.15    0.112761E-01    0.163100E+00    0.469313E-01    0.116169E+00
   ------------------------------------------------------------------------

         :::::::::::::::::::::::::::::::::::::::::::::::::::::
         ::                  THERMODYNAMIC                  ::
         :::::::::::::::::::::::::::::::::::::::::::::::::::::
         :: total free energy         -30.752159831612 Eh   ::
         ::.................................................::
         :: total energy              -30.868328573480 Eh   ::
         :: zero point energy           0.151823949843 Eh   ::
         :: G(RRHO) w/o ZPVE           -0.035655207974 Eh   ::
         :: G(RRHO) contrib.            0.116168741868 Eh   ::
         :::::::::::::::::::::::::::::::::::::::::::::::::::::

optimized geometry written to: xtbopt.xyz


           -------------------------------------------------
          | TOTAL ENERGY              -30.868328573480 Eh   |
          | TOTAL ENTHALPY            -30.705228506386 Eh   |
          | TOTAL FREE ENERGY         -30.752159831612 Eh   |
          | GRADIENT NORM               0.000212123916 Eh/α |
          | HOMO-LUMO GAP               4.663483558410 eV   |
           -------------------------------------------------

------------------------------------------------------------------------
 * finished run on 2024/06/26 at 22:14:43.873     
------------------------------------------------------------------------
 total:
 * wall-time:     0 d,  0 h,  0 min,  0.659 sec
 *  cpu-time:     0 d,  0 h,  0 min, 17.224 sec
 * ratio c/w:    26.117 speedup
 SCF:
 * wall-time:     0 d,  0 h,  0 min,  0.013 sec
 *  cpu-time:     0 d,  0 h,  0 min,  0.338 sec
 * ratio c/w:    26.575 speedup
 ANC optimizer:
 * wall-time:     0 d,  0 h,  0 min,  0.547 sec
 *  cpu-time:     0 d,  0 h,  0 min, 15.197 sec
 * ratio c/w:    27.774 speedup
 analytical hessian:
 * wall-time:     0 d,  0 h,  0 min,  0.084 sec
 *  cpu-time:     0 d,  0 h,  0 min,  1.470 sec
 * ratio c/w:    17.481 speedup

