
                                 *****************
                                 * O   R   C   A *
                                 *****************

           --- An Ab Initio, DFT and Semiempirical electronic structure package ---

                  #######################################################
                  #                        -***-                        #
                  #          Department of theory and spectroscopy      #
                  #               Directorship: Frank Neese             #
                  #        Max Planck Institute fuer Kohlenforschung    #
                  #                Kaiser Wilhelm Platz 1               #
                  #                 D-45470 Muelheim/Ruhr               #
                  #                      Germany                        #
                  #                                                     #
                  #                  All rights reserved                #
                  #                        -***-                        #
                  #######################################################


                         Program Version 4.2.1 -  RELEASE  -


 With contributions from (in alphabetic order):
   Daniel Aravena         : Magnetic Suceptibility
   Michael Atanasov       : Ab Initio Ligand Field Theory (pilot matlab implementation)
   Alexander A. Auer      : GIAO ZORA, VPT2
   Ute Becker             : Parallelization
   Giovanni Bistoni       : ED, misc. LED, open-shell LED, HFLD
   Martin Brehm           : Molecular dynamics
   Dmytro Bykov           : SCF Hessian
   Vijay G. Chilkuri      : MRCI spin determinant printing, contributions to CSF-ICE
   Dipayan Datta          : RHF DLPNO-CCSD density
   Achintya Kumar Dutta   : EOM-CC, STEOM-CC
   Dmitry Ganyushin       : Spin-Orbit,Spin-Spin,Magnetic field MRCI
   Miquel Garcia          : C-PCM Hessian, Gaussian charge scheme
   Yang Guo               : DLPNO-NEVPT2, CIM, IAO-localization
   Andreas Hansen         : Spin unrestricted coupled pair/coupled cluster methods
   Benjamin Helmich-Paris : CASSCF linear response (MC-RPA)
   Lee Huntington         : MR-EOM, pCC
   Robert Izsak           : Overlap fitted RIJCOSX, COSX-SCS-MP3, EOM
   Christian Kollmar      : KDIIS, OOCD, Brueckner-CCSD(T), CCSD density
   Simone Kossmann        : Meta GGA functionals, TD-DFT gradient, OOMP2, MP2 Hessian
   Martin Krupicka        : AUTO-CI
   Lucas Lang             : DCDCAS
   Dagmar Lenk            : GEPOL surface, SMD
   Dimitrios Liakos       : Extrapolation schemes; Compound Job, initial MDCI parallelization
   Dimitrios Manganas     : Further ROCIS development; embedding schemes
   Dimitrios Pantazis     : SARC Basis sets
   Taras Petrenko         : DFT Hessian,TD-DFT gradient, ASA, ECA, R-Raman, ABS, FL, XAS/XES, NRVS
   Peter Pinski           : DLPNO-MP2, DLPNO-MP2 Gradient
   Christoph Reimann      : Effective Core Potentials
   Marius Retegan         : Local ZFS, SOC
   Christoph Riplinger    : Optimizer, TS searches, QM/MM, DLPNO-CCSD(T), (RO)-DLPNO pert. Triples
   Tobias Risthaus        : Range-separated hybrids, TD-DFT gradient, RPA, STAB
   Michael Roemelt        : Original ROCIS implementation
   Masaaki Saitow         : Open-shell DLPNO-CCSD energy and density
   Barbara Sandhoefer     : DKH picture change effects
   Avijit Sen             : IP-ROCIS
   Kantharuban Sivalingam : CASSCF convergence, NEVPT2, FIC-MRCI
   Bernardo de Souza      : ESD, SOC TD-DFT
   Georgi Stoychev        : AutoAux, RI-MP2 NMR
   Willem Van den Heuvel  : Paramagnetic NMR
   Boris Wezisla          : Elementary symmetry handling
   Frank Wennmohs         : Technical directorship


 We gratefully acknowledge several colleagues who have allowed us to
 interface, adapt or use parts of their codes:
   Stefan Grimme, W. Hujo, H. Kruse,             : VdW corrections, initial TS optimization,
                  C. Bannwarth                     DFT functionals, gCP, sTDA/sTD-DF
   Ed Valeev, F. Pavosevic, A. Kumar             : LibInt (2-el integral package), F12 methods
   Garnet Chan, S. Sharma, J. Yang, R. Olivares  : DMRG
   Ulf Ekstrom                                   : XCFun DFT Library
   Mihaly Kallay                                 : mrcc  (arbitrary order and MRCC methods)
   Andreas Klamt, Michael Diedenhofen            : otool_cosmo (COSMO solvation model)
   Jiri Pittner, Ondrej Demel                    : Mk-CCSD
   Frank Weinhold                                : gennbo (NPA and NBO analysis)
   Christopher J. Cramer and Donald G. Truhlar   : smd solvation model
   Lars Goerigk                                  : TD-DFT with DH, B97 family of functionals
   V. Asgeirsson, H. Jonsson                     : NEB implementation
   FAccTs GmbH                                   : IRC, NEB, NEB-TS, Multilevel, MM, QM/MM, CI optimization
   S Lehtola, MJT Oliveira, MAL Marques          : LibXC Library


 Your calculation uses the libint2 library for the computation of 2-el integrals
 For citations please refer to: http://libint.valeyev.net

 Your ORCA version has been built with support for libXC version: 4.2.3
 For citations please refer to: https://tddft.org/programs/libxc/

 This ORCA versions uses:
   CBLAS   interface :  Fast vector & matrix operations
   LAPACKE interface :  Fast linear algebra routines
   SCALAPACK package :  Parallel linear algebra routines


----- Orbital basis set information -----
Your calculation utilizes the basis: ma-def2-TZVPP
   F. Weigend and R. Ahlrichs, Phys. Chem. Chem. Phys. 7, 3297 (2005).
   J. Zheng, X. Xu and D. G. Truhlar, Theor. Chem. Acc. 128, 295 (2011).

----- AuxJ basis set information -----
Your calculation utilizes the AutoAux generation procedure.
  G. L. Stoychev, A. A. Auer, F. Neese, J. Chem. Theory Comput. 13, 554 (2017)

----- AuxC basis set information -----
Your calculation utilizes the AutoAux generation procedure.
  G. L. Stoychev, A. A. Auer, F. Neese, J. Chem. Theory Comput. 13, 554 (2017)

----- AuxJK basis set information -----
Your calculation utilizes the AutoAux generation procedure.
  G. L. Stoychev, A. A. Auer, F. Neese, J. Chem. Theory Comput. 13, 554 (2017)

================================================================================
                                        WARNINGS
                       Please study these warnings very carefully!
================================================================================


WARNING: MDCI localization with Augmented Hessian Foster-Boys
  ===> : Switching off randomization!

WARNING: Post HF methods need fully converged wavefunctions
  ===> : Setting SCFConvForced true
         You can overwrite this default with %scf ConvForced false 


INFO   : the flag for use of LIBINT has been found!

================================================================================
                                       INPUT FILE
================================================================================
NAME = tmp_orca.inp
|  1> ! DLPNO-CCSD(T) ma-def2-TZVPP NumGrad AutoAux EnGrad
|  2> %geom MaxIter 100 end
|  3> %output 
|  4> xyzfile=True 
|  5> end 
|  6> %scf 
|  7> maxiter 250 
|  8> end
|  9> %output
| 10> Print[P_Hirshfeld] = 1
| 11> end
| 12> % maxcore
| 13> 4000
| 14> *xyz -1 1
| 15> C    2.02546000   4.88630000   3.71346000 
| 16> Cl   2.88330000   6.54406000   5.27534000 
| 17> H    2.68927000   4.10593000   4.23192000 
| 18> H    1.02572000   4.98620000   4.15051000 
| 19> H    2.32653000   5.45953000   2.93616000 
| 20> Cl   1.23196000   3.19392000   2.32252000 
| 21> *
| 22> 
| 23>                          ****END OF INPUT****
================================================================================

                     *******************************
                     * Energy+Gradient Calculation *
                     *******************************

---------------------------------
CARTESIAN COORDINATES (ANGSTROEM)
---------------------------------
  C      2.025460    4.886300    3.713460
  Cl     2.883300    6.544060    5.275340
  H      2.689270    4.105930    4.231920
  H      1.025720    4.986200    4.150510
  H      2.326530    5.459530    2.936160
  Cl     1.231960    3.193920    2.322520

----------------------------
CARTESIAN COORDINATES (A.U.)
----------------------------
  NO LB      ZA    FRAG     MASS         X           Y           Z
   0 C     6.0000    0    12.011    3.827565    9.233769    7.017422
   1 Cl   17.0000    0    35.453    5.448647   12.366481    9.968948
   2 H     1.0000    0     1.008    5.081984    7.759083    7.997170
   3 H     1.0000    0     1.008    1.938330    9.422552    7.843327
   4 H     1.0000    0     1.008    4.396505   10.317017    5.548538
   5 Cl   17.0000    0    35.453    2.328067    6.035634    4.388927

--------------------------------
INTERNAL COORDINATES (ANGSTROEM)
--------------------------------
 C      0   0   0     0.000000000000     0.00000000     0.00000000
 Cl     1   0   0     2.433829660761     0.00000000     0.00000000
 H      1   2   0     1.148225511213    88.24576583     0.00000000
 H      1   2   3     1.095660887364    90.20169163   114.17016113
 H      1   2   3     1.011647699449    90.12802597   235.93178945
 Cl     1   2   3     2.329915534521   176.29053517    26.71983728

---------------------------
INTERNAL COORDINATES (A.U.)
---------------------------
 C      0   0   0     0.000000000000     0.00000000     0.00000000
 Cl     1   0   0     4.599271515453     0.00000000     0.00000000
 H      1   2   0     2.169831756174    88.24576583     0.00000000
 H      1   2   3     2.070499012768    90.20169163   114.17016113
 H      1   2   3     1.911737095970    90.12802597   235.93178945
 Cl     1   2   3     4.402902275413   176.29053517    26.71983728

---------------------
BASIS SET INFORMATION
---------------------
There are 3 groups of distinct atoms

 Group   1 Type C   : 12s7p2d1f contracted to 6s4p2d1f pattern {621111/4111/11/1}
 Group   2 Type Cl  : 15s10p3d1f contracted to 6s6p3d1f pattern {732111/511111/111/1}
 Group   3 Type H   : 5s2p1d contracted to 3s2p1d pattern {311/11/1}

Atom   0C    basis set group =>   1
Atom   1Cl   basis set group =>   2
Atom   2H    basis set group =>   3
Atom   3H    basis set group =>   3
Atom   4H    basis set group =>   3
Atom   5Cl   basis set group =>   2
---------------------------------
AUXILIARY/J BASIS SET INFORMATION
---------------------------------
There are 3 groups of distinct atoms

 Group   1 Type C   : 18s15p14d7f3g contracted to 18s15p14d7f3g pattern {111111111111111111/111111111111111/11111111111111/1111111/111}
 Group   2 Type Cl  : 19s17p16d8f5g contracted to 19s17p16d8f5g pattern {1111111111111111111/11111111111111111/1111111111111111/11111111/11111}
 Group   3 Type H   : 11s4p3d2f contracted to 11s4p3d2f pattern {11111111111/1111/111/11}

Atom   0C    basis set group =>   1
Atom   1Cl   basis set group =>   2
Atom   2H    basis set group =>   3
Atom   3H    basis set group =>   3
Atom   4H    basis set group =>   3
Atom   5Cl   basis set group =>   2
---------------------------------
AUXILIARY/C BASIS SET INFORMATION
---------------------------------
There are 3 groups of distinct atoms

 Group   1 Type C   : 18s15p14d7f3g contracted to 18s15p14d7f3g pattern {111111111111111111/111111111111111/11111111111111/1111111/111}
 Group   2 Type Cl  : 19s17p16d8f5g contracted to 19s17p16d8f5g pattern {1111111111111111111/11111111111111111/1111111111111111/11111111/11111}
 Group   3 Type H   : 11s4p3d2f contracted to 11s4p3d2f pattern {11111111111/1111/111/11}

Atom   0C    basis set group =>   1
Atom   1Cl   basis set group =>   2
Atom   2H    basis set group =>   3
Atom   3H    basis set group =>   3
Atom   4H    basis set group =>   3
Atom   5Cl   basis set group =>   2
----------------------------------
AUXILIARY/JK BASIS SET INFORMATION
----------------------------------
There are 3 groups of distinct atoms

 Group   1 Type C   : 18s15p14d7f3g contracted to 18s15p14d7f3g pattern {111111111111111111/111111111111111/11111111111111/1111111/111}
 Group   2 Type Cl  : 19s17p16d8f5g contracted to 19s17p16d8f5g pattern {1111111111111111111/11111111111111111/1111111111111111/11111111/11111}
 Group   3 Type H   : 11s4p3d2f contracted to 11s4p3d2f pattern {11111111111/1111/111/11}

Atom   0C    basis set group =>   1
Atom   1Cl   basis set group =>   2
Atom   2H    basis set group =>   3
Atom   3H    basis set group =>   3
Atom   4H    basis set group =>   3
Atom   5Cl   basis set group =>   2
------------------------------------------------------------------------------
                           ORCA GTO INTEGRAL CALCULATION
------------------------------------------------------------------------------

                         BASIS SET STATISTICS AND STARTUP INFO

 # of primitive gaussian shells          ...  104
 # of primitive gaussian functions       ...  232
 # of contracted shells                  ...   63
 # of contracted basis functions         ...  169
 Highest angular momentum                ...    3
 Maximum contraction depth               ...    7
 Integral package used                   ... LIBINT
 Integral threshhold            Thresh   ...  2.500e-11
 Primitive cut-off              TCut     ...  2.500e-12


------------------------------ INTEGRAL EVALUATION ----------------------------


 * One electron integrals 
 Pre-screening matrix                    ... done
 Shell pair data                         ... done (   0.001 sec)

-------------------------------------------------------------------------------
                                 ORCA SCF
-------------------------------------------------------------------------------

------------
SCF SETTINGS
------------
Hamiltonian:
 Ab initio Hamiltonian  Method          .... Hartree-Fock(GTOs)


General Settings:
 Integral files         IntName         .... tmp_orca
 Hartree-Fock type      HFTyp           .... RHF
 Total Charge           Charge          ....   -1
 Multiplicity           Mult            ....    1
 Number of Electrons    NEL             ....   44
 Basis Dimension        Dim             ....  169
 Nuclear Repulsion      ENuc            ....    107.7482590463 Eh

Convergence Acceleration:
 DIIS                   CNVDIIS         .... on
   Start iteration      DIISMaxIt       ....    12
   Startup error        DIISStart       ....  0.200000
   # of expansion vecs  DIISMaxEq       ....     5
   Bias factor          DIISBfac        ....   1.050
   Max. coefficient     DIISMaxC        ....  10.000
 Newton-Raphson         CNVNR           .... off
 SOSCF                  CNVSOSCF        .... on
   Start iteration      SOSCFMaxIt      ....   150
   Startup grad/error   SOSCFStart      ....  0.003300
 Level Shifting         CNVShift        .... on
   Level shift para.    LevelShift      ....    0.2500
   Turn off err/grad.   ShiftErr        ....    0.0010
 Zerner damping         CNVZerner       .... off
 Static damping         CNVDamp         .... on
   Fraction old density DampFac         ....    0.7000
   Max. Damping (<1)    DampMax         ....    0.9800
   Min. Damping (>=0)   DampMin         ....    0.0000
   Turn off err/grad.   DampErr         ....    0.1000
 Fernandez-Rico         CNVRico         .... off

SCF Procedure:
 Maximum # iterations   MaxIter         ....   250
 SCF integral mode      SCFMode         .... Direct
   Integral package                     .... LIBINT
 Reset frequency        DirectResetFreq ....    20
 Integral Threshold     Thresh          ....  2.500e-11 Eh
 Primitive CutOff       TCut            ....  2.500e-12 Eh

Convergence Tolerance:
 Convergence Check Mode ConvCheckMode   .... Total+1el-Energy
 Convergence forced     ConvForced      .... 1
 Energy Change          TolE            ....  1.000e-08 Eh
 1-El. energy change                    ....  1.000e-05 Eh
 Orbital Gradient       TolG            ....  1.000e-05
 Orbital Rotation angle TolX            ....  1.000e-05
 DIIS Error             TolErr          ....  5.000e-07


Diagonalization of the overlap matrix:
Smallest eigenvalue                        ... 3.594e-04
Time for diagonalization                   ...    0.006 sec
Threshold for overlap eigenvalues          ... 1.000e-08
Number of eigenvalues below threshold      ... 0
Time for construction of square roots      ...    0.002 sec
Total time needed                          ...    0.009 sec

-------------------
DFT GRID GENERATION
-------------------

General Integration Accuracy     IntAcc      ...  4.340
Radial Grid Type                 RadialGrid  ... Gauss-Chebyshev
Angular Grid (max. acc.)         AngularGrid ... Lebedev-110
Angular grid pruning method      GridPruning ... 3 (G Style)
Weight generation scheme         WeightScheme... Becke
Basis function cutoff            BFCut       ...    1.0000e-11
Integration weight cutoff        WCut        ...    1.0000e-14
Grids for H and He will be reduced by one unit

# of grid points (after initial pruning)     ...   7726 (   0.0 sec)
# of grid points (after weights+screening)   ...   7579 (   0.0 sec)
nearest neighbour list constructed           ...    0.0 sec
Grid point re-assignment to atoms done       ...    0.0 sec
Grid point division into batches done        ...    0.0 sec
Reduced shell lists constructed in    0.1 sec

Total number of grid points                  ...     7579
Total number of batches                      ...      122
Average number of points per batch           ...       62
Average number of grid points per atom       ...     1263
Average number of shells per batch           ...    45.72 (72.58%)
Average number of basis functions per batch  ...   123.58 (73.12%)
Average number of large shells per batch     ...    38.99 (85.28%)
Average number of large basis fcns per batch ...   102.94 (83.30%)
Maximum spatial batch extension              ...  27.48, 21.78, 20.24 au
Average spatial batch extension              ...   5.47,  4.83,  4.80 au

Time for grid setup =    0.081 sec

------------------------------
INITIAL GUESS: MODEL POTENTIAL
------------------------------
Loading Hartree-Fock densities                     ... done
Calculating cut-offs                               ... done
Setting up the integral package                    ... done
Initializing the effective Hamiltonian             ... done
Starting the Coulomb interaction                   ... done (   0.0 sec)
Reading the grid                                   ... done
Mapping shells                                     ... done
Starting the XC term evaluation                    ... done (   0.0 sec)
Transforming the Hamiltonian                       ... done (   0.0 sec)
Diagonalizing the Hamiltonian                      ... done (   0.0 sec)
Back transforming the eigenvectors                 ... done (   0.0 sec)
Now organizing SCF variables                       ... done
                      ------------------
                      INITIAL GUESS DONE (   0.3 sec)
                      ------------------
--------------
SCF ITERATIONS
--------------
ITER       Energy         Delta-E        Max-DP      RMS-DP      [F,P]     Damp
               ***  Starting incremental Fock matrix formation  ***
  0   -958.5444719820   0.000000000000 0.06470861  0.00098988  0.2212899 0.7000
  1   -958.5884429714  -0.043970989341 0.04798787  0.00078733  0.1643700 0.7000
                               ***Turning on DIIS***
  2   -958.6178583552  -0.029415383802 0.03058812  0.00053759  0.1216568 0.7000
  3   -959.2495416914  -0.631683336232 0.05842391  0.00116629  0.0894622 0.0000
  4   -958.6518401256   0.597701565758 0.00636580  0.00020363  0.0094034 0.0000
  5   -958.6541722858  -0.002332160165 0.00444412  0.00014426  0.0047562 0.0000
  6   -958.6822693954  -0.028097109622 0.00189036  0.00007810  0.0021610 0.0000
                      *** Initiating the SOSCF procedure ***
                           *** Shutting down DIIS ***
                      *** Re-Reading the Fockian *** 
                      *** Removing any level shift *** 
ITER      Energy       Delta-E        Grad      Rot      Max-DP    RMS-DP
  7   -958.68704287  -0.0047734739  0.001560  0.001560  0.001064  0.000047
               *** Restarting incremental Fock matrix formation ***
  8   -958.68557456   0.0014683084  0.000103  0.000144  0.000177  0.000007
  9   -958.68557505  -0.0000004923  0.000088  0.000245  0.000185  0.000006
 10   -958.68557520  -0.0000001486  0.000013  0.000013  0.000028  0.000001
 11   -958.68557521  -0.0000000055  0.000003  0.000007  0.000010  0.000000
                  ***Gradient check signals convergence***
              ***Rediagonalizing the Fockian in SOSCF/NRSCF***

               *****************************************************
               *                     SUCCESS                       *
               *           SCF CONVERGED AFTER  12 CYCLES          *
               *****************************************************


----------------
TOTAL SCF ENERGY
----------------

Total Energy       :         -958.68557521 Eh          -26087.16075 eV

Components:
Nuclear Repulsion  :          107.74825905 Eh            2931.97919 eV
Electronic Energy  :        -1066.43383425 Eh          -29019.13993 eV
One Electron Energy:        -1547.73402206 Eh          -42115.98388 eV
Two Electron Energy:          481.30018781 Eh           13096.84394 eV

Virial components:
Potential Energy   :        -1917.26558231 Eh          -52171.44884 eV
Kinetic Energy     :          958.58000710 Eh           26084.28809 eV
Virial Ratio       :            2.00011013


---------------
SCF CONVERGENCE
---------------

  Last Energy change         ...   -4.5361e-10  Tolerance :   1.0000e-08
  Last MAX-Density change    ...    1.2272e-06  Tolerance :   1.0000e-07
  Last RMS-Density change    ...    4.7403e-08  Tolerance :   5.0000e-09
  Last Orbital Gradient      ...    7.6895e-07  Tolerance :   1.0000e-05
  Last Orbital Rotation      ...    1.7119e-06  Tolerance :   1.0000e-05

             **** THE GBW FILE WAS UPDATED (tmp_orca.gbw) ****
             **** DENSITY FILE WAS UPDATED (tmp_orca.scfp) ****
             **** ENERGY FILE WAS UPDATED (tmp_orca.en.tmp) ****
             **** THE GBW FILE WAS UPDATED (tmp_orca.gbw) ****
             **** DENSITY FILE WAS UPDATED (tmp_orca.scfp) ****
----------------
ORBITAL ENERGIES
----------------

  NO   OCC          E(Eh)            E(eV) 
   0   2.0000    -104.597537     -2846.2437 
   1   2.0000    -104.579942     -2845.7649 
   2   2.0000     -11.189084      -304.4705 
   3   2.0000     -10.325113      -280.9606 
   4   2.0000     -10.307427      -280.4793 
   5   2.0000      -7.791609      -212.0205 
   6   2.0000      -7.791152      -212.0080 
   7   2.0000      -7.791146      -212.0079 
   8   2.0000      -7.773897      -211.5385 
   9   2.0000      -7.773553      -211.5291 
  10   2.0000      -7.773547      -211.5290 
  11   2.0000      -0.871439       -23.7131 
  12   2.0000      -0.826417       -22.4879 
  13   2.0000      -0.770078       -20.9549 
  14   2.0000      -0.509789       -13.8721 
  15   2.0000      -0.463042       -12.6000 
  16   2.0000      -0.291653        -7.9363 
  17   2.0000      -0.243262        -6.6195 
  18   2.0000      -0.242603        -6.6016 
  19   2.0000      -0.226060        -6.1514 
  20   2.0000      -0.224922        -6.1204 
  21   2.0000      -0.203545        -5.5387 
  22   0.0000       0.174318         4.7434 
  23   0.0000       0.193271         5.2592 
  24   0.0000       0.207198         5.6382 
  25   0.0000       0.208513         5.6739 
  26   0.0000       0.246222         6.7000 
  27   0.0000       0.270177         7.3519 
  28   0.0000       0.271027         7.3750 
  29   0.0000       0.272617         7.4183 
  30   0.0000       0.293502         7.9866 
  31   0.0000       0.293662         7.9909 
  32   0.0000       0.306732         8.3466 
  33   0.0000       0.359521         9.7831 
  34   0.0000       0.374172        10.1817 
  35   0.0000       0.379210        10.3188 
  36   0.0000       0.456193        12.4136 
  37   0.0000       0.460695        12.5361 
  38   0.0000       0.530990        14.4490 
  39   0.0000       0.541294        14.7294 
  40   0.0000       0.677121        18.4254 
  41   0.0000       0.703909        19.1543 
  42   0.0000       0.713277        19.4093 
  43   0.0000       0.724962        19.7272 
  44   0.0000       0.745412        20.2837 
  45   0.0000       0.760537        20.6953 
  46   0.0000       0.798657        21.7326 
  47   0.0000       0.818095        22.2615 
  48   0.0000       0.836725        22.7685 
  49   0.0000       0.836829        22.7713 
  50   0.0000       0.843341        22.9485 
  51   0.0000       0.844393        22.9771 
  52   0.0000       0.856290        23.3008 
  53   0.0000       0.857931        23.3455 
  54   0.0000       0.871244        23.7078 
  55   0.0000       0.874929        23.8080 
  56   0.0000       0.879706        23.9380 
  57   0.0000       0.902098        24.5473 
  58   0.0000       0.906703        24.6727 
  59   0.0000       1.004446        27.3324 
  60   0.0000       1.110246        30.2113 
  61   0.0000       1.120298        30.4848 
  62   0.0000       1.140169        31.0256 
  63   0.0000       1.142511        31.0893 
  64   0.0000       1.291484        35.1431 
  65   0.0000       1.310965        35.6732 
  66   0.0000       1.319819        35.9141 
  67   0.0000       1.400419        38.1073 
  68   0.0000       1.449690        39.4481 
  69   0.0000       1.455766        39.6134 
  70   0.0000       1.561107        42.4799 
  71   0.0000       1.613330        43.9009 
  72   0.0000       1.637306        44.5534 
  73   0.0000       1.663423        45.2640 
  74   0.0000       1.716499        46.7083 
  75   0.0000       1.726292        46.9748 
  76   0.0000       1.783544        48.5327 
  77   0.0000       1.948411        53.0190 
  78   0.0000       1.996159        54.3182 
  79   0.0000       2.026266        55.1375 
  80   0.0000       2.068450        56.2854 
  81   0.0000       2.301659        62.6313 
  82   0.0000       2.303425        62.6794 
  83   0.0000       2.316834        63.0443 
  84   0.0000       2.317215        63.0546 
  85   0.0000       2.344874        63.8073 
  86   0.0000       2.348090        63.8948 
  87   0.0000       2.387633        64.9708 
  88   0.0000       2.389718        65.0275 
  89   0.0000       2.463666        67.0398 
  90   0.0000       2.536876        69.0319 
  91   0.0000       2.616987        71.2119 
  92   0.0000       2.619573        71.2822 
  93   0.0000       2.631214        71.5990 
  94   0.0000       2.632803        71.6422 
  95   0.0000       2.639126        71.8143 
  96   0.0000       2.642631        71.9096 
  97   0.0000       2.648102        72.0585 
  98   0.0000       2.648630        72.0729 
  99   0.0000       2.649794        72.1046 
 100   0.0000       2.653273        72.1992 
 101   0.0000       2.827452        76.9389 
 102   0.0000       2.848521        77.5122 
 103   0.0000       2.850999        77.5796 
 104   0.0000       2.855515        77.7025 
 105   0.0000       2.876376        78.2702 
 106   0.0000       2.877230        78.2934 
 107   0.0000       2.891584        78.6840 
 108   0.0000       2.903675        79.0130 
 109   0.0000       2.978773        81.0565 
 110   0.0000       3.018670        82.1422 
 111   0.0000       3.031895        82.5021 
 112   0.0000       3.082443        83.8775 
 113   0.0000       3.083274        83.9002 
 114   0.0000       3.112935        84.7073 
 115   0.0000       3.177070        86.4525 
 116   0.0000       3.251680        88.4827 
 117   0.0000       3.356263        91.3286 
 118   0.0000       3.413275        92.8799 
 119   0.0000       3.585416        97.5641 
 120   0.0000       3.671120        99.8962 
 121   0.0000       3.685962       100.3001 
 122   0.0000       3.733687       101.5988 
 123   0.0000       3.810945       103.7011 
 124   0.0000       3.974436       108.1499 
 125   0.0000       4.051506       110.2471 
 126   0.0000       4.061170       110.5101 
 127   0.0000       4.100699       111.5857 
 128   0.0000       4.107179       111.7620 
 129   0.0000       4.164656       113.3260 
 130   0.0000       4.280179       116.4696 
 131   0.0000       4.306849       117.1953 
 132   0.0000       4.392684       119.5310 
 133   0.0000       4.421554       120.3166 
 134   0.0000       4.482459       121.9739 
 135   0.0000       4.515338       122.8686 
 136   0.0000       4.529111       123.2434 
 137   0.0000       4.664861       126.9373 
 138   0.0000       5.002746       136.1316 
 139   0.0000       5.033970       136.9813 
 140   0.0000       5.092444       138.5724 
 141   0.0000       5.291190       143.9806 
 142   0.0000       5.352989       145.6622 
 143   0.0000       5.447320       148.2291 
 144   0.0000       5.538203       150.7022 
 145   0.0000       5.791739       157.6012 
 146   0.0000       5.940045       161.6368 
 147   0.0000       5.991903       163.0480 
 148   0.0000       6.242056       169.8550 
 149   0.0000       6.645602       180.8360 
 150   0.0000       8.880621       241.6540 
 151   0.0000       8.882598       241.7078 
 152   0.0000       8.897544       242.1145 
 153   0.0000       8.898123       242.1302 
 154   0.0000       8.926496       242.9023 
 155   0.0000       8.927529       242.9304 
 156   0.0000       8.944007       243.3788 
 157   0.0000       8.953282       243.6312 
 158   0.0000       9.067727       246.7454 
 159   0.0000       9.093911       247.4579 
 160   0.0000      11.791836       320.8722 
 161   0.0000      11.795461       320.9708 
 162   0.0000      11.816156       321.5340 
 163   0.0000      11.819456       321.6237 
 164   0.0000      11.914312       324.2049 
 165   0.0000      11.975154       325.8605 
 166   0.0000      24.607130       669.5940 
 167   0.0000      26.002681       707.5689 
 168   0.0000      26.040693       708.6033 

                    ********************************
                    * MULLIKEN POPULATION ANALYSIS *
                    ********************************

-----------------------
MULLIKEN ATOMIC CHARGES
-----------------------
   0 C :    0.117301
   1 Cl:   -0.800935
   2 H :    0.158790
   3 H :    0.141165
   4 H :    0.121545
   5 Cl:   -0.737867
Sum of atomic charges:   -1.0000000

--------------------------------
MULLIKEN REDUCED ORBITAL CHARGES
--------------------------------
  0 C s       :     3.194378  s :     3.194378
      pz      :     0.814501  p :     2.583205
      px      :     1.015391
      py      :     0.753313
      dz2     :     0.008927  d :     0.102120
      dxz     :     0.018883
      dyz     :     0.038754
      dx2y2   :     0.016328
      dxy     :     0.019228
      f0      :     0.000369  f :     0.002996
      f+1     :     0.000132
      f-1     :     0.000426
      f+2     :     0.000560
      f-2     :     0.000801
      f+3     :     0.000564
      f-3     :     0.000144
  1 Cls       :     5.988484  s :     5.988484
      pz      :     3.918148  p :    11.805663
      px      :     3.973119
      py      :     3.914396
      dz2     :     0.000718  d :     0.006435
      dxz     :     0.000970
      dyz     :     0.002732
      dx2y2   :     0.000896
      dxy     :     0.001118
      f0      :     0.000041  f :     0.000354
      f+1     :     0.000021
      f-1     :     0.000071
      f+2     :     0.000066
      f-2     :     0.000091
      f+3     :     0.000032
      f-3     :     0.000032
  2 H s       :     0.806178  s :     0.806178
      pz      :     0.008766  p :     0.033164
      px      :     0.011282
      py      :     0.013116
      dz2     :     0.000226  d :     0.001868
      dxz     :     0.000221
      dyz     :     0.000535
      dx2y2   :     0.000276
      dxy     :     0.000610
  3 H s       :     0.820915  s :     0.820915
      pz      :     0.008575  p :     0.035981
      px      :     0.021375
      py      :     0.006031
      dz2     :     0.000251  d :     0.001939
      dxz     :     0.000624
      dyz     :     0.000074
      dx2y2   :     0.000586
      dxy     :     0.000404
  4 H s       :     0.835002  s :     0.835002
      pz      :     0.017643  p :     0.041388
      px      :     0.010401
      py      :     0.013344
      dz2     :     0.000311  d :     0.002065
      dxz     :     0.000561
      dyz     :     0.000708
      dx2y2   :     0.000269
      dxy     :     0.000215
  5 Cls       :     5.986661  s :     5.986661
      pz      :     3.912846  p :    11.741315
      px      :     3.968160
      py      :     3.860308
      dz2     :     0.000783  d :     0.009343
      dxz     :     0.001405
      dyz     :     0.003921
      dx2y2   :     0.001478
      dxy     :     0.001756
      f0      :     0.000054  f :     0.000548
      f+1     :     0.000033
      f-1     :     0.000099
      f+2     :     0.000117
      f-2     :     0.000135
      f+3     :     0.000074
      f-3     :     0.000036


                     *******************************
                     * LOEWDIN POPULATION ANALYSIS *
                     *******************************

----------------------
LOEWDIN ATOMIC CHARGES
----------------------
   0 C :    0.026345
   1 Cl:   -0.594224
   2 H :    0.060695
   3 H :    0.031527
   4 H :   -0.025000
   5 Cl:   -0.499343

-------------------------------
LOEWDIN REDUCED ORBITAL CHARGES
-------------------------------
  0 C s       :     2.867371  s :     2.867371
      pz      :     0.909142  p :     2.804594
      px      :     1.039431
      py      :     0.856021
      dz2     :     0.022955  d :     0.287377
      dxz     :     0.056439
      dyz     :     0.107299
      dx2y2   :     0.046332
      dxy     :     0.054353
      f0      :     0.001897  f :     0.014313
      f+1     :     0.000731
      f-1     :     0.002720
      f+2     :     0.002587
      f-2     :     0.003336
      f+3     :     0.002341
      f-3     :     0.000701
  1 Cls       :     5.875317  s :     5.875317
      pz      :     3.881665  p :    11.708001
      px      :     3.949750
      py      :     3.876586
      dz2     :     0.001096  d :     0.010269
      dxz     :     0.001457
      dyz     :     0.004367
      dx2y2   :     0.001594
      dxy     :     0.001755
      f0      :     0.000076  f :     0.000637
      f+1     :     0.000034
      f-1     :     0.000120
      f+2     :     0.000125
      f-2     :     0.000169
      f+3     :     0.000060
      f-3     :     0.000053
  2 H s       :     0.788383  s :     0.788383
      pz      :     0.035754  p :     0.129743
      px      :     0.044627
      py      :     0.049362
      dz2     :     0.002832  d :     0.021178
      dxz     :     0.002736
      dyz     :     0.005538
      dx2y2   :     0.003588
      dxy     :     0.006483
  3 H s       :     0.800378  s :     0.800378
      pz      :     0.037630  p :     0.143443
      px      :     0.076391
      py      :     0.029423
      dz2     :     0.003426  d :     0.024652
      dxz     :     0.007750
      dyz     :     0.001048
      dx2y2   :     0.006876
      dxy     :     0.005553
  4 H s       :     0.822566  s :     0.822566
      pz      :     0.068098  p :     0.170297
      px      :     0.048517
      py      :     0.053682
      dz2     :     0.005000  d :     0.032137
      dxz     :     0.008478
      dyz     :     0.010564
      dx2y2   :     0.004516
      dxy     :     0.003579
  5 Cls       :     5.851488  s :     5.851488
      pz      :     3.874665  p :    11.631930
      px      :     3.941289
      py      :     3.815976
      dz2     :     0.001274  d :     0.014936
      dxz     :     0.002506
      dyz     :     0.006225
      dx2y2   :     0.002213
      dxy     :     0.002717
      f0      :     0.000094  f :     0.000990
      f+1     :     0.000063
      f-1     :     0.000187
      f+2     :     0.000206
      f-2     :     0.000253
      f+3     :     0.000122
      f-3     :     0.000065


                      *****************************
                      * MAYER POPULATION ANALYSIS *
                      *****************************

  NA   - Mulliken gross atomic population
  ZA   - Total nuclear charge
  QA   - Mulliken gross atomic charge
  VA   - Mayer's total valence
  BVA  - Mayer's bonded valence
  FA   - Mayer's free valence

  ATOM       NA         ZA         QA         VA         BVA        FA
  0 C      5.8827     6.0000     0.1173     3.6654     3.6654    -0.0000
  1 Cl    17.8009    17.0000    -0.8009     0.2986     0.2986     0.0000
  2 H      0.8412     1.0000     0.1588     0.9675     0.9675     0.0000
  3 H      0.8588     1.0000     0.1412     0.9751     0.9751    -0.0000
  4 H      0.8785     1.0000     0.1215     0.9845     0.9845    -0.0000
  5 Cl    17.7379    17.0000    -0.7379     0.3914     0.3914    -0.0000

  Mayer bond orders larger than 0.100000
B(  0-C ,  1-Cl) :   0.3028 B(  0-C ,  2-H ) :   0.9844 B(  0-C ,  3-H ) :   0.9906 
B(  0-C ,  4-H ) :   0.9968 B(  0-C ,  5-Cl) :   0.3907 


------------------
HIRSHFELD ANALYSIS
------------------

Total integrated alpha density =     21.999592019
Total integrated beta density  =     21.999592019

  ATOM     CHARGE      SPIN    
   0 C    0.122192    0.000000
   1 Cl  -0.675868    0.000000
   2 H    0.059700    0.000000
   3 H    0.053461    0.000000
   4 H    0.051948    0.000000
   5 Cl  -0.610617    0.000000

  TOTAL  -0.999184    0.000000

-------
TIMINGS
-------

Total SCF time: 0 days 0 hours 0 min 29 sec 

Total time                  ....      29.386 sec
Sum of individual times     ....      29.172 sec  ( 99.3%)

Fock matrix formation       ....      28.779 sec  ( 97.9%)
Diagonalization             ....       0.029 sec  (  0.1%)
Density matrix formation    ....       0.004 sec  (  0.0%)
Population analysis         ....       0.077 sec  (  0.3%)
Initial guess               ....       0.180 sec  (  0.6%)
Orbital Transformation      ....       0.000 sec  (  0.0%)
Orbital Orthonormalization  ....       0.000 sec  (  0.0%)
DIIS solution               ....       0.012 sec  (  0.0%)
SOSCF solution              ....       0.010 sec  (  0.0%)


------------------------------------------------------------------------------- 
                              ORCA-MATRIX DRIVEN CI                            
------------------------------------------------------------------------------- 


Wavefunction type
-----------------
Correlation treatment                      ...      CCSD     
Single excitations                         ... ON
Orbital optimization                       ... OFF
Calculation of Z vector                    ... OFF
Calculation of Brueckner orbitals          ... OFF
Perturbative triple excitations            ... ON
Calculation of F12 correction              ... OFF
Frozen core treatment                      ... chemical core (22 el)
Reference Wavefunction                     ... RHF
  Internal Orbitals:    11 ...   21 ( 11 MO's/ 22 electrons)
  Virtual  Orbitals:    22 ...  168 (147 MO's              )
Number of AO's                             ...    169
Number of electrons                        ...     44
Number of correlated electrons             ...     22

Algorithmic settings
--------------------
Integral transformation                    ... All integrals via the RI transformation
K(C) Formation                             ... RI-DLPNO
   PNO-Integral Storage                    ... ON DISK
   PNO occupation number cut-off           ... 3.330e-07
   Singles PNO occupation number cut-off   ... 9.990e-09
   PNO Mulliken prescreening cut-off       ... 1.000e-03
   Domain cut-off (Mulliken population)    ... 1.000e-03
   PNO Normalization                       ...    1
Maximum number of iterations               ...        50
Convergence tolerance (max. residuum)      ... 1.000e-05
Level shift for amplitude update           ... 2.000e-01
Maximum number of DIIS vectors             ...         7
DIIS turned on at iteration                ...         0
Damping before turning on DIIS             ...     0.500
Damping after turning on DIIS              ...     0.000
Pair specific amplitude update             ... OFF
Natural orbital iterations                 ... OFF
Perturbative natural orbital generation    ... OFF
Printlevel                                 ... 2

Singles Fock matrix elements calculated using PNOs.

Memory handling:
----------------
Maximum memory for working arrays          ...   4000 MB
Data storage in matrix containers          ... UNCOMPRESSED
Data type for integral storage             ... DOUBLE
In-Core Storage of quantities:
   Amplitudes+Sigma Vector      ... NO
   J+K operators                ... NO
   DIIS vectors                 ... NO
   3-external integrals         ... NO
   4-external integrals         ... NO

Localization treatment:
-----------------------
Localization option                        ...    6
Localization threshhold                    ... -1.0e+00
Using relative localization threshhold     ... 1.0e-08
Neglect threshold for strong pairs         ... 1.000e-04 Eh
Prescreening threshold for very weak pairs ... 1.000e-06 Eh

Initializing the integral package          ... done
Localizing the valence orbitals
------------------------------------------------------------------------------
                           ORCA ORBITAL LOCALIZATION
------------------------------------------------------------------------------

Input orbitals are from                  ... tmp_orca.gbw
Output orbitals are to                   ... tmp_orca.loc
Max. number of iterations                ... 128
Localizations seeded randomly            ... off
Convergence tolerance                    ... 1.000e-06
Using relative localization threshhold   ... 1.000e-08
Treshold for strong local MOs            ... 9.500e-01
Treshold for bond MOs                    ... 8.500e-01
Operator                                 ... 0
Orbital range for localization           ... 11 to 21
Localization criterion                   ... FOSTER-BOYS (AUGMENTED HESSIAN)
Doing the dipole integrals     ... o.k.
Initial value of the localization sum :  1814.591348
ITERATION   0 : L= 1826.8677925532 DL=  1.23e+01 (AVERGE_DL)=    0.4724490204 
ITERATION   1 : L= 1827.7604344179 DL=  8.93e-01 (AVERGE_DL)=    0.1273964367 
ITERATION   2 : L= 1827.9039254858 DL=  1.43e-01 (AVERGE_DL)=    0.0510776713 
ITERATION   3 : L= 1827.9384832855 DL=  3.46e-02 (AVERGE_DL)=    0.0250663845 
ITERATION   4 : L= 1827.9442259913 DL=  5.74e-03 (AVERGE_DL)=    0.0102182598 
ITERATION   5 : L= 1827.9456912434 DL=  1.47e-03 (AVERGE_DL)=    0.0051614869 
ITERATION   6 : L= 1827.9462169212 DL=  5.26e-04 (AVERGE_DL)=    0.0030915657 
ITERATION   7 : L= 1827.9466045368 DL=  3.88e-04 (AVERGE_DL)=    0.0026547235 
ITERATION   8 : L= 1827.9469682906 DL=  3.64e-04 (AVERGE_DL)=    0.0025717126 
ITERATION   9 : L= 1827.9473274328 DL=  3.59e-04 (AVERGE_DL)=    0.0025553586 
ITERATION  10 : L= 1827.9476832070 DL=  3.56e-04 (AVERGE_DL)=    0.0025433485 
ITERATION  11 : L= 1827.9480351077 DL=  3.52e-04 (AVERGE_DL)=    0.0025294653 
ITERATION  12 : L= 1827.9483826804 DL=  3.48e-04 (AVERGE_DL)=    0.0025138624 
ITERATION  13 : L= 1827.9487257499 DL=  3.43e-04 (AVERGE_DL)=    0.0024975239 
ITERATION  14 : L= 1827.9490641930 DL=  3.38e-04 (AVERGE_DL)=    0.0024806274 
ITERATION  15 : L= 1827.9493979997 DL=  3.34e-04 (AVERGE_DL)=    0.0024635771 
ITERATION  16 : L= 1827.9497271824 DL=  3.29e-04 (AVERGE_DL)=    0.0024464548 
DETECTED SLOW CONVERGENCE - QUITTING

------------------------------------------------------
AUGMENTED HESSIAN OPTIMIZATION OF FOSTER-BOYS ORBITALS
------------------------------------------------------

Spin operator:           0
Orbital window:          11 to 21
Number of iterations:    128
Gradient tolerance:      1.000e-06
Number of pairs:         55
Davidson threshold:      2000
Diagonalization method:  LAPACK
Iter:    0   L: 1827.9497271824   Grad. norm: 3.638809e-02
Iter:    1   L: 1827.9542213914   Grad. norm: 3.309952e-02
Iter:    2   L: 1827.9582875412   Grad. norm: 2.259968e-02
Iter:    3   L: 1827.9605035654   Grad. norm: 6.756842e-03
Iter:    4   L: 1827.9606771443   Grad. norm: 1.363742e-04
   *** Likely close to a maximum now. ***
       Augmented Hessian eigenvalues:  2.05e-09 -6.24e-02 -7.92e-02 -2.53e+00 ... 
Iter:    5   L: 1827.9606771453   Grad. norm: 8.575209e-10
LOCALIZATION HAS CONVERGED.

Eigenvalues of the Hessian:
  0 -6.245e-02
  1 -7.921e-02
  2 -2.533e+00
  3 -2.575e+00
  4 -3.298e+00
  5 -3.354e+00
  6 -8.533e+00
  7 -8.568e+00
  8 -8.885e+00
  9 -8.932e+00
    ...


------------------------------------------------------------------------------- 
                    LOCALIZED MOLECULAR ORBITAL COMPOSITIONS                   
------------------------------------------------------------------------------- 

The Mulliken populations for each LMO on each atom are computed
The LMO`s will be ordered according to atom index and type
  (A) Strongly localized MO`s have populations of >=0.950 on one atom
  (B) Two center bond orbitals have populations of >=0.850 on two atoms
  (C) Other MO`s are considered to be `delocalized`

FOUND  -   6 strongly local MO`s
       -   5 two center bond MO`s
       -   0 significantly delocalized MO`s

Rather strongly localized orbitals:
MO  16:   5Cl -   1.000418
MO  15:   5Cl -   1.000092
MO  14:   5Cl -   0.999469
MO  13:   1Cl -   0.999123
MO  12:   1Cl -   0.999778
MO  11:   1Cl -   0.999817
Bond-like localized orbitals:
MO  21:   5Cl -   0.889721  and   0C  -   0.119947
MO  20:   4H  -   0.452448  and   0C  -   0.563265
MO  19:   3H  -   0.444502  and   0C  -   0.573972
MO  18:   2H  -   0.436119  and   0C  -   0.584066
MO  17:   1Cl -   0.919949  and   0C  -   0.090275
Localized MO's were stored in: tmp_orca.loc

Localizing the core orbitals
------------------------------------------------------------------------------
                           ORCA ORBITAL LOCALIZATION
------------------------------------------------------------------------------

Input orbitals are from                  ... tmp_orca.loc
Output orbitals are to                   ... tmp_orca.loc
Max. number of iterations                ... 128
Localizations seeded randomly            ... off
Convergence tolerance                    ... 1.000e-06
Using relative localization threshhold   ... 1.000e-08
Treshold for strong local MOs            ... 9.500e-01
Treshold for bond MOs                    ... 8.500e-01
Operator                                 ... 0
Orbital range for localization           ... 0 to 10
Localization criterion                   ... FOSTER-BOYS (AUGMENTED HESSIAN)
Doing the dipole integrals     ... o.k.
Initial value of the localization sum :  1864.698023
ITERATION   0 : L= 1864.9729991100 DL=  2.75e-01 (AVERGE_DL)=    0.0707075632 
ITERATION   1 : L= 1865.0487737221 DL=  7.58e-02 (AVERGE_DL)=    0.0371176538 
ITERATION   2 : L= 1865.0504696718 DL=  1.70e-03 (AVERGE_DL)=    0.0055529675 
ITERATION   3 : L= 1865.0505760518 DL=  1.06e-04 (AVERGE_DL)=    0.0013907491 
ITERATION   4 : L= 1865.0505828304 DL=  6.78e-06 (AVERGE_DL)=    0.0003510655 
ITERATION   5 : L= 1865.0505833110 DL=  4.81e-07 (AVERGE_DL)=    0.0000934731 
LOCALIZATION SUM CONVERGED

------------------------------------------------------
AUGMENTED HESSIAN OPTIMIZATION OF FOSTER-BOYS ORBITALS
------------------------------------------------------

Spin operator:           0
Orbital window:          0 to 10
Number of iterations:    128
Gradient tolerance:      1.000e-06
Number of pairs:         55
Davidson threshold:      2000
Diagonalization method:  LAPACK
Iter:    0   L: 1865.0505833110   Grad. norm: 6.415324e-04
   *** Detected a saddle point. ***
       Augmented Hessian eigenvalues:  4.21e-05  2.91e-05  2.00e-05  1.34e-05 ... 
Iter:    1   L: 1865.0505890071   Grad. norm: 5.613067e-04
Iter:    2   L: 1865.0505947872   Grad. norm: 4.601318e-04
Iter:    3   L: 1865.0506000782   Grad. norm: 3.379152e-04
Iter:    4   L: 1865.0506040172   Grad. norm: 2.036154e-04
Iter:    5   L: 1865.0506059828   Grad. norm: 8.502155e-05
Iter:    6   L: 1865.0506062313   Grad. norm: 7.153341e-05
Iter:    7   L: 1865.0506065194   Grad. norm: 4.991496e-05
Iter:    8   L: 1865.0506067244   Grad. norm: 2.821243e-05
Iter:    9   L: 1865.0506068242   Grad. norm: 9.498798e-06
Iter:   10   L: 1865.0506068392   Grad. norm: 8.790064e-08
   *** Likely close to a maximum now. ***
       Augmented Hessian eigenvalues:  9.60e-12 -9.96e-07 -1.80e-06 -4.20e-05 ... 
Iter:   11   L: 1865.0506068392   Grad. norm: 2.419916e-11
LOCALIZATION HAS CONVERGED.

Eigenvalues of the Hessian:
  0 -9.955e-07
  1 -1.796e-06
  2 -4.205e-05
  3 -4.370e-05
  4 -6.116e-05
  5 -6.325e-05
  6 -1.175e-01
  7 -1.175e-01
  8 -1.175e-01
  9 -1.175e-01
    ...


------------------------------------------------------------------------------- 
                    LOCALIZED MOLECULAR ORBITAL COMPOSITIONS                   
------------------------------------------------------------------------------- 

The Mulliken populations for each LMO on each atom are computed
The LMO`s will be ordered according to atom index and type
  (A) Strongly localized MO`s have populations of >=0.950 on one atom
  (B) Two center bond orbitals have populations of >=0.850 on two atoms
  (C) Other MO`s are considered to be `delocalized`

FOUND  -  11 strongly local MO`s
       -   0 two center bond MO`s
       -   0 significantly delocalized MO`s

Rather strongly localized orbitals:
MO  10:   5Cl -   1.000015
MO   9:   5Cl -   1.000000
MO   8:   5Cl -   1.000028
MO   7:   5Cl -   0.999964
MO   6:   5Cl -   1.000013
MO   5:   1Cl -   1.000030
MO   4:   1Cl -   1.000000
MO   3:   1Cl -   1.000024
MO   2:   1Cl -   0.999971
MO   1:   1Cl -   1.000023
MO   0:   0C  -   1.000293
Localized MO's were stored in: tmp_orca.loc

Warning: reference  - re-canonicalizations have been set to INT 1 VIRT 1
Warning: internal orbitals are localized - no re-canonicalization of internal orbitals
Warning: UsePNO is turned on - no re-canonicalization of internal and virtual orbitals

--------------------------
CLOSED-SHELL FOCK OPERATOR
--------------------------

<ss|ss>:        59685 b         3416 skpd (  5.7%)    0.016 s ( 0.000 ms/b)
<ss|sp>:       188370 b        12761 skpd (  6.8%)    0.092 s ( 0.001 ms/b)
<ss|sd>:        96255 b        12534 skpd ( 13.0%)    0.048 s ( 0.001 ms/b)
<ss|sf>:        25875 b         1677 skpd (  6.5%)    0.020 s ( 0.001 ms/b)
<ss|pp>:        82455 b         7022 skpd (  8.5%)    0.053 s ( 0.001 ms/b)
<ss|pd>:        78660 b         9241 skpd ( 11.7%)    0.061 s ( 0.001 ms/b)
<ss|pf>:        20700 b         1116 skpd (  5.4%)    0.026 s ( 0.001 ms/b)
<ss|dd>:        21390 b         2657 skpd ( 12.4%)    0.022 s ( 0.001 ms/b)
<ss|df>:        10005 b          635 skpd (  6.3%)    0.017 s ( 0.002 ms/b)
<ss|ff>:         2070 b          355 skpd ( 17.1%)    0.005 s ( 0.003 ms/b)
<sp|sp>:       149331 b        11213 skpd (  7.5%)    0.095 s ( 0.001 ms/b)
<sp|sd>:       152334 b        22668 skpd ( 14.9%)    0.115 s ( 0.001 ms/b)
<sp|sf>:        40950 b         3154 skpd (  7.7%)    0.051 s ( 0.001 ms/b)
<sp|pp>:       130494 b        11437 skpd (  8.8%)    0.145 s ( 0.001 ms/b)
<sp|pd>:       124488 b        15320 skpd ( 12.3%)    0.192 s ( 0.002 ms/b)
<sp|pf>:        32760 b         1762 skpd (  5.4%)    0.081 s ( 0.003 ms/b)
<sp|dd>:        33852 b         5091 skpd ( 15.0%)    0.075 s ( 0.003 ms/b)
<sp|df>:        15834 b         1028 skpd (  6.5%)    0.058 s ( 0.004 ms/b)
<sp|ff>:         3276 b          648 skpd ( 19.8%)    0.015 s ( 0.006 ms/b)
<sd|sd>:        39060 b         8672 skpd ( 22.2%)    0.041 s ( 0.001 ms/b)
<sd|sf>:        20925 b         3222 skpd ( 15.4%)    0.037 s ( 0.002 ms/b)
<sd|pp>:        66681 b        10522 skpd ( 15.8%)    0.114 s ( 0.002 ms/b)
<sd|pd>:        63612 b        13458 skpd ( 21.2%)    0.149 s ( 0.003 ms/b)
<sd|pf>:        16740 b         2348 skpd ( 14.0%)    0.063 s ( 0.004 ms/b)
<sd|dd>:        17298 b         4427 skpd ( 25.6%)    0.061 s ( 0.005 ms/b)
<sd|df>:         8091 b         1281 skpd ( 15.8%)    0.050 s ( 0.007 ms/b)
<sd|ff>:         1674 b          448 skpd ( 26.8%)    0.014 s ( 0.011 ms/b)
<sf|sf>:         2850 b          224 skpd (  7.9%)    0.011 s ( 0.004 ms/b)
<sf|pp>:        17925 b         1630 skpd (  9.1%)    0.061 s ( 0.004 ms/b)
<sf|pd>:        17100 b         2457 skpd ( 14.4%)    0.076 s ( 0.005 ms/b)
<sf|pf>:         4500 b          275 skpd (  6.1%)    0.036 s ( 0.009 ms/b)
<sf|dd>:         4650 b          945 skpd ( 20.3%)    0.030 s ( 0.008 ms/b)
<sf|df>:         2175 b          169 skpd (  7.8%)    0.029 s ( 0.014 ms/b)
<sf|ff>:          450 b           87 skpd ( 19.3%)    0.009 s ( 0.025 ms/b)
<pp|pp>:        28680 b         2704 skpd (  9.4%)    0.075 s ( 0.003 ms/b)
<pp|pd>:        54492 b         6652 skpd ( 12.2%)    0.212 s ( 0.004 ms/b)
<pp|pf>:        14340 b          891 skpd (  6.2%)    0.089 s ( 0.007 ms/b)
<pp|dd>:        14818 b         2178 skpd ( 14.7%)    0.087 s ( 0.007 ms/b)
<pp|df>:         6931 b          486 skpd (  7.0%)    0.070 s ( 0.011 ms/b)
<pp|ff>:         1434 b          268 skpd ( 18.7%)    0.020 s ( 0.017 ms/b)
<pd|pd>:        26106 b         4575 skpd ( 17.5%)    0.164 s ( 0.008 ms/b)
<pd|pf>:        13680 b         1462 skpd ( 10.7%)    0.135 s ( 0.011 ms/b)
<pd|dd>:        14136 b         3318 skpd ( 23.5%)    0.136 s ( 0.013 ms/b)
<pd|df>:         6612 b          920 skpd ( 13.9%)    0.109 s ( 0.019 ms/b)
<pd|ff>:         1368 b          339 skpd ( 24.8%)    0.030 s ( 0.029 ms/b)
<pf|pf>:         1830 b           40 skpd (  2.2%)    0.035 s ( 0.020 ms/b)
<pf|dd>:         3720 b          655 skpd ( 17.6%)    0.058 s ( 0.019 ms/b)
<pf|df>:         1740 b           96 skpd (  5.5%)    0.057 s ( 0.035 ms/b)
<pf|ff>:          360 b           64 skpd ( 17.8%)    0.016 s ( 0.054 ms/b)
<dd|dd>:         1953 b          592 skpd ( 30.3%)    0.030 s ( 0.022 ms/b)
<dd|df>:         1798 b          390 skpd ( 21.7%)    0.050 s ( 0.036 ms/b)
<dd|ff>:          372 b          118 skpd ( 31.7%)    0.014 s ( 0.056 ms/b)
<df|df>:          435 b           44 skpd ( 10.1%)    0.024 s ( 0.062 ms/b)
<df|ff>:          174 b           33 skpd ( 19.0%)    0.014 s ( 0.098 ms/b)
<ff|ff>:           21 b            6 skpd ( 28.6%)    0.003 s ( 0.194 ms/b)
Time needed for Fock operator              ...            3.398 sec
Reference energy                           ...   -958.685575207

--------------
DLPNO SETTINGS (2015 fully linear scaling implementation)
--------------

TCutMKN:           1.000e-03
TCutPAO:           1.000e-03
TCutPNO:           3.330e-07
TCutPNOSingles:    9.990e-09
TCutEN:            9.700e-01
TCutPAOExt:        1.000e-01
TCutPairs:         1.000e-04
TCutPre:           1.000e-06
TCutOSV:           1.000e-06
TCutDOij:          1.000e-05
TCutDO:            1.000e-02
TCutC:             1.000e-04
TCutCPAO:          1.000e-03
TCutCMO:           1.000e-03
TScaleDOMP2PreScr: 2.000e+00
TScaleMKNMP2PreScr:1.000e+01
TScalePNOMP2PreScr:1.000e+00
PAO overlap thresh 1.000e-08
Using PNOs for Singles Fock computation
Use new domains
Use fully linear algorithm
TCutTNO:           1.000e-09
TCutMP2Pairs:      1.000e-05
TCutDOStrong:      2.000e-03
TCutMKNStrong:     1.000e-02
TCutMKNWeak:       1.000e-01
TCutDOWeak:        4.000e-03
NTCutTNO:          1

--------------------------
Calculating differential overlap integrals ... ok
--------------------------
ELECTRON PAIR PRESCREENING
--------------------------

Dipole-based pair screening          .... used

   TCutDOij = 1.000000e-05
   TCutPre  = 1.000000e-06
   .... Finished loop over pairs
Total time spent in the prescreening                  ...     0.000 sec
sum of pair energies estimated for screened out pairs ...       0.000000000000 Eh
Thresholds for map construction and integral transformation for crude MP2:
   TCutMKN                    ...     1.0e-02
   TCutDO                     ...     2.0e-02
   TCutPairs                  ...     1.0e-04
   TCutPNO_CrudeMP2           ...     3.3e-07
   TCutPNOSingles_CrudeMP2    ...     1.0e-08
--------------------------------
LOCAL RI TRANSFORMATION (IAVPAO)
--------------------------------

Orbital window:      11 to 21
Number of PAOs:     169
Basis functions:    169 (63 shells)
Aux. functions:     867 (247 shells)

Processing maps (0.0 sec)
Average map sizes:
   Aux shells -> MOs              11.0
   Aux shells -> PAOs            169.0
   MOs        -> AO shells        63.0
   PAOs       -> AO shells        63.0

Calculating integrals (0.6 sec, 12.307 MB)
Sorting integrals (0.0 sec, 12.297 MB)
Total time for the integral transformation: 0.6 sec
--------------------------------
INITIAL GUESS AND PNO GENERATION
--------------------------------

PNO truncation parameters                   .... 
    PAOOverlapThresh   =        1.000e-08

    TCutPairs          =        1.000e-04
    TCutPNO            =        3.330e-07
    TCutPNOSingles     =        9.990e-09
    TCutMP2Pairs       =        1.000e-05
    TCutMKN            =        1.000e-02
    TCutDO             =        2.000e-02

Pair selection                          .... not used
Type of local MP2 treatment                 .... semi-local MP2
Strategy for PNO selection                  .... occupation number selection
Pair density normalization                  .... MP2 norm
Spin component scaling                      .... not used

   .... Finished loop over pairs
Making pair pair interaction lists          ... done

                       ===========================
                         57 OF   66 PAIRS ARE KEPT CCSD PAIRS
                          9 OF   66 PAIRS ARE KEPT MP2 PAIRS FOR (T)
                          0 OF   66 PAIRS ARE SKIPPED
                       ===========================

Total time spent in the initial guess                 ...     0.996 sec
SL-MP2 correlation energy (all non-screened pairs)    ...      -0.555783648569 Eh

Initial PNO correlation energy                        ...      -0.554607067492 Eh
sum of pair energies prescreened and skipped MP2 pairs...       0.000000000000 Eh
sum of pair energies of crude MP2 skipped pairs only  ...       0.000000000000 Eh
sum of MP2 pair energies for pairs that were not kept ...      -0.000377458636 Eh
sum of PNO error estimates for the kept pairs         ...      -0.000799122441 Eh
                                                          --------------------
sum of all corrections                                         -0.001176581077
Initial total correlation energy                               -0.555783648569
Thresholds for map construction and integral transformation for fine MP2 and CCSD(T) calculation:
   TCutMKN   ...     1.0e-03
   TCutDO    ...     1.0e-02
   TCutPairs ...     1.0e-04
   TCutCMO   ...     1.0e-03
   TCutCPAO  ...     1.0e-03

Thresholds for map construction and integral transformation for strong Triples:
   TCutMKN   ...     1.0e-02
   TCutDO    ...     2.0e-02
   TCutCMO   ...     1.0e-03
   TCutCPAO  ...     1.0e-03

Thresholds for map construction and integral transformation for weak Triples:
   TCutMKN   ...     1.0e-01
   TCutDO    ...     4.0e-02
   TCutCMO   ...     1.0e-03
   TCutCPAO  ...     1.0e-03

--------------------------------
LOCAL RI TRANSFORMATION (IAVPAO)
--------------------------------

Orbital window:      11 to 21
Number of PAOs:     169
Basis functions:    169 (63 shells)
Aux. functions:     867 (247 shells)

Processing maps (0.0 sec)
Average map sizes:
   Aux shells -> MOs              11.0
   Aux shells -> PAOs            169.0
   MOs        -> AO shells        63.0
   PAOs       -> AO shells        63.0

Calculating integrals (0.5 sec, 12.307 MB)
Sorting integrals (0.0 sec, 12.297 MB)
Total time for the integral transformation: 0.6 sec
--------------------------------
INITIAL GUESS AND PNO GENERATION
--------------------------------

PNO truncation parameters                   .... 
    PAOOverlapThresh   =        1.000e-08

    TCutPairs          =        1.000e-04
    TCutPNO            =        3.330e-07
    TCutPNOSingles     =        9.990e-09
    TCutMP2Pairs       =        1.000e-05
    TCutMKN            =        1.000e-03
    TCutDO             =        1.000e-02

Pair selection                          .... not used
Type of local MP2 treatment                 .... semi-local MP2
Strategy for PNO selection                  .... occupation number selection
Pair density normalization                  .... MP2 norm
Spin component scaling                      .... not used

   .... Finished loop over pairs

 PNO Occupation Number Statistics: 
  | Av. % of trace(Dij) retained        ...  98.895764984051
  | sigma^2 in % of trace(Dij) retained ...   3.32e+00
  | Av. % of trace(Di) retained         ...  99.999475138931
  | sigma^2 in % of trace(Di) retained  ...   4.59e-08
 Distributions of % trace(Dij) recovered:
  |       >= 99.9  ...    29 ( 43.9 % of all pairs)
  |   [90.0, 99.0) ...    15 ( 22.7 % of all pairs)
  |   [99.0, 99.9) ...    22 ( 33.3 % of all pairs)
 Distributions of % trace(Di) recovered :
  |       >= 99.9  ...    11 (100.0 % of all I-pairs )

Making pair pair interaction lists          ... done

                       ===========================
                         57 OF   66 PAIRS ARE KEPT
                       ===========================

Total time spent in the initial guess                 ...     2.087 sec
SL-MP2 correlation energy (all non-screened pairs)    ...      -0.555862396319 Eh

Initial PNO correlation energy                        ...      -0.554680261292 Eh
sum of pair energies estimated for screened out pairs ...       0.000000000000 Eh
sum of MP2 pair energies for pairs that were not kept ...      -0.000379495664 Eh
sum of PNO error estimates for the kept pairs         ...      -0.000802639364 Eh
                                                          --------------------
sum of all corrections                                         -0.001182135028
Initial total correlation energy                               -0.555862396319
Thresholds for map construction and integral transformation for fine MP2 and CCSD(T) calculation:
   TCutMKN   ...     1.0e-03
   TCutDO    ...     1.0e-02
   TCutPairs ...     1.0e-04
   TCutCMO   ...     1.0e-03
   TCutCPAO  ...     1.0e-03

Time for aux screen maps:            0.001
Time for maps after fine MP2:            0.003
-----------------------------
LOCAL RI TRANSFORMATION (IJV)
-----------------------------

Orbital window:      11 to 21
Basis functions:    169 (63 shells)
Aux. functions:     867 (247 shells)

Processing maps (0.0 sec)
Average map sizes:
   Aux shells -> MOs(i)           11.0
   Aux shells -> MOs(j)           11.0
   MOs        -> AO shells        63.0

Calculating integrals (0.5 sec, 0.810 MB)
Sorting integrals (0.0 sec, 0.801 MB)
Total time for the integral transformation: 0.5 sec
--------------------------------
LOCAL RI TRANSFORMATION (VABPAO)
--------------------------------

Number of PAOs:     169
Basis functions:    169 (63 shells)
Aux. functions:     867 (247 shells)

Processing maps (0.0 sec)
Average map sizes:
   Aux shells -> PAOs            169.0
   PAOs       -> AO shells        63.0

Calculating integrals (1.1 sec, 188.932 MB)
Finished


-------------------------------------
Pair Pair Term precalculation with     
RI-(ij|mn) and (im|jn) transformation  
ON THE FLY                             
-------------------------------------

   IBatch   1 (of   2)              ... done (   21.127 sec)
   IBatch   2 (of   2)              ... done (   26.207 sec)
Total EXT                           ...          47.334 sec

---------------------
RI-PNO TRANSFORMATION
---------------------

Total Number of PNOs                   ...  1889
Average number of PNOs per pair        ...    33
Maximal number of PNOs per pair        ...    47
   #pairs with  1 -  5 PNOs   :    0
   #pairs with  6 - 10 PNOs   :    0
   #pairs with 11 - 15 PNOs   :    0
   #pairs with 16 - 20 PNOs   :    0
   #pairs with 21 - 25 PNOs   :   12
   #pairs with 26 - 30 PNOs   :   12
   #pairs with 31 - 35 PNOs   :    6
   #pairs with 36 - 40 PNOs   :   16
   #pairs with 41 - 45 PNOs   :    8
   #pairs with 46 - 50 PNOs   :    3

Generation of (ij|ab)[P] integrals            ... on
Generation of (ia|bc)[P],(ja|bc)[P] integrals ... on
Storage of 3 and 4 external integrals         ... on
Generation of ALL (ka|bc)[P] integrals        ... on
Keep RI integrals in memory                   ... off

Ibatch:  1 (of  1)
Starting 2-4 index PNO integral generation ... done

Timings:
Total PNO integral transformation time     ...          9.144 sec
Size of the 3-external file                ...        18 MB
Size of the 4-external file                ...        90 MB
Size of the IKJL file                      ...         0 MB
Size of the all 3-external file            ...       103 MB
Size of the 1-external file                ...         0 MB

Making pair/pair overlap matrices          ... done (    0.294 sec)
Size of the pair overlap file              ... 24 MB
Redoing the guess amplitudes               ... done (    0.000 sec)

-------------------------
FINAL STARTUP INFORMATION
-------------------------

E(0)                                       ...   -958.685575207
E(SL-MP2)                                  ...     -0.555862396
E(SL-MP2) including corrections            ...     -0.555862396
Initial E(tot)                             ...   -959.241437603
<T|T>                                      ...      0.188765440
Number of pairs included                   ... 57
Total number of pairs                      ... 66

------------------------------------------------
                  RHF COUPLED CLUSTER ITERATIONS
------------------------------------------------

Number of PNO amplitudes to be optimized   ...        65729
Number of non-PNO amplitudes               ...      1231713
Untruncated number of regular amplitudes   ...      1426194

Iter       E(tot)           E(Corr)          Delta-E          Residual     Time
  0   -959.241448893     -0.554691551      0.001170845      0.013224636    3.30
                           *** Turning on DIIS ***
  1   -959.286809383     -0.600052041     -0.045360490      0.009028462    3.29
  2   -959.306004202     -0.619246861     -0.019194820      0.004392042    3.41
  3   -959.308827140     -0.622069798     -0.002822938      0.003014043    3.37
  4   -959.309698264     -0.622940922     -0.000871124      0.001500595    3.31
  5   -959.310167667     -0.623410325     -0.000469403      0.000635463    3.42
  6   -959.310376985     -0.623619643     -0.000209318      0.000136297    5.87
  7   -959.310413118     -0.623655776     -0.000036133      0.000034167    3.42
  8   -959.310420914     -0.623663572     -0.000007796      0.000016379    3.39
  9   -959.310417981     -0.623660640      0.000002932      0.000007606    3.36
               --- The Coupled-Cluster iterations have converged ---

----------------------
COUPLED CLUSTER ENERGY
----------------------

E(0)                                       ...   -958.685575207
E(CORR)(strong-pairs)                      ...     -0.623660640
E(CORR)(weak-pairs)                        ...     -0.001182135
E(CORR)(corrected)                         ...     -0.624842775
E(TOT)                                     ...   -959.310417981
Singles Norm <S|S>**1/2                    ...      0.078766587  
T1 diagnostic                              ...      0.016793093  

------------------
LARGEST AMPLITUDES
------------------
  21-> 22  21-> 22       0.054094
  17-> 22  17-> 22       0.044168
  18-> 23  18-> 23       0.042492
  21-> 23  -1-> -1       0.036862
  19-> 23  19-> 23       0.035219
  14-> 29  14-> 29       0.031388
  15-> 29  15-> 29       0.031093
  12-> 27  12-> 27       0.030791
  13-> 28  13-> 28       0.030772
  12-> 28  12-> 28       0.030692
  16-> 27  16-> 27       0.030406
  11-> 28  11-> 28       0.030283
  21-> 31  21-> 31       0.029509
  13-> 27  13-> 27       0.029447
  16-> 29  16-> 29       0.029301
  20-> 23  20-> 23       0.029033


-------------------------------------------
DLPNO BASED TRIPLES CORRECTION
-------------------------------------------

Singles multiplier          ...  1.000000
TCutTNO                     ... 1.000e-09
TCutMP2Pairs                ... 1.000e-05
TCutDOStrong                ... 2.000e-02
TCutMKNStrong               ... 1.000e-02
TCutDOWeak                  ... 4.000e-02
TCutMKNWeak                 ... 1.000e-01

Fragment selection                          .... not used
Fock matrix occ-virt block is zero --> Setting DT_in_Triples to false.
Number of Triples that are to be computed   ...       239

 . . . . . . . . .
10% done  
20% done  
30% done  
40% done  
50% done  
60% done  
70% done  
80% done  
90% done               (     82.997 sec)
Triples timings:
Total time for T0               ...    84.729 sec
Total time for Iterative (T)    ...     0.000 sec
Total time of overall (T)       ...    84.729 sec

Triples List generation         ...     0.000 sec
TNO generation                  ...     1.730 sec
Pair density generation         ...     0.001 sec
Look up tables                  ...     0.000 sec
Generating 3-index integrals    ...    26.630 sec
  Make 4-ind.int. from 3-ind.int...    10.370 sec
  Projecting amplitudes (D + S) ...     1.265 sec
  Downprojecting integrals      ...     0.001 sec
  Energy contr. (sum over a,b,c)...    41.241 sec
Fitting ET(->0)                 ...     0.000 sec

Everything after 3-index        ...    56.367 sec

Timing details:
 TNO integrals                  ...    33.907 sec
   Reading 3-index integrals    ...     0.058 sec
   Sorting integrals            ...     6.788 sec
       Sorting integrals 1      ...     0.001 sec
       Sorting integrals 2      ...     3.797 sec
       Sorting integrals 3      ...     0.726 sec
       Sorting integrals 4      ...     0.026 sec
       Sorting integrals 5      ...     0.132 sec
       Sorting integrals 6      ...     2.105 sec
   Calculating local VM**-1/2   ...     1.122 sec
   Orthogonal. integrals        ...     0.931 sec
   Multipl. 3-index integrals   ...    25.009 sec
   All concerning IRIab (w/TNO) ...     5.790 sec

 Calculate W0/W1                ...     3.482 sec
 W 3-ext contribution           ...     1.760 sec
 W 3-int contribution           ...     0.490 sec
 Sorting W                      ...     1.041 sec

 V exchange contribution        ...    20.279 sec

 Timings for Triples without generation
     of 3-index integrals       ...    56.365 sec
       0 weak pairs             ...    48.661 sec
       1 weak pair              ...     7.704 sec
       2 weak pairs             ...     0.000 sec
       3 weak pairs             ...     0.000 sec
  Extra time for extrapolation  ...     0.000 sec

Number of Triples   (0, 1, 2, 3 weak pairs; overall):    194      45       0       0  (   239)
Number of Atoms     (0, 1, 2, 3 weak pairs; overall):    6.0     4.8     0.0     0.0  (     6)
Number of PAOs      (0, 1, 2, 3 weak pairs; overall):  169.0   152.2     0.0     0.0  (   169)
Number of AuxFcns   (0, 1, 2, 3 weak pairs; overall):  541.7   700.4     0.0     0.0  (   867)
Number of TNOs      (0, 1, 2, 3 weak pairs         ):   74.1    64.5     0.0     0.0
Aver. Number of NTNO, Atoms, PAOs, AuxFcns / Triples:    239    72.3     5.8   165.8   571.6

Triples Correction (T)                     ...     -0.025507864
Final correlation energy                   ...     -0.650350639
E(CCSD)                                    ...   -959.310417981
E(CCSD(T))                                 ...   -959.335925846


Maximum memory used throughout the entire calculation: 3953.5 MB


------------------------------------------------------------------------------- 
                                     TIMINGS                                   
------------------------------------------------------------------------------- 


Total execution time                   ...      188.163 sec

Localization of occupied MO's          ...        0.462 sec (  0.2%)
Fock Matrix Formation                  ...        3.398 sec (  1.8%)
Global overlap, Fock, MKN matrices     ...        0.089 sec (  0.0%)
Differential overlap integrals         ...        0.076 sec (  0.0%)
Organizing maps                        ...        0.007 sec (  0.0%)
RI 3-index integral generations        ...        2.761 sec (  1.5%)
RI-PNO integral transformation         ...       57.054 sec ( 30.3%)
Initial Guess                          ...        3.121 sec (  1.7%)
DIIS Solver                            ...        0.084 sec (  0.0%)
State Vector Update                    ...        0.002 sec (  0.0%)
Sigma-vector construction              ...       36.057 sec ( 19.2%)
  <0|H|D>                              ...        0.001 sec (  0.0% of sigma)
  <D|H|D>(0-ext)                       ...        1.495 sec (  4.1% of sigma)
  <D|H|D>(2-ext Fock)                  ...        0.017 sec (  0.0% of sigma)
  <D|H|D>(2-ext)                       ...        2.758 sec (  7.6% of sigma)
  <D|H|D>(4-ext)                       ...        4.957 sec ( 13.7% of sigma)
  <D|H|D>(4-ext-corr)                  ...       18.673 sec ( 51.8% of sigma)
  CCSD doubles correction              ...        0.148 sec (  0.4% of sigma)
  <S|H|S>                              ...        0.558 sec (  1.5% of sigma)
  <S|H|D>(1-ext)                       ...        0.238 sec (  0.7% of sigma)
  <D|H|S>(1-ext)                       ...        0.012 sec (  0.0% of sigma)
  <S|H|D>(3-ext)                       ...        0.228 sec (  0.6% of sigma)
  Fock-dressing                        ...        3.005 sec (  8.3% of sigma)
  Singles amplitudes                   ...        0.063 sec (  0.2% of sigma)
  (ik|jl)-dressing                     ...        0.512 sec (  1.4% of sigma)
  (ij|ab),(ia|jb)-dressing             ...        0.808 sec (  2.2% of sigma)
  Pair energies                        ...        0.006 sec (  0.0% of sigma)
Total Time for computing (T)           ...       84.854 sec ( 45.1% of ALL)


-------------------------   --------------------
FINAL SINGLE POINT ENERGY      -959.335925845645
-------------------------   --------------------


----------------------------------------------------------------------------
                           ORCA NUMERICAL GRADIENT
----------------------------------------------------------------------------

I state                        ... 1
J state                        ... 0
Number of atoms                ... 6
Derivative's order of accuracy ... 2
Central differences            ... used
Number of displacements        ... 36
Numerical increment            ... 5.000e-03 bohr
Translation invariance         ... used

The output will be reduced. Please look at the following files:
SCF program output             ... >tmp_orca.lastscf
Integral program output        ... >tmp_orca.lastint
Gradient program output        ... >tmp_orca.lastgrad

             <<<Displacing   2/coordinate 1 (+)>>>
             <<<Displacing   2/coordinate 1 (-)>>>
             <<<Displacing   2/coordinate 2 (+)>>>
             <<<Displacing   2/coordinate 2 (-)>>>
             <<<Displacing   2/coordinate 3 (+)>>>
             <<<Displacing   2/coordinate 3 (-)>>>
             <<<Displacing   3/coordinate 1 (+)>>>
             <<<Displacing   3/coordinate 1 (-)>>>
             <<<Displacing   3/coordinate 2 (+)>>>
             <<<Displacing   3/coordinate 2 (-)>>>
             <<<Displacing   3/coordinate 3 (+)>>>
             <<<Displacing   3/coordinate 3 (-)>>>
             <<<Displacing   4/coordinate 1 (+)>>>
             <<<Displacing   4/coordinate 1 (-)>>>
             <<<Displacing   4/coordinate 2 (+)>>>
             <<<Displacing   4/coordinate 2 (-)>>>
             <<<Displacing   4/coordinate 3 (+)>>>
             <<<Displacing   4/coordinate 3 (-)>>>
             <<<Displacing   5/coordinate 1 (+)>>>
             <<<Displacing   5/coordinate 1 (-)>>>
             <<<Displacing   5/coordinate 2 (+)>>>
             <<<Displacing   5/coordinate 2 (-)>>>
             <<<Displacing   5/coordinate 3 (+)>>>
             <<<Displacing   5/coordinate 3 (-)>>>
             <<<Displacing   6/coordinate 1 (+)>>>
             <<<Displacing   6/coordinate 1 (-)>>>
             <<<Displacing   6/coordinate 2 (+)>>>
             <<<Displacing   6/coordinate 2 (-)>>>
             <<<Displacing   6/coordinate 3 (+)>>>
             <<<Displacing   6/coordinate 3 (-)>>>

------------------------------
CARTESIAN GRADIENT (NUMERICAL)
-------------------------------
   1   C   :    0.012397372    0.071726232   -0.070942743
   2   Cl  :    0.002794154    0.003667323    0.005226767
   3   H   :    0.021002656   -0.034822092    0.023309091
   4   H   :   -0.014952279   -0.003640802    0.007482601
   5   H   :   -0.018259574   -0.028881966    0.038676275
   6   Cl  :   -0.002982329   -0.008048695   -0.003751991

Norm of the cartesian gradient     ...    0.124983206
RMS gradient                       ...    0.029458824
MAX gradient                       ...    0.071726232

-------
TIMINGS
-------

Total numerical gradient time      ...     6068.197 sec


                            ***************************************
                            *     ORCA property calculations      *
                            ***************************************

                                    ---------------------
                                    Active property flags
                                    ---------------------
   (+) Dipole Moment


------------------------------------------------------------------------------
                       ORCA ELECTRIC PROPERTIES CALCULATION
------------------------------------------------------------------------------

Dipole Moment Calculation                       ... on
Quadrupole Moment Calculation                   ... off
Polarizability Calculation                      ... off
GBWName                                         ... tmp_orca.gbw
Electron density file                           ... tmp_orca.scfp
The origin for moment calculation is the CENTER OF MASS  = ( 3.876949,  9.204403  7.154631)

-------------
DIPOLE MOMENT
-------------
                                X             Y             Z
Electronic contribution:     -0.01964      -0.15725      -0.16389
Nuclear contribution   :     -0.12246      -0.05212      -0.07169
                        -----------------------------------------
Total Dipole Moment    :     -0.14210      -0.20937      -0.23558
                        -----------------------------------------
Magnitude (a.u.)       :      0.34573
Magnitude (Debye)      :      0.87877



--------------------
Rotational spectrum 
--------------------
 
Rotational constants in cm-1:     4.658713     0.041769     0.041748 
Rotational constants in MHz : 139664.696187  1252.199291  1251.585055 

 Dipole components along the rotational axes: 
x,y,z [a.u.] :     0.342708     0.045176     0.006090 
x,y,z [Debye]:     0.871096     0.114829     0.015479 

 

Timings for individual modules:

Sum of individual times         ...     6287.570 sec (= 104.793 min)
GTO integral calculation        ...        0.346 sec (=   0.006 min)   0.0 %
SCF iterations                  ...       29.441 sec (=   0.491 min)   0.5 %
MDCI module                     ...      189.586 sec (=   3.160 min)   3.0 %
SCF Gradient evaluation         ...     6068.197 sec (= 101.137 min)  96.5 %
                             ****ORCA TERMINATED NORMALLY****
TOTAL RUN TIME: 0 days 1 hours 44 minutes 47 seconds 952 msec
