Title: mp5_H                                                            
Freq      UB2PLYP-FC                                                  def2SVP             
Number of atoms                            I                1
Info1-9                                    I   N=           9
          12          10        1002           0           0         100
           6           2       -4701
Full Title                                 C   N=           1
Title: mp5_H
Route                                      C   N=           3
# B2PLYP def2svp opt freq           
Charge                                     I                0
Multiplicity                               I                2
Number of electrons                        I                1
Number of alpha electrons                  I                1
Number of beta electrons                   I                0
Number of basis functions                  I                5
Number of independent functions            I                5
Number of point charges in /Mol/           I                0
Number of translation vectors              I                0
Atomic numbers                             I   N=           1
           1
Nuclear charges                            R   N=           1
  1.00000000E+00
Current cartesian coordinates              R   N=           3
  0.00000000E+00  0.00000000E+00  0.00000000E+00
Number of symbols in /Mol/                 I                0
Int Atom Types                             I   N=           1
           0
Force Field                                I                0
Atom Types                                 C   N=           1
            
MM charges                                 R   N=           1
  0.00000000E+00
Integer atomic weights                     I   N=           1
           1
Real atomic weights                        R   N=           1
  1.00782504E+00
Atom fragment info                         I   N=           1
           0
Atom residue num                           I   N=           1
           0
Nuclear spins                              I   N=           1
           1
Nuclear ZEff                               R   N=           1
 -1.00000000E+00
Nuclear ZNuc                               R   N=           1
  1.00000000E+00
Nuclear QMom                               R   N=           1
  0.00000000E+00
Nuclear GFac                               R   N=           1
  2.79284600E+00
MicOpt                                     I   N=           1
          -1
Number of residues                         I                0
Number of secondary structures             I                0
SymInf integers                            I   N=          26
           1           8           1           1           1           1
          -1          -1          -1           1          -1          -1
          -1           1          -1          -1          -1          -1
           1           1           1          -1           1           1
           1          -1
RotTr to input orientation                 R   N=          12
  0.00000000E+00  0.00000000E+00 -1.00000000E+00  0.00000000E+00  1.00000000E+00
  0.00000000E+00  1.00000000E+00  0.00000000E+00  0.00000000E+00  1.16533108E+00
 -4.72431531E-02  0.00000000E+00
Number of contracted shells                I                3
Number of primitive shells                 I                5
Pure/Cartesian d shells                    I                0
Pure/Cartesian f shells                    I                0
Highest angular momentum                   I                1
Largest degree of contraction              I                3
Shell types                                I   N=           3
           0           0           1
Number of primitives per shell             I   N=           3
           3           1           1
Shell to atom map                          I   N=           3
           1           1           1
Primitive exponents                        R   N=           5
  1.30107010E+01  1.96225720E+00  4.44537960E-01  1.21949620E-01  8.00000000E-01
Contraction coefficients                   R   N=           5
  3.34854848E-02  2.34721871E-01  8.13770285E-01  1.00000000E+00  1.00000000E+00
Coordinates of each shell                  R   N=           9
  0.00000000E+00  0.00000000E+00  0.00000000E+00  0.00000000E+00  0.00000000E+00
  0.00000000E+00  0.00000000E+00  0.00000000E+00  0.00000000E+00
Num ILSW                                   I              100
ILSW                                       I   N=         100
           1           0           0           0           2           0
           0           0           0           0         419          -1
           5           0           0           0           2           0
           0           0           1           0           1           0
           1           0           0           0           0           0
           0           0      100000           0          -1           0
           0           0           0           0           0           0
           0           0           0           1           1           0
           0 -2000000000           1           0           0           0
           0           0           4          52           0           0
           0           0          47           0           0           0
           0           0           0           0           4           1
           0           0           0           0           0           0
           0           0           0           0           0           0
           0           0           0           0           0           0
           0           0           0           0           0           0
           0           0           0           0
Num RLSW                                   I               52
RLSW                                       R   N=          52
  4.70000000E-01  4.70000000E-01  7.30000000E-01  7.30000000E-01  5.30000000E-01
  0.00000000E+00  0.00000000E+00  1.00000000E+00  0.00000000E+00  0.00000000E+00
  0.00000000E+00  0.00000000E+00  1.00000000E+00  0.00000000E+00  0.00000000E+00
  0.00000000E+00  0.00000000E+00  1.00000000E+00  0.00000000E+00  0.00000000E+00
  0.00000000E+00  0.00000000E+00  1.00000000E+00  0.00000000E+00  0.00000000E+00
  0.00000000E+00  0.00000000E+00  1.00000000E+00  0.00000000E+00  0.00000000E+00
  0.00000000E+00  0.00000000E+00  1.00000000E+00  0.00000000E+00  0.00000000E+00
  0.00000000E+00  0.00000000E+00  0.00000000E+00  2.70000000E-01  2.70000000E-01
  0.00000000E+00  1.00000000E+00  0.00000000E+00  0.00000000E+00  0.00000000E+00
  0.00000000E+00  0.00000000E+00  0.00000000E+00  0.00000000E+00  0.00000000E+00
  0.00000000E+00  0.00000000E+00
ECP-MxAtEC                                 I           250000
ECP-MaxLECP                                I               10
ECP-MaxAtL                                 I          2250000
ECP-MxTECP                                 I         11250000
ECP-LenNCZ                                 I                0
ECP-KFirst                                 I   N=          10
           0           0           0           0           0           0
           0           0           0           0
ECP-KLast                                  I   N=          10
           0           0           0           0           0           0
           0           0           0           0
ECP-LMax                                   I   N=           1
           0
ECP-LPSkip                                 I   N=           1
           1
ECP-RNFroz                                 R   N=           1
  0.00000000E+00
ECP-NLP                                    I                0
ECP-CLP1                                   R      0.000000000000000E+00
ECP-CLP2                                   R      0.000000000000000E+00
ECP-ZLP                                    R      0.000000000000000E+00
MxBond                                     I                1
NBond                                      I   N=           1
           0
IBond                                      I   N=           1
           0
RBond                                      R   N=           1
  0.00000000E+00
Virial Ratio                               R      2.000616773654206E+00
SCF Energy                                 R     -4.979260422615744E-01
MP2 Energy                                 R     -4.979260422615744E-01
Total Energy                               R     -4.979260422615744E-01
PUHF Energy                                R     -4.979260422615744E-01
PMP2-0 Energy                              R     -4.979260422615744E-01
Post-SCF wavefunction norm                 R      1.414213562373095E+00
S**2                                       R      7.500000000000000E-01
S**2 after annihilation                    R      7.500000000000000E-01
S**2 corrected to first order              R      7.500000000000000E-01
NImag                                      I                0
Job Status                                 I                1
Nuclear derivative order                   I                2
Thermal Energy                             R     -4.965097650411079E-01
Thermal Enthalpy                           R     -4.955655802274635E-01
Thermal Free Energy                        R     -5.085801859960730E-01
External E-field                           R   N=          35
  0.00000000E+00  0.00000000E+00  0.00000000E+00  0.00000000E+00  0.00000000E+00
  0.00000000E+00  0.00000000E+00  0.00000000E+00  0.00000000E+00  0.00000000E+00
  0.00000000E+00  0.00000000E+00  0.00000000E+00  0.00000000E+00  0.00000000E+00
  0.00000000E+00  0.00000000E+00  0.00000000E+00  0.00000000E+00  0.00000000E+00
  0.00000000E+00  0.00000000E+00  0.00000000E+00  0.00000000E+00  0.00000000E+00
  0.00000000E+00  0.00000000E+00  0.00000000E+00  0.00000000E+00  0.00000000E+00
  0.00000000E+00  0.00000000E+00  0.00000000E+00  0.00000000E+00  0.00000000E+00
IOpCl                                      I                1
IROHF                                      I                0
Alpha Orbital Energies                     R   N=           5
 -3.90141378E-01  4.84226925E-01  1.45536448E+00  1.45536448E+00  1.45536448E+00
Beta Orbital Energies                      R   N=           5
  7.29878053E-02  7.52346746E-01  1.72708252E+00  1.72708252E+00  1.72708252E+00
Alpha MO coefficients                      R   N=          25
  5.85953191E-01  5.02989854E-01  0.00000000E+00  0.00000000E+00  0.00000000E+00
 -1.24085598E+00  1.27674034E+00  0.00000000E+00  0.00000000E+00  0.00000000E+00
  0.00000000E+00  0.00000000E+00  0.00000000E+00  0.00000000E+00  1.00000000E+00
  0.00000000E+00  0.00000000E+00  0.00000000E+00  1.00000000E+00  0.00000000E+00
  0.00000000E+00  0.00000000E+00  1.00000000E+00  0.00000000E+00  0.00000000E+00
Beta MO coefficients                       R   N=          25
  2.20100652E-01  8.36328148E-01  0.00000000E+00  0.00000000E+00  0.00000000E+00
  1.35448160E+00 -1.08794298E+00  0.00000000E+00  0.00000000E+00  0.00000000E+00
  0.00000000E+00  0.00000000E+00  0.00000000E+00  0.00000000E+00  1.00000000E+00
  0.00000000E+00  0.00000000E+00  0.00000000E+00  1.00000000E+00  0.00000000E+00
  0.00000000E+00  0.00000000E+00  1.00000000E+00  0.00000000E+00  0.00000000E+00
Orthonormal basis                          R   N=          25
  5.44767070E-01  5.44767070E-01  0.00000000E+00  0.00000000E+00  0.00000000E+00
  1.25948145E+00 -1.25948145E+00  0.00000000E+00  0.00000000E+00  0.00000000E+00
  0.00000000E+00  0.00000000E+00  0.00000000E+00  0.00000000E+00  1.00000000E+00
  0.00000000E+00  0.00000000E+00  0.00000000E+00  1.00000000E+00  0.00000000E+00
  0.00000000E+00  0.00000000E+00  1.00000000E+00  0.00000000E+00  0.00000000E+00
Total SCF Density                          R   N=          15
  3.43341142E-01  2.94728510E-01  2.52998793E-01  0.00000000E+00  0.00000000E+00
  0.00000000E+00  0.00000000E+00  0.00000000E+00  0.00000000E+00  0.00000000E+00
  0.00000000E+00  0.00000000E+00  0.00000000E+00  0.00000000E+00  0.00000000E+00
Spin SCF Density                           R   N=          15
  3.43341142E-01  2.94728510E-01  2.52998793E-01  0.00000000E+00  0.00000000E+00
  0.00000000E+00  0.00000000E+00  0.00000000E+00  0.00000000E+00  0.00000000E+00
  0.00000000E+00  0.00000000E+00  0.00000000E+00  0.00000000E+00  0.00000000E+00
Total MP2 Density                          R   N=          15
  3.43341142E-01  2.94728510E-01  2.52998793E-01  0.00000000E+00  0.00000000E+00
  0.00000000E+00  0.00000000E+00  0.00000000E+00  0.00000000E+00  0.00000000E+00
  0.00000000E+00  0.00000000E+00  0.00000000E+00  0.00000000E+00  0.00000000E+00
Spin MP2 Density                           R   N=          15
  3.43341142E-01  2.94728510E-01  2.52998793E-01  0.00000000E+00  0.00000000E+00
  0.00000000E+00  0.00000000E+00  0.00000000E+00  0.00000000E+00  0.00000000E+00
  0.00000000E+00  0.00000000E+00  0.00000000E+00  0.00000000E+00  0.00000000E+00
Grdnt Energy                               R     -4.979260422615744E-01
Grdnt NVar                                 I                0
Grdnt IGetFC                               I                4
Mulliken Charges                           R   N=           1
  1.11022302E-16
Optimization MaxStp                        I              100
Optimization MaxJob                        I                1
Optimization Job offset                    I                0
Optimization Num results per geometry      I                2
Optimization Num geometry variables        I               36
Optimization Reference Energy              R      0.000000000000000E+00
Opt point       1 Results for each geome   R   N=           8
  3.93280634E-02  0.00000000E+00  3.89155754E-02  0.00000000E+00  3.88907193E-02
  0.00000000E+00  3.88879644E-02  0.00000000E+00
Opt point       1 Geometries               R   N=         144
 -3.33947585E-01 -2.61491254E+00  1.01759891E-05  2.09779610E+00 -1.59628710E+00
 -6.88712976E-04  2.43179966E+00  1.01808729E+00  3.67449113E-04  3.33449237E-01
  2.61513511E+00 -1.42382753E-04 -2.09765404E+00  1.59661872E+00 -3.48930989E-04
 -2.43143430E+00 -1.01859560E+00  4.76575747E-04 -5.96869838E-01 -4.67617413E+00
  2.76374454E-05  3.75102421E+00 -2.85530117E+00  4.12468252E-04  4.34846816E+00
  1.82111761E+00  1.01475657E-03  5.97267542E-01  4.67641505E+00  5.78615123E-04
 -3.75178263E+00  2.85477981E+00 -7.65993941E-04 -4.34816193E+00 -1.82111242E+00
  6.87471766E-04 -2.49221642E+00 -8.83785920E-01 -1.12731877E-05 -4.80395085E-01
 -2.60014443E+00  1.84184026E-04  2.01145743E+00 -1.71634276E+00 -1.18823119E-04
  2.49205999E+00  8.84053938E-01  5.46641388E-05  4.80732083E-01  2.60005475E+00
  9.74842809E-05 -2.01165483E+00  1.71616302E+00 -8.28133671E-05 -4.43527733E+00
 -1.57322895E+00 -2.42707723E-04 -8.55472578E-01 -4.62754600E+00 -3.99305685E-05
  3.58020862E+00 -3.05418138E+00 -2.86784363E-04  4.43536225E+00  1.57274913E+00
 -1.53065524E-05  8.55167694E-01  4.62759063E+00 -1.97404931E-04 -3.57988764E+00
  3.05462500E+00  4.15975116E-05 -1.37113789E-01 -2.63889773E+00 -1.32658850E-05
  2.21688958E+00 -1.43805562E+00 -6.06705095E-05  2.35392229E+00  1.20069942E+00
  5.02161459E-05  1.36943040E-01  2.63891824E+00 -8.43401034E-06 -2.21680050E+00
  1.43819460E+00 -7.10554903E-05 -2.35384108E+00 -1.20085450E+00  4.77546762E-05
 -2.43472689E-01 -4.69139055E+00  2.86203570E-05  3.94098182E+00 -2.55681585E+00
  7.89354157E-06  4.18460815E+00  2.13485480E+00  8.43658335E-05  2.43780501E-01
  4.69139180E+00  7.62330793E-05 -3.94115813E+00  2.55653664E+00 -2.09617852E-05
 -4.18473690E+00 -2.13460322E+00  1.56579412E-04  1.15863154E-01 -2.64084719E+00
 -3.41045452E-08  2.34503162E+00 -1.21997167E+00 -1.58693087E-05  2.22911956E+00
  1.42075980E+00  1.07304919E-05 -1.15993435E-01  2.64084822E+00 -1.99631049E-06
 -2.34497592E+00  1.22008342E+00 -1.02103841E-05 -2.22904525E+00 -1.42087022E+00
  1.39678067E-05  2.06200459E-01 -4.69512931E+00 -1.24866055E-05  4.16911226E+00
 -2.16917972E+00  1.71874254E-06  3.96301012E+00  2.52614332E+00  2.15868048E-05
 -2.05990701E-01  4.69514874E+00  1.63688552E-05 -4.16922042E+00  2.16897958E+00
 -3.96103012E-05 -3.96311013E+00 -2.52597678E+00  3.28933592E-05
Opt point       1 Gradient at each geome   R   N=         144
  1.13036834E-03  9.15968552E-03  2.20704772E-05 -7.33055524E-03  5.75275991E-03
 -1.24082994E-04 -8.32443057E-03 -3.86176093E-03  5.90259986E-05 -1.42708717E-03
 -9.02722567E-03 -4.07142123E-05  7.41312689E-03 -5.62648869E-03 -2.00110412E-05
  8.53487572E-03  3.52618931E-03  5.43224066E-05 -7.00499372E-04 -5.43396899E-03
 -2.77225965E-06  4.36063941E-03 -3.33305812E-03  4.34940215E-05  5.09917808E-03
  2.12526672E-03  2.03846032E-06  7.19063440E-04  5.48290787E-03  1.93425761E-05
 -4.42508647E-03  3.34806913E-03 -2.85990070E-06 -5.04959307E-03 -2.11237606E-03
 -9.85353243E-06  5.39421875E-04  2.59623516E-04 -1.03492678E-06  2.06961618E-04
  6.16019477E-04  3.32316763E-05 -5.15244663E-04  3.62207743E-04 -2.24570061E-05
 -6.27040862E-04 -1.22116780E-04  7.84991904E-06 -1.62527590E-05 -6.74857588E-04
  1.98453431E-05  4.20889474E-04 -4.41641783E-04 -2.01004760E-05 -1.45080854E-03
 -5.15526363E-04 -4.75893614E-06 -2.91404026E-04 -1.52116287E-03 -8.77276404E-06
  1.17750403E-03 -9.82594068E-04  6.43262942E-08  1.44639030E-03  4.93458674E-04
 -1.41573293E-06  2.78618627E-04  1.52513059E-03 -9.55885118E-06 -1.16903507E-03
  1.00145945E-03  7.10742842E-06 -2.43355898E-05  3.04847484E-04 -1.04467698E-06
 -2.35225023E-04  2.03976535E-04 -8.92029902E-06 -2.43525085E-04 -1.82437660E-04
  7.95778962E-06 -6.47826401E-05 -2.94762023E-04 -1.77342997E-06  2.78789925E-04
 -1.32723428E-04 -9.39116697E-06  2.88154223E-04  1.01002153E-04  5.66807593E-06
  2.35166018E-05  3.45462568E-04  7.36864029E-07 -2.89786265E-04  1.80073672E-04
  2.93460730E-06 -3.09680950E-04 -1.50943696E-04 -1.22003622E-06 -1.06153299E-05
 -3.43686887E-04  1.78814978E-06  2.83441091E-04 -1.92074834E-04  2.55567928E-06
  3.04049042E-04  1.61266117E-04  7.08443222E-07 -2.75171602E-05 -6.13039193E-05
  7.47403810E-07  6.57440372E-05  3.25543439E-06 -2.60184573E-06  7.42550864E-05
 -5.04931952E-07  1.49700281E-06 -4.05177469E-05  6.20045823E-05 -9.25406122E-07
 -3.76779876E-05  5.32498544E-05 -1.33900050E-07 -3.45104178E-05 -5.79712001E-05
  9.47894230E-07  3.24759370E-06  1.31896319E-05 -3.51915343E-07 -1.20641487E-05
  1.35331534E-06  8.36856308E-07 -1.20460759E-05 -2.99759649E-06 -1.30016861E-07
  5.17541736E-06 -1.12720119E-05  4.84276052E-07  7.38390216E-06 -9.08048970E-06
 -4.46812214E-07  8.52750040E-06  1.00773311E-05  7.64631044E-08
Optimization Number of geometries          I   N=           1
           4
ONIOM Charges                              I   N=          16
           0           0           0           0           0           0
           0           0           0           0           0           0
           0           0           0           0
ONIOM Multiplicities                       I   N=          16
           2           0           0           0           0           0
           0           0           0           0           0           0
           0           0           0           0
Atom Layers                                I   N=           1
           1
Atom Modifiers                             I   N=           1
           0
Int Atom Modified Types                    I   N=           1
           0
Force Field                                I                0
Atom Modified Types                        C   N=           1
            
Link Atoms                                 I   N=           1
           0
Atom Modified MM Charges                   R   N=           1
  0.00000000E+00
Link Distances                             R   N=           4
  0.00000000E+00  0.00000000E+00  0.00000000E+00  0.00000000E+00
Cartesian Gradient                         R   N=           3
  0.00000000E+00  0.00000000E+00  0.00000000E+00
Cartesian Force Constants                  R   N=           6
  0.00000000E+00  0.00000000E+00  0.00000000E+00  0.00000000E+00  0.00000000E+00
  0.00000000E+00
Nonadiabatic coupling                      R   N=           3
  0.00000000E+00  0.00000000E+00  0.00000000E+00
Dipole Moment                              R   N=           3
 -0.00000000E+00  0.00000000E+00  0.00000000E+00
Dipole Derivatives                         R   N=           9
 -4.44089210E-16  0.00000000E+00  0.00000000E+00  0.00000000E+00 -4.44089210E-16
  0.00000000E+00  0.00000000E+00  0.00000000E+00 -4.44089210E-16
Polarizability                             R   N=           6
  5.23421625E-01 -9.33808620E-34  5.23421625E-01 -4.00796743E-34  8.27206245E-34
  5.23421625E-01
Anisotropic Hyperfine tensors              R   N=           6
  7.40148683E-17  0.00000000E+00  7.40148683E-17  0.00000000E+00  0.00000000E+00
  7.40148683E-17
Isotropic Hyperfine splittings             R   N=           1
  2.67605389E-01
QEq coupling tensors                       R   N=           6
  7.40148683E-17  0.00000000E+00  7.40148683E-17  0.00000000E+00  0.00000000E+00
  7.40148683E-17
NSEScI                                     I               16
Number of SE elements                      I               72
Number of SE core fns                      I                1
ISEScl                                     I   N=          16
        1000          40         108          16          16          16
         112           3          30           5           1           2
          10           0           0           0
RSEScl                                     R   N=          16
  0.00000000E+00  0.00000000E+00  1.24487837E-05  7.62141757E-07  1.00000000E+01
  1.15360632E+00  0.00000000E+00  0.00000000E+00  0.00000000E+00  0.00000000E+00
  0.00000000E+00  3.67493036E+03  1.00000000E-01  5.00000000E+00  1.58753163E+00
  0.00000000E+00
List of SE elements                        I   N=          72
           1           2           3           4           5           6
           7           8           9          10          11          12
          13          14          15          16          17          18
          19          20          21          22          23          24
          25          26          27          28          29          30
          31          32          33          34          35          36
          37          38          39          40          41          42
          43          44          45          46          47          48
          49          50          51          52          53          54
          55          56          57          64          71          72
          73          74          75          76          77          78
          79          80          81          82          83          90
ISEPar                                     I   N=        1152
           1           1           1           0           0           0
           0           1           0           0           0           0
           0           0           0           0           1           0
           1           2           0           0           0           2
           0           0           0           0           0           0
           0           0           1           0           2           2
           0           0           0           1           0           0
           0           0           0           0           0           0
           1           1           2           2           0           0
           0           2           0           0           0           0
           0           0           0           0           1           0
           2           2           0           0           0           3
           0           0           0           0           0           0
           0           0           1           1           2           2
           0           0           0           4           0           0
           0           0           0           0           0           0
           1           1           2           2           0           0
           0           5           0           0           0           0
           0           0           0           0           1           1
           2           2           0           0           0           6
           0           0           0           0           0           0
           0           0           1           1           2           2
           0           0           0           7           0           0
           0           0           0           0           0           0
           1           0           3           2           0           0
           0           6           0           0           0           0
           0           0           0           0           1           1
           3           3           0           0           0           1
           0           0           0           0           0           0
           0           0           1           0           3           3
           0           0           0           2           0           0
           0           0           0           0           0           0
           1           1           3           3           3           0
           0           3           0           0           0           0
           0           0           0           0           1           1
           3           3           3           0           0           4
           0           0           0           0           0           0
           0           0           1           1           3           3
           3           0           0           5           0           0
           0           0           0           0           0           0
           1           1           3           3           3           0
           0           6           0           0           0           0
           0           0           0           0           1           1
           3           3           3           0           0           7
           0           0           0           0           0           0
           0           0           1           0           4           3
           0           0           0           6           0           0
           0           0           0           0           0           0
           1           1           4           4           0           0
           0           1           0           0           0           0
           0           0           0           0           1           1
           4           4           0           0           0           2
           0           0           0           0           0           0
           0           0           1           0           4           4
           3           0           0           3           0           1
           0           0           0           0           0           0
           1           0           4           4           3           0
           0           4           0           1           0           0
           0           0           0           0           1           0
           4           4           3           0           0           5
           0           1           0           0           0           0
           0           0           1           0           4           4
           3           0           0           6           0           1
           0           0           0           0           0           0
           1           0           4           4           3           0
           0           7           0           1           0           0
           0           0           0           0           1           0
           4           4           3           0           0           8
           0           1           0           0           0           0
           0           0           1           0           4           4
           3           0           0           9           0           1
           0           0           0           0           0           0
           1           0           4           4           3           0
           0          10           0           1           0           0
           0           0           0           0           1           0
           4           4           3           0           0          11
           0           1           0           0           0           0
           0           0           1           0           4           4
           0           0           0           2           0           0
           0           0           0           0           0           0
           1           0           4           4           0           0
           0           3           0           0           0           0
           0           0           0           0           1           0
           4           4           0           0           0           4
           0           0           0           0           0           0
           0           0           1           0           4           4
           4           0           0           5           0           0
           0           0           0           0           0           0
           1           0           4           4           0           0
           0           6           0           0           0           0
           0           0           0           0           1           1
           4           4           4           0           0           7
           0           0           0           0           0           0
           0           0           1           0           5           4
           0           0           0           6           0           0
           0           0           0           0           0           0
           1           0           5           5           0           0