Title Card Required                                                     
SP        UCCSD-FC                                                    Aug-CC-pVTZ         
Number of atoms                            I                4
Info1-9                                    I   N=           9
          13          13           0           0           0         110
           1          14         301
Full Title                                 C   N=           2
Title Card Required     
Route                                      C   N=           2
# ccsd/aug-cc-pvtz      
Charge                                     I                0
Multiplicity                               I                2
Number of electrons                        I                9
Number of alpha electrons                  I                5
Number of beta electrons                   I                4
Number of basis functions                  I              115
Number of independent functions            I              115
Number of point charges in /Mol/           I                0
Number of translation vectors              I                0
Atomic numbers                             I   N=           4
           6           1           1           1
Nuclear charges                            R   N=           4
  6.00000000E+00  1.00000000E+00  1.00000000E+00  1.00000000E+00
Current cartesian coordinates              R   N=          12
 -9.43248728E-06 -5.68668596E-06 -2.29285417E-01  1.14384678E+00 -1.57366575E+00
  4.58569496E-01  7.90981019E-01  1.77741089E+00  4.58558062E-01 -1.93477120E+00
 -2.03711023E-01  4.58584942E-01
Number of symbols in /Mol/                 I                0
Int Atom Types                             I   N=           4
           0           0           0           0
Force Field                                I                0
Atom Types                                 C   N=           4
                                                
MM charges                                 R   N=           4
  0.00000000E+00  0.00000000E+00  0.00000000E+00  0.00000000E+00
Integer atomic weights                     I   N=           4
          12           1           1           1
Real atomic weights                        R   N=           4
  1.20000000E+01  1.00782504E+00  1.00782504E+00  1.00782504E+00
Atom fragment info                         I   N=           4
           0           0           0           0
Atom residue num                           I   N=           4
           0           0           0           0
Nuclear spins                              I   N=           4
           0           1           1           1
Nuclear ZEff                               R   N=           4
 -3.60000000E+00 -1.00000000E+00 -1.00000000E+00 -1.00000000E+00
Nuclear ZNuc                               R   N=           4
  6.00000000E+00  1.00000000E+00  1.00000000E+00  1.00000000E+00
Nuclear QMom                               R   N=           4
  0.00000000E+00  0.00000000E+00  0.00000000E+00  0.00000000E+00
Nuclear GFac                               R   N=           4
  0.00000000E+00  2.79284600E+00  2.79284600E+00  2.79284600E+00
MicOpt                                     I   N=           4
          -1          -1          -1          -1
Number of residues                         I                0
Number of secondary structures             I                0
SymInf integers                            I   N=          26
           1           1           1           1           1           0
           0           0           0           0           0           0
           0           0           0           0           0           0
           0           0           0           0           0           0
           0           0
RotTr to input orientation                 R   N=          12
  6.04516439E-01 -5.42956860E-01 -5.82887402E-01  6.32975194E-01  7.71658565E-01
 -6.23334827E-02  4.83634448E-01 -3.31271651E-01  8.10158512E-01  8.69001057E-02
  1.97590813E+00  2.00869488E-01
Number of contracted shells                I               41
Number of primitive shells                 I               60
Pure/Cartesian d shells                    I                0
Pure/Cartesian f shells                    I                0
Highest angular momentum                   I                3
Largest degree of contraction              I                7
Shell types                                I   N=          41
           0           0           0           0           0           1
           1           1           1          -2          -2          -2
          -3          -3           0           0           0           0
           1           1           1          -2          -2           0
           0           0           0           1           1           1
          -2          -2           0           0           0           0
           1           1           1          -2          -2
Number of primitives per shell             I   N=          41
           7           6           1           1           1           3
           1           1           1           1           1           1
           1           1           3           1           1           1
           1           1           1           1           1           3
           1           1           1           1           1           1
           1           1           3           1           1           1
           1           1           1           1           1
Shell to atom map                          I   N=          41
           1           1           1           1           1           1
           1           1           1           1           1           1
           1           1           2           2           2           2
           2           2           2           2           2           3
           3           3           3           3           3           3
           3           3           4           4           4           4
           4           4           4           4           4
Primitive exponents                        R   N=          60
  8.23600000E+03  1.23500000E+03  2.80800000E+02  7.92700000E+01  2.55900000E+01
  8.99700000E+00  3.31900000E+00  2.80800000E+02  7.92700000E+01  2.55900000E+01
  8.99700000E+00  3.31900000E+00  3.64300000E-01  9.05900000E-01  1.28500000E-01
  4.40200000E-02  1.87100000E+01  4.13300000E+00  1.20000000E+00  3.82700000E-01
  1.20900000E-01  3.56900000E-02  1.09700000E+00  3.18000000E-01  1.00000000E-01
  7.61000000E-01  2.68000000E-01  3.38700000E+01  5.09500000E+00  1.15900000E+00
  3.25800000E-01  1.02700000E-01  2.52600000E-02  1.40700000E+00  3.88000000E-01
  1.02000000E-01  1.05700000E+00  2.47000000E-01  3.38700000E+01  5.09500000E+00
  1.15900000E+00  3.25800000E-01  1.02700000E-01  2.52600000E-02  1.40700000E+00
  3.88000000E-01  1.02000000E-01  1.05700000E+00  2.47000000E-01  3.38700000E+01
  5.09500000E+00  1.15900000E+00  3.25800000E-01  1.02700000E-01  2.52600000E-02
  1.40700000E+00  3.88000000E-01  1.02000000E-01  1.05700000E+00  2.47000000E-01
Contraction coefficients                   R   N=          60
  5.41978320E-04  4.19287382E-03  2.15221621E-02  8.35343220E-02  2.39582846E-01
  4.42852842E-01  3.51799562E-01 -5.94922494E-05 -1.14815831E-03 -1.00191374E-02
 -6.12194923E-02 -1.73269854E-01  1.07291519E+00  1.00000000E+00  1.00000000E+00
  1.00000000E+00  3.94263872E-02  2.44088985E-01  8.15492009E-01  1.00000000E+00
  1.00000000E+00  1.00000000E+00  1.00000000E+00  1.00000000E+00  1.00000000E+00
  1.00000000E+00  1.00000000E+00  2.54948632E-02  1.90362766E-01  8.52162022E-01
  1.00000000E+00  1.00000000E+00  1.00000000E+00  1.00000000E+00  1.00000000E+00
  1.00000000E+00  1.00000000E+00  1.00000000E+00  2.54948632E-02  1.90362766E-01
  8.52162022E-01  1.00000000E+00  1.00000000E+00  1.00000000E+00  1.00000000E+00
  1.00000000E+00  1.00000000E+00  1.00000000E+00  1.00000000E+00  2.54948632E-02
  1.90362766E-01  8.52162022E-01  1.00000000E+00  1.00000000E+00  1.00000000E+00
  1.00000000E+00  1.00000000E+00  1.00000000E+00  1.00000000E+00  1.00000000E+00
Coordinates of each shell                  R   N=         123
 -9.43248728E-06 -5.68668596E-06 -2.29285417E-01 -9.43248728E-06 -5.68668596E-06
 -2.29285417E-01 -9.43248728E-06 -5.68668596E-06 -2.29285417E-01 -9.43248728E-06
 -5.68668596E-06 -2.29285417E-01 -9.43248728E-06 -5.68668596E-06 -2.29285417E-01
 -9.43248728E-06 -5.68668596E-06 -2.29285417E-01 -9.43248728E-06 -5.68668596E-06
 -2.29285417E-01 -9.43248728E-06 -5.68668596E-06 -2.29285417E-01 -9.43248728E-06
 -5.68668596E-06 -2.29285417E-01 -9.43248728E-06 -5.68668596E-06 -2.29285417E-01
 -9.43248728E-06 -5.68668596E-06 -2.29285417E-01 -9.43248728E-06 -5.68668596E-06
 -2.29285417E-01 -9.43248728E-06 -5.68668596E-06 -2.29285417E-01 -9.43248728E-06
 -5.68668596E-06 -2.29285417E-01  1.14384678E+00 -1.57366575E+00  4.58569496E-01
  1.14384678E+00 -1.57366575E+00  4.58569496E-01  1.14384678E+00 -1.57366575E+00
  4.58569496E-01  1.14384678E+00 -1.57366575E+00  4.58569496E-01  1.14384678E+00
 -1.57366575E+00  4.58569496E-01  1.14384678E+00 -1.57366575E+00  4.58569496E-01
  1.14384678E+00 -1.57366575E+00  4.58569496E-01  1.14384678E+00 -1.57366575E+00
  4.58569496E-01  1.14384678E+00 -1.57366575E+00  4.58569496E-01  7.90981019E-01
  1.77741089E+00  4.58558062E-01  7.90981019E-01  1.77741089E+00  4.58558062E-01
  7.90981019E-01  1.77741089E+00  4.58558062E-01  7.90981019E-01  1.77741089E+00
  4.58558062E-01  7.90981019E-01  1.77741089E+00  4.58558062E-01  7.90981019E-01
  1.77741089E+00  4.58558062E-01  7.90981019E-01  1.77741089E+00  4.58558062E-01
  7.90981019E-01  1.77741089E+00  4.58558062E-01  7.90981019E-01  1.77741089E+00
  4.58558062E-01 -1.93477120E+00 -2.03711023E-01  4.58584942E-01 -1.93477120E+00
 -2.03711023E-01  4.58584942E-01 -1.93477120E+00 -2.03711023E-01  4.58584942E-01
 -1.93477120E+00 -2.03711023E-01  4.58584942E-01 -1.93477120E+00 -2.03711023E-01
  4.58584942E-01 -1.93477120E+00 -2.03711023E-01  4.58584942E-01 -1.93477120E+00
 -2.03711023E-01  4.58584942E-01 -1.93477120E+00 -2.03711023E-01  4.58584942E-01
 -1.93477120E+00 -2.03711023E-01  4.58584942E-01
Num ILSW                                   I              100
ILSW                                       I   N=         100
           1           0           0           0           2           0
           0           0           0           0           0          -1
           5           0           0           0           0           0
           0           0           1           0           0           0
           1           0           0           0           0           0
           0           0      100000           0          -1           0
           0           0           0           0           0           0
           0           0           0           1           1           0
           0 -2000000000           1           0           0           0
           0           0           4          52           0           0
           0           0           0           0           0           0
           0           0           0           0           4           1
           0           0           0           0           0           0
           0           0           0           0           0           0
           0           0           0           0           0           0
           0           0           0           0           0           0
           0           0           0           0
Num RLSW                                   I               52
RLSW                                       R   N=          52
  1.00000000E+00  1.00000000E+00  1.00000000E+00  1.00000000E+00  1.00000000E+00
  0.00000000E+00  0.00000000E+00  1.00000000E+00  0.00000000E+00  0.00000000E+00
  0.00000000E+00  0.00000000E+00  1.00000000E+00  0.00000000E+00  0.00000000E+00
  0.00000000E+00  0.00000000E+00  1.00000000E+00  0.00000000E+00  0.00000000E+00
  0.00000000E+00  0.00000000E+00  1.00000000E+00  0.00000000E+00  0.00000000E+00
  0.00000000E+00  0.00000000E+00  1.00000000E+00  0.00000000E+00  0.00000000E+00
  0.00000000E+00  0.00000000E+00  1.00000000E+00  0.00000000E+00  0.00000000E+00
  0.00000000E+00  0.00000000E+00  0.00000000E+00  1.00000000E+00  1.00000000E+00
  0.00000000E+00  1.00000000E+00  0.00000000E+00  0.00000000E+00  0.00000000E+00
  0.00000000E+00  0.00000000E+00  0.00000000E+00  0.00000000E+00  0.00000000E+00
  0.00000000E+00  0.00000000E+00
MxBond                                     I                3
NBond                                      I   N=           4
           3           1           1           1
IBond                                      I   N=          12
           2           3           4           1           0           0
           1           0           0           1           0           0
RBond                                      R   N=          12
  1.00000000E+00  1.00000000E+00  1.00000000E+00  1.00000000E+00  0.00000000E+00
  0.00000000E+00  1.00000000E+00  0.00000000E+00  0.00000000E+00  1.00000000E+00
  0.00000000E+00  0.00000000E+00
Virial Ratio                               R      2.001678028913442E+00
SCF Energy                                 R     -3.956702707726986E+01
MP2 Energy                                 R     -3.972730471649300E+01
MP3 Energy                                 R     -3.974512808016151E+01
MP4D Energy                                R     -3.974950795672415E+01
MP4DQ Energy                               R     -3.974632967787337E+01
MP4SDQ Energy                              R     -3.974711451505561E+01
Cluster Energy                             R     -3.974762832587457E+01
Total Energy                               R     -3.974762832587457E+01
PUHF Energy                                R     -3.956926399462623E+01
PMP2-0 Energy                              R     -3.972872689416179E+01
PMP3-0 Energy                              R     -3.974596781350642E+01
Post-SCF wavefunction norm                 R      1.034256401330322E+00
S**2                                       R      7.583506667431399E-01
S**2 after annihilation                    R      7.500482115866272E-01
S**2 corrected to first order              R      7.522465942698559E-01
RMS Density                                R      2.542168067126322E-09
Job Status                                 I                1
Nuclear derivative order                   I                0
External E-field                           R   N=          35
  0.00000000E+00  0.00000000E+00  0.00000000E+00  0.00000000E+00  0.00000000E+00
  0.00000000E+00  0.00000000E+00  0.00000000E+00  0.00000000E+00  0.00000000E+00
  0.00000000E+00  0.00000000E+00  0.00000000E+00  0.00000000E+00  0.00000000E+00
  0.00000000E+00  0.00000000E+00  0.00000000E+00  0.00000000E+00  0.00000000E+00
  0.00000000E+00  0.00000000E+00  0.00000000E+00  0.00000000E+00  0.00000000E+00
  0.00000000E+00  0.00000000E+00  0.00000000E+00  0.00000000E+00  0.00000000E+00
  0.00000000E+00  0.00000000E+00  0.00000000E+00  0.00000000E+00  0.00000000E+00
IOpCl                                      I                1
IROHF                                      I                0
Alpha Orbital Energies                     R   N=         115
 -1.12458817E+01 -9.50892609E-01 -5.62840509E-01 -5.62831774E-01 -4.27626357E-01
  3.03893864E-02  4.93910536E-02  4.93916655E-02  8.75567223E-02  1.25979097E-01
  1.25980167E-01  1.41393874E-01  2.24207161E-01  2.24207673E-01  2.47208018E-01
  2.47209643E-01  2.51661242E-01  3.16908737E-01  3.34603044E-01  3.34604377E-01
  3.51950841E-01  3.72155303E-01  3.73360719E-01  3.73360883E-01  4.00960786E-01
  4.26748950E-01  4.26749955E-01  4.70384677E-01  4.70385027E-01  6.18967038E-01
  6.60415983E-01  6.60425696E-01  7.31781707E-01  8.32206829E-01  8.32210572E-01
  8.55579828E-01  8.55580171E-01  8.87963363E-01  9.03497137E-01  9.36163280E-01
  9.55910463E-01  9.55910643E-01  1.00560117E+00  1.00560361E+00  1.00981885E+00
  1.08067696E+00  1.08261054E+00  1.08261279E+00  1.10822686E+00  1.11246445E+00
  1.11247207E+00  1.17595480E+00  1.17596667E+00  1.31832557E+00  1.42955784E+00
  1.42956402E+00  1.50788658E+00  1.51116991E+00  1.51117394E+00  1.61285953E+00
  1.62444638E+00  1.62444764E+00  1.66219719E+00  1.85483624E+00  1.85484491E+00
  1.92380129E+00  1.93902710E+00  2.00010073E+00  2.00010608E+00  2.17463519E+00
  2.17464441E+00  2.25950494E+00  2.88819372E+00  3.02148473E+00  3.02148602E+00
  3.05929648E+00  3.40081104E+00  3.40081429E+00  3.42876788E+00  3.54746916E+00
  3.54746985E+00  3.56268162E+00  3.61686016E+00  3.61686413E+00  3.71019408E+00
  3.80279100E+00  3.80279644E+00  3.98130103E+00  3.98130393E+00  3.98269340E+00
  4.05154831E+00  4.08729652E+00  4.08730711E+00  4.38516101E+00  4.38516782E+00
  4.39159453E+00  4.65802719E+00  4.71544310E+00  4.71545101E+00  4.84120593E+00
  4.84121279E+00  4.84281913E+00  5.07237088E+00  5.10820046E+00  5.10822297E+00
  5.36942543E+00  5.46660272E+00  5.46662713E+00  5.61825561E+00  5.77685340E+00
  6.02234806E+00  6.02239409E+00  6.53149628E+00  6.53151911E+00  1.62874889E+01
Beta Orbital Energies                      R   N=         115
 -1.12206593E+01 -8.70222647E-01 -5.44739163E-01 -5.44730151E-01  3.14231261E-02
  4.96926011E-02  4.96932237E-02  5.42669796E-02  1.26655244E-01  1.26656353E-01
  1.41290362E-01  1.50403837E-01  2.30565900E-01  2.30566593E-01  2.50597889E-01
  2.50600056E-01  2.64890873E-01  3.37328529E-01  3.37329886E-01  3.51693899E-01
  3.53867921E-01  3.76940781E-01  3.76940861E-01  3.86485095E-01  4.09937221E-01
  4.31842355E-01  4.31843728E-01  4.86923020E-01  4.86923837E-01  6.64166935E-01
  6.64177005E-01  6.75521685E-01  7.55459703E-01  8.40509127E-01  8.40513369E-01
  8.72639318E-01  8.72639434E-01  8.86890585E-01  9.12307982E-01  9.63624675E-01
  9.63625135E-01  9.66114049E-01  1.01078673E+00  1.01078916E+00  1.02619821E+00
  1.08176036E+00  1.08614249E+00  1.08614431E+00  1.12156902E+00  1.12157829E+00
  1.12775528E+00  1.19357659E+00  1.19358768E+00  1.32599022E+00  1.43892393E+00
  1.43893013E+00  1.52628221E+00  1.52628635E+00  1.55338653E+00  1.61490918E+00
  1.63695124E+00  1.63695236E+00  1.67197783E+00  1.86464819E+00  1.86465771E+00
  1.92629594E+00  1.97234536E+00  2.00922310E+00  2.00922825E+00  2.18739318E+00
  2.18740296E+00  2.27600391E+00  2.90257337E+00  3.03218485E+00  3.03218655E+00
  3.12309311E+00  3.42605983E+00  3.42606250E+00  3.47023065E+00  3.56613379E+00
  3.56613553E+00  3.56742365E+00  3.64826218E+00  3.64826727E+00  3.74056421E+00
  3.81937333E+00  3.81937866E+00  3.98760936E+00  3.98761224E+00  3.99468009E+00
  4.05385052E+00  4.09545469E+00  4.09546450E+00  4.39689290E+00  4.39690007E+00
  4.39978368E+00  4.66252933E+00  4.71922419E+00  4.71923195E+00  4.84203975E+00
  4.84204624E+00  4.84277947E+00  5.08346904E+00  5.11397835E+00  5.11400072E+00
  5.37691577E+00  5.47695056E+00  5.47697548E+00  5.62509860E+00  5.78772407E+00
  6.02560452E+00  6.02565032E+00  6.53953668E+00  6.53955950E+00  1.63053516E+01
Alpha MO coefficients                      R   N=       13225
  9.78355463E-01 -6.15099365E-03  4.23785437E-02  1.69011830E-02  2.62501992E-03
  6.27093228E-09  7.76569223E-09  9.33588439E-05  4.37400552E-08 -6.68900174E-08
  1.02901706E-03  2.51548654E-08 -7.09239804E-08  9.53636850E-04 -1.94556220E-08
 -1.29867661E-08  2.71458930E-05  2.98783976E-04  8.75578131E-09 -1.46376575E-09
  2.81206901E-08 -1.00608247E-08 -3.86797306E-04 -1.70575643E-08 -3.48854881E-08
  1.51155427E-09 -3.45651726E-08 -4.80250008E-04 -3.38931457E-08 -1.83089387E-08
  2.21291504E-08 -1.58182606E-08 -3.79067625E-04 -8.07249922E-09 -4.68684705E-09
  2.44699208E-08 -7.99015799E-09 -6.51501802E-04 -2.12097326E-04 -2.11631797E-05
 -1.81867926E-08 -7.49883848E-09 -1.90162661E-08 -3.90422330E-09  5.50287840E-04
  1.79146978E-04  2.95187145E-04 -1.15595145E-03 -4.86306324E-03 -2.77535670E-04
  1.25209926E-04 -1.72253145E-04  9.17109188E-05  5.99012424E-04 -8.24095156E-04
  2.52991832E-04  8.31429616E-04 -1.14381178E-03  8.74232864E-04  1.12263055E-04
 -9.37528586E-05  1.28974363E-04  8.17274594E-05  2.51925303E-04  2.37456787E-04
 -1.49854111E-04  2.06195940E-04  3.49070303E-05  1.07641462E-04  2.95190580E-04
 -1.15576516E-03 -4.86274391E-03 -2.77504380E-04  8.65808976E-05  1.94550631E-04
  9.17064983E-05  4.14186430E-04  9.30701215E-04  2.52966527E-04  5.74917487E-04
  1.29183890E-03  8.74193342E-04  1.12263220E-04 -6.48301006E-05 -1.45671980E-04
  1.77282488E-04 -1.96762400E-04  2.37450286E-04 -1.03619245E-04 -2.32870741E-04
  7.57292335E-05 -8.40652503E-05  2.95187939E-04 -1.15586482E-03 -4.86299131E-03
 -2.77556029E-04 -2.11783756E-04 -2.22968448E-05  9.17137775E-05 -1.01316239E-03
 -1.06678290E-04  2.52969109E-04 -1.40623709E-03 -1.48060742E-04  8.74218919E-04
  1.12263655E-04  1.58573685E-04  1.66946926E-05 -2.59044579E-04 -5.51577449E-05
  2.37450182E-04  2.53492077E-04  2.66972387E-05 -1.10665246E-04 -2.35611083E-05
 -1.84088648E-01  4.65481613E-01  1.02341774E-01  3.04969291E-01  1.18319848E-02
  1.31803097E-06 -7.55766996E-08  1.88746293E-02  1.97245840E-06  7.09240141E-08
  2.28867128E-02 -2.19730823E-07 -5.06649316E-07  8.19429584E-03 -1.24183016E-07
 -6.54503073E-08 -6.70349507E-04  3.73510896E-04  1.18447052E-07  5.55504464E-09
  3.55690300E-07 -9.96897093E-08  1.38752589E-03  4.38770731E-07  1.00276527E-07
  1.54471990E-06 -2.59927946E-07  2.02065864E-04 -8.70307620E-08 -4.43517568E-08
  3.77908072E-07 -7.41921017E-08 -2.81732159E-03 -5.17030177E-08 -4.83316539E-08
  1.85263631E-07 -1.52155848E-08 -4.89986617E-03 -1.59515830E-03 -2.60215318E-03
  1.16971109E-07  4.47055655E-08  4.59412311E-07 -7.96280566E-08 -4.06047068E-03
 -1.32189193E-03  8.69090012E-02  8.81159154E-02 -1.31019139E-02 -1.07909577E-03
 -5.34728410E-03  7.35663028E-03 -2.43933121E-03 -1.50320845E-03  2.06728937E-03
  1.64193405E-03  5.72481193E-03 -7.87624269E-03  5.78788231E-03 -6.26606252E-04
  3.79829968E-04 -5.22564302E-04 -4.84223454E-04 -1.49259319E-03  1.53613090E-03
 -1.45032848E-03  1.99520742E-03  7.91162515E-04  2.43772944E-03  8.69079032E-02
  8.81160569E-02 -1.31000425E-02 -1.07896564E-03 -3.69762587E-03 -8.30896302E-03
 -2.43922194E-03 -1.03959118E-03 -2.33530189E-03  1.64173546E-03  3.95859287E-03
  8.89557239E-03  5.78759040E-03 -6.26597685E-04  2.62644390E-04  5.90198045E-04
 -1.05035778E-03  1.16576652E-03  1.53616337E-03 -1.00287153E-03 -2.25345307E-03
  1.71570700E-03 -1.90389434E-03  8.69082627E-02  8.81145975E-02 -1.31033715E-02
 -1.07927153E-03  9.04457514E-03  9.52292514E-04 -2.43936867E-03  2.54212832E-03
  2.67512474E-04  1.64220926E-03 -9.68353687E-03 -1.01962173E-03  5.78813052E-03
 -6.26616374E-04 -6.42461858E-04 -6.76442742E-05  1.53474473E-03  3.26794795E-04
  1.53600269E-03  2.45316734E-03  2.58269680E-04 -2.50655593E-03 -5.33811182E-04
  1.35833674E-06 -3.71031871E-06 -9.28141061E-07 -3.32886274E-06  8.46908057E-08
  2.42616484E-01 -2.74706627E-02 -5.33907858E-07  3.28705525E-01 -3.72181572E-02
 -5.57628375E-07  2.62941684E-01 -2.97719671E-02 -7.32352804E-07  1.90826096E-02
 -2.16066041E-03 -5.45722300E-08 -2.37797221E-07  8.84712903E-03 -1.00172870E-03
 -1.37093332E-02 -6.24562892E-03 -5.67729271E-07  2.33142613E-02 -2.63975990E-03
 -3.51621629E-02 -1.60189273E-02 -3.82964599E-07  2.11018611E-02 -2.38925395E-03
 -2.28104048E-02 -1.03918754E-02 -3.36517337E-08  1.61640113E-03 -1.83024583E-04
 -1.47686712E-03 -6.72809599E-04  1.18149375E-07 -6.60819205E-08 -4.57692524E-08
  1.56860548E-03 -1.77598444E-04 -5.76877247E-03 -2.62807937E-03 -7.42303092E-08
 -2.84230955E-07  1.09484184E-01  1.32555076E-01 -4.86720041E-02 -1.16765575E-02
 -2.04376624E-03  8.93040556E-03 -3.73467803E-03  9.29815484E-03  3.53529181E-03
 -1.11624918E-03  1.21976922E-02 -1.84918939E-02  7.86183432E-03 -3.24314505E-04
  3.61013757E-04 -1.40726358E-03 -1.85320490E-03 -9.49845354E-04  8.90692479E-04
 -7.68755382E-04  4.98169863E-04 -4.64891863E-04  1.81357160E-03  4.88377282E-02
  5.91293429E-02 -2.17101863E-02 -5.20849152E-03  2.72098807E-03 -5.32457705E-03
 -1.66589762E-03  1.18109343E-02 -3.98320252E-03 -4.97987308E-04  2.82499415E-03
  9.54746901E-03  3.50671962E-03 -1.44676309E-04 -3.87388874E-04  8.31832100E-04
 -1.85199823E-03 -7.82799974E-04  3.97320785E-04 -5.43567182E-04 -1.75503059E-04
 -4.89845456E-04 -1.39106310E-03 -1.58320394E-01 -1.91682934E-01  7.03826294E-02
  1.68849778E-02 -1.20062404E-02 -2.32309396E-03  5.40060145E-03  4.04378997E-03
 -2.40010407E-03  1.61413993E-03  3.17942777E-02  3.64350702E-03 -1.13690747E-02
  4.68980645E-04  1.92585593E-03  3.60372165E-04 -1.99709112E-03 -8.65127733E-04
 -1.28804512E-03 -1.23965959E-03 -3.36978380E-05  2.29788163E-03  1.89394869E-04
  4.62477055E-07 -1.22418232E-06 -4.28867147E-07 -1.74770397E-06  1.21564846E-08
  2.74702313E-02  2.42616589E-01 -1.58312659E-06  3.72177283E-02  3.28705574E-01
 -2.06442733E-06  2.97718331E-02  2.62943847E-01 -1.60701233E-06  2.16070081E-03
  1.90832671E-02 -9.06760769E-08 -1.40296954E-07  1.00165140E-03  8.84654523E-03
 -6.24588630E-03  1.37102052E-02 -3.20562791E-07  2.63956700E-03  2.33122828E-02
 -1.60196191E-02  3.51641454E-02 -3.09745369E-07  2.38919890E-03  2.11010081E-02
 -1.03925613E-02  2.28125360E-02 -5.26459528E-08  1.83008521E-04  1.61637058E-03
 -6.72882537E-04  1.47699848E-03 -3.96903652E-08  1.64833703E-07 -3.35481894E-08
  1.77578753E-04  1.56828782E-03 -2.62815587E-03  5.76894263E-03 -2.04344607E-07
  3.44263436E-07 -1.19601802E-01 -1.44806417E-01  5.31695766E-02  1.27562043E-02
  8.07553239E-03 -5.50850579E-03  4.07973320E-03  5.43392638E-03  7.47064332E-03
  1.21908002E-03 -1.49594384E-02  1.90130905E-02 -8.58902117E-03  3.54319524E-04
 -1.26389060E-03  9.05184586E-04 -7.82332839E-04  1.94823360E-03 -9.72902585E-04
  3.05620244E-04 -9.32630762E-04 -1.40534393E-03 -1.36030416E-03  1.54616155E-01
  1.87201189E-01 -6.87328934E-02 -1.64905428E-02 -6.17985023E-03 -1.02732341E-02
 -5.27403118E-03 -2.08458073E-03  4.95716393E-03 -1.57623005E-03  1.30822833E-02
  2.83853888E-02  1.11031491E-02 -4.58076916E-04  9.75200327E-04  1.65361210E-03
 -9.48892487E-04  1.94966798E-03  1.25775042E-03 -3.68205864E-04 -1.15780063E-03
  1.79887878E-03 -1.38551584E-03 -3.50134990E-02 -4.23921860E-02  1.55652570E-02
  3.73434988E-03 -3.17827493E-03  4.45401657E-03  1.19434378E-03 -5.01429247E-04
  1.27252695E-02  3.56862703E-04  7.17780613E-03 -5.83333368E-04 -2.51443563E-03
  1.03728247E-04  5.03735605E-04 -6.59631593E-04 -8.66657973E-04  1.80454541E-03
 -2.84830814E-04 -2.26359303E-04 -4.61670364E-04  2.18445543E-04  1.40247457E-03
  4.68659458E-02 -1.35371443E-01 -3.57829569E-02 -1.82981775E-01 -1.97620481E-02
  1.18027020E-06  1.39585461E-06  3.06260462E-01  1.81141475E-06  1.91039416E-06
  4.36238267E-01  9.32129980E-07  1.60524397E-06  3.13051760E-01 -1.44740798E-07
  6.03033657E-08  2.33677760E-02 -9.16192373E-03 -7.08519838E-08 -7.23124498E-08
  3.34156835E-07 -2.34376579E-08 -2.01996429E-02 -9.96489902E-08 -1.56978910E-07
  8.16880289E-07 -8.94140923E-08  3.71442228E-03 -5.77264796E-08 -9.06960172E-08
 -1.03657225E-06  2.55733953E-07  3.00913118E-03  8.22036691E-08  5.70085168E-08
  1.34469869E-07 -6.34409416E-09 -4.29869376E-04 -1.39944578E-04  5.30564140E-03
  1.63335698E-07  1.01685352E-07  4.32652875E-08 -1.55835643E-08 -1.20316791E-03
 -3.91693001E-04  4.16696980E-02  6.25938511E-02  3.19500670E-02  6.06386447E-04
 -3.00346406E-03  4.13212761E-03  5.32053755E-03 -1.62517597E-03  2.23623029E-03
  1.99915225E-02  2.54013856E-03 -3.49278294E-03 -1.57716766E-03 -1.71795446E-03
 -1.27346952E-03  1.75199593E-03 -4.22197305E-04 -1.30127978E-03 -5.38930121E-04
 -1.87120139E-03  2.57430226E-03  8.56933264E-04  2.64120213E-03  4.16693752E-02
  6.25941346E-02  3.19486833E-02  6.06463299E-04 -2.07688662E-03 -4.66698910E-03
  5.32049141E-03 -1.12390040E-03 -2.52576984E-03  1.99912807E-02  1.75655861E-03
  3.94548292E-03 -1.57674196E-03 -1.71791592E-03 -8.80601512E-04 -1.97880638E-03
 -9.15755533E-04  1.01634595E-03 -5.38927913E-04 -1.29394248E-03 -2.90760208E-03
  1.85871947E-03 -2.06285209E-03  4.16713259E-02  6.25965076E-02  3.19527291E-02
  6.06011245E-04  5.08039130E-03  5.34939298E-04  5.32044232E-03  2.74943696E-03
  2.89599355E-04  1.99916511E-02 -4.29511286E-03 -4.51818601E-04 -1.57730141E-03
 -1.71798925E-03  2.15397697E-03  2.26786932E-04  1.33809791E-03  2.84941070E-04
 -5.39004604E-04  3.16507640E-03  3.33234323E-04 -2.71577111E-03 -5.78285355E-04
 -2.45017471E-02  7.42535221E-02 -8.80083993E-04  2.85114373E+00  3.71467287E+00
  2.57010981E-07  2.54780536E-07  7.08305738E-03  8.42798188E-07 -4.52406088E-07
  8.55767741E-02  1.45019927E-05  3.11498126E-06  5.41211779E-01  1.66654740E-05
  7.17448280E-06  2.93007768E-01  3.20512581E-04  5.33017806E-09 -2.66653367E-08
  5.61026482E-08 -4.15015303E-08 -8.60762560E-02 -3.88502473E-07 -7.14679388E-07
  7.73316815E-06 -1.29161817E-06 -1.52151114E-01  3.56519898E-06  9.36006289E-07
  1.69947771E-05 -2.49014223E-06 -3.84807603E-03 -8.54167230E-08 -4.74047997E-08
  2.82206015E-07 -4.25487320E-08 -7.06595083E-03 -2.30033020E-03 -3.33603700E-02
 -4.35746585E-07 -2.83096806E-07  3.02736272E-06 -4.56510716E-07 -5.39541194E-02
 -1.75648392E-02  6.08187846E-03 -2.40499851E-01 -1.32828503E+00 -1.08836591E+00
 -1.52423025E-03  2.09700598E-03 -3.03592373E-04  4.66912418E-02 -6.42372693E-02
  3.45243291E-02  1.68621556E-01 -2.31996186E-01  1.20743743E-01  1.23491735E-03
 -1.60913454E-03  2.21358797E-03  8.81229697E-04  2.71572361E-03  9.74044049E-05
 -4.58287713E-03  6.30443903E-03  6.94116522E-04  2.13754739E-03  6.08195949E-03
 -2.40493129E-01 -1.32824992E+00 -1.08835814E+00 -1.05405540E-03 -2.36857532E-03
 -3.03610345E-04  3.22867139E-02  7.25526643E-02  3.45227905E-02  1.16600214E-01
  2.62024228E-01  1.20736701E-01  1.23496808E-03 -1.11269803E-03 -2.50014581E-03
  1.91124118E-03 -2.12102311E-03  9.76021285E-05 -3.16902210E-03 -7.12059682E-03