dsgdb9nsd_000007-6                                                      
Freq      UB3LYP                                                      6-311+G(d,p)        
Number of atoms                            I                7
Info1-9                                    I   N=           9
          16          16        1002           0           0         100
           6          18        -502
Full Title                                 C   N=           2
dsgdb9nsd_000007-6      
Route                                      C   N=           3
#p opt freq b3lyp/6-311+g** em=gd3bj
Charge                                     I                0
Multiplicity                               I                2
Number of electrons                        I               17
Number of alpha electrons                  I                9
Number of beta electrons                   I                8
Number of basis functions                  I               74
Number of independent functions            I               74
Number of point charges in /Mol/           I                0
Number of translation vectors              I                0
Atomic numbers                             I   N=           7
           6           6           1           1           1           1
           1
Nuclear charges                            R   N=           7
  6.00000000E+00  6.00000000E+00  1.00000000E+00  1.00000000E+00  1.00000000E+00
  1.00000000E+00  1.00000000E+00
Current cartesian coordinates              R   N=          21
 -1.31027076E+00  2.83832844E-07 -3.60080958E-03  1.49970475E+00  1.51443312E-16
 -3.49011985E-02 -2.09037918E+00  1.67536748E+00 -9.31074025E-01 -2.09037960E+00
 -1.67535502E+00 -9.31095889E-01 -2.06268999E+00 -1.34003690E-05  1.93922457E+00
  2.55342293E+00  1.75067789E+00  7.69789847E-02  2.55342189E+00 -1.75067863E+00
  7.69784057E-02
Number of symbols in /Mol/                 I                0
Int Atom Types                             I   N=           7
           0           0           0           0           0           0
           0
Force Field                                I                0
Atom Types                                 C   N=           7
                                                            
                        
MM charges                                 R   N=           7
  0.00000000E+00  0.00000000E+00  0.00000000E+00  0.00000000E+00  0.00000000E+00
  0.00000000E+00  0.00000000E+00
Integer atomic weights                     I   N=           7
          12          12           1           1           1           1
           1
Real atomic weights                        R   N=           7
  1.20000000E+01  1.20000000E+01  1.00782504E+00  1.00782504E+00  1.00782504E+00
  1.00782504E+00  1.00782504E+00
Atom fragment info                         I   N=           7
           0           0           0           0           0           0
           0
Atom residue num                           I   N=           7
           0           0           0           0           0           0
           0
Nuclear spins                              I   N=           7
           0           0           1           1           1           1
           1
Nuclear ZEff                               R   N=           7
 -3.60000000E+00 -3.60000000E+00 -1.00000000E+00 -1.00000000E+00 -1.00000000E+00
 -1.00000000E+00 -1.00000000E+00
Nuclear ZNuc                               R   N=           7
  6.00000000E+00  6.00000000E+00  1.00000000E+00  1.00000000E+00  1.00000000E+00
  1.00000000E+00  1.00000000E+00
Nuclear QMom                               R   N=           7
  0.00000000E+00  0.00000000E+00  0.00000000E+00  0.00000000E+00  0.00000000E+00
  0.00000000E+00  0.00000000E+00
Nuclear GFac                               R   N=           7
  0.00000000E+00  0.00000000E+00  2.79284600E+00  2.79284600E+00  2.79284600E+00
  2.79284600E+00  2.79284600E+00
MicOpt                                     I   N=           7
          -1          -1          -1          -1          -1          -1
          -1
Number of residues                         I                0
Number of secondary structures             I                0
Redundant internal dimensions              I   N=           4
          21           6           9           6
Redundant internal coordinate indices      I   N=          84
           1           2           0           0           1           3
           0           0           1           4           0           0
           1           5           0           0           2           6
           0           0           2           7           0           0
           2           1           3           0           2           1
           4           0           2           1           5           0
           3           1           4           0           3           1
           5           0           4           1           5           0
           1           2           6           0           1           2
           7           0           6           2           7           0
           3           1           2           6           3           1
           2           7           4           1           2           6
           4           1           2           7           5           1
           2           6           5           1           2           7
Redundant internal coordinates             R   N=          21
  2.81014982E+00  2.06775989E+00  2.06776022E+00  2.08343590E+00  2.04639006E+00
  2.04639012E+00  1.95223156E+00  1.95223141E+00  1.95142870E+00  1.88908889E+00
  1.85669959E+00  1.85669865E+00  2.11095797E+00  2.11095756E+00  2.05301541E+00
  5.80023131E-01 -2.70254896E+00  2.70253639E+00 -5.80035702E-01 -1.50031355E+00
  1.50029967E+00
ZRed-IntVec                                I   N=          21
           0           0           0           0           0           0
           0           0           0           0           0           0
           0           0           0           0           0           0
           0           0           0
ZRed-FPVec                                 R   N=          21
  0.00000000E+00  0.00000000E+00  0.00000000E+00  0.00000000E+00  0.00000000E+00
  0.00000000E+00  0.00000000E+00  0.00000000E+00  0.00000000E+00  0.00000000E+00
  0.00000000E+00  0.00000000E+00  0.00000000E+00  0.00000000E+00  0.00000000E+00
  0.00000000E+00  0.00000000E+00  0.00000000E+00  0.00000000E+00  0.00000000E+00
  0.00000000E+00
ZRed-Constraint1                           R   N=          21
  2.81014982E+00  2.06775989E+00  2.06776022E+00  2.08343590E+00  2.04639006E+00
  2.04639012E+00  1.95223156E+00  1.95223141E+00  1.95142870E+00  1.88908889E+00
  1.85669959E+00  1.85669865E+00  2.11095797E+00  2.11095756E+00  2.05301541E+00
  5.80023131E-01 -2.70254896E+00  2.70253639E+00 -5.80035702E-01 -1.50031355E+00
  1.50029967E+00
ZRed-Constraint2                           R   N=          21
  2.89057933E+00  2.06916250E+00  2.06917091E+00  2.06919000E+00  2.06917112E+00
  2.06916218E+00  1.94504662E+00  1.94503541E+00  1.94509752E+00  1.87495742E+00
  1.87501472E+00  1.87498248E+00  1.94503290E+00  1.94503738E+00  1.87495894E+00
  1.04724652E+00  3.14157502E+00  3.14158108E+00 -1.04727573E+00 -1.04720317E+00
  1.04712533E+00
SymInf integers                            I   N=          26
           1           1           1           1           1           0
           0           0           0           0           0           0
           0           0           0           0           0           0
           0           0           0           0           0           0
           0           0
RotTr to input orientation                 R   N=          12
 -5.84189204E-02 -9.90827618E-01  1.21851798E-01  8.70687767E-01  9.13996729E-03
  4.91751230E-01 -4.88354422E-01  1.34822446E-01  8.62167540E-01 -1.49710914E-01
  1.61137687E+00  2.45819965E-01
Number of contracted shells                I               32
Number of primitive shells                 I               56
Pure/Cartesian d shells                    I                0
Pure/Cartesian f shells                    I                0
Highest angular momentum                   I                2
Largest degree of contraction              I                6
Shell types                                I   N=          32
           0          -1          -1          -1          -1          -2
           0          -1          -1          -1          -1          -2
           0           0           0           1           0           0
           0           1           0           0           0           1
           0           0           0           1           0           0
           0           1
Number of primitives per shell             I   N=          32
           6           3           1           1           1           1
           6           3           1           1           1           1
           3           1           1           1           3           1
           1           1           3           1           1           1
           3           1           1           1           3           1
           1           1
Shell to atom map                          I   N=          32
           1           1           1           1           1           1
           2           2           2           2           2           2
           3           3           3           3           4           4
           4           4           5           5           5           5
           6           6           6           6           7           7
           7           7
Primitive exponents                        R   N=          56
  4.56324000E+03  6.82024000E+02  1.54973000E+02  4.44553000E+01  1.30290000E+01
  1.82773000E+00  2.09642000E+01  4.80331000E+00  1.45933000E+00  4.83456000E-01
  1.45585000E-01  4.38000000E-02  6.26000000E-01  4.56324000E+03  6.82024000E+02
  1.54973000E+02  4.44553000E+01  1.30290000E+01  1.82773000E+00  2.09642000E+01
  4.80331000E+00  1.45933000E+00  4.83456000E-01  1.45585000E-01  4.38000000E-02
  6.26000000E-01  3.38650000E+01  5.09479000E+00  1.15879000E+00  3.25840000E-01
  1.02741000E-01  7.50000000E-01  3.38650000E+01  5.09479000E+00  1.15879000E+00
  3.25840000E-01  1.02741000E-01  7.50000000E-01  3.38650000E+01  5.09479000E+00
  1.15879000E+00  3.25840000E-01  1.02741000E-01  7.50000000E-01  3.38650000E+01
  5.09479000E+00  1.15879000E+00  3.25840000E-01  1.02741000E-01  7.50000000E-01
  3.38650000E+01  5.09479000E+00  1.15879000E+00  3.25840000E-01  1.02741000E-01
  7.50000000E-01
Contraction coefficients                   R   N=          56
  1.96665025E-03  1.52306019E-02  7.61269097E-02  2.60801033E-01  6.16462078E-01
  2.21006028E-01  1.14660081E-01  9.19999648E-01 -3.03068213E-03  1.00000000E+00
  1.00000000E+00  1.00000000E+00  1.00000000E+00  1.96665025E-03  1.52306019E-02
  7.61269097E-02  2.60801033E-01  6.16462078E-01  2.21006028E-01  1.14660081E-01
  9.19999648E-01 -3.03068213E-03  1.00000000E+00  1.00000000E+00  1.00000000E+00
  1.00000000E+00  2.54938145E-02  1.90373109E-01  8.52161486E-01  1.00000000E+00
  1.00000000E+00  1.00000000E+00  2.54938145E-02  1.90373109E-01  8.52161486E-01
  1.00000000E+00  1.00000000E+00  1.00000000E+00  2.54938145E-02  1.90373109E-01
  8.52161486E-01  1.00000000E+00  1.00000000E+00  1.00000000E+00  2.54938145E-02
  1.90373109E-01  8.52161486E-01  1.00000000E+00  1.00000000E+00  1.00000000E+00
  2.54938145E-02  1.90373109E-01  8.52161486E-01  1.00000000E+00  1.00000000E+00
  1.00000000E+00
P(S=P) Contraction coefficients            R   N=          56
  0.00000000E+00  0.00000000E+00  0.00000000E+00  0.00000000E+00  0.00000000E+00
  0.00000000E+00  4.02486927E-02  2.37593957E-01  8.15853851E-01  1.00000000E+00
  1.00000000E+00  1.00000000E+00  0.00000000E+00  0.00000000E+00  0.00000000E+00
  0.00000000E+00  0.00000000E+00  0.00000000E+00  0.00000000E+00  4.02486927E-02
  2.37593957E-01  8.15853851E-01  1.00000000E+00  1.00000000E+00  1.00000000E+00
  0.00000000E+00  0.00000000E+00  0.00000000E+00  0.00000000E+00  0.00000000E+00
  0.00000000E+00  0.00000000E+00  0.00000000E+00  0.00000000E+00  0.00000000E+00
  0.00000000E+00  0.00000000E+00  0.00000000E+00  0.00000000E+00  0.00000000E+00
  0.00000000E+00  0.00000000E+00  0.00000000E+00  0.00000000E+00  0.00000000E+00
  0.00000000E+00  0.00000000E+00  0.00000000E+00  0.00000000E+00  0.00000000E+00
  0.00000000E+00  0.00000000E+00  0.00000000E+00  0.00000000E+00  0.00000000E+00
  0.00000000E+00
Coordinates of each shell                  R   N=          96
 -1.31027076E+00  2.83832844E-07 -3.60080958E-03 -1.31027076E+00  2.83832844E-07
 -3.60080958E-03 -1.31027076E+00  2.83832844E-07 -3.60080958E-03 -1.31027076E+00
  2.83832844E-07 -3.60080958E-03 -1.31027076E+00  2.83832844E-07 -3.60080958E-03
 -1.31027076E+00  2.83832844E-07 -3.60080958E-03  1.49970475E+00  8.32667268E-17
 -3.49011985E-02  1.49970475E+00  8.32667268E-17 -3.49011985E-02  1.49970475E+00
  8.32667268E-17 -3.49011985E-02  1.49970475E+00  8.32667268E-17 -3.49011985E-02
  1.49970475E+00  8.32667268E-17 -3.49011985E-02  1.49970475E+00  8.32667268E-17
 -3.49011985E-02 -2.09037918E+00  1.67536748E+00 -9.31074025E-01 -2.09037918E+00
  1.67536748E+00 -9.31074025E-01 -2.09037918E+00  1.67536748E+00 -9.31074025E-01
 -2.09037918E+00  1.67536748E+00 -9.31074025E-01 -2.09037960E+00 -1.67535502E+00
 -9.31095889E-01 -2.09037960E+00 -1.67535502E+00 -9.31095889E-01 -2.09037960E+00
 -1.67535502E+00 -9.31095889E-01 -2.09037960E+00 -1.67535502E+00 -9.31095889E-01
 -2.06268999E+00 -1.34003690E-05  1.93922457E+00 -2.06268999E+00 -1.34003690E-05
  1.93922457E+00 -2.06268999E+00 -1.34003690E-05  1.93922457E+00 -2.06268999E+00
 -1.34003690E-05  1.93922457E+00  2.55342293E+00  1.75067789E+00  7.69789847E-02
  2.55342293E+00  1.75067789E+00  7.69789847E-02  2.55342293E+00  1.75067789E+00
  7.69789847E-02  2.55342293E+00  1.75067789E+00  7.69789847E-02  2.55342189E+00
 -1.75067863E+00  7.69784057E-02  2.55342189E+00 -1.75067863E+00  7.69784057E-02
  2.55342189E+00 -1.75067863E+00  7.69784057E-02  2.55342189E+00 -1.75067863E+00
  7.69784057E-02
Num ILSW                                   I              100
ILSW                                       I   N=         100
           1           0           0           0           2           0
           0           0           0           0         402          -1
           5           0           0           0           2           0
           0           0           0           0           1           0
           1           0           0           0           0           0
           0           0      100000           0          -1           0
           0           0           0           0           0           0
           0           0           0           1           0           0
           0 -2000000000           1           0           0           0
           0           0         141          52           0           0
           0           0           5           0           0           0
           0           0           0           7           0           1
           0           0           0           0           0           0
           0           0           0           0           0           0
           0           0           0           0           0           0
           0           0           0           0           0           0
           0           0           0           0
Num RLSW                                   I               52
RLSW                                       R   N=          52
  8.00000000E-01  7.20000000E-01  1.00000000E+00  8.10000000E-01  2.00000000E-01
  0.00000000E+00  0.00000000E+00  1.00000000E+00  0.00000000E+00  0.00000000E+00
  0.00000000E+00  0.00000000E+00  1.00000000E+00  0.00000000E+00  0.00000000E+00
  0.00000000E+00  0.00000000E+00  1.00000000E+00  0.00000000E+00  0.00000000E+00
  0.00000000E+00  0.00000000E+00  1.00000000E+00  0.00000000E+00  0.00000000E+00
  0.00000000E+00  0.00000000E+00  1.00000000E+00  0.00000000E+00  0.00000000E+00
  0.00000000E+00  0.00000000E+00  1.00000000E+00  0.00000000E+00  0.00000000E+00
  0.00000000E+00  0.00000000E+00  0.00000000E+00  1.00000000E+00  1.00000000E+00
  0.00000000E+00  1.00000000E+00  0.00000000E+00  0.00000000E+00  0.00000000E+00
  0.00000000E+00  0.00000000E+00  0.00000000E+00  0.00000000E+00  0.00000000E+00
  0.00000000E+00  0.00000000E+00
MxBond                                     I                4
NBond                                      I   N=           7
           4           3           1           1           1           1
           1
IBond                                      I   N=          28
           2           3           4           5           1           6
           7           0           1           0           0           0
           1           0           0           0           1           0
           0           0           2           0           0           0
           2           0           0           0
RBond                                      R   N=          28
  1.00000000E+00  1.00000000E+00  1.00000000E+00  1.00000000E+00  1.00000000E+00
  1.00000000E+00  1.00000000E+00  0.00000000E+00  1.00000000E+00  0.00000000E+00
  0.00000000E+00  0.00000000E+00  1.00000000E+00  0.00000000E+00  0.00000000E+00
  0.00000000E+00  1.00000000E+00  0.00000000E+00  0.00000000E+00  0.00000000E+00
  1.00000000E+00  0.00000000E+00  0.00000000E+00  0.00000000E+00  1.00000000E+00
  0.00000000E+00  0.00000000E+00  0.00000000E+00
Virial Ratio                               R      2.005411399413763E+00
SCF Energy                                 R     -7.918965148642020E+01
Total Energy                               R     -7.918965148642020E+01
S**2                                       R      7.538265141283933E-01
S**2 after annihilation                    R      7.500097280060988E-01
RMS Force                                  R      3.643324244166481E-05
RMS Density                                R      4.909032637051234E-09
NImag                                      I                0
Job Status                                 I                1
Nuclear derivative order                   I                2
Thermal Energy                             R     -7.912666220220767E+01
Thermal Enthalpy                           R     -7.912571801739402E+01
Thermal Free Energy                        R     -7.915484604116808E+01
External E-field                           R   N=          35
  0.00000000E+00  0.00000000E+00  0.00000000E+00  0.00000000E+00  0.00000000E+00
  0.00000000E+00  0.00000000E+00  0.00000000E+00  0.00000000E+00  0.00000000E+00
  0.00000000E+00  0.00000000E+00  0.00000000E+00  0.00000000E+00  0.00000000E+00
  0.00000000E+00  0.00000000E+00  0.00000000E+00  0.00000000E+00  0.00000000E+00
  0.00000000E+00  0.00000000E+00  0.00000000E+00  0.00000000E+00  0.00000000E+00
  0.00000000E+00  0.00000000E+00  0.00000000E+00  0.00000000E+00  0.00000000E+00
  0.00000000E+00  0.00000000E+00  0.00000000E+00  0.00000000E+00  0.00000000E+00
IOpCl                                      I                1
IROHF                                      I                0
Alpha Orbital Energies                     R   N=          74
 -1.01775373E+01 -1.01687419E+01 -7.60892434E-01 -6.12838327E-01 -4.55780675E-01
 -4.18184134E-01 -3.97642692E-01 -3.62490476E-01 -2.06953416E-01  1.25897291E-02
  2.99782115E-02  4.70561612E-02  5.50319821E-02  8.11070788E-02  8.24053866E-02
  9.50451275E-02  1.35264754E-01  1.42911048E-01  1.46680654E-01  1.88139849E-01
  2.17588452E-01  2.30074625E-01  2.59608409E-01  3.96459983E-01  4.25878814E-01
  4.33235837E-01  4.90297885E-01  5.02932518E-01  5.45564703E-01  5.86134720E-01
  5.94279305E-01  6.17217221E-01  6.48434877E-01  6.69943205E-01  7.59931567E-01
  8.72837001E-01  9.67177775E-01  1.05239712E+00  1.16979018E+00  1.37194318E+00
  1.41981057E+00  1.45728677E+00  1.47395686E+00  1.51798627E+00  1.55041793E+00
  1.57956762E+00  1.63556767E+00  1.69563147E+00  1.78913334E+00  1.83425641E+00
  1.92861888E+00  1.98381848E+00  2.08596322E+00  2.15877293E+00  2.24078873E+00
  2.27417615E+00  2.39347225E+00  2.43431786E+00  2.47143530E+00  2.50686440E+00
  2.53030999E+00  2.56050528E+00  2.62706826E+00  2.66206424E+00  2.78739129E+00
  2.82122604E+00  2.82479709E+00  3.18967650E+00  3.72748568E+00  3.76974119E+00
  3.81771725E+00  4.15044874E+00  2.38599047E+01  2.39489296E+01
Beta Orbital Energies                      R   N=          74
 -1.01695449E+01 -1.01636005E+01 -7.44416629E-01 -5.89070396E-01 -4.49418909E-01
 -4.03249224E-01 -3.89559510E-01 -3.57958681E-01 -6.00397601E-02  1.37504909E-02
  3.23162031E-02  4.72005767E-02  5.81254560E-02  8.08877135E-02  8.22866848E-02
  1.06393986E-01  1.43701332E-01  1.46834782E-01  1.47334208E-01  1.97961886E-01
  2.20724684E-01  2.31617505E-01  2.68002401E-01  3.97747592E-01  4.33175776E-01
  4.37501346E-01  4.93931055E-01  5.17465069E-01  5.88143931E-01  5.94807753E-01
  6.02690644E-01  6.26869801E-01  6.55966606E-01  6.77565497E-01  7.76275152E-01
  8.79504434E-01  9.81543431E-01  1.08457848E+00  1.17115456E+00  1.39556129E+00
  1.42281438E+00  1.46236059E+00  1.48800548E+00  1.51841375E+00  1.55773893E+00
  1.61292515E+00  1.63763255E+00  1.70691078E+00  1.80601453E+00  1.84565308E+00
  1.95118577E+00  2.00602110E+00  2.09034083E+00  2.16363220E+00  2.24400379E+00
  2.28646970E+00  2.39770501E+00  2.43481978E+00  2.48206005E+00  2.51444217E+00
  2.53367008E+00  2.56543262E+00  2.63552770E+00  2.66746078E+00  2.80886356E+00
  2.83039942E+00  2.87149674E+00  3.19644570E+00  3.74866232E+00  3.77522005E+00
  3.81863726E+00  4.16545172E+00  2.38757113E+01  2.39481260E+01
Alpha MO coefficients                      R   N=        5476
  9.06968282E-03  7.46264292E-03  7.24659559E-04  7.36010350E-10 -4.94995188E-05
  7.19702421E-04 -2.26843697E-03 -3.91017250E-09  2.32494879E-04  2.22337502E-03
  1.23103576E-03  4.68894623E-09 -2.46237713E-04 -9.59680767E-03 -2.09391668E-03
  6.00776325E-09 -1.55317246E-04  8.12641707E-04 -2.54494830E-05 -3.17891171E-10
 -1.07400442E-03  1.74615377E-09  5.62570116E-01  4.63341360E-01 -1.66040302E-04
 -1.14516979E-10 -3.69271809E-06  1.91067090E-02  1.45835613E-03 -6.05144410E-11
  3.11293879E-04 -8.29504656E-03  1.60387411E-03 -2.15200318E-09 -4.71024100E-07
  7.60565821E-03 -3.59249131E-03 -2.62611065E-09 -1.28341830E-05 -1.64362995E-03
  1.24457073E-04  5.38858082E-10 -5.58848886E-04  1.05998305E-09 -5.95614153E-05
 -9.08026390E-04  6.55297951E-04 -4.79503377E-05  3.47940013E-04 -1.67365780E-04
 -5.95622037E-05 -9.08029596E-04  6.55309439E-04 -4.79507501E-05 -3.47939767E-04
 -1.67371060E-04 -1.13767861E-04 -1.10808021E-03  1.35333864E-03 -7.71610973E-05
 -3.94436715E-09  5.18075678E-04  1.31090176E-04 -4.10108259E-03  3.04070924E-03
  1.20991755E-03  2.30883173E-03  1.45516862E-04  1.31090540E-04 -4.10108206E-03
  3.04070536E-03  1.20991614E-03 -2.30883204E-03  1.45516073E-04  5.62906927E-01
  4.63129420E-01  2.11022739E-04 -3.69273205E-10  1.96442663E-05  1.89694708E-02
 -1.53319842E-03  7.50514678E-10 -3.26657469E-05 -9.21648410E-03 -8.01737055E-04
  1.24618207E-09 -3.67670709E-05 -1.00043662E-02 -1.08675167E-03  6.38562655E-10
 -5.32010430E-06  1.55779494E-04  1.62104986E-05 -7.46915509E-10 -4.07479141E-04
 -1.94955188E-10 -9.09411455E-03 -7.49223454E-03 -5.82302774E-04  2.54122381E-10
 -3.09590601E-06  9.24720718E-05  1.65552791E-03 -1.34811050E-09  3.62539461E-05
  1.84319863E-03 -1.27603824E-03  3.39363193E-10  3.37884050E-05  6.36160063E-03
 -1.81301057E-03  1.03209840E-09  1.07161315E-05  1.50266649E-04  3.13619832E-05
  1.22557906E-10 -9.92993483E-04 -1.60858626E-10  2.41511739E-04 -3.30111897E-03
  3.94667795E-03 -6.43197873E-04  1.72358716E-03 -9.59808874E-04  2.41511992E-04
 -3.30111532E-03  3.94667699E-03 -6.43197380E-04 -1.72357329E-03 -9.59830739E-04
  2.51380957E-04 -3.11920696E-03  3.88526417E-03 -5.71797382E-04 -1.33008515E-08
  1.91674149E-03 -1.11997206E-04 -6.26474434E-04  3.68810753E-04  2.70929208E-04
  2.44407380E-04  2.02139504E-05 -1.11997070E-04 -6.26476713E-04  3.68814163E-04
  2.70929246E-04 -2.44408513E-04  2.02139270E-05 -8.83276942E-02 -1.36397946E-01
  2.64181291E-02 -1.87426368E-08  4.59111417E-04  3.57550943E-01  4.68904052E-02
 -2.96271551E-08  8.54511100E-04  1.79931268E-01  1.91853527E-05 -3.67368834E-08
  1.86468180E-03  8.56700390E-02  1.48664397E-02 -2.66952923E-08  6.25978226E-04
 -4.28583297E-03 -3.37490362E-05 -2.53680847E-09  7.19454363E-03 -6.64713284E-10
 -7.90066178E-02 -1.23009131E-01 -3.47261811E-02 -3.96685287E-09  2.26812173E-03
  3.27131408E-01 -5.85001996E-02 -9.36087358E-10  2.65646718E-03  2.06263353E-01
 -2.10521787E-02  1.06705951E-08  1.12096867E-03 -6.48231649E-02  2.46577693E-02
  7.82985139E-09 -2.13312518E-04 -2.83076446E-03 -3.49839408E-04 -6.92997570E-10
  8.37119383E-03  1.33693727E-09  5.89166056E-02  7.20065219E-02 -7.45794434E-03
  6.13200530E-03 -1.01406574E-02  5.65263458E-03  5.89166138E-02  7.20065307E-02
 -7.45798340E-03  6.13200157E-03  1.01405837E-02  5.65276747E-03  5.98023653E-02
  7.27485780E-02 -9.70190055E-03  5.47440588E-03  8.19729482E-08 -1.17859053E-02
  4.94502242E-02  5.37849808E-02 -3.03904423E-03 -6.32979484E-03 -8.41160911E-03
 -3.44155991E-04  4.94502310E-02  5.37849976E-02 -3.03903673E-03 -6.32979246E-03
  8.41161703E-03 -3.44153531E-04  6.26558781E-02  9.74783658E-02  6.76751842E-02
  2.67193217E-08 -1.30383152E-03 -2.59045152E-01  9.76654715E-02  3.72952400E-08
 -1.65687367E-03 -1.92565115E-01  4.05360878E-02 -5.67083687E-09 -3.71494007E-05
 -5.79028548E-02 -1.12821881E-02 -3.37727538E-09 -2.02949760E-05 -6.14117254E-03
  8.96944985E-05  1.76802721E-09  1.10120382E-02 -4.62684326E-09 -7.99218272E-02
 -1.25253211E-01  6.06825597E-02 -4.19196395E-11  3.62294854E-03  3.39205288E-01
  8.77254962E-02  1.81776468E-09  4.21113998E-03  2.57586903E-01  3.53289722E-02
  1.05073316E-08  2.36658302E-03  5.73623320E-02 -9.20757549E-03  2.81513644E-09
  7.89553379E-04  2.15959237E-03  5.57644821E-04  1.16691066E-09 -1.04306958E-02
  4.37645741E-09 -7.07952253E-02 -8.65758735E-02 -8.07211152E-03 -9.34781257E-04
  9.95039947E-03 -5.51657775E-03 -7.07952578E-02 -8.65759442E-02 -8.07215021E-03
 -9.34785794E-04 -9.95033225E-03 -5.51671067E-03 -7.23456609E-02 -9.05601351E-02
 -1.03876365E-02 -8.51849626E-04 -8.24447503E-08  1.17605831E-02  9.06884335E-02
  1.06983502E-01  9.25537041E-03 -4.89228281E-03 -1.31013259E-02 -3.64494492E-04
  9.06884102E-02  1.06983485E-01  9.25537471E-03 -4.89227479E-03  1.31013267E-02
 -3.64490611E-04 -2.78369597E-08 -4.33956083E-08 -1.68069371E-09  1.35287211E-01
 -7.42242550E-08  1.24473574E-07  2.99857526E-09  1.95687511E-01 -1.03516075E-07
  3.55202516E-08 -3.00171008E-09  1.18133787E-01 -5.44783393E-08  8.68040096E-08
  2.45388198E-08  3.52109279E-03  2.98126044E-09 -1.92404223E-07  3.00558922E-09
 -1.06336964E-02 -1.02556058E-07  3.33657828E-03  5.29236224E-09  8.63988136E-09
  6.03842138E-09  1.61864265E-01 -5.23560501E-09 -2.21915744E-08  8.34501482E-09
  2.30391857E-01 -1.35020083E-08 -5.19681832E-08 -3.76420510E-08  1.44720062E-01
 -1.02483641E-08 -1.50526019E-07  2.70397189E-08  1.09720016E-02 -3.31961005E-09
 -8.49051201E-09  8.23247448E-09  1.34070959E-03  7.65876904E-09  3.30902217E-03
  8.81571509E-02  1.17743540E-01  3.95686460E-02  5.88128514E-03 -3.70561630E-03
  6.78169139E-03 -8.81564139E-02 -1.17742545E-01 -3.95682838E-02 -5.88122871E-03
 -3.70542352E-03 -6.78179901E-03 -7.51414137E-07 -1.00165195E-06 -3.44402828E-07
 -4.35776890E-08  8.23269630E-03  1.11371483E-07  1.05417521E-01  1.37751795E-01
  3.83379666E-02 -9.68667988E-03 -6.80904822E-03 -7.32963399E-04 -1.05417562E-01
 -1.37751833E-01 -3.83378619E-02  9.68666780E-03 -6.80905836E-03  7.32957891E-04
  1.87482950E-03  2.94085308E-03 -1.80542027E-02 -3.08643850E-08  1.94488310E-01
 -8.99657235E-03 -2.63040786E-02 -3.61941332E-08  2.79806708E-01 -3.93024935E-03
 -1.57696921E-02 -4.88378659E-08  1.82172775E-01 -1.11826300E-02 -3.69576759E-03
 -2.58647107E-08  1.18528225E-02  1.70556239E-02 -7.25279187E-03 -3.60903958E-07
  6.61601680E-03  1.13297195E-08  2.00390216E-03  3.24422002E-03  2.24817091E-02
  1.25006501E-07  7.85999091E-02 -1.08098739E-02  3.18609106E-02  1.72697572E-07
  1.25696974E-01 -1.87291503E-03  2.04635281E-02  1.41550740E-07  8.00743618E-02
  1.65573668E-02 -2.67425877E-03  3.28470586E-08  1.33328408E-03  1.13780042E-03
 -1.56588495E-02 -2.24380875E-08 -2.06422887E-03  1.75703960E-08 -7.16281968E-02
 -9.97661891E-02 -4.22017779E-02 -5.38140883E-03  9.10204572E-03  7.20969118E-03
 -7.16299401E-02 -9.97686325E-02 -4.22028523E-02 -5.38151203E-03 -9.10220119E-03
  7.20944787E-03  1.63643908E-01  2.29329376E-01  9.70115716E-02  7.40130260E-03
  1.62708828E-07 -1.12007255E-02  1.00948750E-02  1.25183268E-02  6.83021032E-04
  6.91240180E-04 -1.54629885E-03  4.90796781E-03  1.00946736E-02  1.25180670E-02
  6.82967289E-04  6.91255776E-04  1.54628638E-03  4.90797185E-03  7.44964798E-03
  1.17897663E-02 -1.83559390E-01 -9.15881129E-08 -2.20434448E-02 -3.95178771E-02
 -2.64799157E-01 -1.30761819E-07 -3.16981026E-02 -7.92349806E-03 -1.67889093E-01
 -1.42147133E-07 -2.11976011E-02  5.07231969E-02  4.63852392E-03 -3.98128820E-08
 -1.04854915E-03  7.18932501E-03  1.46294494E-03  5.51946702E-08 -1.83633245E-02
  2.35997215E-08  9.18816882E-03  1.47472251E-02  1.93461227E-01  6.27379640E-08
 -4.78763158E-03 -4.90510081E-02  2.80053298E-01  8.39717451E-08 -8.74615855E-03
 -1.29553110E-02  1.65831025E-01  1.08077024E-07 -5.43910529E-03 -3.19478459E-02
  1.64420111E-02  3.29835042E-08  1.75563636E-05 -4.11881686E-04  3.31483260E-03
  9.17640776E-09 -1.91055267E-02  2.89290501E-08  6.20622030E-02  8.83958045E-02
  3.71693719E-02 -7.45816143E-03 -7.41070526E-03  2.79291729E-03  6.20625855E-02