dsgdb9nsd_000001-3                                                      
Freq      RB3LYP                                                      6-311+G(d,p)        
Number of atoms                            I                4
Info1-9                                    I   N=           9
          13          13        1002           0           0         100
           6          18        -502
Full Title                                 C   N=           2
dsgdb9nsd_000001-3      
Route                                      C   N=           3
#p opt freq b3lyp/6-311+g** em=gd3bj
Charge                                     I               -1
Multiplicity                               I                1
Number of electrons                        I               10
Number of alpha electrons                  I                5
Number of beta electrons                   I                5
Number of basis functions                  I               40
Number of independent functions            I               40
Number of point charges in /Mol/           I                0
Number of translation vectors              I                0
Atomic numbers                             I   N=           4
           6           1           1           1
Nuclear charges                            R   N=           4
  6.00000000E+00  1.00000000E+00  1.00000000E+00  1.00000000E+00
Current cartesian coordinates              R   N=          12
 -4.87230877E-07  1.37053656E-05 -2.32696144E-01  1.68508630E+00  1.01026445E+00
  4.65401710E-01 -1.71750302E+00  9.54115134E-01  4.65402353E-01  3.24196449E-02
 -1.96446181E+00  4.65372800E-01
Number of symbols in /Mol/                 I                0
Int Atom Types                             I   N=           4
           0           0           0           0
Force Field                                I                0
Atom Types                                 C   N=           4
                                                
MM charges                                 R   N=           4
  0.00000000E+00  0.00000000E+00  0.00000000E+00  0.00000000E+00
Integer atomic weights                     I   N=           4
          12           1           1           1
Real atomic weights                        R   N=           4
  1.20000000E+01  1.00782504E+00  1.00782504E+00  1.00782504E+00
Atom fragment info                         I   N=           4
           0           0           0           0
Atom residue num                           I   N=           4
           0           0           0           0
Nuclear spins                              I   N=           4
           0           1           1           1
Nuclear ZEff                               R   N=           4
 -3.60000000E+00 -1.00000000E+00 -1.00000000E+00 -1.00000000E+00
Nuclear ZNuc                               R   N=           4
  6.00000000E+00  1.00000000E+00  1.00000000E+00  1.00000000E+00
Nuclear QMom                               R   N=           4
  0.00000000E+00  0.00000000E+00  0.00000000E+00  0.00000000E+00
Nuclear GFac                               R   N=           4
  0.00000000E+00  2.79284600E+00  2.79284600E+00  2.79284600E+00
MicOpt                                     I   N=           4
          -1          -1          -1          -1
Number of residues                         I                0
Number of secondary structures             I                0
Redundant internal dimensions              I   N=           4
           7           3           3           1
Redundant internal coordinate indices      I   N=          28
           1           2           0           0           1           3
           0           0           1           4           0           0
           2           1           3           0           2           1
           4           0           3           1           4           0
           2           1           4           3
Redundant internal coordinates             R   N=           7
  2.08505747E+00  2.08505779E+00  2.08506964E+00  1.90911198E+00  1.90904747E+00
  1.90904936E+00  2.09060265E+00
ZRed-IntVec                                I   N=           7
           0           0           0           0           0           0
           0
ZRed-FPVec                                 R   N=           7
  0.00000000E+00  0.00000000E+00  0.00000000E+00  0.00000000E+00  0.00000000E+00
  0.00000000E+00  0.00000000E+00
ZRed-Constraint1                           R   N=           7
  2.08505747E+00  2.08505779E+00  2.08506964E+00  1.90911198E+00  1.90904747E+00
  1.90904936E+00  2.09060265E+00
ZRed-Constraint2                           R   N=           7
  2.06349222E+00  2.06348950E+00  2.06348180E+00  1.91058415E+00  1.91064801E+00
  1.91063672E+00  2.09434616E+00
SymInf integers                            I   N=          26
           1           1           1           1           1           0
           0           0           0           0           0           0
           0           0           0           0           0           0
           0           0           0           0           0           0
           0           0
RotTr to input orientation                 R   N=          12
 -5.77125406E-01 -8.16586379E-01  1.06278323E-02  6.58033538E-01 -4.72696081E-01
 -5.86131621E-01  4.83650833E-01 -3.31277980E-01  8.10146142E-01  8.48564185E-02
  1.97731694E+00  1.97397426E-01
Number of contracted shells                I               18
Number of primitive shells                 I               31
Pure/Cartesian d shells                    I                0
Pure/Cartesian f shells                    I                0
Highest angular momentum                   I                2
Largest degree of contraction              I                6
Shell types                                I   N=          18
           0          -1          -1          -1          -1          -2
           0           0           0           1           0           0
           0           1           0           0           0           1
Number of primitives per shell             I   N=          18
           6           3           1           1           1           1
           3           1           1           1           3           1
           1           1           3           1           1           1
Shell to atom map                          I   N=          18
           1           1           1           1           1           1
           2           2           2           2           3           3
           3           3           4           4           4           4
Primitive exponents                        R   N=          31
  4.56324000E+03  6.82024000E+02  1.54973000E+02  4.44553000E+01  1.30290000E+01
  1.82773000E+00  2.09642000E+01  4.80331000E+00  1.45933000E+00  4.83456000E-01
  1.45585000E-01  4.38000000E-02  6.26000000E-01  3.38650000E+01  5.09479000E+00
  1.15879000E+00  3.25840000E-01  1.02741000E-01  7.50000000E-01  3.38650000E+01
  5.09479000E+00  1.15879000E+00  3.25840000E-01  1.02741000E-01  7.50000000E-01
  3.38650000E+01  5.09479000E+00  1.15879000E+00  3.25840000E-01  1.02741000E-01
  7.50000000E-01
Contraction coefficients                   R   N=          31
  1.96665025E-03  1.52306019E-02  7.61269097E-02  2.60801033E-01  6.16462078E-01
  2.21006028E-01  1.14660081E-01  9.19999648E-01 -3.03068213E-03  1.00000000E+00
  1.00000000E+00  1.00000000E+00  1.00000000E+00  2.54938145E-02  1.90373109E-01
  8.52161486E-01  1.00000000E+00  1.00000000E+00  1.00000000E+00  2.54938145E-02
  1.90373109E-01  8.52161486E-01  1.00000000E+00  1.00000000E+00  1.00000000E+00
  2.54938145E-02  1.90373109E-01  8.52161486E-01  1.00000000E+00  1.00000000E+00
  1.00000000E+00
P(S=P) Contraction coefficients            R   N=          31
  0.00000000E+00  0.00000000E+00  0.00000000E+00  0.00000000E+00  0.00000000E+00
  0.00000000E+00  4.02486927E-02  2.37593957E-01  8.15853851E-01  1.00000000E+00
  1.00000000E+00  1.00000000E+00  0.00000000E+00  0.00000000E+00  0.00000000E+00
  0.00000000E+00  0.00000000E+00  0.00000000E+00  0.00000000E+00  0.00000000E+00
  0.00000000E+00  0.00000000E+00  0.00000000E+00  0.00000000E+00  0.00000000E+00
  0.00000000E+00  0.00000000E+00  0.00000000E+00  0.00000000E+00  0.00000000E+00
  0.00000000E+00
Coordinates of each shell                  R   N=          54
 -4.87230877E-07  1.37053656E-05 -2.32696144E-01 -4.87230877E-07  1.37053656E-05
 -2.32696144E-01 -4.87230877E-07  1.37053656E-05 -2.32696144E-01 -4.87230877E-07
  1.37053656E-05 -2.32696144E-01 -4.87230877E-07  1.37053656E-05 -2.32696144E-01
 -4.87230877E-07  1.37053656E-05 -2.32696144E-01  1.68508630E+00  1.01026445E+00
  4.65401710E-01  1.68508630E+00  1.01026445E+00  4.65401710E-01  1.68508630E+00
  1.01026445E+00  4.65401710E-01  1.68508630E+00  1.01026445E+00  4.65401710E-01
 -1.71750302E+00  9.54115134E-01  4.65402353E-01 -1.71750302E+00  9.54115134E-01
  4.65402353E-01 -1.71750302E+00  9.54115134E-01  4.65402353E-01 -1.71750302E+00
  9.54115134E-01  4.65402353E-01  3.24196449E-02 -1.96446181E+00  4.65372800E-01
  3.24196449E-02 -1.96446181E+00  4.65372800E-01  3.24196449E-02 -1.96446181E+00
  4.65372800E-01  3.24196449E-02 -1.96446181E+00  4.65372800E-01
Num ILSW                                   I              100
ILSW                                       I   N=         100
           0           0           0           0           2           0
           0           0           0           0         402          -1
           5           0           0           0           2           0
           0           0           0           0           1           0
           1           0           0           0           0           0
           0           0      100000           0          -1           0
           0           0           0           0           0           0
           0           0           0           1           0           0
           0 -2000000000           1           0           0           0
           0           0         141          52           0           0
           0           0           5           0           0           0
           0           0           0           4           0           1
           0           0           0           0           0           0
           0           0           0           0           0           0
           0           0           0           0           0           0
           0           0           0           0           0           0
           0           0           0           0
Num RLSW                                   I               52
RLSW                                       R   N=          52
  8.00000000E-01  7.20000000E-01  1.00000000E+00  8.10000000E-01  2.00000000E-01
  0.00000000E+00  0.00000000E+00  1.00000000E+00  0.00000000E+00  0.00000000E+00
  0.00000000E+00  0.00000000E+00  1.00000000E+00  0.00000000E+00  0.00000000E+00
  0.00000000E+00  0.00000000E+00  1.00000000E+00  0.00000000E+00  0.00000000E+00
  0.00000000E+00  0.00000000E+00  1.00000000E+00  0.00000000E+00  0.00000000E+00
  0.00000000E+00  0.00000000E+00  1.00000000E+00  0.00000000E+00  0.00000000E+00
  0.00000000E+00  0.00000000E+00  1.00000000E+00  0.00000000E+00  0.00000000E+00
  0.00000000E+00  0.00000000E+00  0.00000000E+00  1.00000000E+00  1.00000000E+00
  0.00000000E+00  1.00000000E+00  0.00000000E+00  0.00000000E+00  0.00000000E+00
  0.00000000E+00  0.00000000E+00  0.00000000E+00  0.00000000E+00  0.00000000E+00
  0.00000000E+00  0.00000000E+00
MxBond                                     I                3
NBond                                      I   N=           4
           3           1           1           1
IBond                                      I   N=          12
           2           3           4           1           0           0
           1           0           0           1           0           0
RBond                                      R   N=          12
  1.00000000E+00  1.00000000E+00  1.00000000E+00  1.00000000E+00  0.00000000E+00
  0.00000000E+00  1.00000000E+00  0.00000000E+00  0.00000000E+00  1.00000000E+00
  0.00000000E+00  0.00000000E+00
Virial Ratio                               R      2.005490904615842E+00
SCF Energy                                 R     -3.985750219579997E+01
Total Energy                               R     -3.985750219579997E+01
RMS Force                                  R      2.173268615616683E-05
RMS Density                                R      1.168022898808241E-09
NImag                                      I                0
Job Status                                 I                1
Nuclear derivative order                   I                2
Thermal Energy                             R     -3.982607707351035E+01
Thermal Enthalpy                           R     -3.982513288869671E+01
Thermal Free Energy                        R     -3.984815020359743E+01
External E-field                           R   N=          35
  0.00000000E+00  0.00000000E+00  0.00000000E+00  0.00000000E+00  0.00000000E+00
  0.00000000E+00  0.00000000E+00  0.00000000E+00  0.00000000E+00  0.00000000E+00
  0.00000000E+00  0.00000000E+00  0.00000000E+00  0.00000000E+00  0.00000000E+00
  0.00000000E+00  0.00000000E+00  0.00000000E+00  0.00000000E+00  0.00000000E+00
  0.00000000E+00  0.00000000E+00  0.00000000E+00  0.00000000E+00  0.00000000E+00
  0.00000000E+00  0.00000000E+00  0.00000000E+00  0.00000000E+00  0.00000000E+00
  0.00000000E+00  0.00000000E+00  0.00000000E+00  0.00000000E+00  0.00000000E+00
IOpCl                                      I                0
IROHF                                      I                0
Alpha Orbital Energies                     R   N=          40
 -9.88687990E+00 -3.95973025E-01 -1.30575035E-01 -1.30566415E-01  6.57767310E-02
  1.78090289E-01  2.14136398E-01  2.14139120E-01  2.47573615E-01  3.60607193E-01
  3.60611152E-01  3.79129359E-01  6.30305433E-01  6.30308711E-01  7.26901004E-01
  8.27746970E-01  8.35115218E-01  8.35121537E-01  9.82028177E-01  1.28865567E+00
  1.28866855E+00  1.61445364E+00  1.69453645E+00  1.76399947E+00  1.76401479E+00
  1.94878435E+00  1.94879895E+00  2.20461560E+00  2.42047219E+00  2.42048798E+00
  2.59047474E+00  2.71279537E+00  2.71281929E+00  2.75704424E+00  2.75705108E+00
  2.94687787E+00  3.17736288E+00  3.97274887E+00  3.97279842E+00  2.41552106E+01
Alpha MO coefficients                      R   N=        1600
  5.63038607E-01  4.63385319E-01 -3.04969031E-09  9.30299724E-09  7.77366472E-04
  1.77449145E-02  1.14447466E-08 -8.09525926E-08  2.24784920E-03 -5.72122265E-03
 -6.79598349E-10 -4.78406939E-09 -1.16569165E-04 -2.38466660E-03 -2.65127831E-09
  4.42326528E-08 -8.56703920E-04 -1.36050858E-03  2.35752104E-09 -4.80965645E-09
  1.44848670E-07  3.60462750E-09  2.71308800E-04 -3.77473319E-03  3.23805334E-03
  1.83982473E-03  1.10306291E-03  7.09154616E-04  2.71309995E-04 -3.77472459E-03
  3.23804746E-03 -1.87521515E-03  1.04175400E-03  7.09154100E-04  2.71327232E-04
 -3.77464799E-03  3.23801084E-03  3.53952248E-05 -2.14483296E-03  7.09082827E-04
 -1.05435401E-01 -1.63335954E-01  1.10763293E-07 -1.57719351E-06  4.25828998E-02
  4.28634059E-01  1.27434053E-07 -2.18324479E-06  5.76974435E-02  2.68727539E-01
  4.94056338E-08 -8.23263033E-07  2.45652800E-02  2.80412985E-02  2.61348369E-09
 -3.11525858E-07  4.24918732E-03 -7.16719606E-03  1.23291602E-08 -1.50960167E-07
  6.50274126E-07  7.26317731E-09  9.72940078E-02  1.18151053E-01  2.03452507E-02
 -1.34348796E-02 -8.05469018E-03 -3.05439140E-03  9.72939309E-02  1.18150979E-01
  2.03452210E-02  1.36933218E-02 -7.60701154E-03 -3.05439096E-03  9.72936398E-02
  1.18150950E-01  2.03450164E-02 -2.58473425E-04  1.56623527E-02 -3.05416760E-03
  4.86952085E-08  7.21587281E-08  1.93904019E-01  1.12678209E-03 -5.58662014E-08
 -1.90934987E-07  2.69163368E-01  1.56410326E-03 -7.37390962E-08 -2.97395214E-07
  1.53977118E-01  8.94767790E-04 -6.37883178E-08 -1.48302209E-07  3.77612543E-02
  2.19439589E-04 -2.14019823E-08 -1.50714562E-08  2.24954245E-02  1.30722891E-04
 -7.63680642E-04  1.74678092E-02  1.48039510E-01  2.15571354E-01  1.58070728E-01
 -3.67558880E-03 -1.04971466E-02 -6.37633123E-03 -1.49878265E-01 -2.18248922E-01
 -1.60034016E-01 -4.23837471E-03  1.01956350E-02  6.45552923E-03  1.83877966E-03
  2.67758238E-03  1.96344433E-03  1.39643511E-02  3.36669812E-04 -7.91971078E-05
 -1.05087973E-06 -1.63556060E-06 -1.12675352E-03  1.93903432E-01  2.19974634E-06
  4.33019898E-06 -1.56409512E-03  2.69164146E-01  3.01325090E-06  5.05421809E-06
 -8.94777938E-04  1.53981274E-01  1.88170322E-06  4.32099241E-07 -2.19452108E-04
  3.77641045E-02  2.46769524E-07  4.59869044E-07 -1.30713260E-04  2.24947808E-02
  1.74697783E-02  7.63775383E-04  8.75926809E-02  1.27550523E-01  9.35326092E-02
 -1.05205104E-02  7.71002785E-03 -3.77249081E-03  8.44078406E-02  1.22912828E-01
  9.01317871E-02  1.01721107E-02  8.27280188E-03 -3.63532215E-03 -1.72002183E-01
 -2.50467339E-01 -1.83666025E-01  3.13227924E-04 -9.92999759E-03  7.40783748E-03
  3.42576683E-02  5.52576937E-02  4.95154969E-08 -1.69290612E-06  2.06795636E-01
 -1.64052319E-01  7.49930405E-08 -2.37829468E-06  3.00565874E-01 -1.92181990E-01
  2.15561937E-07 -4.58135883E-06  3.26878953E-01  5.97708213E-02  1.43729367E-07
 -7.00755483E-06  3.91269616E-01  1.33902160E-02  2.05189485E-08 -4.09367576E-07
  1.92840507E-07  1.06139072E-08  2.98986178E-02  5.27637653E-02 -2.62730142E-02
 -4.87551402E-03 -2.92335927E-03  2.04550411E-02  2.98986501E-02  5.27639233E-02
 -2.62729541E-02  4.96933035E-03 -2.76090234E-03  2.04550298E-02  2.98972181E-02
  5.27615604E-02 -2.62786172E-02 -9.37913105E-05  5.68356172E-03  2.04551166E-02
  2.70157167E-02  4.42958327E-02  3.12732266E-08  2.80014201E-06 -4.87560653E-02
 -1.25843423E-01 -6.86590343E-08  6.82686188E-06 -1.03815506E-01 -1.47428259E-01
  5.27347685E-07  2.30433356E-06 -2.63236935E-02  2.40041714E+00 -5.76505811E-07
 -7.59860819E-05  5.56731488E-01  1.02625707E-02  1.23229861E-08  1.09432752E-06
 -2.20510530E-07  6.79545659E-08 -2.64429037E-02  1.17021070E-01 -7.44118807E-01
  3.90507319E-03  2.34069117E-03 -1.39139226E-03 -2.64430662E-02  1.17021492E-01
 -7.44121096E-01 -3.98017149E-03  2.21055907E-03 -1.39140788E-03 -2.64453534E-02
  1.17029748E-01 -7.44174468E-01  7.51154035E-05 -4.55190274E-03 -1.39141078E-03
  5.51035062E-08  9.08825587E-08 -6.26830706E-02 -7.33175494E-04  3.84824882E-09
 -2.33884870E-07 -9.55389884E-02 -1.11750042E-03 -1.10637135E-07 -9.13291420E-07
 -2.46041088E-01 -2.87771827E-03  2.08715213E-07  2.36065650E-06  1.50744251E+00
  1.76324042E-02 -3.03992970E-07  3.17971097E-08 -2.40082977E-02 -2.80816332E-04
  1.02590248E-03 -2.71234985E-02 -4.66864954E-02  9.72462234E-02 -6.84786660E-01
 -8.82432778E-04 -5.34433021E-03 -3.22440168E-03  4.69461860E-02 -9.77869081E-02
  6.88595126E-01 -1.10843829E-03  5.26217819E-03  3.24233109E-03 -2.59727069E-04
  5.41170437E-04 -3.80957454E-03  8.19113570E-03  1.54668154E-04 -1.79359985E-05
  1.20023124E-06  1.88765753E-06  7.33220621E-04 -6.26843227E-02 -2.98572666E-06
 -4.54336178E-06  1.11745716E-03 -9.55330206E-02 -4.41788652E-06 -2.04110934E-05
  2.87814921E-03 -2.46053077E-01 -8.60167678E-06  6.48505409E-05 -1.76322496E-02
  1.50742239E+00  3.58469802E-05 -2.51393108E-07  2.80805457E-04 -2.40060592E-02
 -2.71246557E-02 -1.02598934E-03 -2.72553745E-02  5.67635419E-02 -3.99754038E-01
 -5.39228791E-03  5.01634828E-03 -1.88217080E-03 -2.68054898E-02  5.58267088E-02
 -3.93155587E-01  5.21342337E-03  5.24232852E-03 -1.85110032E-03  5.40588560E-02
 -1.12587864E-01  7.92883112E-01  1.06313091E-04 -4.05615525E-03  3.73318206E-03
 -2.78640926E-02 -4.34332987E-02 -9.62757599E-08  1.71736374E-06 -1.46744221E-01
  9.01889208E-02 -9.03492469E-08  1.54927583E-06 -1.15553396E-01  5.62904766E-01
 -4.06666468E-07  9.22393295E-06 -6.25718434E-01 -3.44998769E-01  1.01764411E-06
 -1.71144211E-05  1.16388052E+00 -1.28099338E-02 -1.88112470E-08  5.38877315E-07
  2.98720350E-07  7.87273098E-09 -1.94240969E-02 -1.47300231E-02 -1.26958747E-01
  4.53835839E-03  2.72099701E-03 -4.18832468E-04 -1.94240831E-02 -1.47299562E-02
 -1.26958853E-01 -4.62565306E-03  2.56975901E-03 -4.18833247E-04 -1.94234821E-02
 -1.47272098E-02 -1.26955117E-01  8.73042665E-05 -5.29046932E-03 -4.19003421E-04
 -3.44007044E-06 -5.15164243E-06 -8.24798466E-04  1.63997157E-01  7.42968914E-06
  5.06059092E-06 -4.62152749E-04  9.18806800E-02  6.59308788E-06  1.66980148E-04
 -6.64998645E-03  1.32226486E+00  5.96587165E-05  1.44924863E-04 -3.87600557E-03
  7.70630358E-01  2.83062501E-05  8.72971094E-07  4.97810942E-05 -9.89887634E-03
 -3.25366189E-02 -1.44796665E-03 -2.40791358E-02  1.46056394E-02 -1.38746126E+00
 -2.13416944E-02  1.27268380E-03 -9.30504076E-03 -2.31410301E-02  1.40362447E-02
 -1.33340125E+00  2.07650073E-02  2.45079191E-03 -8.94244068E-03  4.72105402E-02
 -2.86534970E-02  2.72050547E+00  7.31965074E-04 -3.46030647E-02  1.82481312E-02
  2.76638080E-07  4.14919109E-07  1.63996689E-01  8.24786848E-04 -5.06955299E-07
 -4.75741061E-07  9.18739429E-02  4.62000288E-04 -5.15671874E-07 -1.29300036E-05
  1.32231332E+00  6.65040177E-03 -3.95585003E-06 -1.23806132E-05  7.70692643E-01
  3.87597090E-03 -2.04194464E-06 -6.67128549E-08 -9.90041376E-03 -4.98020883E-05
  1.44787931E-03 -3.25348329E-02 -4.06134254E-02  2.46525476E-02 -2.34058832E+00
 -2.18607754E-02 -2.14442783E-02 -1.56997752E-02  4.11555342E-02 -2.49806718E-02
  2.37182008E+00 -2.30388968E-02  2.06605531E-02  1.59090794E-02 -5.41360935E-04
  3.28851659E-04 -3.12018220E-02  1.40152444E-02  6.28368428E-04 -2.09373778E-04
 -5.45392138E-02 -8.23471535E-02  9.38706290E-07 -1.32752625E-05  8.22506295E-02
  8.55426085E-02  5.43859976E-07 -9.16946656E-06  8.46128259E-02  2.79761410E+00
  8.44024962E-06 -1.12038438E-04  7.27960124E-01  2.78082054E+00  6.08975157E-06
 -8.21998357E-05  4.61997661E-01  1.05540412E-02 -3.72975237E-08  2.63733388E-07
  1.55049030E-06 -7.23071397E-08 -4.06705059E-02 -3.96553217E-02 -2.21074859E+00
 -5.74512404E-03 -3.44429741E-03  3.56818175E-03 -4.06702247E-02 -3.96555641E-02
 -2.21072663E+00  5.85544871E-03 -3.25271766E-03  3.56833242E-03 -4.06725244E-02
 -3.96442589E-02 -2.21100220E+00 -1.10543701E-04  6.70033834E-03  3.56590882E-03
 -1.45212520E-07 -1.49376120E-07 -3.63789436E-05  2.47089984E-02  1.55832490E-06
  3.63044200E-06 -1.33953397E-05  9.04898154E-03  2.23371887E-06 -9.68401522E-06
  1.90404450E-03 -1.29237080E+00 -3.19106878E-05  7.96269218E-05 -1.51130684E-03
  1.02537776E+00  3.30248879E-05 -6.92091037E-07  4.00093273E-05 -2.71712303E-02
 -1.49488274E-02 -7.18559685E-04  4.41473775E-02  7.45253717E-01 -8.28989482E-01
 -1.63353437E-02 -3.74513762E-02 -7.19055160E-03  4.19075741E-02  7.07441812E-01
 -7.86931525E-01  1.58847850E-02 -3.64354208E-02 -6.82578689E-03 -8.60457075E-02
 -1.45260689E+00  1.61576219E+00  6.54931314E-04 -6.48447385E-02  1.40105590E-02
 -1.30215062E-08 -2.10252550E-08  2.47171196E-02  3.64712077E-05 -4.68105211E-08
 -7.74981542E-08  9.05619009E-03  1.33119078E-05 -1.47109639E-07 -3.57880766E-07
 -1.29249396E+00 -1.90537111E-03  1.01484925E-06 -3.50957814E-06  1.02536703E+00
  1.51099177E-03 -1.23416721E-06  5.42673384E-08 -2.71761817E-02 -4.00868343E-05
  7.18608784E-04 -1.49512371E-02  7.38683877E-02  1.24712249E+00 -1.38707839E+00
 -5.50445503E-02 -1.64708494E-02 -1.20293262E-02 -7.51617782E-02 -1.26895593E+00
  1.41136521E+00 -5.60607130E-02  1.57476868E-02  1.22400187E-02  1.29293825E-03
  2.18295559E-02 -2.42789887E-02 -2.76410305E-02  5.18607255E-04 -2.10492826E-04
 -1.48348030E-02 -2.40617978E-02 -3.41745931E-07  5.27538752E-06 -7.70465751E-02
 -1.70989590E-01 -7.61773835E-07  1.45470889E-05 -2.21083632E-01  1.79324807E+00
  6.59817333E-06 -1.32594259E-04  1.19588217E+00 -1.11324548E+00 -1.66369744E-06
  3.81729929E-05 -5.31342709E-01  2.19273129E-02  9.69915797E-08 -1.25020674E-06
 -1.10926211E-06  5.84771310E-08 -6.07048825E-02 -1.24163539E+00  7.02242025E-01
  2.60995268E-02  1.56510905E-02  3.46985875E-02 -6.07049520E-02 -1.24163280E+00
  7.02243872E-01 -2.66014500E-02  1.47811323E-02  3.46986359E-02 -6.07045949E-02
 -1.24170897E+00  7.02228845E-01  5.02178803E-04 -3.04361662E-02  3.46953845E-02
 -3.87162177E-03 -7.62865414E-03  3.01968146E-06 -3.15340560E-05 -2.55149513E-01
  1.02720138E-01  1.01967960E-05 -1.08649316E-04 -9.51575223E-01 -3.60681799E-02
 -1.82786323E-05  2.00353915E-04  1.36321722E+00  1.17905927E+00 -1.37424530E-06
  1.11687089E-05 -3.21002020E-01 -3.44632838E-02 -2.77579940E-07  2.82344064E-06
  7.73673725E-06 -2.96946925E-07  4.71284875E-02  4.87966555E-01 -8.55082831E-01
  1.36344936E-02  8.16822142E-03 -2.75266353E-02  4.71298026E-02  4.87974518E-01
 -8.55112009E-01 -1.38972167E-02  7.71471975E-03 -2.75261502E-02  4.71134944E-02
  4.87878352E-01 -8.54747240E-01  2.62494888E-04 -1.58812576E-02 -2.75305195E-02
  8.71662469E-07  1.81470517E-06  3.29813881E-03 -2.88146540E-01  2.64609454E-05
 -2.20501429E-05  1.12708428E-02 -9.84701262E-01  9.97160316E-05  2.04736048E-05
 -1.90278516E-02  1.66239826E+00 -1.32566867E-04 -1.90648387E-04 -2.02879201E-03
  1.77208152E-01  2.63031955E-05  5.88904240E-06 -3.00008971E-04  2.62079095E-02
  5.77976843E-02  2.20066814E-03  4.31788437E-02  2.89820632E-01 -9.72009583E-01
  4.51780007E-02 -1.91993426E-02  1.61895842E-02  4.24291481E-02  2.84788055E-01
 -9.55133551E-01 -4.41945426E-02 -2.11260714E-02  1.59086149E-02 -8.56308703E-02
 -5.74849420E-01  1.92754993E+00 -1.17719734E-03  5.72463264E-02 -3.20867959E-02
 -9.00039870E-08 -1.68968832E-07 -2.88147291E-01 -3.29813013E-03 -2.24926871E-06
  1.96326407E-06 -9.84704274E-01 -1.12710057E-02 -8.59668017E-06 -3.19555431E-06
  1.66238531E+00  1.90276914E-02  1.13528016E-05  1.27259623E-05  1.77278085E-01
  2.02865914E-03 -2.55883150E-06 -3.62992806E-07  2.62116381E-02  2.99983545E-04
 -2.20066886E-03  5.77972701E-02  7.39385908E-02  4.96363635E-01 -1.66441583E+00
  3.04796389E-02  4.53093052E-02  2.77115464E-02 -7.43705180E-02 -4.99257851E-01
  1.67414305E+00  3.24064275E-02 -4.40675121E-02 -2.78744504E-02  4.33391243E-04
  2.91205213E-03 -9.75369364E-03 -4.59641748E-02 -1.04816122E-03  1.61930546E-04
  1.25510873E-01  2.43791601E-01 -2.40395394E-07  2.71402982E-06 -5.20555869E-02
 -1.93906760E+00 -1.38417551E-07 -1.29031451E-06  4.65447883E-02  4.55272230E+00
  2.60075678E-06 -4.62657194E-05  4.93397277E-01  1.00770455E+00  1.20422677E-06
 -2.16746213E-05  3.75105859E-01 -5.86653783E-02  1.69516701E-08  1.69698990E-06
  6.07208183E-06  1.82660598E-07  7.25618019E-02 -9.18429215E-02 -1.56475145E+00
  1.27400369E-01  7.63853439E-02  6.68419081E-02  7.25617083E-02 -9.18429856E-02
 -1.56474838E+00 -1.29851187E-01  7.21398841E-02  6.68420636E-02  7.25625010E-02
 -9.18564295E-02 -1.56476225E+00  2.45099745E-03 -1.48528317E-01  6.68337279E-02
  5.09359545E-08  1.19650122E-07 -3.02149883E-02 -9.55546432E-05 -7.21574886E-08
 -1.07744616E-06 -4.97918860E-02 -1.57417294E-04 -2.91053948E-07  2.19961379E-06
 -1.99806590E-01 -6.31937251E-04  2.09582363E-07  5.37591655E-07  5.55336769E-02
  1.75615570E-04  1.73864297E-07  4.30523997E-07  4.09672548E-01  1.29549699E-03
  1.40381997E-02 -3.02722496E-01 -6.47042522E-03  1.50462209E-01 -5.01789508E-02
 -3.17862768E-03 -1.95444109E-01  3.15568888E-01  6.57065973E-03 -1.52797836E-01
  5.09564467E-02 -1.46663722E-02  1.89457379E-01 -3.20466604E-01 -1.00537825E-04
  2.33546226E-03 -7.79650403E-04  3.24394162E-01  6.95618847E-03  4.89880566E-03
 -1.13096693E-06 -2.70681477E-06  9.55511101E-05 -3.02149547E-02  1.58195920E-06
  2.43606286E-05  1.57462214E-04 -4.97790637E-02  4.31718559E-06 -5.20511408E-05
  6.31772737E-04 -1.99798964E-01 -3.87106795E-06 -1.16217578E-05 -1.75614967E-04
  5.55306010E-02 -3.98749022E-06 -9.66972529E-06 -1.29569897E-03  4.09701800E-01
 -3.02702142E-01 -1.40374145E-02 -3.84805125E-03  8.95599021E-02 -2.98502497E-02
 -1.96061346E-01  2.07543285E-01  1.87849536E-01 -3.67414714E-03  8.55149796E-02
 -2.85014105E-02  1.88782866E-01  2.19030881E-01  1.79364973E-01  7.52938377E-03
 -1.75068197E-01  5.84000803E-02  6.30907679E-03 -1.20025955E-01 -3.67242700E-01
  1.59265302E-02  3.74370995E-02 -5.47756023E-08  1.24242278E-06  7.77308946E-02
 -4.46606458E-01  1.02786230E-07  2.89596176E-06  6.56371716E-02  1.67888512E+00
  6.49900076E-07 -1.75024502E-05  7.35159707E-01 -1.39013856E-02  3.59338940E-07
 -6.32766365E-06 -9.91162762E-02 -7.28450019E-01 -3.57272980E-07  1.08594502E-05
  1.77329288E-05  6.71634227E-08  2.52190441E-02 -6.71492572E-01 -1.01949599E-01
  4.59275679E-02  2.75217253E-02 -3.26575623E-01  2.52192051E-02 -6.71493263E-01
 -1.01948358E-01 -4.68102971E-02  2.59916342E-02 -3.26576104E-01  2.52157614E-02
 -6.71467675E-01 -1.01973440E-01  8.83781773E-04 -5.35278476E-02 -3.26561981E-01
 -1.77157620E-10 -3.18978837E-11  1.54586756E-05  7.00466084E-07  1.66958345E-10
  9.83501361E-10 -1.97552609E-05 -1.03906238E-06  6.39847188E-10 -2.06417881E-09
  2.06511209E-04  9.25053494E-06  2.48879589E-10 -1.84365236E-10 -6.33984760E-05
 -2.75568987E-06 -2.26779664E-10  1.00205930E-09  5.92707171E-05  2.54086089E-06
 -5.98437201E-07  9.82594884E-05  1.87628777E-05 -1.83157451E-04  7.06347267E-05
 -3.07834789E-01  5.13322365E-01  7.74314950E-05 -1.82179407E-05  1.77569251E-04
 -6.86143560E-05 -2.90730117E-01 -5.23204513E-01 -7.50196476E-05 -5.44363669E-07
  5.58815357E-06 -2.01874104E-06  5.98350065E-01  9.87240153E-03 -2.41587546E-06
  1.24150411E-08  2.81856906E-08  8.03734225E-02  7.47407574E-05  5.68864792E-08
 -5.45105199E-07 -2.60996678E-02 -2.40928026E-05  8.18395811E-08  2.95890549E-06
  9.92163850E-01  9.22512111E-04  6.92365940E-07  6.98674427E-07 -3.51309920E-01
 -3.26499733E-04  1.43626787E-07 -8.79351916E-07  2.75998734E-01  2.56666694E-04
 -2.43994591E-02  5.01927911E-01  1.45553089E-01 -9.67966741E-01  4.45291716E-01
 -3.54553978E-01  4.02936493E-02  3.18521991E-01 -1.48194232E-01  9.85528718E-01
 -4.53373322E-01 -3.51991073E-01 -3.95083456E-02 -3.24301707E-01  2.64104139E-03