Title: H                                                                
SP        UCCSD(T)-FC                                                 Aug-CC-pVTZ         
Number of atoms                            I                1
Info1-9                                    I   N=           9
          11          10           0           0           0         110
           1          17         301
Full Title                                 C   N=           1
Title: H    
Route                                      C   N=           2
# CCSD(t)/aug-cc-pvtz   
Charge                                     I                0
Multiplicity                               I                2
Number of electrons                        I                1
Number of alpha electrons                  I                1
Number of beta electrons                   I                0
Number of basis functions                  I               23
Number of independent functions            I               23
Number of point charges in /Mol/           I                0
Number of translation vectors              I                0
Atomic numbers                             I   N=           1
           1
Nuclear charges                            R   N=           1
  1.00000000E+00
Current cartesian coordinates              R   N=           3
  0.00000000E+00  0.00000000E+00  0.00000000E+00
Number of symbols in /Mol/                 I                0
Int Atom Types                             I   N=           1
           0
Force Field                                I                0
Atom Types                                 C   N=           1
            
MM charges                                 R   N=           1
  0.00000000E+00
Integer atomic weights                     I   N=           1
           1
Real atomic weights                        R   N=           1
  1.00782504E+00
Atom fragment info                         I   N=           1
           0
Atom residue num                           I   N=           1
           0
Nuclear spins                              I   N=           1
           1
Nuclear ZEff                               R   N=           1
 -1.00000000E+00
Nuclear ZNuc                               R   N=           1
  1.00000000E+00
Nuclear QMom                               R   N=           1
  0.00000000E+00
Nuclear GFac                               R   N=           1
  2.79284600E+00
MicOpt                                     I   N=           1
          -1
Number of residues                         I                0
Number of secondary structures             I                0
SymInf integers                            I   N=          26
           1           8           1           1           1           1
          -1          -1          -1           1          -1          -1
          -1           1          -1          -1          -1          -1
           1           1           1          -1           1           1
           1          -1
RotTr to input orientation                 R   N=          12
  0.00000000E+00  0.00000000E+00 -1.00000000E+00  0.00000000E+00  1.00000000E+00
  0.00000000E+00  1.00000000E+00  0.00000000E+00  0.00000000E+00  0.00000000E+00
  0.00000000E+00  0.00000000E+00
Number of contracted shells                I                9
Number of primitive shells                 I               11
Pure/Cartesian d shells                    I                0
Pure/Cartesian f shells                    I                0
Highest angular momentum                   I                2
Largest degree of contraction              I                3
Shell types                                I   N=           9
           0           0           0           0           1           1
           1          -2          -2
Number of primitives per shell             I   N=           9
           3           1           1           1           1           1
           1           1           1
Shell to atom map                          I   N=           9
           1           1           1           1           1           1
           1           1           1
Primitive exponents                        R   N=          11
  3.38700000E+01  5.09500000E+00  1.15900000E+00  3.25800000E-01  1.02700000E-01
  2.52600000E-02  1.40700000E+00  3.88000000E-01  1.02000000E-01  1.05700000E+00
  2.47000000E-01
Contraction coefficients                   R   N=          11
  2.54948632E-02  1.90362766E-01  8.52162022E-01  1.00000000E+00  1.00000000E+00
  1.00000000E+00  1.00000000E+00  1.00000000E+00  1.00000000E+00  1.00000000E+00
  1.00000000E+00
Coordinates of each shell                  R   N=          27
  0.00000000E+00  0.00000000E+00  0.00000000E+00  0.00000000E+00  0.00000000E+00
  0.00000000E+00  0.00000000E+00  0.00000000E+00  0.00000000E+00  0.00000000E+00
  0.00000000E+00  0.00000000E+00  0.00000000E+00  0.00000000E+00  0.00000000E+00
  0.00000000E+00  0.00000000E+00  0.00000000E+00  0.00000000E+00  0.00000000E+00
  0.00000000E+00  0.00000000E+00  0.00000000E+00  0.00000000E+00  0.00000000E+00
  0.00000000E+00  0.00000000E+00
Num ILSW                                   I              100
ILSW                                       I   N=         100
           1           0           0           0           2           0
           0           0           0           0           0          -1
           5           0           0           0           0           0
           0           0           1           0           0           0
           1           0           0           0           0           0
           0           0      100000           0          -1           0
           0           0           0           0           0           0
           0           0           0           1           8           0
           0 -2000000000           1           0           0           0
           0           0           4          52           0           0
           0           0           0           0           0           0
           0           0           0           0           4           1
           0           0           0           0           0           0
           0           0           0           0           0           0
           0           0           0           0           0           0
           0           0           0           0           0           0
           0           0           0           0
Num RLSW                                   I               52
RLSW                                       R   N=          52
  1.00000000E+00  1.00000000E+00  1.00000000E+00  1.00000000E+00  1.00000000E+00
  0.00000000E+00  0.00000000E+00  1.00000000E+00  0.00000000E+00  0.00000000E+00
  0.00000000E+00  0.00000000E+00  1.00000000E+00  0.00000000E+00  0.00000000E+00
  0.00000000E+00  0.00000000E+00  1.00000000E+00  0.00000000E+00  0.00000000E+00
  0.00000000E+00  0.00000000E+00  1.00000000E+00  0.00000000E+00  0.00000000E+00
  0.00000000E+00  0.00000000E+00  1.00000000E+00  0.00000000E+00  0.00000000E+00
  0.00000000E+00  0.00000000E+00  1.00000000E+00  0.00000000E+00  0.00000000E+00
  0.00000000E+00  0.00000000E+00  0.00000000E+00  1.00000000E+00  1.00000000E+00
  0.00000000E+00  1.00000000E+00  0.00000000E+00  0.00000000E+00  0.00000000E+00
  0.00000000E+00  0.00000000E+00  0.00000000E+00  0.00000000E+00  0.00000000E+00
  0.00000000E+00  0.00000000E+00
MxBond                                     I                1
NBond                                      I   N=           1
           0
IBond                                      I   N=           1
           0
RBond                                      R   N=           1
  0.00000000E+00
Virial Ratio                               R      2.001032021933357E+00
SCF Energy                                 R     -4.998211760239580E-01
MP2 Energy                                 R     -4.998211760239580E-01
MP3 Energy                                 R     -4.998211760239580E-01
MP4D Energy                                R     -4.998211760239580E-01
MP4DQ Energy                               R     -4.998211760239580E-01
MP4SDQ Energy                              R     -4.998211760239580E-01
Cluster Energy                             R     -4.998211760239580E-01
Cluster Energy with triples                R     -4.998211760239580E-01
Total Energy                               R     -4.998211760239580E-01
Post-SCF wavefunction norm                 R      1.000000000000000E+00
S**2                                       R      7.500000000000000E-01
S**2 after annihilation                    R      7.500000000000000E-01
RMS Density                                R      5.618174364501724E-11
Job Status                                 I                1
Nuclear derivative order                   I                0
External E-field                           R   N=          35
  0.00000000E+00  0.00000000E+00  0.00000000E+00  0.00000000E+00  0.00000000E+00
  0.00000000E+00  0.00000000E+00  0.00000000E+00  0.00000000E+00  0.00000000E+00
  0.00000000E+00  0.00000000E+00  0.00000000E+00  0.00000000E+00  0.00000000E+00
  0.00000000E+00  0.00000000E+00  0.00000000E+00  0.00000000E+00  0.00000000E+00
  0.00000000E+00  0.00000000E+00  0.00000000E+00  0.00000000E+00  0.00000000E+00
  0.00000000E+00  0.00000000E+00  0.00000000E+00  0.00000000E+00  0.00000000E+00
  0.00000000E+00  0.00000000E+00  0.00000000E+00  0.00000000E+00  0.00000000E+00
IOpCl                                      I                1
IROHF                                      I                0
Alpha Orbital Energies                     R   N=          23
 -4.99821176E-01  5.77500345E-02  2.05840415E-01  2.05840415E-01  2.05840415E-01
  4.50835288E-01  8.06882706E-01  8.06882706E-01  8.06882706E-01  8.06882706E-01
  8.06882706E-01  9.85069512E-01  9.85069512E-01  9.85069512E-01  2.56799195E+00
  3.83935543E+00  3.83935543E+00  3.83935543E+00  3.83935543E+00  3.83935543E+00
  4.04646115E+00  4.04646115E+00  4.04646115E+00
Beta Orbital Energies                      R   N=          23
  1.55995927E-02  1.23744977E-01  2.32645044E-01  2.32645044E-01  2.32645044E-01
  5.75552443E-01  8.27531299E-01  8.27531299E-01  8.27531299E-01  8.27531299E-01
  8.27531299E-01  1.06754239E+00  1.06754239E+00  1.06754239E+00  2.69443193E+00
  3.88877016E+00  3.88877016E+00  3.88877016E+00  3.88877016E+00  3.88877016E+00
  4.12843306E+00  4.12843306E+00  4.12843306E+00
Alpha MO coefficients                      R   N=         529
  2.37591761E-01  5.06307186E-01  3.76592071E-01  7.88491975E-03  0.00000000E+00
  0.00000000E+00  0.00000000E+00  0.00000000E+00  0.00000000E+00  0.00000000E+00
  0.00000000E+00  0.00000000E+00  0.00000000E+00  2.95834055E-17  0.00000000E+00
  0.00000000E+00 -4.74671297E-17  0.00000000E+00 -2.46291885E-17  0.00000000E+00
  0.00000000E+00  5.03153343E-16  0.00000000E+00 -6.90447385E-02 -9.94979948E-03
 -7.07689531E-01  1.36013506E+00  0.00000000E+00  0.00000000E+00  0.00000000E+00
  0.00000000E+00  0.00000000E+00  0.00000000E+00  0.00000000E+00  0.00000000E+00
  0.00000000E+00 -3.48398212E-17  0.00000000E+00  0.00000000E+00 -2.21726533E-17
  0.00000000E+00  3.50301973E-18  0.00000000E+00  0.00000000E+00  9.34231928E-17
  0.00000000E+00  0.00000000E+00  0.00000000E+00  0.00000000E+00  0.00000000E+00
  0.00000000E+00  0.00000000E+00  3.21660828E-02  0.00000000E+00  0.00000000E+00
 -8.96984109E-02  0.00000000E+00  0.00000000E+00  1.04590858E+00  0.00000000E+00
  0.00000000E+00  0.00000000E+00  0.00000000E+00  0.00000000E+00  0.00000000E+00
  0.00000000E+00  0.00000000E+00  0.00000000E+00  0.00000000E+00  0.00000000E+00
  0.00000000E+00  0.00000000E+00  0.00000000E+00  3.21660828E-02  0.00000000E+00
  0.00000000E+00 -8.96984109E-02  0.00000000E+00  0.00000000E+00  1.04590858E+00
  0.00000000E+00  0.00000000E+00  0.00000000E+00  0.00000000E+00  0.00000000E+00
  0.00000000E+00  0.00000000E+00  0.00000000E+00  0.00000000E+00  0.00000000E+00
  0.00000000E+00  0.00000000E+00  0.00000000E+00  0.00000000E+00  0.00000000E+00
  0.00000000E+00  0.00000000E+00  3.21660828E-02  0.00000000E+00  0.00000000E+00
 -8.96984109E-02  0.00000000E+00  0.00000000E+00  1.04590858E+00  0.00000000E+00
  0.00000000E+00  0.00000000E+00  0.00000000E+00  0.00000000E+00  0.00000000E+00
  0.00000000E+00  0.00000000E+00  0.00000000E+00  0.00000000E+00  0.00000000E+00
 -9.98918871E-02 -1.48927403E+00  2.21034401E+00 -8.03028413E-01  0.00000000E+00
  0.00000000E+00  0.00000000E+00  0.00000000E+00  0.00000000E+00  0.00000000E+00
  0.00000000E+00  0.00000000E+00  0.00000000E+00 -3.90779825E-17  0.00000000E+00
  0.00000000E+00  7.26649847E-17  0.00000000E+00  8.32271935E-16  0.00000000E+00
  0.00000000E+00 -5.71472414E-16  0.00000000E+00 -1.33948671E-16 -2.27965194E-15
  3.48517085E-15 -1.66098980E-15  0.00000000E+00  0.00000000E+00  0.00000000E+00
  0.00000000E+00  0.00000000E+00  0.00000000E+00  0.00000000E+00  0.00000000E+00
  0.00000000E+00  2.62760940E-02  0.00000000E+00  0.00000000E+00 -6.53541486E-02
  0.00000000E+00 -3.83472728E-01  0.00000000E+00  0.00000000E+00  9.53776983E-01
  0.00000000E+00  4.00104909E-16  1.17734965E-15 -2.05663940E-15  9.51159705E-16
  0.00000000E+00  0.00000000E+00  0.00000000E+00  0.00000000E+00  0.00000000E+00
  0.00000000E+00  0.00000000E+00  0.00000000E+00  0.00000000E+00 -6.53541486E-02
  0.00000000E+00  0.00000000E+00 -2.62760940E-02  0.00000000E+00  9.53776983E-01
  0.00000000E+00  0.00000000E+00  3.83472728E-01  0.00000000E+00  0.00000000E+00
  0.00000000E+00  0.00000000E+00  0.00000000E+00  0.00000000E+00  0.00000000E+00
  0.00000000E+00  0.00000000E+00  0.00000000E+00  0.00000000E+00  0.00000000E+00
  0.00000000E+00  0.00000000E+00  0.00000000E+00 -7.04386105E-02  0.00000000E+00
  0.00000000E+00  0.00000000E+00  0.00000000E+00  1.02797951E+00  0.00000000E+00
  0.00000000E+00  0.00000000E+00  0.00000000E+00  0.00000000E+00  0.00000000E+00
  0.00000000E+00  0.00000000E+00  0.00000000E+00  0.00000000E+00  0.00000000E+00
  0.00000000E+00  0.00000000E+00  0.00000000E+00  0.00000000E+00  0.00000000E+00
  0.00000000E+00  0.00000000E+00 -7.04386105E-02  0.00000000E+00  0.00000000E+00
  0.00000000E+00  0.00000000E+00  1.02797951E+00  0.00000000E+00  0.00000000E+00
  0.00000000E+00  0.00000000E+00  0.00000000E+00  0.00000000E+00  0.00000000E+00
  0.00000000E+00  0.00000000E+00  0.00000000E+00  0.00000000E+00  0.00000000E+00
  0.00000000E+00  0.00000000E+00  0.00000000E+00  0.00000000E+00  0.00000000E+00
  0.00000000E+00  0.00000000E+00 -7.04386105E-02  0.00000000E+00  0.00000000E+00
  0.00000000E+00  0.00000000E+00  1.02797951E+00  0.00000000E+00  0.00000000E+00
  0.00000000E+00  0.00000000E+00  0.00000000E+00  0.00000000E+00 -9.20805551E-02
  0.00000000E+00  0.00000000E+00  1.31083472E+00  0.00000000E+00  0.00000000E+00
 -7.08969062E-01  0.00000000E+00  0.00000000E+00  0.00000000E+00  0.00000000E+00
  0.00000000E+00  0.00000000E+00  0.00000000E+00  0.00000000E+00  0.00000000E+00
  0.00000000E+00  0.00000000E+00  0.00000000E+00  0.00000000E+00  0.00000000E+00
  0.00000000E+00 -9.20805551E-02  0.00000000E+00  0.00000000E+00  1.31083472E+00
  0.00000000E+00  0.00000000E+00 -7.08969062E-01  0.00000000E+00  0.00000000E+00
  0.00000000E+00  0.00000000E+00  0.00000000E+00  0.00000000E+00  0.00000000E+00
  0.00000000E+00  0.00000000E+00  0.00000000E+00  0.00000000E+00  0.00000000E+00
  0.00000000E+00  0.00000000E+00  0.00000000E+00 -9.20805551E-02  0.00000000E+00
  0.00000000E+00  1.31083472E+00  0.00000000E+00  0.00000000E+00 -7.08969062E-01
  0.00000000E+00  0.00000000E+00  0.00000000E+00  0.00000000E+00  0.00000000E+00
  0.00000000E+00  0.00000000E+00  0.00000000E+00  0.00000000E+00  0.00000000E+00
  0.00000000E+00  0.00000000E+00 -1.56932289E+00  2.09897146E+00 -1.20731570E+00
  3.27076392E-01  0.00000000E+00  0.00000000E+00  0.00000000E+00  0.00000000E+00
  0.00000000E+00  0.00000000E+00  0.00000000E+00  0.00000000E+00  0.00000000E+00
 -1.78668296E-16  0.00000000E+00  0.00000000E+00  7.18001980E-16  0.00000000E+00
  5.98349031E-16  0.00000000E+00  0.00000000E+00 -3.94630052E-16  0.00000000E+00
  1.40424992E-15 -1.89433694E-15  8.60987036E-16 -6.71329304E-17  0.00000000E+00
  0.00000000E+00  0.00000000E+00  0.00000000E+00  0.00000000E+00  0.00000000E+00
  0.00000000E+00  0.00000000E+00  0.00000000E+00 -1.98802529E-01  0.00000000E+00
  0.00000000E+00  1.08504399E+00  0.00000000E+00  7.32198824E-02  0.00000000E+00
  0.00000000E+00 -3.99626671E-01  0.00000000E+00 -2.45104570E-17 -4.28851612E-16
  7.22858403E-16 -3.34987422E-16  0.00000000E+00  0.00000000E+00  0.00000000E+00
  0.00000000E+00  0.00000000E+00  0.00000000E+00  0.00000000E+00  0.00000000E+00
  0.00000000E+00  1.08504399E+00  0.00000000E+00  0.00000000E+00  1.98802529E-01
  0.00000000E+00 -3.99626671E-01  0.00000000E+00  0.00000000E+00 -7.32198824E-02
  0.00000000E+00  0.00000000E+00  0.00000000E+00  0.00000000E+00  0.00000000E+00
  0.00000000E+00  0.00000000E+00  0.00000000E+00  0.00000000E+00  0.00000000E+00
  0.00000000E+00  0.00000000E+00  0.00000000E+00  0.00000000E+00  0.00000000E+00
  0.00000000E+00  0.00000000E+00  0.00000000E+00  1.10310602E+00  0.00000000E+00
  0.00000000E+00  0.00000000E+00  0.00000000E+00 -4.06279002E-01  0.00000000E+00
  0.00000000E+00  0.00000000E+00  0.00000000E+00  0.00000000E+00  0.00000000E+00
  0.00000000E+00  0.00000000E+00  0.00000000E+00  0.00000000E+00  0.00000000E+00
  0.00000000E+00  0.00000000E+00  0.00000000E+00  1.10310602E+00  0.00000000E+00
  0.00000000E+00  0.00000000E+00  0.00000000E+00 -4.06279002E-01  0.00000000E+00
  0.00000000E+00  0.00000000E+00  0.00000000E+00  0.00000000E+00  0.00000000E+00
  0.00000000E+00  0.00000000E+00  0.00000000E+00  0.00000000E+00  0.00000000E+00
  0.00000000E+00  0.00000000E+00  0.00000000E+00  0.00000000E+00  0.00000000E+00
  0.00000000E+00  0.00000000E+00  1.10310602E+00  0.00000000E+00  0.00000000E+00
  0.00000000E+00  0.00000000E+00 -4.06279002E-01  0.00000000E+00  0.00000000E+00
  0.00000000E+00  0.00000000E+00  0.00000000E+00  0.00000000E+00  0.00000000E+00
  0.00000000E+00  1.32327868E+00  0.00000000E+00  0.00000000E+00 -9.52833658E-01
  0.00000000E+00  0.00000000E+00  3.09158660E-01  0.00000000E+00  0.00000000E+00
  0.00000000E+00  0.00000000E+00  0.00000000E+00  0.00000000E+00  0.00000000E+00
  0.00000000E+00  0.00000000E+00  0.00000000E+00  0.00000000E+00  0.00000000E+00
  0.00000000E+00  0.00000000E+00  0.00000000E+00  1.32327868E+00  0.00000000E+00
  0.00000000E+00 -9.52833658E-01  0.00000000E+00  0.00000000E+00  3.09158660E-01
  0.00000000E+00  0.00000000E+00  0.00000000E+00  0.00000000E+00  0.00000000E+00
  0.00000000E+00  0.00000000E+00  0.00000000E+00  0.00000000E+00  0.00000000E+00
  0.00000000E+00  0.00000000E+00  0.00000000E+00  0.00000000E+00  0.00000000E+00
  1.32327868E+00  0.00000000E+00  0.00000000E+00 -9.52833658E-01  0.00000000E+00
  0.00000000E+00  3.09158660E-01  0.00000000E+00  0.00000000E+00  0.00000000E+00
  0.00000000E+00  0.00000000E+00  0.00000000E+00  0.00000000E+00  0.00000000E+00
  0.00000000E+00  0.00000000E+00  0.00000000E+00  0.00000000E+00
Beta MO coefficients                       R   N=         529
  6.87799084E-02  1.35991388E-01  3.58363108E-02  8.94057078E-01  0.00000000E+00
  0.00000000E+00  0.00000000E+00  0.00000000E+00  0.00000000E+00  0.00000000E+00
  0.00000000E+00  0.00000000E+00  0.00000000E+00  1.21534318E-18  0.00000000E+00
  0.00000000E+00 -4.67417652E-17  0.00000000E+00 -7.71233152E-17  0.00000000E+00
  0.00000000E+00  5.30431800E-16  0.00000000E+00  1.43018349E-01 -3.18049310E-02
  1.34584189E+00 -1.13103979E+00  0.00000000E+00  0.00000000E+00  0.00000000E+00
  0.00000000E+00  0.00000000E+00  0.00000000E+00  0.00000000E+00  0.00000000E+00
  0.00000000E+00  5.38909555E-17  0.00000000E+00  0.00000000E+00  3.47068257E-17
  0.00000000E+00 -1.72884103E-17  0.00000000E+00  0.00000000E+00 -1.74112237E-16
  0.00000000E+00  0.00000000E+00  0.00000000E+00  0.00000000E+00  0.00000000E+00
  0.00000000E+00  3.27999360E-02  0.00000000E+00  0.00000000E+00 -1.48242879E-01
  0.00000000E+00  0.00000000E+00  1.07704527E+00  0.00000000E+00  0.00000000E+00
  0.00000000E+00  0.00000000E+00  0.00000000E+00  0.00000000E+00  0.00000000E+00
  0.00000000E+00  0.00000000E+00  0.00000000E+00  0.00000000E+00  0.00000000E+00
  0.00000000E+00  0.00000000E+00  0.00000000E+00  0.00000000E+00  0.00000000E+00
  3.27999360E-02  0.00000000E+00  0.00000000E+00 -1.48242879E-01  0.00000000E+00
  0.00000000E+00  1.07704527E+00  0.00000000E+00  0.00000000E+00  0.00000000E+00
  0.00000000E+00  0.00000000E+00  0.00000000E+00  0.00000000E+00  0.00000000E+00
  0.00000000E+00  0.00000000E+00  0.00000000E+00  0.00000000E+00  0.00000000E+00
  0.00000000E+00  3.27999360E-02  0.00000000E+00  0.00000000E+00 -1.48242879E-01
  0.00000000E+00  0.00000000E+00  1.07704527E+00  0.00000000E+00  0.00000000E+00
  0.00000000E+00  0.00000000E+00  0.00000000E+00  0.00000000E+00  0.00000000E+00
  0.00000000E+00  0.00000000E+00  0.00000000E+00  0.00000000E+00  0.00000000E+00
 -1.02637860E-01 -1.66212768E+00  1.96198799E+00 -6.53018310E-01  0.00000000E+00
  0.00000000E+00  0.00000000E+00  0.00000000E+00  0.00000000E+00  0.00000000E+00
  0.00000000E+00  0.00000000E+00  0.00000000E+00 -3.10639478E-17  0.00000000E+00
  0.00000000E+00 -3.49236965E-17  0.00000000E+00  2.91657543E-16  0.00000000E+00
  0.00000000E+00  7.60301587E-16  0.00000000E+00  3.65412391E-16  3.89316858E-16
 -8.60970761E-16 -1.60547081E-16  0.00000000E+00  0.00000000E+00  0.00000000E+00
  0.00000000E+00  0.00000000E+00  0.00000000E+00  0.00000000E+00  0.00000000E+00
  0.00000000E+00 -7.58626320E-02  0.00000000E+00  0.00000000E+00 -8.04326841E-03
  0.00000000E+00  1.02437822E+00  0.00000000E+00  0.00000000E+00  1.08608794E-01
  0.00000000E+00  0.00000000E+00  0.00000000E+00  0.00000000E+00  0.00000000E+00
  0.00000000E+00  0.00000000E+00  0.00000000E+00  0.00000000E+00  0.00000000E+00
  0.00000000E+00  0.00000000E+00  0.00000000E+00  0.00000000E+00  0.00000000E+00
  0.00000000E+00  0.00000000E+00  0.00000000E+00 -7.62878307E-02  0.00000000E+00
  0.00000000E+00  0.00000000E+00  0.00000000E+00  1.03011971E+00  0.00000000E+00
  0.00000000E+00  0.00000000E+00  0.00000000E+00  0.00000000E+00  0.00000000E+00
  0.00000000E+00  0.00000000E+00  0.00000000E+00  0.00000000E+00  0.00000000E+00
  0.00000000E+00  0.00000000E+00  0.00000000E+00  0.00000000E+00 -7.62878307E-02
  0.00000000E+00  0.00000000E+00  0.00000000E+00  0.00000000E+00  1.03011971E+00
  0.00000000E+00  0.00000000E+00  0.00000000E+00  0.00000000E+00  0.00000000E+00
  0.00000000E+00  0.00000000E+00  0.00000000E+00  0.00000000E+00  0.00000000E+00
  0.00000000E+00  0.00000000E+00  0.00000000E+00  0.00000000E+00  0.00000000E+00
  0.00000000E+00 -7.62878307E-02  0.00000000E+00  0.00000000E+00  0.00000000E+00
  0.00000000E+00  1.03011971E+00  0.00000000E+00  0.00000000E+00  0.00000000E+00
 -3.46694740E-16  1.34510855E-15 -7.52381535E-16 -5.84971981E-16  0.00000000E+00
  0.00000000E+00  0.00000000E+00  0.00000000E+00  0.00000000E+00  0.00000000E+00
  0.00000000E+00  0.00000000E+00  0.00000000E+00  8.04326841E-03  0.00000000E+00
  0.00000000E+00 -7.58626320E-02  0.00000000E+00 -1.08608794E-01  0.00000000E+00
  0.00000000E+00  1.02437822E+00  0.00000000E+00  0.00000000E+00  0.00000000E+00
  0.00000000E+00  0.00000000E+00  0.00000000E+00  0.00000000E+00 -1.10784102E-01
  0.00000000E+00  0.00000000E+00  1.31969211E+00  0.00000000E+00  0.00000000E+00
 -6.64029849E-01  0.00000000E+00  0.00000000E+00  0.00000000E+00  0.00000000E+00
  0.00000000E+00  0.00000000E+00  0.00000000E+00  0.00000000E+00  0.00000000E+00
  0.00000000E+00  0.00000000E+00  0.00000000E+00  0.00000000E+00  0.00000000E+00
 -1.10784102E-01  0.00000000E+00  0.00000000E+00  1.31969211E+00  0.00000000E+00
  0.00000000E+00 -6.64029849E-01  0.00000000E+00  0.00000000E+00  0.00000000E+00
  0.00000000E+00  0.00000000E+00  0.00000000E+00  0.00000000E+00  0.00000000E+00
  0.00000000E+00  0.00000000E+00  0.00000000E+00  0.00000000E+00  0.00000000E+00
  0.00000000E+00  0.00000000E+00  0.00000000E+00  0.00000000E+00 -1.10784102E-01
  0.00000000E+00  0.00000000E+00  1.31969211E+00  0.00000000E+00  0.00000000E+00
 -6.64029849E-01  0.00000000E+00  0.00000000E+00  0.00000000E+00  0.00000000E+00
  0.00000000E+00  0.00000000E+00  0.00000000E+00  0.00000000E+00  0.00000000E+00
  0.00000000E+00  0.00000000E+00 -1.58058543E+00  2.02432474E+00 -1.15061132E+00
  3.11193142E-01  0.00000000E+00  0.00000000E+00  0.00000000E+00  0.00000000E+00
  0.00000000E+00  0.00000000E+00  0.00000000E+00  0.00000000E+00  0.00000000E+00
  2.77626386E-16  0.00000000E+00  0.00000000E+00  1.93940084E-15  0.00000000E+00
  6.96024365E-16  0.00000000E+00  0.00000000E+00 -1.54777519E-15  0.00000000E+00
  3.18553670E-15 -4.06366447E-15  2.00248792E-15 -1.63019891E-16  0.00000000E+00
  0.00000000E+00  0.00000000E+00  0.00000000E+00  0.00000000E+00  0.00000000E+00
  0.00000000E+00  0.00000000E+00  0.00000000E+00 -1.98732410E-01  0.00000000E+00
  0.00000000E+00  1.08466128E+00  0.00000000E+00  7.22363283E-02  0.00000000E+00
  0.00000000E+00 -3.94258533E-01  0.00000000E+00  1.38494719E-15 -2.33901636E-15
  1.70222738E-15 -3.66782800E-16  0.00000000E+00  0.00000000E+00  0.00000000E+00
  0.00000000E+00  0.00000000E+00  0.00000000E+00  0.00000000E+00  0.00000000E+00
  0.00000000E+00  1.08466128E+00  0.00000000E+00  0.00000000E+00  1.98732410E-01
  0.00000000E+00 -3.94258533E-01  0.00000000E+00  0.00000000E+00 -7.22363283E-02
  0.00000000E+00  0.00000000E+00  0.00000000E+00  0.00000000E+00  0.00000000E+00
  0.00000000E+00  0.00000000E+00  0.00000000E+00  0.00000000E+00  0.00000000E+00
  0.00000000E+00  0.00000000E+00  0.00000000E+00  0.00000000E+00  0.00000000E+00
  0.00000000E+00  0.00000000E+00  0.00000000E+00  1.10271694E+00  0.00000000E+00
  0.00000000E+00  0.00000000E+00  0.00000000E+00 -4.00821504E-01  0.00000000E+00
  0.00000000E+00  0.00000000E+00  0.00000000E+00  0.00000000E+00  0.00000000E+00
  0.00000000E+00  0.00000000E+00  0.00000000E+00  0.00000000E+00  0.00000000E+00
  0.00000000E+00  0.00000000E+00  0.00000000E+00  1.10271694E+00  0.00000000E+00
  0.00000000E+00  0.00000000E+00  0.00000000E+00 -4.00821504E-01  0.00000000E+00
  0.00000000E+00  0.00000000E+00  0.00000000E+00  0.00000000E+00  0.00000000E+00
  0.00000000E+00  0.00000000E+00  0.00000000E+00  0.00000000E+00  0.00000000E+00
  0.00000000E+00  0.00000000E+00  0.00000000E+00  0.00000000E+00  0.00000000E+00
  0.00000000E+00  0.00000000E+00  1.10271694E+00  0.00000000E+00  0.00000000E+00
  0.00000000E+00  0.00000000E+00 -4.00821504E-01  0.00000000E+00  0.00000000E+00
  0.00000000E+00  0.00000000E+00  0.00000000E+00  0.00000000E+00  0.00000000E+00
  0.00000000E+00  1.32182866E+00  0.00000000E+00  0.00000000E+00 -9.33092826E-01
  0.00000000E+00  0.00000000E+00  3.01958307E-01  0.00000000E+00  0.00000000E+00
  0.00000000E+00  0.00000000E+00  0.00000000E+00  0.00000000E+00  0.00000000E+00
  0.00000000E+00  0.00000000E+00  0.00000000E+00  0.00000000E+00  0.00000000E+00
  0.00000000E+00  0.00000000E+00  0.00000000E+00  1.32182866E+00  0.00000000E+00
  0.00000000E+00 -9.33092826E-01  0.00000000E+00  0.00000000E+00  3.01958307E-01
  0.00000000E+00  0.00000000E+00  0.00000000E+00  0.00000000E+00  0.00000000E+00
  0.00000000E+00  0.00000000E+00  0.00000000E+00  0.00000000E+00  0.00000000E+00
  0.00000000E+00  0.00000000E+00  0.00000000E+00  0.00000000E+00  0.00000000E+00
  1.32182866E+00  0.00000000E+00  0.00000000E+00 -9.33092826E-01  0.00000000E+00
  0.00000000E+00  3.01958307E-01  0.00000000E+00  0.00000000E+00  0.00000000E+00
  0.00000000E+00  0.00000000E+00  0.00000000E+00  0.00000000E+00  0.00000000E+00
  0.00000000E+00  0.00000000E+00  0.00000000E+00  0.00000000E+00
Orthonormal basis                          R   N=         529
  2.61976069E-01  3.51747861E-01  3.52484943E-01  2.62528839E-01  0.00000000E+00
  0.00000000E+00  0.00000000E+00  0.00000000E+00  0.00000000E+00  0.00000000E+00
  0.00000000E+00  0.00000000E+00  0.00000000E+00  2.50953266E-17  0.00000000E+00
  0.00000000E+00  3.07000802E-17  0.00000000E+00  5.35317326E-17  0.00000000E+00
  0.00000000E+00 -3.11416633E-17  0.00000000E+00  8.62661746E-17  1.28751950E-16
 -9.52729900E-17 -1.34420923E-17  0.00000000E+00  0.00000000E+00  0.00000000E+00
  0.00000000E+00  0.00000000E+00  0.00000000E+00  0.00000000E+00  0.00000000E+00
  0.00000000E+00 -3.26646722E-01  0.00000000E+00  0.00000000E+00  4.93877551E-01
  0.00000000E+00 -3.26646722E-01  0.00000000E+00  0.00000000E+00  4.93877551E-01
  0.00000000E+00  4.12884615E-29  4.51883214E-17 -5.61669785E-17 -1.32498887E-16
  0.00000000E+00  0.00000000E+00  0.00000000E+00  0.00000000E+00  0.00000000E+00
  0.00000000E+00  0.00000000E+00  0.00000000E+00  0.00000000E+00  4.93877551E-01
  0.00000000E+00  0.00000000E+00  3.26646722E-01  0.00000000E+00  4.93877551E-01
  0.00000000E+00  0.00000000E+00  3.26646722E-01  0.00000000E+00  6.50647553E-01
  2.77591622E-01 -2.76071976E-01 -6.50538560E-01  0.00000000E+00  0.00000000E+00
  0.00000000E+00  0.00000000E+00  0.00000000E+00  0.00000000E+00  0.00000000E+00
  0.00000000E+00  0.00000000E+00  1.60590782E-16  0.00000000E+00  0.00000000E+00
 -1.66536421E-16  0.00000000E+00 -2.03700468E-16  0.00000000E+00  0.00000000E+00
 -1.18036335E-16  0.00000000E+00 -4.64860334E-16  2.17740126E-16  1.91106050E-16
 -2.03633626E-16  0.00000000E+00  0.00000000E+00  0.00000000E+00  0.00000000E+00
  0.00000000E+00  0.00000000E+00  0.00000000E+00  0.00000000E+00  0.00000000E+00
  5.45981469E-01  0.00000000E+00  0.00000000E+00  7.57030787E-01  0.00000000E+00
 -5.45981469E-01  0.00000000E+00  0.00000000E+00 -7.57030787E-01  0.00000000E+00
 -1.62448164E-17  2.36130319E-17 -2.86711286E-16  5.80138215E-16  0.00000000E+00
  0.00000000E+00  0.00000000E+00  0.00000000E+00  0.00000000E+00  0.00000000E+00
  0.00000000E+00  0.00000000E+00  0.00000000E+00  7.57030787E-01  0.00000000E+00