Title: naphthalen-2-ol                                                  
Freq      RB3LYP                                                      6-311+G(d,p)        
Number of atoms                            I               19
Info1-9                                    I   N=           9
          29          29        1002           0           0         100
           6          18        -502
Full Title                                 C   N=           2
Title: naphthalen-2-ol  
Route                                      C   N=           4
#p opt freq b3lyp/6-311+g(d,p) em=gd3bj         
Charge                                     I                0
Multiplicity                               I                1
Number of electrons                        I               76
Number of alpha electrons                  I               38
Number of beta electrons                   I               38
Number of basis functions                  I              290
Number of independent functions            I              288
Number of point charges in /Mol/           I                0
Number of translation vectors              I                0
Atomic numbers                             I   N=          19
           6           6           6           6           6           6
           1           1           1           6           6           1
           1           6           6           1           1           8
           1
Nuclear charges                            R   N=          19
  6.00000000E+00  6.00000000E+00  6.00000000E+00  6.00000000E+00  6.00000000E+00
  6.00000000E+00  1.00000000E+00  1.00000000E+00  1.00000000E+00  6.00000000E+00
  6.00000000E+00  1.00000000E+00  1.00000000E+00  6.00000000E+00  6.00000000E+00
  1.00000000E+00  1.00000000E+00  8.00000000E+00  1.00000000E+00
Current cartesian coordinates              R   N=          57
  5.52052209E+00  7.46592849E-01  1.14868237E-04  3.51395657E+00  2.39322511E+00
 -2.68873717E-05  9.92834116E-01  1.48599220E+00 -1.32299898E-04  5.49825060E-01
 -1.18188045E+00 -1.40504404E-04  2.66654115E+00 -2.83145281E+00 -2.99373069E-05
  5.08613591E+00 -1.89184544E+00  1.12706513E-04 -8.04597401E-01  5.15453234E+00
 -3.66467321E-04  7.44012703E+00  1.45941666E+00  2.50317274E-04  3.83213662E+00
  4.41849817E+00  6.99907748E-05 -1.12046609E+00  3.12971154E+00 -1.76491565E-04
 -1.96217382E+00 -2.09802385E+00 -2.57381082E-04  2.33973912E+00 -4.85462270E+00
  1.28217517E-05  6.68108876E+00 -3.17721539E+00  2.57352011E-04 -3.96413535E+00
 -4.42927280E-01  1.09534170E-04 -3.54168879E+00  2.19885484E+00  2.39322476E-04
 -5.14436329E+00  3.48060831E+00  4.49450029E-04 -2.32432034E+00 -4.11306640E+00
 -7.36983086E-04 -6.36156886E+00 -1.41909204E+00  4.05306899E-04 -7.57536469E+00
 -6.48948965E-02 -2.05651524E-03
Number of symbols in /Mol/                 I                0
Int Atom Types                             I   N=          19
           0           0           0           0           0           0
           0           0           0           0           0           0
           0           0           0           0           0           0
           0
Force Field                                I                0
Atom Types                                 C   N=          19
                                                            
                                                            
                                                            
                                                
MM charges                                 R   N=          19
  0.00000000E+00  0.00000000E+00  0.00000000E+00  0.00000000E+00  0.00000000E+00
  0.00000000E+00  0.00000000E+00  0.00000000E+00  0.00000000E+00  0.00000000E+00
  0.00000000E+00  0.00000000E+00  0.00000000E+00  0.00000000E+00  0.00000000E+00
  0.00000000E+00  0.00000000E+00  0.00000000E+00  0.00000000E+00
Integer atomic weights                     I   N=          19
          12          12          12          12          12          12
           1           1           1          12          12           1
           1          12          12           1           1          16
           1
Real atomic weights                        R   N=          19
  1.20000000E+01  1.20000000E+01  1.20000000E+01  1.20000000E+01  1.20000000E+01
  1.20000000E+01  1.00782504E+00  1.00782504E+00  1.00782504E+00  1.20000000E+01
  1.20000000E+01  1.00782504E+00  1.00782504E+00  1.20000000E+01  1.20000000E+01
  1.00782504E+00  1.00782504E+00  1.59949146E+01  1.00782504E+00
Atom fragment info                         I   N=          19
           0           0           0           0           0           0
           0           0           0           0           0           0
           0           0           0           0           0           0
           0
Atom residue num                           I   N=          19
           0           0           0           0           0           0
           0           0           0           0           0           0
           0           0           0           0           0           0
           0
Nuclear spins                              I   N=          19
           0           0           0           0           0           0
           1           1           1           0           0           1
           1           0           0           1           1           0
           1
Nuclear ZEff                               R   N=          19
 -3.60000000E+00 -3.60000000E+00 -3.60000000E+00 -3.60000000E+00 -3.60000000E+00
 -3.60000000E+00 -1.00000000E+00 -1.00000000E+00 -1.00000000E+00 -3.60000000E+00
 -3.60000000E+00 -1.00000000E+00 -1.00000000E+00 -3.60000000E+00 -3.60000000E+00
 -1.00000000E+00 -1.00000000E+00 -5.60000000E+00 -1.00000000E+00
Nuclear ZNuc                               R   N=          19
  6.00000000E+00  6.00000000E+00  6.00000000E+00  6.00000000E+00  6.00000000E+00
  6.00000000E+00  1.00000000E+00  1.00000000E+00  1.00000000E+00  6.00000000E+00
  6.00000000E+00  1.00000000E+00  1.00000000E+00  6.00000000E+00  6.00000000E+00
  1.00000000E+00  1.00000000E+00  8.00000000E+00  1.00000000E+00
Nuclear QMom                               R   N=          19
  0.00000000E+00  0.00000000E+00  0.00000000E+00  0.00000000E+00  0.00000000E+00
  0.00000000E+00  0.00000000E+00  0.00000000E+00  0.00000000E+00  0.00000000E+00
  0.00000000E+00  0.00000000E+00  0.00000000E+00  0.00000000E+00  0.00000000E+00
  0.00000000E+00  0.00000000E+00  0.00000000E+00  0.00000000E+00
Nuclear GFac                               R   N=          19
  0.00000000E+00  0.00000000E+00  0.00000000E+00  0.00000000E+00  0.00000000E+00
  0.00000000E+00  2.79284600E+00  2.79284600E+00  2.79284600E+00  0.00000000E+00
  0.00000000E+00  2.79284600E+00  2.79284600E+00  0.00000000E+00  0.00000000E+00
  2.79284600E+00  2.79284600E+00  0.00000000E+00  2.79284600E+00
MicOpt                                     I   N=          19
          -1          -1          -1          -1          -1          -1
          -1          -1          -1          -1          -1          -1
          -1          -1          -1          -1          -1          -1
          -1
Number of residues                         I                0
Number of secondary structures             I                0
Redundant internal dimensions              I   N=           4
          97          20          31          46
Redundant internal coordinate indices      I   N=         388
           1           2           0           0           1           6
           0           0           1           8           0           0
           2           3           0           0           2           9
           0           0           3           4           0           0
           3          10           0           0           4           5
           0           0           4          11           0           0
           5           6           0           0           5          12
           0           0           6          13           0           0
           7          10           0           0          10          15
           0           0          11          14           0           0
          11          17           0           0          14          15
           0           0          14          18           0           0
          15          16           0           0          18          19
           0           0           2           1           6           0
           2           1           8           0           6           1
           8           0           1           2           3           0
           1           2           9           0           3           2
           9           0           2           3           4           0
           2           3          10           0           4           3
          10           0           3           4           5           0
           3           4          11           0           5           4
          11           0           4           5           6           0
           4           5          12           0           6           5
          12           0           1           6           5           0
           1           6          13           0           5           6
          13           0           3          10           7           0
           3          10          15           0           7          10
          15           0           4          11          14           0
           4          11          17           0          14          11
          17           0          11          14          15           0
          11          14          18           0          15          14
          18           0          10          15          14           0
          10          15          16           0          14          15
          16           0          14          18          19           0
           6           1           2           3           6           1
           2           9           8           1           2           3
           8           1           2           9           2           1
           6           5           2           1           6          13
           8           1           6           5           8           1
           6          13           1           2           3           4
           1           2           3          10           9           2
           3           4           9           2           3          10
           2           3           4           5           2           3
           4          11          10           3           4           5
          10           3           4          11           2           3
          10           7           2           3          10          15
           4           3          10           7           4           3
          10          15           3           4           5           6
           3           4           5          12          11           4
           5           6          11           4           5          12
           3           4          11          14           3           4
          11          17           5           4          11          14
           5           4          11          17           4           5
           6           1           4           5           6          13
          12           5           6           1          12           5
           6          13           3          10          15          14
           3          10          15          16           7          10
          15          14           7          10          15          16
           4          11          14          15           4          11
          14          18          17          11          14          15
          17          11          14          18          11          14
          15          10          11          14          15          16
          18          14          15          10          18          14
          15          16          11          14          18          19
          15          14          18          19
Redundant internal coordinates             R   N=          97
  2.59570857E+00  2.67395736E+00  2.04768185E+00  2.67938986E+00  2.05011452E+00
  2.70440410E+00  2.67728426E+00  2.68357523E+00  2.67384688E+00  2.59563110E+00
  2.04939404E+00  2.04842636E+00  2.04931021E+00  2.59399571E+00  2.59753629E+00
  2.04732675E+00  2.67534556E+00  2.58854885E+00  2.05218361E+00  1.81855885E+00
  2.09481210E+00  2.09884606E+00  2.08952714E+00  2.10897782E+00  2.10215489E+00
  2.07205259E+00  2.08077339E+00  2.13511204E+00  2.06729987E+00  2.06823999E+00
  2.08506437E+00  2.12988095E+00  2.10918923E+00  2.07264539E+00  2.10135068E+00
  2.10437807E+00  2.08594971E+00  2.09285753E+00  2.07710063E+00  2.11350117E+00
  2.09258350E+00  2.10104345E+00  2.09833572E+00  2.08380613E+00  2.10306209E+00
  2.06408697E+00  2.11603624E+00  2.09639962E+00  2.09996255E+00  2.08682314E+00
  1.91490210E+00  1.92761539E-05  3.14153824E+00 -3.14156115E+00 -4.21869559E-05
 -1.91408881E-07 -3.14157459E+00  3.14158030E+00  5.89592835E-06 -2.15875555E-05
  3.14154717E+00 -3.14154180E+00  2.69592976E-05  5.14970420E-06 -3.14158754E+00
 -3.14156454E+00  2.80743967E-05  1.32960966E-04 -3.14135939E+00 -3.14148341E+00
  2.09543933E-04  1.35792590E-05  3.14156564E+00 -3.14157903E+00 -2.69744152E-05
 -2.10576243E-04  3.14132579E+00  3.14138204E+00 -2.66902110E-04 -1.63567719E-05
  3.14155797E+00 -3.14156775E+00  6.58118687E-06 -2.65013993E-04  3.14145183E+00
  3.14142882E+00 -3.96431860E-05  1.60372212E-04 -3.14140539E+00 -3.14137646E+00
  2.43083795E-04  7.80889179E-05  3.14154749E+00 -3.14154227E+00 -7.28660277E-05
 -3.14001474E+00  1.60501801E-03
ZRed-IntVec                                I   N=          97
           0           0           0           0           0           0
           0           0           0           0           0           0
           0           0           0           0           0           0
           0           0           0           0           0           0
           0           0           0           0           0           0
           0           0           0           0           0           0
           0           0           0           0           0           0
           0           0           0           0           0           0
           0           0           0           0           0           0
           0           0           0           0           0           0
           0           0           0           0           0           0
           0           0           0           0           0           0
           0           0           0           0           0           0
           0           0           0           0           0           0
           0           0           0           0           0           0
           0           0           0           0           0           0
           0
ZRed-FPVec                                 R   N=          97
  0.00000000E+00  0.00000000E+00  0.00000000E+00  0.00000000E+00  0.00000000E+00
  0.00000000E+00  0.00000000E+00  0.00000000E+00  0.00000000E+00  0.00000000E+00
  0.00000000E+00  0.00000000E+00  0.00000000E+00  0.00000000E+00  0.00000000E+00
  0.00000000E+00  0.00000000E+00  0.00000000E+00  0.00000000E+00  0.00000000E+00
  0.00000000E+00  0.00000000E+00  0.00000000E+00  0.00000000E+00  0.00000000E+00
  0.00000000E+00  0.00000000E+00  0.00000000E+00  0.00000000E+00  0.00000000E+00
  0.00000000E+00  0.00000000E+00  0.00000000E+00  0.00000000E+00  0.00000000E+00
  0.00000000E+00  0.00000000E+00  0.00000000E+00  0.00000000E+00  0.00000000E+00
  0.00000000E+00  0.00000000E+00  0.00000000E+00  0.00000000E+00  0.00000000E+00
  0.00000000E+00  0.00000000E+00  0.00000000E+00  0.00000000E+00  0.00000000E+00
  0.00000000E+00  0.00000000E+00  0.00000000E+00  0.00000000E+00  0.00000000E+00
  0.00000000E+00  0.00000000E+00  0.00000000E+00  0.00000000E+00  0.00000000E+00
  0.00000000E+00  0.00000000E+00  0.00000000E+00  0.00000000E+00  0.00000000E+00
  0.00000000E+00  0.00000000E+00  0.00000000E+00  0.00000000E+00  0.00000000E+00
  0.00000000E+00  0.00000000E+00  0.00000000E+00  0.00000000E+00  0.00000000E+00
  0.00000000E+00  0.00000000E+00  0.00000000E+00  0.00000000E+00  0.00000000E+00
  0.00000000E+00  0.00000000E+00  0.00000000E+00  0.00000000E+00  0.00000000E+00
  0.00000000E+00  0.00000000E+00  0.00000000E+00  0.00000000E+00  0.00000000E+00
  0.00000000E+00  0.00000000E+00  0.00000000E+00  0.00000000E+00  0.00000000E+00
  0.00000000E+00  0.00000000E+00
ZRed-Constraint1                           R   N=          97
  2.59570857E+00  2.67395736E+00  2.04768185E+00  2.67938986E+00  2.05011452E+00
  2.70440410E+00  2.67728426E+00  2.68357523E+00  2.67384688E+00  2.59563110E+00
  2.04939404E+00  2.04842636E+00  2.04931021E+00  2.59399571E+00  2.59753629E+00
  2.04732675E+00  2.67534556E+00  2.58854885E+00  2.05218361E+00  1.81855885E+00
  2.09481210E+00  2.09884606E+00  2.08952714E+00  2.10897782E+00  2.10215489E+00
  2.07205259E+00  2.08077339E+00  2.13511204E+00  2.06729987E+00  2.06823999E+00
  2.08506437E+00  2.12988095E+00  2.10918923E+00  2.07264539E+00  2.10135068E+00
  2.10437807E+00  2.08594971E+00  2.09285753E+00  2.07710063E+00  2.11350117E+00
  2.09258350E+00  2.10104345E+00  2.09833572E+00  2.08380613E+00  2.10306209E+00
  2.06408697E+00  2.11603624E+00  2.09639962E+00  2.09996255E+00  2.08682314E+00
  1.91490210E+00  1.92761539E-05  3.14153824E+00 -3.14156115E+00 -4.21869611E-05
 -1.91408881E-07 -3.14157459E+00  3.14158030E+00  5.89592835E-06 -2.15875555E-05
  3.14154717E+00 -3.14154180E+00  2.69593017E-05  5.14970420E-06 -3.14158754E+00
 -3.14156454E+00  2.80743927E-05  1.32960967E-04 -3.14135939E+00 -3.14148341E+00
  2.09543934E-04  1.35792590E-05  3.14156564E+00 -3.14157903E+00 -2.69744152E-05
 -2.10576243E-04  3.14132579E+00  3.14138204E+00 -2.66902110E-04 -1.63567719E-05
  3.14155797E+00 -3.14156775E+00  6.58118687E-06 -2.65013993E-04  3.14145183E+00
  3.14142882E+00 -3.96431860E-05  1.60372213E-04 -3.14140539E+00 -3.14137646E+00
  2.43083795E-04  7.80889179E-05  3.14154749E+00 -3.14154227E+00 -7.28660277E-05
 -3.14001474E+00  1.60501801E-03
ZRed-Constraint2                           R   N=          97
  2.59421791E+00  2.67590315E+00  2.07869016E+00  2.68721177E+00  2.07932629E+00
  2.68127130E+00  2.68725468E+00  2.68666042E+00  2.68734825E+00  2.59523675E+00
  2.07909294E+00  2.07861006E+00  2.07927688E+00  2.59448224E+00  2.59433135E+00
  2.02200695E+00  2.67627752E+00  2.70230836E+00  2.07859752E+00  1.81413708E+00
  2.10096262E+00  2.10569929E+00  2.07652340E+00  2.10329539E+00  2.10980979E+00
  2.07008009E+00  2.07861555E+00  2.12407205E+00  2.08049770E+00  2.08061269E+00
  2.07798262E+00  2.12458999E+00  2.10235224E+00  2.07073092E+00  2.11010211E+00
  2.10053209E+00  2.07698931E+00  2.10566390E+00  2.07067518E+00  2.10306540E+00
  2.10944470E+00  2.10397784E+00  2.06980904E+00  2.10939842E+00  2.10079842E+00
  2.10572529E+00  2.07666155E+00  2.10004862E+00  2.10635132E+00  2.07678536E+00
  1.91113553E+00 -1.91545945E-04 -3.14154276E+00  3.14150812E+00  1.56907386E-04
 -5.10776964E-05 -3.14148138E+00  3.14143634E+00  6.04127699E-06  2.98431251E-04
 -3.14137528E+00 -3.14153024E+00 -1.86450686E-05 -1.66819917E-04  3.14149992E+00
  3.14150484E+00 -1.37260645E-05 -2.35945334E-04 -3.14158443E+00  3.14127557E+00
 -7.29132546E-05 -7.04566501E-05 -3.14138021E+00  3.14144605E+00  1.36297138E-04
  2.52429101E-05  3.14156429E+00 -3.14149138E+00  4.76735563E-05  1.81976219E-04
 -3.14157572E+00  3.14148529E+00 -2.72413201E-04  1.47150824E-04  3.14157047E+00
 -3.14119586E+00  2.27456371E-04  4.78579205E-05  3.14131112E+00 -3.14148997E+00
 -2.26706462E-04 -1.35492682E-04 -3.14156166E+00 -3.14140420E+00  3.54948092E-04
  1.92052679E+00 -1.22139076E+00
SymInf integers                            I   N=          26
           1           1           1           1           1           0
           0           0           0           0           0           0
           0           0           0           0           0           0
           0           0           0           0           0           0
           0           0
RotTr to input orientation                 R   N=          12
 -7.62512535E-01 -6.45963496E-01 -3.61358025E-02  6.46479817E-01 -7.62922775E-01
 -3.56158691E-03 -2.52681716E-02 -2.60768217E-02  9.99340542E-01 -3.93615220E+00
  1.09469520E+01 -7.06890976E-01
Number of contracted shells                I               98
Number of primitive shells                 I              191
Pure/Cartesian d shells                    I                0
Pure/Cartesian f shells                    I                0
Highest angular momentum                   I                2
Largest degree of contraction              I                6
Shell types                                I   N=          98
           0          -1          -1          -1          -1          -2
           0          -1          -1          -1          -1          -2
           0          -1          -1          -1          -1          -2
           0          -1          -1          -1          -1          -2
           0          -1          -1          -1          -1          -2
           0          -1          -1          -1          -1          -2
           0           0           0           1           0           0
           0           1           0           0           0           1
           0          -1          -1          -1          -1          -2
           0          -1          -1          -1          -1          -2
           0           0           0           1           0           0
           0           1           0          -1          -1          -1
          -1          -2           0          -1          -1          -1
          -1          -2           0           0           0           1
           0           0           0           1           0          -1
          -1          -1          -1          -2           0           0
           0           1
Number of primitives per shell             I   N=          98
           6           3           1           1           1           1
           6           3           1           1           1           1
           6           3           1           1           1           1
           6           3           1           1           1           1
           6           3           1           1           1           1
           6           3           1           1           1           1
           3           1           1           1           3           1
           1           1           3           1           1           1
           6           3           1           1           1           1
           6           3           1           1           1           1
           3           1           1           1           3           1
           1           1           6           3           1           1
           1           1           6           3           1           1
           1           1           3           1           1           1
           3           1           1           1           6           3
           1           1           1           1           3           1
           1           1
Shell to atom map                          I   N=          98
           1           1           1           1           1           1
           2           2           2           2           2           2
           3           3           3           3           3           3
           4           4           4           4           4           4
           5           5           5           5           5           5
           6           6           6           6           6           6
           7           7           7           7           8           8
           8           8           9           9           9           9
          10          10          10          10          10          10
          11          11          11          11          11          11
          12          12          12          12          13          13
          13          13          14          14          14          14
          14          14          15          15          15          15
          15          15          16          16          16          16
          17          17          17          17          18          18
          18          18          18          18          19          19
          19          19
Primitive exponents                        R   N=         191
  4.56324000E+03  6.82024000E+02  1.54973000E+02  4.44553000E+01  1.30290000E+01
  1.82773000E+00  2.09642000E+01  4.80331000E+00  1.45933000E+00  4.83456000E-01
  1.45585000E-01  4.38000000E-02  6.26000000E-01  4.56324000E+03  6.82024000E+02
  1.54973000E+02  4.44553000E+01  1.30290000E+01  1.82773000E+00  2.09642000E+01
  4.80331000E+00  1.45933000E+00  4.83456000E-01  1.45585000E-01  4.38000000E-02
  6.26000000E-01  4.56324000E+03  6.82024000E+02  1.54973000E+02  4.44553000E+01
  1.30290000E+01  1.82773000E+00  2.09642000E+01  4.80331000E+00  1.45933000E+00
  4.83456000E-01  1.45585000E-01  4.38000000E-02  6.26000000E-01  4.56324000E+03
  6.82024000E+02  1.54973000E+02  4.44553000E+01  1.30290000E+01  1.82773000E+00
  2.09642000E+01  4.80331000E+00  1.45933000E+00  4.83456000E-01  1.45585000E-01
  4.38000000E-02  6.26000000E-01  4.56324000E+03  6.82024000E+02  1.54973000E+02
  4.44553000E+01  1.30290000E+01  1.82773000E+00  2.09642000E+01  4.80331000E+00
  1.45933000E+00  4.83456000E-01  1.45585000E-01  4.38000000E-02  6.26000000E-01
  4.56324000E+03  6.82024000E+02  1.54973000E+02  4.44553000E+01  1.30290000E+01
  1.82773000E+00  2.09642000E+01  4.80331000E+00  1.45933000E+00  4.83456000E-01
  1.45585000E-01  4.38000000E-02  6.26000000E-01  3.38650000E+01  5.09479000E+00
  1.15879000E+00  3.25840000E-01  1.02741000E-01  7.50000000E-01  3.38650000E+01
  5.09479000E+00  1.15879000E+00  3.25840000E-01  1.02741000E-01  7.50000000E-01
  3.38650000E+01  5.09479000E+00  1.15879000E+00  3.25840000E-01  1.02741000E-01
  7.50000000E-01  4.56324000E+03  6.82024000E+02  1.54973000E+02  4.44553000E+01
  1.30290000E+01  1.82773000E+00  2.09642000E+01  4.80331000E+00  1.45933000E+00
  4.83456000E-01  1.45585000E-01  4.38000000E-02  6.26000000E-01  4.56324000E+03
  6.82024000E+02  1.54973000E+02  4.44553000E+01  1.30290000E+01  1.82773000E+00
  2.09642000E+01  4.80331000E+00  1.45933000E+00  4.83456000E-01  1.45585000E-01
  4.38000000E-02  6.26000000E-01  3.38650000E+01  5.09479000E+00  1.15879000E+00
  3.25840000E-01  1.02741000E-01  7.50000000E-01  3.38650000E+01  5.09479000E+00
  1.15879000E+00  3.25840000E-01  1.02741000E-01  7.50000000E-01  4.56324000E+03
  6.82024000E+02  1.54973000E+02  4.44553000E+01  1.30290000E+01  1.82773000E+00
  2.09642000E+01  4.80331000E+00  1.45933000E+00  4.83456000E-01  1.45585000E-01
  4.38000000E-02  6.26000000E-01  4.56324000E+03  6.82024000E+02  1.54973000E+02
  4.44553000E+01  1.30290000E+01  1.82773000E+00  2.09642000E+01  4.80331000E+00
  1.45933000E+00  4.83456000E-01  1.45585000E-01  4.38000000E-02  6.26000000E-01
  3.38650000E+01  5.09479000E+00  1.15879000E+00  3.25840000E-01  1.02741000E-01
  7.50000000E-01  3.38650000E+01  5.09479000E+00  1.15879000E+00  3.25840000E-01
  1.02741000E-01  7.50000000E-01  8.58850000E+03  1.29723000E+03  2.99296000E+02
  8.73771000E+01  2.56789000E+01  3.74004000E+00  4.21175000E+01  9.62837000E+00
  2.85332000E+00  9.05661000E-01  2.55611000E-01  8.45000000E-02  1.29200000E+00
  3.38650000E+01  5.09479000E+00  1.15879000E+00  3.25840000E-01  1.02741000E-01
  7.50000000E-01
Contraction coefficients                   R   N=         191
  1.96665025E-03  1.52306019E-02  7.61269097E-02  2.60801033E-01  6.16462078E-01
  2.21006028E-01  1.14660081E-01  9.19999648E-01 -3.03068213E-03  1.00000000E+00
  1.00000000E+00  1.00000000E+00  1.00000000E+00  1.96665025E-03  1.52306019E-02
  7.61269097E-02  2.60801033E-01  6.16462078E-01  2.21006028E-01  1.14660081E-01
  9.19999648E-01 -3.03068213E-03  1.00000000E+00  1.00000000E+00  1.00000000E+00
  1.00000000E+00  1.96665025E-03  1.52306019E-02  7.61269097E-02  2.60801033E-01
  6.16462078E-01  2.21006028E-01  1.14660081E-01  9.19999648E-01 -3.03068213E-03
  1.00000000E+00  1.00000000E+00  1.00000000E+00  1.00000000E+00  1.96665025E-03
  1.52306019E-02  7.61269097E-02  2.60801033E-01  6.16462078E-01  2.21006028E-01
  1.14660081E-01  9.19999648E-01 -3.03068213E-03  1.00000000E+00  1.00000000E+00
  1.00000000E+00  1.00000000E+00  1.96665025E-03  1.52306019E-02  7.61269097E-02
  2.60801033E-01  6.16462078E-01  2.21006028E-01  1.14660081E-01  9.19999648E-01
 -3.03068213E-03  1.00000000E+00  1.00000000E+00  1.00000000E+00  1.00000000E+00
  1.96665025E-03  1.52306019E-02  7.61269097E-02  2.60801033E-01  6.16462078E-01
  2.21006028E-01  1.14660081E-01  9.19999648E-01 -3.03068213E-03  1.00000000E+00
  1.00000000E+00  1.00000000E+00  1.00000000E+00  2.54938145E-02  1.90373109E-01
  8.52161486E-01  1.00000000E+00  1.00000000E+00  1.00000000E+00  2.54938145E-02
  1.90373109E-01  8.52161486E-01  1.00000000E+00  1.00000000E+00  1.00000000E+00
  2.54938145E-02  1.90373109E-01  8.52161486E-01  1.00000000E+00  1.00000000E+00
  1.00000000E+00  1.96665025E-03  1.52306019E-02  7.61269097E-02  2.60801033E-01
  6.16462078E-01  2.21006028E-01  1.14660081E-01  9.19999648E-01 -3.03068213E-03
  1.00000000E+00  1.00000000E+00  1.00000000E+00  1.00000000E+00  1.96665025E-03
  1.52306019E-02  7.61269097E-02  2.60801033E-01  6.16462078E-01  2.21006028E-01
  1.14660081E-01  9.19999648E-01 -3.03068213E-03  1.00000000E+00  1.00000000E+00