
                                 *****************
                                 * O   R   C   A *
                                 *****************

                                            #,                                       
                                            ###                                      
                                            ####                                     
                                            #####                                    
                                            ######                                   
                                           ########,                                 
                                     ,,################,,,,,                         
                               ,,#################################,,                 
                          ,,##########################################,,             
                       ,#########################################, ''#####,          
                    ,#############################################,,   '####,        
                  ,##################################################,,,,####,       
                ,###########''''           ''''###############################       
              ,#####''   ,,,,##########,,,,          '''####'''          '####       
            ,##' ,,,,###########################,,,                        '##       
           ' ,,###''''                  '''############,,,                           
         ,,##''                                '''############,,,,        ,,,,,,###''
      ,#''                                            '''#######################'''  
     '                                                          ''''####''''         
             ,#######,   #######,   ,#######,      ##                                
            ,#'     '#,  ##    ##  ,#'     '#,    #''#        ######   ,####,        
            ##       ##  ##   ,#'  ##            #'  '#       #        #'  '#        
            ##       ##  #######   ##           ,######,      #####,   #    #        
            '#,     ,#'  ##    ##  '#,     ,#' ,#      #,         ##   #,  ,#        
             '#######'   ##     ##  '#######'  #'      '#     #####' # '####'        



                  #######################################################
                  #                        -***-                        #
                  #          Department of theory and spectroscopy      #
                  #    Directorship and core code : Frank Neese         #
                  #        Max Planck Institute fuer Kohlenforschung    #
                  #                Kaiser Wilhelm Platz 1               #
                  #                 D-45470 Muelheim/Ruhr               #
                  #                      Germany                        #
                  #                                                     #
                  #                  All rights reserved                #
                  #                        -***-                        #
                  #######################################################


                         Program Version 5.0.3 -  RELEASE  -


 With contributions from (in alphabetic order):
   Daniel Aravena         : Magnetic Suceptibility
   Michael Atanasov       : Ab Initio Ligand Field Theory (pilot matlab implementation)
   Alexander A. Auer      : GIAO ZORA, VPT2 properties, NMR spectrum
   Ute Becker             : Parallelization
   Giovanni Bistoni       : ED, misc. LED, open-shell LED, HFLD
   Martin Brehm           : Molecular dynamics
   Dmytro Bykov           : SCF Hessian
   Vijay G. Chilkuri      : MRCI spin determinant printing, contributions to CSF-ICE
   Dipayan Datta          : RHF DLPNO-CCSD density
   Achintya Kumar Dutta   : EOM-CC, STEOM-CC
   Dmitry Ganyushin       : Spin-Orbit,Spin-Spin,Magnetic field MRCI
   Miquel Garcia          : C-PCM and meta-GGA Hessian, CC/C-PCM, Gaussian charge scheme
   Yang Guo               : DLPNO-NEVPT2, F12-NEVPT2, CIM, IAO-localization
   Andreas Hansen         : Spin unrestricted coupled pair/coupled cluster methods
   Benjamin Helmich-Paris : MC-RPA, TRAH-SCF, COSX integrals
   Lee Huntington         : MR-EOM, pCC
   Robert Izsak           : Overlap fitted RIJCOSX, COSX-SCS-MP3, EOM
   Marcus Kettner         : VPT2
   Christian Kollmar      : KDIIS, OOCD, Brueckner-CCSD(T), CCSD density, CASPT2, CASPT2-K
   Simone Kossmann        : Meta GGA functionals, TD-DFT gradient, OOMP2, MP2 Hessian
   Martin Krupicka        : Initial AUTO-CI
   Lucas Lang             : DCDCAS
   Marvin Lechner         : AUTO-CI (C++ implementation), FIC-MRCC
   Dagmar Lenk            : GEPOL surface, SMD
   Dimitrios Liakos       : Extrapolation schemes; Compound Job, initial MDCI parallelization
   Dimitrios Manganas     : Further ROCIS development; embedding schemes
   Dimitrios Pantazis     : SARC Basis sets
   Anastasios Papadopoulos: AUTO-CI, single reference methods and gradients
   Taras Petrenko         : DFT Hessian,TD-DFT gradient, ASA, ECA, R-Raman, ABS, FL, XAS/XES, NRVS
   Peter Pinski           : DLPNO-MP2, DLPNO-MP2 Gradient
   Christoph Reimann      : Effective Core Potentials
   Marius Retegan         : Local ZFS, SOC
   Christoph Riplinger    : Optimizer, TS searches, QM/MM, DLPNO-CCSD(T), (RO)-DLPNO pert. Triples
   Tobias Risthaus        : Range-separated hybrids, TD-DFT gradient, RPA, STAB
   Michael Roemelt        : Original ROCIS implementation
   Masaaki Saitow         : Open-shell DLPNO-CCSD energy and density
   Barbara Sandhoefer     : DKH picture change effects
   Avijit Sen             : IP-ROCIS
   Kantharuban Sivalingam : CASSCF convergence, NEVPT2, FIC-MRCI
   Bernardo de Souza      : ESD, SOC TD-DFT
   Georgi Stoychev        : AutoAux, RI-MP2 NMR, DLPNO-MP2 response
   Willem Van den Heuvel  : Paramagnetic NMR
   Boris Wezisla          : Elementary symmetry handling
   Frank Wennmohs         : Technical directorship


 We gratefully acknowledge several colleagues who have allowed us to
 interface, adapt or use parts of their codes:
   Stefan Grimme, W. Hujo, H. Kruse, P. Pracht,  : VdW corrections, initial TS optimization,
                  C. Bannwarth, S. Ehlert          DFT functionals, gCP, sTDA/sTD-DF
   Ed Valeev, F. Pavosevic, A. Kumar             : LibInt (2-el integral package), F12 methods
   Garnet Chan, S. Sharma, J. Yang, R. Olivares  : DMRG
   Ulf Ekstrom                                   : XCFun DFT Library
   Mihaly Kallay                                 : mrcc  (arbitrary order and MRCC methods)
   Jiri Pittner, Ondrej Demel                    : Mk-CCSD
   Frank Weinhold                                : gennbo (NPA and NBO analysis)
   Christopher J. Cramer and Donald G. Truhlar   : smd solvation model
   Lars Goerigk                                  : TD-DFT with DH, B97 family of functionals
   V. Asgeirsson, H. Jonsson                     : NEB implementation
   FAccTs GmbH                                   : IRC, NEB, NEB-TS, DLPNO-Multilevel, CI-OPT
                                                   MM, QMMM, 2- and 3-layer-ONIOM, Crystal-QMMM,
                                                   LR-CPCM, SF, NACMEs, symmetry and pop. for TD-DFT,
                                                   nearIR, NL-DFT gradient (VV10), updates on ESD,
                                                   ML-optimized integration grids
   S Lehtola, MJT Oliveira, MAL Marques          : LibXC Library
   Liviu Ungur et al                             : ANISO software


 Your calculation uses the libint2 library for the computation of 2-el integrals
 For citations please refer to: http://libint.valeyev.net

 Your ORCA version has been built with support for libXC version: 5.1.0
 For citations please refer to: https://tddft.org/programs/libxc/

 This ORCA versions uses:
   CBLAS   interface :  Fast vector & matrix operations
   LAPACKE interface :  Fast linear algebra routines
   SCALAPACK package :  Parallel linear algebra routines
   Shared memory     :  Shared parallel matrices
   BLAS/LAPACK       :  OpenBLAS 0.3.15  USE64BITINT DYNAMIC_ARCH NO_AFFINITY SkylakeX SINGLE_THREADED
        Core in use  :  SkylakeX
   Copyright (c) 2011-2014, The OpenBLAS Project


Your calculation utilizes the atom-pairwise dispersion correction
with the Becke-Johnson damping scheme (D3BJ)
Cite in your paper:
S.Grimme, S.Ehrlich, L.Goerigk, J Comput Chem, (2011), 32, 1456–1465 
S.Grimme, J.Antony, S.Ehrlich and H.Krieg, J.Chem.Phys., 132, (2010), 154104 
   

================================================================================

----- Orbital basis set information -----
Your calculation utilizes the basis: def2-TZVP
   F. Weigend and R. Ahlrichs, Phys. Chem. Chem. Phys. 7, 3297 (2005).

----- AuxJ basis set information -----
Your calculation utilizes the auxiliary basis: def2/J
   F. Weigend, Phys. Chem. Chem. Phys. 8, 1057 (2006).

================================================================================
                                        WARNINGS
                       Please study these warnings very carefully!
================================================================================


INFO   : the flag for use of the SHARK integral package has been found!

================================================================================
                                       INPUT FILE
================================================================================
NAME = H2O_calc_orca_calc_orca.inp
|  1> ! SP PBE0 RIJCOSX D3BJ def2-TZVP def2/J
|  2> %output 
|  3> xyzfile=True 
|  4> end 
|  5> %scf 
|  6> maxiter 250 
|  7> end
|  8> %output
|  9> Print[P_Hirshfeld] = 1
| 10> end
| 11> % maxcore
| 12> 4000
| 13> *xyz 0 1
| 14> O   -0.00030928   0.39886984   0.00000000 
| 15> H   -0.75397139  -0.20001912   0.00000000 
| 16> H    0.75428067  -0.19885073   0.00000000 
| 17> *
| 18> 
| 19>                          ****END OF INPUT****
================================================================================

                       ****************************
                       * Single Point Calculation *
                       ****************************

---------------------------------
CARTESIAN COORDINATES (ANGSTROEM)
---------------------------------
  O     -0.000309    0.398870    0.000000
  H     -0.753971   -0.200019    0.000000
  H      0.754281   -0.198851    0.000000

----------------------------
CARTESIAN COORDINATES (A.U.)
----------------------------
  NO LB      ZA    FRAG     MASS         X           Y           Z
   0 O     8.0000    0    15.999   -0.000584    0.753755    0.000000
   1 H     1.0000    0     1.008   -1.424799   -0.377981    0.000000
   2 H     1.0000    0     1.008    1.425384   -0.375773    0.000000

--------------------------------
INTERNAL COORDINATES (ANGSTROEM)
--------------------------------
 O      0   0   0     0.000000000000     0.00000000     0.00000000
 H      1   0   0     0.962639373005     0.00000000     0.00000000
 H      1   2   0     0.962640053417   103.14478731     0.00000000

---------------------------
INTERNAL COORDINATES (A.U.)
---------------------------
 O      0   0   0     0.000000000000     0.00000000     0.00000000
 H      1   0   0     1.819124780709     0.00000000     0.00000000
 H      1   2   0     1.819126066501   103.14478731     0.00000000

---------------------
BASIS SET INFORMATION
---------------------
There are 2 groups of distinct atoms

 Group   1 Type O   : 11s6p2d1f contracted to 5s3p2d1f pattern {62111/411/11/1}
 Group   2 Type H   : 5s1p contracted to 3s1p pattern {311/1}

Atom   0O    basis set group =>   1
Atom   1H    basis set group =>   2
Atom   2H    basis set group =>   2
---------------------------------
AUXILIARY/J BASIS SET INFORMATION
---------------------------------
There are 2 groups of distinct atoms

 Group   1 Type O   : 12s5p4d2f1g contracted to 6s4p3d1f1g pattern {711111/2111/211/2/1}
 Group   2 Type H   : 5s2p1d contracted to 3s1p1d pattern {311/2/1}

Atom   0O    basis set group =>   1
Atom   1H    basis set group =>   2
Atom   2H    basis set group =>   2
------------------------------------------------------------------------------
                           ORCA GTO INTEGRAL CALCULATION
                           -- RI-GTO INTEGRALS CHOSEN --
------------------------------------------------------------------------------
------------------------------------------------------------------------------
                   ___                                                        
                  /   \      - P O W E R E D   B Y -                         
                 /     \                                                     
                 |  |  |   _    _      __       _____    __    __             
                 |  |  |  | |  | |    /  \     |  _  \  |  |  /  |          
                  \  \/   | |  | |   /    \    | | | |  |  | /  /          
                 / \  \   | |__| |  /  /\  \   | |_| |  |  |/  /          
                |  |  |   |  __  | /  /__\  \  |    /   |      \           
                |  |  |   | |  | | |   __   |  |    \   |  |\   \          
                \     /   | |  | | |  |  |  |  | |\  \  |  | \   \       
                 \___/    |_|  |_| |__|  |__|  |_| \__\ |__|  \__/        
                                                                              
                      - O R C A' S   B I G   F R I E N D -                    
                                      &                                       
                       - I N T E G R A L  F E E D E R -                       
                                                                              
 v1 FN, 2020, v2 2021                                                         
------------------------------------------------------------------------------


Reading SHARK input file H2O_calc_orca_calc_orca.SHARKINP.tmp ... ok
----------------------
SHARK INTEGRAL PACKAGE
----------------------

Number of atoms                             ...      3
Number of basis functions                   ...     43
Number of shells                            ...     19
Maximum angular momentum                    ...      3
Integral batch strategy                     ... SHARK/LIBINT Hybrid
RI-J (if used) integral strategy            ... SPLIT-RIJ (Revised 2003 algorithm where possible)
Printlevel                                  ...      1
Contraction scheme used                     ... SEGMENTED contraction
Coulomb Range Separation                    ... NOT USED
Exchange Range Separation                   ... NOT USED
Finite Nucleus Model                        ... NOT USED
Auxiliary Coulomb fitting basis             ... AVAILABLE
   # of basis functions in Aux-J            ...     71
   # of shells in Aux-J                     ...     25
   Maximum angular momentum in Aux-J        ...      4
Auxiliary J/K fitting basis                 ... NOT available
Auxiliary Correlation fitting basis         ... NOT available
Auxiliary 'external' fitting basis          ... NOT available
Integral threshold                          ...     1.000000e-10
Primitive cut-off                           ...     1.000000e-11
Primitive pair pre-selection threshold      ...     1.000000e-11

Calculating pre-screening integrals         ... done (  0.1 sec) Dimension = 19
Organizing shell pair data                  ... done (  0.0 sec)
Shell pair information
Total number of shell pairs                 ...       190
Shell pairs after pre-screening             ...       190
Total number of primitive shell pairs       ...       556
Primitive shell pairs kept                  ...       535
          la=0 lb=0:     66 shell pairs
          la=1 lb=0:     55 shell pairs
          la=1 lb=1:     15 shell pairs
          la=2 lb=0:     22 shell pairs
          la=2 lb=1:     10 shell pairs
          la=2 lb=2:      3 shell pairs
          la=3 lb=0:     11 shell pairs
          la=3 lb=1:      5 shell pairs
          la=3 lb=2:      2 shell pairs
          la=3 lb=3:      1 shell pairs

Calculating one electron integrals          ... done (  0.0 sec)
Calculating RI/J V-Matrix + Cholesky decomp.... done (  0.0 sec)
Calculating Nuclear repulsion               ... done (  0.0 sec) ENN=      9.146289836735 Eh

SHARK setup successfully completed in   0.4 seconds

Maximum memory used throughout the entire GTOINT-calculation: 13.8 MB
-------------------------------------------------------------------------------
                                 ORCA SCF
-------------------------------------------------------------------------------

------------
SCF SETTINGS
------------
Hamiltonian:
 Density Functional     Method          .... DFT(GTOs)
 Exchange Functional    Exchange        .... PBE
   PBE kappa parameter   XKappa         ....  0.804000
   PBE mue parameter    XMuePBE         ....  0.219520
 Correlation Functional Correlation     .... PBE
   PBE beta parameter  CBetaPBE         ....  0.066725
 LDA part of GGA corr.  LDAOpt          .... PW91-LDA
 Gradients option       PostSCFGGA      .... off
 Hybrid DFT is turned on
   Fraction HF Exchange ScalHFX         ....  0.250000
   Scaling of DF-GGA-X  ScalDFX         ....  0.750000
   Scaling of DF-GGA-C  ScalDFC         ....  1.000000
   Scaling of DF-LDA-C  ScalLDAC        ....  1.000000
   Perturbative correction              ....  0.000000
   Density functional embedding theory  .... OFF
   NL short-range parameter             ....  6.900000
 RI-approximation to the Coulomb term is turned on
   Number of AuxJ basis functions       .... 71
   RIJ-COSX (HFX calculated with COS-X)).... on


General Settings:
 Integral files         IntName         .... H2O_calc_orca_calc_orca
 Hartree-Fock type      HFTyp           .... RHF
 Total Charge           Charge          ....    0
 Multiplicity           Mult            ....    1
 Number of Electrons    NEL             ....   10
 Basis Dimension        Dim             ....   43
 Nuclear Repulsion      ENuc            ....      9.1462898367 Eh

Convergence Acceleration:
 DIIS                   CNVDIIS         .... on
   Start iteration      DIISMaxIt       ....    12
   Startup error        DIISStart       ....  0.200000
   # of expansion vecs  DIISMaxEq       ....     5
   Bias factor          DIISBfac        ....   1.050
   Max. coefficient     DIISMaxC        ....  10.000
 Trust-Rad. Augm. Hess. CNVTRAH         .... auto
   Auto Start mean grad. ratio tolernc. ....  1.125000
   Auto Start start iteration           ....    20
   Auto Start num. interpolation iter.  ....    10
   Max. Number of Micro iterations      ....    16
   Max. Number of Macro iterations      .... Maxiter - #DIIS iter
   Number of Davidson start vectors     ....     2
   Converg. threshold I  (grad. norm)   ....   5.000e-05
   Converg. threshold II (energy diff.) ....   1.000e-06
   Grad. Scal. Fac. for Micro threshold ....   0.100
   Minimum threshold for Micro iter.    ....   0.010
   NR start threshold (gradient norm)   ....   0.001
   Initial trust radius                 ....   0.400
   Minimum AH scaling param. (alpha)    ....   1.000
   Maximum AH scaling param. (alpha)    .... 1000.000
   Orbital update algorithm             .... Taylor
   White noise on init. David. guess    .... on
   Maximum white noise                  ....   0.010
   Quad. conv. algorithm                .... NR
 SOSCF                  CNVSOSCF        .... on
   Start iteration      SOSCFMaxIt      ....   150
   Startup grad/error   SOSCFStart      ....  0.003300
 Level Shifting         CNVShift        .... on
   Level shift para.    LevelShift      ....    0.2500
   Turn off err/grad.   ShiftErr        ....    0.0010
 Zerner damping         CNVZerner       .... off
 Static damping         CNVDamp         .... on
   Fraction old density DampFac         ....    0.7000
   Max. Damping (<1)    DampMax         ....    0.9800
   Min. Damping (>=0)   DampMin         ....    0.0000
   Turn off err/grad.   DampErr         ....    0.1000
 Fernandez-Rico         CNVRico         .... off

SCF Procedure:
 Maximum # iterations   MaxIter         ....   250
 SCF integral mode      SCFMode         .... Direct
   Integral package                     .... SHARK and LIBINT hybrid scheme
 Reset frequency        DirectResetFreq ....    20
 Integral Threshold     Thresh          ....  1.000e-10 Eh
 Primitive CutOff       TCut            ....  1.000e-11 Eh

Convergence Tolerance:
 Convergence Check Mode ConvCheckMode   .... Total+1el-Energy
 Convergence forced     ConvForced      .... 0
 Energy Change          TolE            ....  1.000e-06 Eh
 1-El. energy change                    ....  1.000e-03 Eh
 Orbital Gradient       TolG            ....  5.000e-05
 Orbital Rotation angle TolX            ....  5.000e-05
 DIIS Error             TolErr          ....  1.000e-06


Diagonalization of the overlap matrix:
Smallest eigenvalue                        ... 8.480e-03
Time for diagonalization                   ...    0.059 sec
Threshold for overlap eigenvalues          ... 1.000e-08
Number of eigenvalues below threshold      ... 0
Time for construction of square roots      ...    0.000 sec
Total time needed                          ...    0.059 sec

Time for model grid setup =    0.015 sec

------------------------------
INITIAL GUESS: MODEL POTENTIAL
------------------------------
Loading Hartree-Fock densities                     ... done
Calculating cut-offs                               ... done
Initializing the effective Hamiltonian             ... done
Setting up the integral package (SHARK)            ... done
Starting the Coulomb interaction                   ... done (   0.0 sec)
Reading the grid                                   ... done
Mapping shells                                     ... done
Starting the XC term evaluation                    ... done (   0.0 sec)
  promolecular density results
     # of electrons  =      9.999264959
     EX              =     -8.729560964
     EC              =     -0.316135992
     EX+EC           =     -9.045696956
Transforming the Hamiltonian                       ... done (   0.0 sec)
Diagonalizing the Hamiltonian                      ... done (   0.0 sec)
Back transforming the eigenvectors                 ... done (   0.0 sec)
Now organizing SCF variables                       ... done
                      ------------------
                      INITIAL GUESS DONE (   0.0 sec)
                      ------------------
-------------------
DFT GRID GENERATION
-------------------

General Integration Accuracy     IntAcc      ... 4.388
Radial Grid Type                 RadialGrid  ... OptM3 with GC (2021)
Angular Grid (max. ang.)         AngularGrid ... 4 (Lebedev-302)
Angular grid pruning method      GridPruning ... 4 (adaptive)
Weight generation scheme         WeightScheme... Becke
Basis function cutoff            BFCut       ... 1.0000e-10
Integration weight cutoff        WCut        ... 1.0000e-14
Angular grids for H and He will be reduced by one unit
Partially contracted basis set               ... off
Rotationally invariant grid construction     ... off

Total number of grid points                  ...    12754
Total number of batches                      ...      200
Average number of points per batch           ...       63
Average number of grid points per atom       ...     4251
Time for grid setup =    0.077 sec

--------------------
COSX GRID GENERATION
--------------------

GRIDX 1
-------
General Integration Accuracy     IntAcc      ... 3.816
Radial Grid Type                 RadialGrid  ... OptM3 with GC (2021)
Angular Grid (max. ang.)         AngularGrid ... 1 (Lebedev-50)
Angular grid pruning method      GridPruning ... 4 (adaptive)
Weight generation scheme         WeightScheme... Becke
Basis function cutoff            BFCut       ... 1.0000e-10
Integration weight cutoff        WCut        ... 1.0000e-14
Angular grids for H and He will be reduced by one unit
Partially contracted basis set               ... on
Rotationally invariant grid construction     ... off

Total number of grid points                  ...     1649
Total number of batches                      ...       27
Average number of points per batch           ...       61
Average number of grid points per atom       ...      550
UseSFitting                                  ... on

GRIDX 2
-------
General Integration Accuracy     IntAcc      ... 4.020
Radial Grid Type                 RadialGrid  ... OptM3 with GC (2021)
Angular Grid (max. ang.)         AngularGrid ... 2 (Lebedev-110)
Angular grid pruning method      GridPruning ... 4 (adaptive)
Weight generation scheme         WeightScheme... Becke
Basis function cutoff            BFCut       ... 1.0000e-10
Integration weight cutoff        WCut        ... 1.0000e-14
Angular grids for H and He will be reduced by one unit
Partially contracted basis set               ... on
Rotationally invariant grid construction     ... off

Total number of grid points                  ...     3493
Total number of batches                      ...       56
Average number of points per batch           ...       62
Average number of grid points per atom       ...     1164
UseSFitting                                  ... on

GRIDX 3
-------
General Integration Accuracy     IntAcc      ... 4.338
Radial Grid Type                 RadialGrid  ... OptM3 with GC (2021)
Angular Grid (max. ang.)         AngularGrid ... 3 (Lebedev-194)
Angular grid pruning method      GridPruning ... 4 (adaptive)
Weight generation scheme         WeightScheme... Becke
Basis function cutoff            BFCut       ... 1.0000e-10
Integration weight cutoff        WCut        ... 1.0000e-14
Angular grids for H and He will be reduced by one unit
Partially contracted basis set               ... on
Rotationally invariant grid construction     ... off

Total number of grid points                  ...     7784
Total number of batches                      ...      123
Average number of points per batch           ...       63
Average number of grid points per atom       ...     2595
UseSFitting                                  ... on

Time for X-Grid setup             =    0.069 sec

--------------
SCF ITERATIONS
--------------
ITER       Energy         Delta-E        Max-DP      RMS-DP      [F,P]     Damp
               ***  Starting incremental Fock matrix formation  ***
  0    -76.2840435646   0.000000000000 0.05453613  0.00363914  0.3266633 0.7000
  1    -76.3302683167  -0.046224752089 0.03291003  0.00219200  0.1364963 0.7000
                               ***Turning on DIIS***
  2    -76.3455162960  -0.015247979224 0.03055906  0.00257248  0.0321421 0.0000
  3    -76.3720032900  -0.026486994003 0.02355369  0.00141164  0.0815585 0.0000
  4    -76.3772959161  -0.005292626134 0.00488198  0.00032064  0.0116685 0.0000
                      *** Initiating the SOSCF procedure ***
                           *** Shutting down DIIS ***
                      *** Re-Reading the Fockian *** 
                      *** Removing any level shift *** 
ITER      Energy       Delta-E        Grad      Rot      Max-DP    RMS-DP
  5    -76.37743111  -0.0001351893  0.000538  0.000538  0.000923  0.000074
               *** Restarting incremental Fock matrix formation ***
  6    -76.37741826   0.0000128465  0.000199  0.000455  0.000514  0.000036
  7    -76.37741849  -0.0000002271  0.000088  0.000100  0.000112  0.000011
                 **** Energy Check signals convergence ****
              ***Rediagonalizing the Fockian in SOSCF/NRSCF***

               *****************************************************
               *                     SUCCESS                       *
               *           SCF CONVERGED AFTER   8 CYCLES          *
               *****************************************************

Old exchange energy                            =     -2.233333368 Eh
New exchange energy                            =     -2.233300792 Eh
Exchange energy change after final integration =      0.000032576 Eh
Total energy after final integration           =    -76.377385914 Eh
Final COS-X integration done in                =     0.244 sec

----------------
TOTAL SCF ENERGY
----------------

Total Energy       :          -76.37738591 Eh           -2078.33433 eV

Components:
Nuclear Repulsion  :            9.14628984 Eh             248.88320 eV
Electronic Energy  :          -85.52367575 Eh           -2327.21753 eV
One Electron Energy:         -123.00730660 Eh           -3347.19898 eV
Two Electron Energy:           37.48363085 Eh            1019.98145 eV
Max COSX asymmetry :            0.00000302 Eh               0.00008 eV

Virial components:
Potential Energy   :         -152.48447288 Eh           -4149.31345 eV
Kinetic Energy     :           76.10708696 Eh            2070.97912 eV
Virial Ratio       :            2.00355156


DFT components:
N(Alpha)           :        4.999999939870 electrons
N(Beta)            :        4.999999939870 electrons
N(Total)           :        9.999999879740 electrons
E(X)               :       -6.695516774395 Eh       
E(C)               :       -0.326982762242 Eh       
E(XC)              :       -7.022499536636 Eh       
DFET-embed. en.    :        0.000000000000 Eh       

---------------
SCF CONVERGENCE
---------------

  Last Energy change         ...   -4.0566e-09  Tolerance :   1.0000e-06
  Last MAX-Density change    ...    2.2204e-16  Tolerance :   1.0000e-05
  Last RMS-Density change    ...    1.3338e-17  Tolerance :   1.0000e-06
  Last Orbital Gradient      ...    7.6935e-05  Tolerance :   5.0000e-05
  Last Orbital Rotation      ...    6.4506e-05  Tolerance :   5.0000e-05

             **** THE GBW FILE WAS UPDATED (H2O_calc_orca_calc_orca.gbw) ****
             **** DENSITY H2O_calc_orca_calc_orca.scfp WAS UPDATED ****
             **** ENERGY FILE WAS UPDATED (H2O_calc_orca_calc_orca.en.tmp) ****
             **** THE GBW FILE WAS UPDATED (H2O_calc_orca_calc_orca.gbw) ****
             **** DENSITY H2O_calc_orca_calc_orca.scfp WAS UPDATED ****
----------------
ORBITAL ENERGIES
----------------

  NO   OCC          E(Eh)            E(eV) 
   0   2.0000     -19.203074      -522.5422 
   1   2.0000      -1.039008       -28.2728 
   2   2.0000      -0.542255       -14.7555 
   3   2.0000      -0.405762       -11.0413 
   4   2.0000      -0.327054        -8.8996 
   5   0.0000       0.030604         0.8328 
   6   0.0000       0.105664         2.8753 
   7   0.0000       0.370065        10.0700 
   8   0.0000       0.425981        11.5915 
   9   0.0000       0.445055        12.1106 
  10   0.0000       0.455787        12.4026 
  11   0.0000       0.588874        16.0241 
  12   0.0000       0.612944        16.6790 
  13   0.0000       1.160160        31.5695 
  14   0.0000       1.200035        32.6546 
  15   0.0000       1.299145        35.3515 
  16   0.0000       1.539362        41.8882 
  17   0.0000       1.653111        44.9834 
  18   0.0000       1.772302        48.2268 
  19   0.0000       2.002270        54.4845 
  20   0.0000       2.077777        56.5392 
  21   0.0000       2.106731        57.3271 
  22   0.0000       2.305044        62.7234 
  23   0.0000       2.376473        64.6671 
  24   0.0000       2.606233        70.9192 
  25   0.0000       2.624867        71.4263 
  26   0.0000       2.640824        71.8605 
  27   0.0000       2.794588        76.0446 
  28   0.0000       3.674001        99.9747 
  29   0.0000       3.936902       107.1286 
  30   0.0000       5.111641       139.0948 
  31   0.0000       5.222782       142.1191 
  32   0.0000       5.390141       146.6732 
  33   0.0000       5.421560       147.5281 
  34   0.0000       5.457505       148.5063 
  35   0.0000       6.063699       165.0016 
  36   0.0000       6.233024       169.6092 
  37   0.0000       6.334257       172.3639 
  38   0.0000       6.389655       173.8713 
  39   0.0000       6.457229       175.7101 
  40   0.0000       6.901612       187.8024 
  41   0.0000       7.030909       191.3208 
  42   0.0000      43.346773      1179.5257 

                    ********************************
                    * MULLIKEN POPULATION ANALYSIS *
                    ********************************

-----------------------
MULLIKEN ATOMIC CHARGES
-----------------------
   0 O :   -0.642714
   1 H :    0.321357
   2 H :    0.321357
Sum of atomic charges:   -0.0000000

--------------------------------
MULLIKEN REDUCED ORBITAL CHARGES
--------------------------------
  0 O s       :     3.813773  s :     3.813773
      pz      :     1.962773  p :     4.804833
      px      :     1.269216
      py      :     1.572844
      dz2     :     0.004700  d :     0.022779
      dxz     :     0.000000
      dyz     :     0.002699
      dx2y2   :     0.000731
      dxy     :     0.014648
      f0      :     0.000144  f :     0.001329
      f+1     :     0.000479
      f-1     :     0.000302
      f+2     :     0.000010
      f-2     :     0.000000
      f+3     :    -0.000001
      f-3     :     0.000396
  1 H s       :     0.630509  s :     0.630509
      pz      :     0.017187  p :     0.048134
      px      :     0.016038
      py      :     0.014909
  2 H s       :     0.630509  s :     0.630509
      pz      :     0.017187  p :     0.048134
      px      :     0.016049
      py      :     0.014898


                     *******************************
                     * LOEWDIN POPULATION ANALYSIS *
                     *******************************

----------------------
LOEWDIN ATOMIC CHARGES
----------------------
   0 O :   -0.310984
   1 H :    0.155492
   2 H :    0.155492

-------------------------------
LOEWDIN REDUCED ORBITAL CHARGES
-------------------------------
  0 O s       :     3.466636  s :     3.466636
      pz      :     1.903578  p :     4.808760
      px      :     1.298004
      py      :     1.607178
      dz2     :     0.006697  d :     0.033143
      dxz     :     0.000000
      dyz     :     0.000958
      dx2y2   :     0.000152
      dxy     :     0.025335
      f0      :     0.000001  f :     0.002445
      f+1     :     0.000748
      f-1     :     0.000352
      f+2     :     0.000000
      f-2     :     0.000000
      f+3     :     0.000314
      f-3     :     0.001032
  1 H s       :     0.683023  s :     0.683023
      pz      :     0.047732  p :     0.161485
      px      :     0.056396
      py      :     0.057358
  2 H s       :     0.683023  s :     0.683023
      pz      :     0.047731  p :     0.161485
      px      :     0.056479
      py      :     0.057274


                      *****************************
                      * MAYER POPULATION ANALYSIS *
                      *****************************

  NA   - Mulliken gross atomic population
  ZA   - Total nuclear charge
  QA   - Mulliken gross atomic charge
  VA   - Mayer's total valence
  BVA  - Mayer's bonded valence
  FA   - Mayer's free valence

  ATOM       NA         ZA         QA         VA         BVA        FA
  0 O      8.6427     8.0000    -0.6427     1.8176     1.8176     0.0000
  1 H      0.6786     1.0000     0.3214     0.9136     0.9136    -0.0000
  2 H      0.6786     1.0000     0.3214     0.9136     0.9136    -0.0000

  Mayer bond orders larger than 0.100000
B(  0-O ,  1-H ) :   0.9088 B(  0-O ,  2-H ) :   0.9088 


------------------
HIRSHFELD ANALYSIS
------------------

Total integrated alpha density =      4.999999940
Total integrated beta density  =      4.999999940

  ATOM     CHARGE      SPIN    
   0 O   -0.313189    0.000000
   1 H    0.156594    0.000000
   2 H    0.156594    0.000000

  TOTAL   0.000000    0.000000

-------
TIMINGS
-------

Total SCF time: 0 days 0 hours 0 min 2 sec 

Total time                  ....       2.347 sec
Sum of individual times     ....       2.208 sec  ( 94.1%)

Fock matrix formation       ....       1.997 sec  ( 85.1%)
  Split-RI-J                ....       0.217 sec  ( 10.9% of F)
  Chain of spheres X        ....       1.208 sec  ( 60.5% of F)
  XC integration            ....       0.568 sec  ( 28.4% of F)
    Basis function eval.    ....       0.216 sec  ( 38.1% of XC)
    Density eval.           ....       0.079 sec  ( 13.9% of XC)
    XC-Functional eval.     ....       0.144 sec  ( 25.3% of XC)
    XC-Potential eval.      ....       0.107 sec  ( 18.9% of XC)
Diagonalization             ....       0.003 sec  (  0.1%)
Density matrix formation    ....       0.000 sec  (  0.0%)
Population analysis         ....       0.026 sec  (  1.1%)
Initial guess               ....       0.019 sec  (  0.8%)
Orbital Transformation      ....       0.000 sec  (  0.0%)
Orbital Orthonormalization  ....       0.000 sec  (  0.0%)
DIIS solution               ....       0.001 sec  (  0.0%)
SOSCF solution              ....       0.001 sec  (  0.0%)
Grid generation             ....       0.161 sec  (  6.8%)

Maximum memory used throughout the entire SCF-calculation: 59.6 MB


-------------------------------------------------------------------------------
                          DFT DISPERSION CORRECTION                            
                                                                               
                              DFTD3 V3.1  Rev 1                                
                          USING Becke-Johnson damping                          
-------------------------------------------------------------------------------
The PBE0 functional is recognized
Active option DFTDOPT                   ...         4   

molecular C6(AA) [au] = 44.533490 


            DFT-D V3
 parameters
 s6 scaling factor         :     1.0000 
 a1 scaling factor         :     0.4145 
 s8 scaling factor         :     1.2177 
 a2 scaling factor         :     4.8593 
 ad hoc parameters k1-k3   :    16.0000     1.3333    -4.0000 

 Edisp/kcal,au: -0.173754060056  -0.000276894690 
 E6   /kcal   :  -0.121412365 
 E8   /kcal   :  -0.052341695 
 % E8         :  30.124012513 

-------------------------   ----------------
Dispersion correction           -0.000276895
-------------------------   ----------------


-------------------------   --------------------
FINAL SINGLE POINT ENERGY       -76.377662808556
-------------------------   --------------------


                            ***************************************
                            *     ORCA property calculations      *
                            ***************************************

                                    ---------------------
                                    Active property flags
                                    ---------------------
   (+) Dipole Moment


------------------------------------------------------------------------------
                       ORCA ELECTRIC PROPERTIES CALCULATION
------------------------------------------------------------------------------

Dipole Moment Calculation                       ... on
Quadrupole Moment Calculation                   ... off
Polarizability Calculation                      ... off
GBWName                                         ... H2O_calc_orca_calc_orca.gbw
Electron density                                ... H2O_calc_orca_calc_orca.scfp
The origin for moment calculation is the CENTER OF MASS  = (-0.000486,  0.627229  0.000000)

-------------
DIPOLE MOMENT
-------------
                                X             Y             Z
Electronic contribution:     -0.00013       0.17031       0.00000
Nuclear contribution   :      0.00077      -0.99601       0.00000
                        -----------------------------------------
Total Dipole Moment    :      0.00064      -0.82570       0.00000
                        -----------------------------------------
Magnitude (a.u.)       :      0.82570
Magnitude (Debye)      :      2.09876



--------------------
Rotational spectrum 
--------------------
 
Rotational constants in cm-1:    26.302838    14.703416     9.431283 
Rotational constants in MHz : 788539.257911 440797.327287 282742.742332 

 Dipole components along the rotational axes: 
x,y,z [a.u.] :    -0.000001    -0.825701     0.000000 
x,y,z [Debye]:    -0.000003    -2.098764     0.000000 

 

Timings for individual modules:

Sum of individual times         ...        2.784 sec (=   0.046 min)
GTO integral calculation        ...        0.408 sec (=   0.007 min)  14.7 %
SCF iterations                  ...        2.375 sec (=   0.040 min)  85.3 %
                             ****ORCA TERMINATED NORMALLY****
TOTAL RUN TIME: 0 days 0 hours 0 minutes 2 seconds 971 msec
